  python dir          : /home/vossj/suncat/lib/python2.7/site-packages/espresso
  espresso dir        : /home/vossj/suncat/esdld/espresso-dynpy-beef/bin
  pseudo dir          : /home/alatimer/bin/psp/esp_psp_w_gbrvRu/
  ase-espresso py git : ffa2778-git



     Program PWSCF v.5.1rc2 (svn rev. ) starts on 12Feb2018 at 18: 4:37 

     This program is part of the open-source Quantum ESPRESSO suite
     for quantum simulation of materials; please cite
         "P. Giannozzi et al., J. Phys.:Condens. Matter 21 395502 (2009);
          URL http://www.quantum-espresso.org", 
     in publications or presentations arising from this work. More details at
     http://www.quantum-espresso.org/quote

     Parallel version (MPI), running on    16 processors
     R & G space division:  proc/nbgrp/npool/nimage =      16
     Reading input from pw.inp
     Message from routine read_cards :
     DEPRECATED: no units specified in CELL_PARAMETERS card

     Current dimensions of program PWSCF are:
     Max number of different atomic species (ntypx) = 10
     Max number of k-points (npk) =  40000
     Max angular momentum in pseudopotentials (lmaxx) =  3

     **************************************************************************
     Initializing libbeef V0.1.1 with the BEEF-vdW functional.
     Citation: Wellendorff et al., PRB 85, 235149 (2012).
     **************************************************************************


     IMPORTANT: XC functional enforced from input :
     Exchange-correlation      = BEEF ( 1  4 27 13 2)
     Any further DFT definition will be discarded
     Please, verify this is what you really want


     Subspace diagonalization in iterative solution of the eigenvalue problem:
     a serial algorithm will be used

 
     Parallelization info
     --------------------
     sticks:   dense  smooth     PW     G-vecs:    dense   smooth      PW
     Min         281     112     31                68535    17318    2565
     Max         282     113     32                68545    17369    2582
     Sum        4501    1795    503              1096637   277353   41113
 
     Generating pointlists ...
     new r_m :   0.4125 (alat units)  0.7795 (a.u.) for type    1
     new r_m :   0.3995 (alat units)  0.7549 (a.u.) for type    2
     new r_m :   0.4125 (alat units)  0.7795 (a.u.) for type    3
     new r_m :   0.3995 (alat units)  0.7549 (a.u.) for type    4


     bravais-lattice index     =            0
     lattice parameter (alat)  =       1.8897  a.u.
     unit-cell volume          =    7990.9933 (a.u.)^3
     number of atoms/cell      =           54
     number of atomic types    =            4
     number of electrons       =       398.00
     number of Kohn-Sham states=          299
     kinetic-energy cutoff     =      40.4243  Ry
     charge density cutoff     =     404.2426  Ry
     convergence threshold     =      7.3E-07
     mixing beta               =       0.1000
     number of iterations used =           10  plain     mixing
     Exchange-correlation      = BEEF ( 1  4 27 13 2)
     nstep                     =           50


     celldm(1)=   1.889726  celldm(2)=   0.000000  celldm(3)=   0.000000
     celldm(4)=   0.000000  celldm(5)=   0.000000  celldm(6)=   0.000000

     crystal axes: (cart. coord. in units of alat)
               a(1) = (   6.590708   0.000000   0.000000 )  
               a(2) = (   0.000000   5.950229   0.000000 )  
               a(3) = (   0.000000   0.000000  30.195235 )  

     reciprocal axes: (cart. coord. in units 2 pi/alat)
               b(1) = (  0.151729  0.000000  0.000000 )  
               b(2) = (  0.000000  0.168061  0.000000 )  
               b(3) = (  0.000000  0.000000  0.033118 )  


     PseudoPot. # 1 for Ti read from file:
     /home/alatimer/bin/psp/esp_psp_w_gbrvRu/Ti.UPF
     MD5 check sum: 8e4df49b7f0d34bbd5052bf3f5ea0213
     Pseudo is Ultrasoft, Zval = 12.0
     Generated by new atomic code, or converted to UPF format
     Using radial grid of  851 points,  6 beta functions with: 
                l(1) =   0
                l(2) =   0
                l(3) =   1
                l(4) =   1
                l(5) =   2
                l(6) =   2
     Q(r) pseudized with  8 coefficients,  rinner =    1.000   1.000   1.000
                                                       1.000   1.000

     PseudoPot. # 2 for  O read from file:
     /home/alatimer/bin/psp/esp_psp_w_gbrvRu/O.UPF
     MD5 check sum: e057bbcf3229fb5d8c36c0c92f9568b4
     Pseudo is Ultrasoft + core correction, Zval =  6.0
     Generated using "atomic" code by A. Dal Corso  v.5.0.2 svn rev. 9415
     Using radial grid of 1095 points,  4 beta functions with: 
                l(1) =   0
                l(2) =   0
                l(3) =   1
                l(4) =   1
     Q(r) pseudized with 0 coefficients 


     PseudoPot. # 3 for  C read from file:
     /home/alatimer/bin/psp/esp_psp_w_gbrvRu/C.UPF
     MD5 check sum: ab446d787031eba755f1d5ee46644bb0
     Pseudo is Ultrasoft + core correction, Zval =  4.0
     Generated using "atomic" code by A. Dal Corso  v.5.0.2 svn rev. 9415
     Using radial grid of 1073 points,  4 beta functions with: 
                l(1) =   0
                l(2) =   0
                l(3) =   1
                l(4) =   1
     Q(r) pseudized with 0 coefficients 


     PseudoPot. # 4 for  H read from file:
     /home/alatimer/bin/psp/esp_psp_w_gbrvRu/H.UPF
     MD5 check sum: bd57da0722753ddfd9833a65b40bb853
     Pseudo is Ultrasoft, Zval =  1.0
     Generated using "atomic" code by A. Dal Corso  v.5.0.2 svn rev. 9415
     Using radial grid of  929 points,  2 beta functions with: 
                l(1) =   0
                l(2) =   0
     Q(r) pseudized with 0 coefficients 


     vdW kernel table read from file vdW_kernel_table
     MD5 check sum: 095c7af220d748ca6e76c0b4c6cfb241

     atomic species   valence    mass     pseudopotential
        Ti1           12.00    47.88000     Ti( 1.00)
        O1             6.00    15.99940      O( 1.00)
        C1             4.00    12.01100      C( 1.00)
        H1             1.00     1.00794      H( 1.00)

     Starting magnetic structure 
     atomic species   magnetization
        Ti1          0.250
        O1           0.500
        C1           0.750
        H1           0.000

     No symmetry found



   Cartesian axes

     site n.     atom                  positions (alat units)
         1           Ti1 tau(   1) = (   1.6476770   0.7437786   2.6545865  )
         2           O1  tau(   2) = (   1.6476770   2.2313359   3.9361215  )
         3           Ti1 tau(   3) = (   1.6476770   2.2313359   5.9499405  )
         4           O1  tau(   4) = (   0.3661420   0.7437786   5.9499405  )
         5           Ti1 tau(   5) = (   1.7592931   0.7557636   9.1813031  )
         6           O1  tau(   6) = (   1.6162490   2.2572048  10.5951269  )
         7           Ti1 tau(   7) = (   1.5595004   2.2680265  12.4668274  )
         8           O1  tau(   8) = (   0.3709531   0.7738127  12.6996540  )
         9           Ti1 tau(   9) = (   1.6476770   3.7188931   2.6545865  )
        10           O1  tau(  10) = (   1.6476770   5.2064503   3.9361215  )
        11           Ti1 tau(  11) = (   1.6476770   5.2064503   5.9499405  )
        12           O1  tau(  12) = (   0.3661420   3.7188931   5.9499405  )
        13           Ti1 tau(  13) = (   1.7607536   3.7112867   9.1949733  )
        14           O1  tau(  14) = (   1.6133076   5.2250699  10.5465640  )
        15           Ti1 tau(  15) = (   1.6492307   5.2431137  12.3448001  )
        16           O1  tau(  16) = (   0.3719744   3.7598389  12.7007434  )
        17           O1  tau(  17) = (   1.6476770   2.2313359   1.3730516  )
        18           Ti1 tau(  18) = (   4.9430310   2.2313359   2.6545865  )
        19           O1  tau(  19) = (   4.9430310   2.2313359   4.6684056  )
        20           O1  tau(  20) = (   6.2245660   0.7437786   2.6545865  )
        21           O1  tau(  21) = (   3.6614961   0.7437786   2.6545865  )
        22           Ti1 tau(  22) = (   4.9430310   0.7437786   5.9499405  )
        23           O1  tau(  23) = (   1.6387103   2.2391978   8.0037664  )
        24           O1  tau(  24) = (   4.9430310   2.2313359   7.2314755  )
        25           O1  tau(  25) = (   2.9292120   0.7437786   5.9499405  )
        26           Ti1 tau(  26) = (   5.0158092   2.2383949   9.3973727  )
        27           O1  tau(  27) = (   4.9391445   2.2276729  11.2675731  )
        28           O1  tau(  28) = (   6.2094020   0.7514556   9.2742047  )
        29           O1  tau(  29) = (   3.6131301   0.7515640   9.2682932  )
        30           Ti1 tau(  30) = (   4.8940083   0.8207741  12.7348365  )
        31           O1  tau(  31) = (   4.8487174   2.2703822  13.8475395  )
        32           O1  tau(  32) = (   2.8766274   0.7418004  12.6316555  )
        33           O1  tau(  33) = (   1.6476770   5.2064503   1.3730516  )
        34           Ti1 tau(  34) = (   4.9430310   5.2064503   2.6545865  )
        35           O1  tau(  35) = (   4.9430310   5.2064503   4.6684056  )
        36           O1  tau(  36) = (   6.2245660   3.7188931   2.6545865  )
        37           O1  tau(  37) = (   3.6614961   3.7188931   2.6545865  )
        38           Ti1 tau(  38) = (   4.9430310   3.7188931   5.9499405  )
        39           O1  tau(  39) = (   1.6418458   5.2133935   8.0066417  )
        40           O1  tau(  40) = (   4.9430310   5.2064503   7.2314755  )
        41           O1  tau(  41) = (   2.9292120   3.7188931   5.9499405  )
        42           Ti1 tau(  42) = (   5.0218241   5.2139137   9.3870600  )
        43           O1  tau(  43) = (   4.9399496   5.2040061  11.2598200  )
        44           O1  tau(  44) = (   6.2073000   3.7245411   9.2731052  )
        45           O1  tau(  45) = (   3.6137513   3.7232133   9.2682466  )
        46           Ti1 tau(  46) = (   4.8936935   3.8094630  12.7397413  )
        47           O1  tau(  47) = (   4.9051259   5.2510468  13.8339921  )
        48           O1  tau(  48) = (   2.8743370   3.7938830  12.6403791  )
        49           C1  tau(  49) = (   1.0587210   2.2268971  15.9066084  )
        50           O1  tau(  50) = (   1.8917182   2.2355032  14.7378010  )
        51           H1  tau(  51) = (   0.0010076   2.2200215  15.5603933  )
        52           H1  tau(  52) = (   2.8355400   2.2288152  14.9543747  )
        53           H1  tau(  53) = (   1.2478062   1.3326534  16.5039879  )
        54           H1  tau(  54) = (   1.2341453   3.1195140  16.5098874  )

     number of k points=    40  Fermi-Dirac smearing, width (Ry)=  0.0073
                       cart. coord. in units 2pi/alat
        k(    1) = (   0.0000000   0.0000000   0.0000000), wk =   0.0277778
        k(    2) = (   0.0000000   0.0280101   0.0000000), wk =   0.0555556
        k(    3) = (   0.0000000   0.0560203   0.0000000), wk =   0.0555556
        k(    4) = (   0.0000000  -0.0840304   0.0000000), wk =   0.0277778
        k(    5) = (   0.0252881   0.0000000   0.0000000), wk =   0.0555556
        k(    6) = (   0.0252881   0.0280101   0.0000000), wk =   0.0555556
        k(    7) = (   0.0252881   0.0560203   0.0000000), wk =   0.0555556
        k(    8) = (   0.0252881  -0.0840304   0.0000000), wk =   0.0555556
        k(    9) = (   0.0505763   0.0000000   0.0000000), wk =   0.0555556
        k(   10) = (   0.0505763   0.0280101   0.0000000), wk =   0.0555556
        k(   11) = (   0.0505763   0.0560203   0.0000000), wk =   0.0555556
        k(   12) = (   0.0505763  -0.0840304   0.0000000), wk =   0.0555556
        k(   13) = (  -0.0758644   0.0000000   0.0000000), wk =   0.0277778
        k(   14) = (  -0.0758644   0.0280101   0.0000000), wk =   0.0555556
        k(   15) = (  -0.0758644   0.0560203   0.0000000), wk =   0.0555556
        k(   16) = (  -0.0758644  -0.0840304   0.0000000), wk =   0.0277778
        k(   17) = (  -0.0252881   0.0280101   0.0000000), wk =   0.0555556
        k(   18) = (  -0.0252881   0.0560203   0.0000000), wk =   0.0555556
        k(   19) = (  -0.0505763   0.0280101   0.0000000), wk =   0.0555556
        k(   20) = (  -0.0505763   0.0560203   0.0000000), wk =   0.0555556
        k(   21) = (   0.0000000   0.0000000   0.0000000), wk =   0.0277778
        k(   22) = (   0.0000000   0.0280101   0.0000000), wk =   0.0555556
        k(   23) = (   0.0000000   0.0560203   0.0000000), wk =   0.0555556
        k(   24) = (   0.0000000  -0.0840304   0.0000000), wk =   0.0277778
        k(   25) = (   0.0252881   0.0000000   0.0000000), wk =   0.0555556
        k(   26) = (   0.0252881   0.0280101   0.0000000), wk =   0.0555556
        k(   27) = (   0.0252881   0.0560203   0.0000000), wk =   0.0555556
        k(   28) = (   0.0252881  -0.0840304   0.0000000), wk =   0.0555556
        k(   29) = (   0.0505763   0.0000000   0.0000000), wk =   0.0555556
        k(   30) = (   0.0505763   0.0280101   0.0000000), wk =   0.0555556
        k(   31) = (   0.0505763   0.0560203   0.0000000), wk =   0.0555556
        k(   32) = (   0.0505763  -0.0840304   0.0000000), wk =   0.0555556
        k(   33) = (  -0.0758644   0.0000000   0.0000000), wk =   0.0277778
        k(   34) = (  -0.0758644   0.0280101   0.0000000), wk =   0.0555556
        k(   35) = (  -0.0758644   0.0560203   0.0000000), wk =   0.0555556
        k(   36) = (  -0.0758644  -0.0840304   0.0000000), wk =   0.0277778
        k(   37) = (  -0.0252881   0.0280101   0.0000000), wk =   0.0555556
        k(   38) = (  -0.0252881   0.0560203   0.0000000), wk =   0.0555556
        k(   39) = (  -0.0505763   0.0280101   0.0000000), wk =   0.0555556
        k(   40) = (  -0.0505763   0.0560203   0.0000000), wk =   0.0555556

     Dense  grid:  1096637 G-vectors     FFT dimensions: (  80,  72, 375)

     Smooth grid:   277353 G-vectors     FFT dimensions: (  54,  45, 240)

     Largest allocated arrays     est. size (Mb)     dimensions
        Kohn-Sham Wavefunctions         9.95 Mb     (    2180,  299)
        NL pseudopotentials            18.89 Mb     (    2180,  568)
        Each V/rho on FFT grid          4.22 Mb     (  138240,   2)
        Each G-vector array             0.52 Mb     (   68538)
        G-vector shells                 0.25 Mb     (   33046)
     Largest temporary arrays     est. size (Mb)     dimensions
        Auxiliary wavefunctions        39.78 Mb     (    2180, 1196)
        Each subspace H/S matrix       21.83 Mb     (    1196, 1196)
        Each <psi_i|beta_j> matrix      2.59 Mb     (     568,  299)
        Arrays for rho mixing          21.09 Mb     (  138240,   10)

     Check: negative/imaginary core charge=   -0.000049    0.000000

     The initial density is read from file :
     ./calc.save/charge-density.dat


     negative rho (up, down):  1.209E-02 1.209E-02


     ************************************************************************
     *
     * You are using vdW-DF for exchange-correlation in this calculation.
     * Please cite the following three references that made this development
     * possible:
     *
     *   M. Dion, H. Rydberg, E. Schroder, D. C. Langreth, and
     *   B. I. Lundqvist, Phys. Rev. Lett. 92, 246401 (2004).
     *
     *   T. Thonhauser, V. R. Cooper, S. Li, A. Puzder, P. Hyldgaard, and
     *   D. C. Langreth, Phys. Rev. B 76, 125112 (2007).
     *
     *   G. Roman-Perez and J. M. Soler, Phys. Rev. Lett. 103, 096102 (2009).
     *
     *
     * If you are using vdW-DF2, please also cite:
     *
     *   K. Lee, E. D. Murray, L. Kong, B. I. Lundqvist, and
     *   D. C. Langreth, Phys. Rev. B 82, 081101(R) (2010).
     *
     *
     * If you are calculating the stress with vdW-DF, please also cite:
     *
     *   R. Sabatini, E. Kucukbenli, B. Kolb, T. Thonhauser, and
     *   S. de Gironcoli, J. Phys.: Condens. Matter 24, 424209 (2012).
     *
     ************************************************************************

     Carrying out vdW-DF run using the following parameters:

     Nqs =      20    Nr_points =    1024   r_max =   100.000
     q_mesh =
               0.00001000     0.04494208     0.09755937     0.15916263
               0.23128650     0.31572767     0.41458969     0.53033537
               0.66584808     0.82450364     1.01025438     1.22772762
               1.48234092     1.78043706     2.12944203     2.53805004
               3.01644009     3.57652955     4.23227104     5.00000000

     Gradients computed in reciprocal space

     ************************************************************************


     Starting wfc are  300 randomized atomic wfcs

     total cpu time spent up to now is       70.5 secs

     Self-consistent Calculation

     iteration #  1     ecut=    40.42 Ry     beta=0.10
     Davidson diagonalization with overlap
     ethr =  1.00E-05,  avg # of iterations = 14.6

     Threshold (ethr) on eigenvalues was too large:
     Diagonalizing with lowered threshold

     Davidson diagonalization with overlap
     ethr =  7.04E-07,  avg # of iterations =  1.0

     negative rho (up, down):  1.209E-02 1.209E-02
 
     Magnetic moment per site:
     atom:    1    charge:    3.1250    magn:   -0.0002    constr:    0.0000
     atom:    2    charge:    1.9452    magn:    0.0000    constr:    0.0000
     atom:    3    charge:    3.1198    magn:    0.0000    constr:    0.0000
     atom:    4    charge:    1.9504    magn:   -0.0001    constr:    0.0000
     atom:    5    charge:    3.1166    magn:    0.0000    constr:    0.0000
     atom:    6    charge:    1.9477    magn:   -0.0001    constr:    0.0000
     atom:    7    charge:    3.1156    magn:    0.0001    constr:    0.0000
     atom:    8    charge:    1.9452    magn:   -0.0001    constr:    0.0000
     atom:    9    charge:    3.1250    magn:   -0.0002    constr:    0.0000
     atom:   10    charge:    1.9452    magn:    0.0000    constr:    0.0000
     atom:   11    charge:    3.1197    magn:    0.0000    constr:    0.0000
     atom:   12    charge:    1.9504    magn:   -0.0001    constr:    0.0000
     atom:   13    charge:    3.1158    magn:    0.0000    constr:    0.0000
     atom:   14    charge:    1.9587    magn:   -0.0001    constr:    0.0000
     atom:   15    charge:    3.1188    magn:    0.0001    constr:    0.0000
     atom:   16    charge:    1.9445    magn:   -0.0001    constr:    0.0000
     atom:   17    charge:    1.9184    magn:    0.0004    constr:    0.0000
     atom:   18    charge:    3.1239    magn:   -0.0001    constr:    0.0000
     atom:   19    charge:    1.9408    magn:   -0.0000    constr:    0.0000
     atom:   20    charge:    1.9471    magn:    0.0000    constr:    0.0000
     atom:   21    charge:    1.9471    magn:    0.0000    constr:    0.0000
     atom:   22    charge:    3.1196    magn:    0.0000    constr:    0.0000
     atom:   23    charge:    1.9566    magn:   -0.0001    constr:    0.0000
     atom:   24    charge:    1.9379    magn:   -0.0001    constr:    0.0000
     atom:   25    charge:    1.9505    magn:   -0.0001    constr:    0.0000
     atom:   26    charge:    3.1145    magn:    0.0001    constr:    0.0000
     atom:   27    charge:    1.9398    magn:   -0.0001    constr:    0.0000
     atom:   28    charge:    1.9517    magn:   -0.0001    constr:    0.0000
     atom:   29    charge:    1.9476    magn:   -0.0001    constr:    0.0000
     atom:   30    charge:    3.1166    magn:    0.0000    constr:    0.0000
     atom:   31    charge:    1.9449    magn:   -0.0000    constr:    0.0000
     atom:   32    charge:    1.9440    magn:   -0.0001    constr:    0.0000
     atom:   33    charge:    1.9184    magn:    0.0004    constr:    0.0000
     atom:   34    charge:    3.1239    magn:   -0.0001    constr:    0.0000
     atom:   35    charge:    1.9408    magn:   -0.0000    constr:    0.0000
     atom:   36    charge:    1.9471    magn:    0.0000    constr:    0.0000
     atom:   37    charge:    1.9471    magn:    0.0000    constr:    0.0000
     atom:   38    charge:    3.1196    magn:    0.0000    constr:    0.0000
     atom:   39    charge:    1.9549    magn:   -0.0001    constr:    0.0000
     atom:   40    charge:    1.9383    magn:   -0.0001    constr:    0.0000
     atom:   41    charge:    1.9505    magn:   -0.0001    constr:    0.0000
     atom:   42    charge:    3.1141    magn:    0.0001    constr:    0.0000
     atom:   43    charge:    1.9413    magn:   -0.0001    constr:    0.0000
     atom:   44    charge:    1.9517    magn:   -0.0001    constr:    0.0000
     atom:   45    charge:    1.9468    magn:   -0.0001    constr:    0.0000
     atom:   46    charge:    3.1165    magn:    0.0000    constr:    0.0000
     atom:   47    charge:    1.9431    magn:   -0.0000    constr:    0.0000
     atom:   48    charge:    1.9444    magn:   -0.0001    constr:    0.0000
     atom:   49    charge:    0.6567    magn:   -0.0001    constr:    0.0000
     atom:   50    charge:    1.9577    magn:   -0.0001    constr:    0.0000
     atom:   51    charge:    0.3868    magn:    0.0000    constr:    0.0000
     atom:   52    charge:    0.4007    magn:    0.0000    constr:    0.0000
     atom:   53    charge:    0.4035    magn:    0.0000    constr:    0.0000
     atom:   54    charge:    0.4041    magn:    0.0000    constr:    0.0000

     total cpu time spent up to now is     1006.9 secs

     total energy              =   -3021.41961749 Ry
     Harris-Foulkes estimate   =   -3021.41993416 Ry
     estimated scf accuracy    <       0.00279654 Ry

     total magnetization       =     0.00 Bohr mag/cell
     absolute magnetization    =     0.01 Bohr mag/cell

     iteration #  2     ecut=    40.42 Ry     beta=0.10
     Davidson diagonalization with overlap
     ethr =  7.03E-07,  avg # of iterations =  2.0

     negative rho (up, down):  1.208E-02 1.208E-02
 
     Magnetic moment per site:
     atom:    1    charge:    3.1250    magn:   -0.0001    constr:    0.0000
     atom:    2    charge:    1.9452    magn:    0.0000    constr:    0.0000
     atom:    3    charge:    3.1198    magn:    0.0000    constr:    0.0000
     atom:    4    charge:    1.9504    magn:   -0.0000    constr:    0.0000
     atom:    5    charge:    3.1166    magn:    0.0000    constr:    0.0000
     atom:    6    charge:    1.9477    magn:   -0.0001    constr:    0.0000
     atom:    7    charge:    3.1156    magn:    0.0000    constr:    0.0000
     atom:    8    charge:    1.9452    magn:   -0.0001    constr:    0.0000
     atom:    9    charge:    3.1250    magn:   -0.0001    constr:    0.0000
     atom:   10    charge:    1.9452    magn:    0.0000    constr:    0.0000
     atom:   11    charge:    3.1197    magn:    0.0000    constr:    0.0000
     atom:   12    charge:    1.9504    magn:   -0.0000    constr:    0.0000
     atom:   13    charge:    3.1158    magn:    0.0000    constr:    0.0000
     atom:   14    charge:    1.9587    magn:   -0.0001    constr:    0.0000
     atom:   15    charge:    3.1188    magn:    0.0000    constr:    0.0000
     atom:   16    charge:    1.9446    magn:   -0.0001    constr:    0.0000
     atom:   17    charge:    1.9184    magn:    0.0003    constr:    0.0000
     atom:   18    charge:    3.1239    magn:   -0.0001    constr:    0.0000
     atom:   19    charge:    1.9408    magn:   -0.0000    constr:    0.0000
     atom:   20    charge:    1.9471    magn:    0.0000    constr:    0.0000
     atom:   21    charge:    1.9471    magn:    0.0000    constr:    0.0000
     atom:   22    charge:    3.1196    magn:    0.0000    constr:    0.0000
     atom:   23    charge:    1.9566    magn:   -0.0001    constr:    0.0000
     atom:   24    charge:    1.9379    magn:   -0.0000    constr:    0.0000
     atom:   25    charge:    1.9505    magn:   -0.0000    constr:    0.0000
     atom:   26    charge:    3.1145    magn:    0.0000    constr:    0.0000
     atom:   27    charge:    1.9398    magn:   -0.0000    constr:    0.0000
     atom:   28    charge:    1.9517    magn:   -0.0001    constr:    0.0000
     atom:   29    charge:    1.9476    magn:   -0.0001    constr:    0.0000
     atom:   30    charge:    3.1166    magn:    0.0000    constr:    0.0000
     atom:   31    charge:    1.9453    magn:   -0.0000    constr:    0.0000
     atom:   32    charge:    1.9440    magn:   -0.0001    constr:    0.0000
     atom:   33    charge:    1.9184    magn:    0.0003    constr:    0.0000
     atom:   34    charge:    3.1239    magn:   -0.0001    constr:    0.0000
     atom:   35    charge:    1.9408    magn:   -0.0000    constr:    0.0000
     atom:   36    charge:    1.9471    magn:    0.0000    constr:    0.0000
     atom:   37    charge:    1.9471    magn:    0.0000    constr:    0.0000
     atom:   38    charge:    3.1196    magn:    0.0000    constr:    0.0000
     atom:   39    charge:    1.9550    magn:   -0.0001    constr:    0.0000
     atom:   40    charge:    1.9383    magn:   -0.0000    constr:    0.0000
     atom:   41    charge:    1.9505    magn:   -0.0000    constr:    0.0000
     atom:   42    charge:    3.1141    magn:    0.0000    constr:    0.0000
     atom:   43    charge:    1.9413    magn:   -0.0000    constr:    0.0000
     atom:   44    charge:    1.9517    magn:   -0.0001    constr:    0.0000
     atom:   45    charge:    1.9469    magn:   -0.0001    constr:    0.0000
     atom:   46    charge:    3.1165    magn:    0.0000    constr:    0.0000
     atom:   47    charge:    1.9431    magn:   -0.0000    constr:    0.0000
     atom:   48    charge:    1.9444    magn:   -0.0001    constr:    0.0000
     atom:   49    charge:    0.6521    magn:   -0.0000    constr:    0.0000
     atom:   50    charge:    1.9576    magn:   -0.0001    constr:    0.0000
     atom:   51    charge:    0.3873    magn:    0.0000    constr:    0.0000
     atom:   52    charge:    0.4008    magn:    0.0000    constr:    0.0000
     atom:   53    charge:    0.4039    magn:    0.0000    constr:    0.0000
     atom:   54    charge:    0.4045    magn:    0.0000    constr:    0.0000

     total cpu time spent up to now is     1195.9 secs

     total energy              =   -3021.41895224 Ry
     Harris-Foulkes estimate   =   -3021.41964098 Ry
     estimated scf accuracy    <       0.00181971 Ry

     total magnetization       =     0.00 Bohr mag/cell
     absolute magnetization    =     0.01 Bohr mag/cell

     iteration #  3     ecut=    40.42 Ry     beta=0.10
     Davidson diagonalization with overlap
     ethr =  4.57E-07,  avg # of iterations =  4.3

     negative rho (up, down):  1.208E-02 1.208E-02
 
     Magnetic moment per site:
     atom:    1    charge:    3.1250    magn:   -0.0001    constr:    0.0000
     atom:    2    charge:    1.9452    magn:    0.0000    constr:    0.0000
     atom:    3    charge:    3.1198    magn:    0.0000    constr:    0.0000
     atom:    4    charge:    1.9504    magn:   -0.0000    constr:    0.0000
     atom:    5    charge:    3.1166    magn:    0.0000    constr:    0.0000
     atom:    6    charge:    1.9476    magn:   -0.0001    constr:    0.0000
     atom:    7    charge:    3.1157    magn:    0.0000    constr:    0.0000
     atom:    8    charge:    1.9452    magn:   -0.0001    constr:    0.0000
     atom:    9    charge:    3.1250    magn:   -0.0001    constr:    0.0000
     atom:   10    charge:    1.9452    magn:    0.0000    constr:    0.0000
     atom:   11    charge:    3.1197    magn:    0.0000    constr:    0.0000
     atom:   12    charge:    1.9504    magn:   -0.0000    constr:    0.0000
     atom:   13    charge:    3.1158    magn:    0.0000    constr:    0.0000
     atom:   14    charge:    1.9587    magn:   -0.0001    constr:    0.0000
     atom:   15    charge:    3.1189    magn:    0.0000    constr:    0.0000
     atom:   16    charge:    1.9445    magn:   -0.0001    constr:    0.0000
     atom:   17    charge:    1.9184    magn:    0.0003    constr:    0.0000
     atom:   18    charge:    3.1239    magn:   -0.0001    constr:    0.0000
     atom:   19    charge:    1.9408    magn:   -0.0000    constr:    0.0000
     atom:   20    charge:    1.9471    magn:    0.0000    constr:    0.0000
     atom:   21    charge:    1.9471    magn:    0.0000    constr:    0.0000
     atom:   22    charge:    3.1196    magn:    0.0000    constr:    0.0000
     atom:   23    charge:    1.9566    magn:   -0.0001    constr:    0.0000
     atom:   24    charge:    1.9379    magn:   -0.0000    constr:    0.0000
     atom:   25    charge:    1.9505    magn:   -0.0000    constr:    0.0000
     atom:   26    charge:    3.1145    magn:    0.0000    constr:    0.0000
     atom:   27    charge:    1.9398    magn:   -0.0000    constr:    0.0000
     atom:   28    charge:    1.9517    magn:   -0.0001    constr:    0.0000
     atom:   29    charge:    1.9476    magn:   -0.0001    constr:    0.0000
     atom:   30    charge:    3.1167    magn:    0.0000    constr:    0.0000
     atom:   31    charge:    1.9448    magn:   -0.0000    constr:    0.0000
     atom:   32    charge:    1.9440    magn:   -0.0001    constr:    0.0000
     atom:   33    charge:    1.9184    magn:    0.0003    constr:    0.0000
     atom:   34    charge:    3.1239    magn:   -0.0001    constr:    0.0000
     atom:   35    charge:    1.9408    magn:   -0.0000    constr:    0.0000
     atom:   36    charge:    1.9471    magn:    0.0000    constr:    0.0000
     atom:   37    charge:    1.9471    magn:    0.0000    constr:    0.0000
     atom:   38    charge:    3.1196    magn:    0.0000    constr:    0.0000
     atom:   39    charge:    1.9549    magn:   -0.0001    constr:    0.0000
     atom:   40    charge:    1.9383    magn:   -0.0000    constr:    0.0000
     atom:   41    charge:    1.9505    magn:   -0.0000    constr:    0.0000
     atom:   42    charge:    3.1141    magn:    0.0000    constr:    0.0000
     atom:   43    charge:    1.9413    magn:   -0.0000    constr:    0.0000
     atom:   44    charge:    1.9517    magn:   -0.0001    constr:    0.0000
     atom:   45    charge:    1.9468    magn:   -0.0001    constr:    0.0000
     atom:   46    charge:    3.1165    magn:    0.0000    constr:    0.0000
     atom:   47    charge:    1.9431    magn:   -0.0000    constr:    0.0000
     atom:   48    charge:    1.9444    magn:   -0.0001    constr:    0.0000
     atom:   49    charge:    0.6527    magn:   -0.0000    constr:    0.0000
     atom:   50    charge:    1.9577    magn:   -0.0000    constr:    0.0000
     atom:   51    charge:    0.3872    magn:    0.0000    constr:    0.0000
     atom:   52    charge:    0.4007    magn:    0.0000    constr:    0.0000
     atom:   53    charge:    0.4037    magn:    0.0000    constr:    0.0000
     atom:   54    charge:    0.4043    magn:    0.0000    constr:    0.0000

     total cpu time spent up to now is     1425.7 secs

     total energy              =   -3021.41921393 Ry
     Harris-Foulkes estimate   =   -3021.41923264 Ry
     estimated scf accuracy    <       0.00021913 Ry

     total magnetization       =     0.00 Bohr mag/cell
     absolute magnetization    =     0.00 Bohr mag/cell

     iteration #  4     ecut=    40.42 Ry     beta=0.10
     Davidson diagonalization with overlap
     ethr =  5.51E-08,  avg # of iterations =  2.0

     negative rho (up, down):  1.208E-02 1.208E-02
 
     Magnetic moment per site:
     atom:    1    charge:    3.1250    magn:   -0.0001    constr:    0.0000
     atom:    2    charge:    1.9452    magn:    0.0000    constr:    0.0000
     atom:    3    charge:    3.1198    magn:    0.0000    constr:    0.0000
     atom:    4    charge:    1.9504    magn:   -0.0000    constr:    0.0000
     atom:    5    charge:    3.1166    magn:    0.0000    constr:    0.0000
     atom:    6    charge:    1.9476    magn:   -0.0000    constr:    0.0000
     atom:    7    charge:    3.1158    magn:    0.0000    constr:    0.0000
     atom:    8    charge:    1.9452    magn:   -0.0000    constr:    0.0000
     atom:    9    charge:    3.1250    magn:   -0.0001    constr:    0.0000
     atom:   10    charge:    1.9452    magn:    0.0000    constr:    0.0000
     atom:   11    charge:    3.1197    magn:    0.0000    constr:    0.0000
     atom:   12    charge:    1.9504    magn:   -0.0000    constr:    0.0000
     atom:   13    charge:    3.1158    magn:    0.0000    constr:    0.0000
     atom:   14    charge:    1.9587    magn:   -0.0000    constr:    0.0000
     atom:   15    charge:    3.1189    magn:    0.0000    constr:    0.0000
     atom:   16    charge:    1.9445    magn:   -0.0000    constr:    0.0000
     atom:   17    charge:    1.9184    magn:    0.0002    constr:    0.0000
     atom:   18    charge:    3.1239    magn:   -0.0000    constr:    0.0000
     atom:   19    charge:    1.9408    magn:   -0.0000    constr:    0.0000
     atom:   20    charge:    1.9471    magn:    0.0000    constr:    0.0000
     atom:   21    charge:    1.9471    magn:    0.0000    constr:    0.0000
     atom:   22    charge:    3.1196    magn:    0.0000    constr:    0.0000
     atom:   23    charge:    1.9566    magn:   -0.0000    constr:    0.0000
     atom:   24    charge:    1.9379    magn:   -0.0000    constr:    0.0000
     atom:   25    charge:    1.9505    magn:   -0.0000    constr:    0.0000
     atom:   26    charge:    3.1145    magn:    0.0000    constr:    0.0000
     atom:   27    charge:    1.9398    magn:   -0.0000    constr:    0.0000
     atom:   28    charge:    1.9517    magn:   -0.0000    constr:    0.0000
     atom:   29    charge:    1.9476    magn:   -0.0000    constr:    0.0000
     atom:   30    charge:    3.1167    magn:    0.0000    constr:    0.0000
     atom:   31    charge:    1.9445    magn:   -0.0000    constr:    0.0000
     atom:   32    charge:    1.9440    magn:   -0.0000    constr:    0.0000
     atom:   33    charge:    1.9184    magn:    0.0002    constr:    0.0000
     atom:   34    charge:    3.1239    magn:   -0.0000    constr:    0.0000
     atom:   35    charge:    1.9408    magn:   -0.0000    constr:    0.0000
     atom:   36    charge:    1.9471    magn:    0.0000    constr:    0.0000
     atom:   37    charge:    1.9471    magn:    0.0000    constr:    0.0000
     atom:   38    charge:    3.1196    magn:    0.0000    constr:    0.0000
     atom:   39    charge:    1.9549    magn:   -0.0000    constr:    0.0000
     atom:   40    charge:    1.9383    magn:   -0.0000    constr:    0.0000
     atom:   41    charge:    1.9505    magn:   -0.0000    constr:    0.0000
     atom:   42    charge:    3.1141    magn:    0.0000    constr:    0.0000
     atom:   43    charge:    1.9413    magn:   -0.0000    constr:    0.0000
     atom:   44    charge:    1.9518    magn:   -0.0000    constr:    0.0000
     atom:   45    charge:    1.9468    magn:   -0.0000    constr:    0.0000
     atom:   46    charge:    3.1165    magn:    0.0000    constr:    0.0000
     atom:   47    charge:    1.9431    magn:   -0.0000    constr:    0.0000
     atom:   48    charge:    1.9444    magn:   -0.0000    constr:    0.0000
     atom:   49    charge:    0.6530    magn:   -0.0000    constr:    0.0000
     atom:   50    charge:    1.9577    magn:   -0.0000    constr:    0.0000
     atom:   51    charge:    0.3869    magn:    0.0000    constr:    0.0000
     atom:   52    charge:    0.4005    magn:    0.0000    constr:    0.0000
     atom:   53    charge:    0.4035    magn:    0.0000    constr:    0.0000
     atom:   54    charge:    0.4041    magn:    0.0000    constr:    0.0000

     total cpu time spent up to now is     1614.1 secs

     total energy              =   -3021.41920908 Ry
     Harris-Foulkes estimate   =   -3021.41921838 Ry
     estimated scf accuracy    <       0.00013003 Ry

     total magnetization       =     0.00 Bohr mag/cell
     absolute magnetization    =     0.00 Bohr mag/cell

     iteration #  5     ecut=    40.42 Ry     beta=0.10
     Davidson diagonalization with overlap
     ethr =  3.27E-08,  avg # of iterations =  3.0

     negative rho (up, down):  1.208E-02 1.208E-02
 
     Magnetic moment per site:
     atom:    1    charge:    3.1250    magn:   -0.0001    constr:    0.0000
     atom:    2    charge:    1.9452    magn:    0.0000    constr:    0.0000
     atom:    3    charge:    3.1198    magn:    0.0000    constr:    0.0000
     atom:    4    charge:    1.9504    magn:   -0.0000    constr:    0.0000
     atom:    5    charge:    3.1166    magn:    0.0000    constr:    0.0000
     atom:    6    charge:    1.9476    magn:   -0.0000    constr:    0.0000
     atom:    7    charge:    3.1157    magn:    0.0000    constr:    0.0000
     atom:    8    charge:    1.9452    magn:   -0.0000    constr:    0.0000
     atom:    9    charge:    3.1250    magn:   -0.0001    constr:    0.0000
     atom:   10    charge:    1.9452    magn:    0.0000    constr:    0.0000
     atom:   11    charge:    3.1197    magn:    0.0000    constr:    0.0000
     atom:   12    charge:    1.9504    magn:   -0.0000    constr:    0.0000
     atom:   13    charge:    3.1158    magn:    0.0000    constr:    0.0000
     atom:   14    charge:    1.9587    magn:   -0.0000    constr:    0.0000
     atom:   15    charge:    3.1188    magn:    0.0000    constr:    0.0000
     atom:   16    charge:    1.9446    magn:   -0.0000    constr:    0.0000
     atom:   17    charge:    1.9184    magn:    0.0002    constr:    0.0000
     atom:   18    charge:    3.1239    magn:   -0.0000    constr:    0.0000
     atom:   19    charge:    1.9408    magn:   -0.0000    constr:    0.0000
     atom:   20    charge:    1.9471    magn:    0.0000    constr:    0.0000
     atom:   21    charge:    1.9471    magn:    0.0000    constr:    0.0000
     atom:   22    charge:    3.1196    magn:    0.0000    constr:    0.0000
     atom:   23    charge:    1.9566    magn:   -0.0000    constr:    0.0000
     atom:   24    charge:    1.9379    magn:   -0.0000    constr:    0.0000
     atom:   25    charge:    1.9505    magn:   -0.0000    constr:    0.0000
     atom:   26    charge:    3.1145    magn:    0.0000    constr:    0.0000
     atom:   27    charge:    1.9398    magn:   -0.0000    constr:    0.0000
     atom:   28    charge:    1.9517    magn:   -0.0000    constr:    0.0000
     atom:   29    charge:    1.9476    magn:   -0.0000    constr:    0.0000
     atom:   30    charge:    3.1166    magn:    0.0000    constr:    0.0000
     atom:   31    charge:    1.9446    magn:   -0.0000    constr:    0.0000
     atom:   32    charge:    1.9440    magn:   -0.0000    constr:    0.0000
     atom:   33    charge:    1.9184    magn:    0.0002    constr:    0.0000
     atom:   34    charge:    3.1239    magn:   -0.0000    constr:    0.0000
     atom:   35    charge:    1.9408    magn:   -0.0000    constr:    0.0000
     atom:   36    charge:    1.9471    magn:    0.0000    constr:    0.0000
     atom:   37    charge:    1.9471    magn:    0.0000    constr:    0.0000
     atom:   38    charge:    3.1196    magn:    0.0000    constr:    0.0000
     atom:   39    charge:    1.9549    magn:   -0.0000    constr:    0.0000
     atom:   40    charge:    1.9383    magn:   -0.0000    constr:    0.0000
     atom:   41    charge:    1.9505    magn:   -0.0000    constr:    0.0000
     atom:   42    charge:    3.1141    magn:    0.0000    constr:    0.0000
     atom:   43    charge:    1.9413    magn:   -0.0000    constr:    0.0000
     atom:   44    charge:    1.9518    magn:   -0.0000    constr:    0.0000
     atom:   45    charge:    1.9468    magn:   -0.0000    constr:    0.0000
     atom:   46    charge:    3.1165    magn:    0.0000    constr:    0.0000
     atom:   47    charge:    1.9431    magn:   -0.0000    constr:    0.0000
     atom:   48    charge:    1.9445    magn:   -0.0000    constr:    0.0000
     atom:   49    charge:    0.6539    magn:   -0.0000    constr:    0.0000
     atom:   50    charge:    1.9578    magn:   -0.0000    constr:    0.0000
     atom:   51    charge:    0.3866    magn:    0.0000    constr:    0.0000
     atom:   52    charge:    0.4004    magn:    0.0000    constr:    0.0000
     atom:   53    charge:    0.4033    magn:    0.0000    constr:    0.0000
     atom:   54    charge:    0.4039    magn:    0.0000    constr:    0.0000

     total cpu time spent up to now is     1819.6 secs

     total energy              =   -3021.41920775 Ry
     Harris-Foulkes estimate   =   -3021.41921724 Ry
     estimated scf accuracy    <       0.00002963 Ry

     total magnetization       =     0.00 Bohr mag/cell
     absolute magnetization    =     0.00 Bohr mag/cell

     iteration #  6     ecut=    40.42 Ry     beta=0.10
     Davidson diagonalization with overlap
     ethr =  7.45E-09,  avg # of iterations =  4.0

     negative rho (up, down):  1.208E-02 1.208E-02
 
     Magnetic moment per site:
     atom:    1    charge:    3.1250    magn:   -0.0001    constr:    0.0000
     atom:    2    charge:    1.9452    magn:    0.0000    constr:    0.0000
     atom:    3    charge:    3.1198    magn:    0.0000    constr:    0.0000
     atom:    4    charge:    1.9504    magn:   -0.0000    constr:    0.0000
     atom:    5    charge:    3.1166    magn:    0.0000    constr:    0.0000
     atom:    6    charge:    1.9477    magn:   -0.0000    constr:    0.0000
     atom:    7    charge:    3.1157    magn:    0.0000    constr:    0.0000
     atom:    8    charge:    1.9452    magn:   -0.0000    constr:    0.0000
     atom:    9    charge:    3.1250    magn:   -0.0001    constr:    0.0000
     atom:   10    charge:    1.9452    magn:    0.0000    constr:    0.0000
     atom:   11    charge:    3.1197    magn:    0.0000    constr:    0.0000
     atom:   12    charge:    1.9504    magn:   -0.0000    constr:    0.0000
     atom:   13    charge:    3.1158    magn:    0.0000    constr:    0.0000
     atom:   14    charge:    1.9587    magn:   -0.0000    constr:    0.0000
     atom:   15    charge:    3.1188    magn:    0.0000    constr:    0.0000
     atom:   16    charge:    1.9445    magn:   -0.0000    constr:    0.0000
     atom:   17    charge:    1.9184    magn:    0.0002    constr:    0.0000
     atom:   18    charge:    3.1239    magn:   -0.0000    constr:    0.0000
     atom:   19    charge:    1.9408    magn:   -0.0000    constr:    0.0000
     atom:   20    charge:    1.9471    magn:    0.0000    constr:    0.0000
     atom:   21    charge:    1.9471    magn:    0.0000    constr:    0.0000
     atom:   22    charge:    3.1196    magn:    0.0000    constr:    0.0000
     atom:   23    charge:    1.9566    magn:   -0.0000    constr:    0.0000
     atom:   24    charge:    1.9379    magn:   -0.0000    constr:    0.0000
     atom:   25    charge:    1.9505    magn:   -0.0000    constr:    0.0000
     atom:   26    charge:    3.1145    magn:    0.0000    constr:    0.0000
     atom:   27    charge:    1.9398    magn:   -0.0000    constr:    0.0000
     atom:   28    charge:    1.9517    magn:   -0.0000    constr:    0.0000
     atom:   29    charge:    1.9476    magn:   -0.0000    constr:    0.0000
     atom:   30    charge:    3.1167    magn:    0.0000    constr:    0.0000
     atom:   31    charge:    1.9446    magn:   -0.0000    constr:    0.0000
     atom:   32    charge:    1.9440    magn:   -0.0000    constr:    0.0000
     atom:   33    charge:    1.9184    magn:    0.0002    constr:    0.0000
     atom:   34    charge:    3.1239    magn:   -0.0000    constr:    0.0000
     atom:   35    charge:    1.9408    magn:   -0.0000    constr:    0.0000
     atom:   36    charge:    1.9471    magn:    0.0000    constr:    0.0000
     atom:   37    charge:    1.9471    magn:    0.0000    constr:    0.0000
     atom:   38    charge:    3.1196    magn:    0.0000    constr:    0.0000
     atom:   39    charge:    1.9549    magn:   -0.0000    constr:    0.0000
     atom:   40    charge:    1.9383    magn:   -0.0000    constr:    0.0000
     atom:   41    charge:    1.9505    magn:   -0.0000    constr:    0.0000
     atom:   42    charge:    3.1141    magn:    0.0000    constr:    0.0000
     atom:   43    charge:    1.9413    magn:   -0.0000    constr:    0.0000
     atom:   44    charge:    1.9517    magn:   -0.0000    constr:    0.0000
     atom:   45    charge:    1.9468    magn:   -0.0000    constr:    0.0000
     atom:   46    charge:    3.1165    magn:    0.0000    constr:    0.0000
     atom:   47    charge:    1.9431    magn:   -0.0000    constr:    0.0000
     atom:   48    charge:    1.9444    magn:   -0.0000    constr:    0.0000
     atom:   49    charge:    0.6542    magn:   -0.0000    constr:    0.0000
     atom:   50    charge:    1.9577    magn:   -0.0000    constr:    0.0000
     atom:   51    charge:    0.3866    magn:    0.0000    constr:    0.0000
     atom:   52    charge:    0.4004    magn:    0.0000    constr:    0.0000
     atom:   53    charge:    0.4033    magn:    0.0000    constr:    0.0000
     atom:   54    charge:    0.4039    magn:    0.0000    constr:    0.0000

     total cpu time spent up to now is     2040.0 secs

     total energy              =   -3021.41921183 Ry
     Harris-Foulkes estimate   =   -3021.41921158 Ry
     estimated scf accuracy    <       0.00000307 Ry

     total magnetization       =     0.00 Bohr mag/cell
     absolute magnetization    =     0.00 Bohr mag/cell

     iteration #  7     ecut=    40.42 Ry     beta=0.10
     Davidson diagonalization with overlap
     ethr =  7.72E-10,  avg # of iterations =  3.0

     negative rho (up, down):  1.208E-02 1.208E-02
 
     Magnetic moment per site:
     atom:    1    charge:    3.1250    magn:   -0.0001    constr:    0.0000
     atom:    2    charge:    1.9452    magn:    0.0000    constr:    0.0000
     atom:    3    charge:    3.1198    magn:    0.0000    constr:    0.0000
     atom:    4    charge:    1.9504    magn:   -0.0000    constr:    0.0000
     atom:    5    charge:    3.1166    magn:    0.0000    constr:    0.0000
     atom:    6    charge:    1.9477    magn:   -0.0000    constr:    0.0000
     atom:    7    charge:    3.1157    magn:    0.0000    constr:    0.0000
     atom:    8    charge:    1.9452    magn:   -0.0000    constr:    0.0000
     atom:    9    charge:    3.1250    magn:   -0.0001    constr:    0.0000
     atom:   10    charge:    1.9452    magn:    0.0000    constr:    0.0000
     atom:   11    charge:    3.1197    magn:    0.0000    constr:    0.0000
     atom:   12    charge:    1.9504    magn:   -0.0000    constr:    0.0000
     atom:   13    charge:    3.1158    magn:    0.0000    constr:    0.0000
     atom:   14    charge:    1.9587    magn:   -0.0000    constr:    0.0000
     atom:   15    charge:    3.1188    magn:    0.0000    constr:    0.0000
     atom:   16    charge:    1.9445    magn:   -0.0000    constr:    0.0000
     atom:   17    charge:    1.9184    magn:    0.0001    constr:    0.0000
     atom:   18    charge:    3.1239    magn:   -0.0000    constr:    0.0000
     atom:   19    charge:    1.9408    magn:   -0.0000    constr:    0.0000
     atom:   20    charge:    1.9471    magn:    0.0000    constr:    0.0000
     atom:   21    charge:    1.9471    magn:    0.0000    constr:    0.0000
     atom:   22    charge:    3.1196    magn:    0.0000    constr:    0.0000
     atom:   23    charge:    1.9566    magn:   -0.0000    constr:    0.0000
     atom:   24    charge:    1.9379    magn:   -0.0000    constr:    0.0000
     atom:   25    charge:    1.9505    magn:   -0.0000    constr:    0.0000
     atom:   26    charge:    3.1145    magn:    0.0000    constr:    0.0000
     atom:   27    charge:    1.9398    magn:   -0.0000    constr:    0.0000
     atom:   28    charge:    1.9517    magn:   -0.0000    constr:    0.0000
     atom:   29    charge:    1.9476    magn:   -0.0000    constr:    0.0000
     atom:   30    charge:    3.1167    magn:    0.0000    constr:    0.0000
     atom:   31    charge:    1.9447    magn:   -0.0000    constr:    0.0000
     atom:   32    charge:    1.9440    magn:   -0.0000    constr:    0.0000
     atom:   33    charge:    1.9184    magn:    0.0001    constr:    0.0000
     atom:   34    charge:    3.1239    magn:   -0.0000    constr:    0.0000
     atom:   35    charge:    1.9408    magn:   -0.0000    constr:    0.0000
     atom:   36    charge:    1.9471    magn:    0.0000    constr:    0.0000
     atom:   37    charge:    1.9471    magn:    0.0000    constr:    0.0000
     atom:   38    charge:    3.1196    magn:    0.0000    constr:    0.0000
     atom:   39    charge:    1.9549    magn:   -0.0000    constr:    0.0000
     atom:   40    charge:    1.9383    magn:   -0.0000    constr:    0.0000
     atom:   41    charge:    1.9505    magn:   -0.0000    constr:    0.0000
     atom:   42    charge:    3.1141    magn:    0.0000    constr:    0.0000
     atom:   43    charge:    1.9413    magn:   -0.0000    constr:    0.0000
     atom:   44    charge:    1.9517    magn:   -0.0000    constr:    0.0000
     atom:   45    charge:    1.9468    magn:   -0.0000    constr:    0.0000
     atom:   46    charge:    3.1165    magn:    0.0000    constr:    0.0000
     atom:   47    charge:    1.9431    magn:   -0.0000    constr:    0.0000
     atom:   48    charge:    1.9444    magn:   -0.0000    constr:    0.0000
     atom:   49    charge:    0.6541    magn:   -0.0000    constr:    0.0000
     atom:   50    charge:    1.9577    magn:   -0.0000    constr:    0.0000
     atom:   51    charge:    0.3866    magn:    0.0000    constr:    0.0000
     atom:   52    charge:    0.4004    magn:    0.0000    constr:    0.0000
     atom:   53    charge:    0.4033    magn:    0.0000    constr:    0.0000
     atom:   54    charge:    0.4039    magn:    0.0000    constr:    0.0000

     total cpu time spent up to now is     2244.2 secs

     total energy              =   -3021.41921188 Ry
     Harris-Foulkes estimate   =   -3021.41921201 Ry
     estimated scf accuracy    <       0.00000125 Ry

     total magnetization       =     0.00 Bohr mag/cell
     absolute magnetization    =     0.00 Bohr mag/cell

     iteration #  8     ecut=    40.42 Ry     beta=0.10
     Davidson diagonalization with overlap
     ethr =  3.15E-10,  avg # of iterations =  3.0

     negative rho (up, down):  1.208E-02 1.208E-02
 
     Magnetic moment per site:
     atom:    1    charge:    3.1250    magn:   -0.0000    constr:    0.0000
     atom:    2    charge:    1.9452    magn:    0.0000    constr:    0.0000
     atom:    3    charge:    3.1198    magn:    0.0000    constr:    0.0000
     atom:    4    charge:    1.9504    magn:   -0.0000    constr:    0.0000
     atom:    5    charge:    3.1166    magn:    0.0000    constr:    0.0000
     atom:    6    charge:    1.9476    magn:   -0.0000    constr:    0.0000
     atom:    7    charge:    3.1157    magn:    0.0000    constr:    0.0000
     atom:    8    charge:    1.9452    magn:   -0.0000    constr:    0.0000
     atom:    9    charge:    3.1250    magn:   -0.0000    constr:    0.0000
     atom:   10    charge:    1.9452    magn:    0.0000    constr:    0.0000
     atom:   11    charge:    3.1197    magn:    0.0000    constr:    0.0000
     atom:   12    charge:    1.9504    magn:   -0.0000    constr:    0.0000
     atom:   13    charge:    3.1158    magn:    0.0000    constr:    0.0000
     atom:   14    charge:    1.9587    magn:   -0.0000    constr:    0.0000
     atom:   15    charge:    3.1188    magn:    0.0000    constr:    0.0000
     atom:   16    charge:    1.9446    magn:   -0.0000    constr:    0.0000
     atom:   17    charge:    1.9184    magn:    0.0001    constr:    0.0000
     atom:   18    charge:    3.1239    magn:   -0.0000    constr:    0.0000
     atom:   19    charge:    1.9408    magn:   -0.0000    constr:    0.0000
     atom:   20    charge:    1.9471    magn:    0.0000    constr:    0.0000
     atom:   21    charge:    1.9471    magn:    0.0000    constr:    0.0000
     atom:   22    charge:    3.1196    magn:    0.0000    constr:    0.0000
     atom:   23    charge:    1.9566    magn:   -0.0000    constr:    0.0000
     atom:   24    charge:    1.9379    magn:   -0.0000    constr:    0.0000
     atom:   25    charge:    1.9505    magn:   -0.0000    constr:    0.0000
     atom:   26    charge:    3.1145    magn:    0.0000    constr:    0.0000
     atom:   27    charge:    1.9398    magn:   -0.0000    constr:    0.0000
     atom:   28    charge:    1.9517    magn:   -0.0000    constr:    0.0000
     atom:   29    charge:    1.9476    magn:   -0.0000    constr:    0.0000
     atom:   30    charge:    3.1166    magn:    0.0000    constr:    0.0000
     atom:   31    charge:    1.9447    magn:   -0.0000    constr:    0.0000
     atom:   32    charge:    1.9440    magn:   -0.0000    constr:    0.0000
     atom:   33    charge:    1.9184    magn:    0.0001    constr:    0.0000
     atom:   34    charge:    3.1239    magn:   -0.0000    constr:    0.0000
     atom:   35    charge:    1.9408    magn:   -0.0000    constr:    0.0000
     atom:   36    charge:    1.9471    magn:    0.0000    constr:    0.0000
     atom:   37    charge:    1.9471    magn:    0.0000    constr:    0.0000
     atom:   38    charge:    3.1196    magn:    0.0000    constr:    0.0000
     atom:   39    charge:    1.9549    magn:   -0.0000    constr:    0.0000
     atom:   40    charge:    1.9383    magn:   -0.0000    constr:    0.0000
     atom:   41    charge:    1.9505    magn:   -0.0000    constr:    0.0000
     atom:   42    charge:    3.1141    magn:    0.0000    constr:    0.0000
     atom:   43    charge:    1.9413    magn:   -0.0000    constr:    0.0000
     atom:   44    charge:    1.9518    magn:   -0.0000    constr:    0.0000
     atom:   45    charge:    1.9468    magn:   -0.0000    constr:    0.0000
     atom:   46    charge:    3.1165    magn:    0.0000    constr:    0.0000
     atom:   47    charge:    1.9431    magn:   -0.0000    constr:    0.0000
     atom:   48    charge:    1.9444    magn:   -0.0000    constr:    0.0000
     atom:   49    charge:    0.6542    magn:   -0.0000    constr:    0.0000
     atom:   50    charge:    1.9577    magn:   -0.0000    constr:    0.0000
     atom:   51    charge:    0.3865    magn:    0.0000    constr:    0.0000
     atom:   52    charge:    0.4004    magn:    0.0000    constr:    0.0000
     atom:   53    charge:    0.4033    magn:    0.0000    constr:    0.0000
     atom:   54    charge:    0.4039    magn:    0.0000    constr:    0.0000

     total cpu time spent up to now is     2450.6 secs

     End of self-consistent calculation

 ------ SPIN UP ------------


          k = 0.0000 0.0000 0.0000 ( 34665 PWs)   bands (ev):

   -57.6999 -57.6649 -57.3189 -57.2827 -57.2337 -57.1110 -57.0746 -57.0737
   -57.0521 -57.0389 -56.9913 -56.9559 -56.7319 -56.6945 -56.1505 -56.1152
   -34.1360 -33.9821 -33.9536 -33.9009 -33.8712 -33.8066 -33.7461 -33.6545
   -33.6196 -33.6064 -33.5689 -33.5419 -33.5199 -33.5089 -33.4909 -33.4867
   -33.4659 -33.4555 -33.4323 -33.4001 -33.3254 -33.2932 -33.2730 -33.2637
   -33.2561 -33.2555 -33.2445 -33.2444 -33.2383 -33.2308 -33.2305 -33.2137
   -33.1816 -33.1813 -33.1759 -33.1422 -33.1196 -32.9980 -32.9798 -32.9588
   -32.9096 -32.8068 -32.5683 -32.5028 -32.4767 -32.3725 -32.2808 -32.1725
   -20.3028 -18.0138 -17.8425 -17.5582 -17.4631 -17.3739 -17.2530 -17.0788
   -17.0675 -16.9757 -16.9400 -16.8854 -16.7852 -16.7789 -16.7304 -16.7086
   -16.7049 -16.6639 -16.6123 -16.6059 -16.5372 -16.4168 -16.4043 -16.3993
   -16.3226 -16.2690 -16.1959 -16.1687 -16.1512 -15.9817 -15.9313 -14.7349
   -14.6512 -11.4040  -7.2415  -5.4557  -5.3929  -5.2904  -5.2053  -5.2020
    -5.1465  -5.1250  -4.8403  -4.8183  -4.4732  -4.4441  -4.3605  -4.3565
    -4.3219  -4.2335  -4.0911  -4.0627  -4.0571  -4.0190  -4.0005  -3.9923
    -3.9618  -3.9527  -3.9515  -3.8412  -3.7896  -3.7671  -3.7367  -3.7167
    -3.6337  -3.6183  -3.5883  -3.5790  -3.5211  -3.5084  -3.4097  -3.3927
    -3.3688  -3.2601  -3.2276  -3.1722  -3.0148  -2.9370  -2.8800  -2.8295
    -2.6950  -2.6085  -2.5911  -2.5812  -2.5738  -2.5698  -2.4333  -2.4156
    -2.3373  -2.2703  -2.2482  -2.2060  -2.2016  -2.1673  -2.1398  -2.0941
    -2.0491  -2.0304  -2.0214  -1.8849  -1.8673  -1.7633  -1.7373  -1.6254
    -1.5443  -1.5424  -1.4914  -1.4819  -1.4640  -1.4246  -1.3232  -1.3106
    -1.3036  -1.2811  -1.2440  -1.1369  -1.0878  -1.0833  -1.0685  -1.0215
    -0.9556  -0.9167  -0.8217  -0.7663  -0.6116  -0.5886  -0.5704  -0.4806
    -0.3776  -0.2432  -0.0859  -0.0277   0.1302   0.2471   0.2607   1.6416
     1.6740   1.9845   2.0010   2.0642   2.0941   2.2038   2.2427   2.2858
     2.4287   2.4960   2.5248   2.5297   2.5408   2.6299   2.6479   2.6561
     2.7141   2.7984   2.8259   2.8378   2.9098   2.9985   3.0321   3.0980
     3.1042   3.1130   3.1599   3.2010   3.2070   3.2255   3.2387   3.2502
     3.2596   3.2877   3.3955   3.4306   3.4554   3.4651   3.5273   3.5845
     3.6519   3.6937   3.8066   3.9802   4.0152   4.0903   4.1789   4.3183
     4.3374   4.3908   4.5848   4.5983   4.8097   4.8375   5.0857   5.1656
     5.2449   5.3296   5.4787   5.5164   5.5285   5.5920   5.6767   5.7107
     5.7987   5.8641   5.8753   5.8852   5.9535   6.0392   6.0470   6.0719
     6.1434   6.2280   6.2422   6.2959   6.3770   6.5814   6.6350   6.7556
     6.8400   7.0082   7.0386   7.1573   7.3013   7.5797   7.9123   8.2528
     8.3365   8.6766   8.7938   8.8683   8.9388   9.0052   9.1738   9.2424
     9.3515   9.3816   9.5268

          k = 0.0000 0.0280 0.0000 ( 34717 PWs)   bands (ev):

   -57.6976 -57.6673 -57.3165 -57.2851 -57.2333 -57.1087 -57.0767 -57.0716
   -57.0525 -57.0413 -56.9890 -56.9583 -56.7295 -56.6970 -56.1481 -56.1176
   -34.1106 -33.9801 -33.9555 -33.8947 -33.8453 -33.8131 -33.7731 -33.6318
   -33.6128 -33.5814 -33.5436 -33.5389 -33.5218 -33.5019 -33.4938 -33.4855
   -33.4728 -33.4630 -33.4303 -33.3931 -33.3192 -33.2915 -33.2868 -33.2653
   -33.2604 -33.2537 -33.2516 -33.2409 -33.2392 -33.2374 -33.2370 -33.2190
   -33.2038 -33.1865 -33.1784 -33.1461 -33.1429 -32.9942 -32.9784 -32.9602
   -32.9146 -32.8348 -32.5426 -32.5011 -32.4786 -32.3664 -32.2871 -32.2000
   -20.3026 -17.9520 -17.7849 -17.5052 -17.4109 -17.3303 -17.2264 -17.0926
   -17.0372 -16.9995 -16.9941 -16.8871 -16.8208 -16.7628 -16.7082 -16.6907
   -16.6771 -16.6664 -16.6582 -16.6430 -16.5962 -16.4407 -16.3856 -16.3694
   -16.3493 -16.2985 -16.2130 -16.1753 -16.1549 -16.0126 -15.9682 -14.7450
   -14.6746 -11.4036  -7.2412  -5.4065  -5.3129  -5.2401  -5.2063  -5.1311
    -5.0694  -5.0467  -4.7648  -4.7039  -4.4367  -4.4010  -4.3952  -4.3130
    -4.3018  -4.1610  -4.1253  -4.1148  -4.0927  -4.0717  -4.0339  -4.0322
    -3.9668  -3.9623  -3.9509  -3.8927  -3.8543  -3.8474  -3.8387  -3.7662
    -3.7222  -3.7078  -3.6671  -3.6172  -3.5767  -3.5564  -3.4296  -3.3542
    -3.2998  -3.2366  -3.1816  -3.0996  -2.9355  -2.8722  -2.7434  -2.7253
    -2.6149  -2.6007  -2.5258  -2.5110  -2.4792  -2.4400  -2.4133  -2.4092
    -2.3876  -2.3631  -2.2894  -2.2780  -2.1693  -2.1436  -2.1374  -2.0956
    -2.0233  -1.9989  -1.9553  -1.8769  -1.8117  -1.7682  -1.7084  -1.6834
    -1.6440  -1.6265  -1.5650  -1.5269  -1.4820  -1.4394  -1.4366  -1.3974
    -1.3550  -1.2725  -1.2194  -1.2150  -1.1606  -1.0915  -1.0719  -1.0234
    -1.0106  -0.9057  -0.8688  -0.7922  -0.7625  -0.7078  -0.6094  -0.5924
    -0.3959  -0.2714  -0.0927  -0.0819   0.1451   0.2007   0.2273   1.7279
     1.7738   1.9848   2.0638   2.1293   2.1504   2.2173   2.2730   2.3117
     2.4233   2.4601   2.4979   2.5341   2.5847   2.6020   2.6292   2.6904
     2.7315   2.7694   2.7958   2.9111   2.9213   2.9500   2.9748   3.0089
     3.1098   3.1155   3.1334   3.1738   3.1913   3.2041   3.2570   3.3030
     3.3343   3.3697   3.4057   3.4721   3.5053   3.5507   3.5604   3.6479
     3.6636   3.6843   3.7702   3.9583   4.0327   4.1134   4.1900   4.2850
     4.3221   4.3947   4.5398   4.6877   4.8634   4.9240   5.0895   5.2573
     5.3029   5.3341   5.5362   5.5670   5.6023   5.6254   5.6848   5.7194
     5.7831   5.7914   5.8504   5.8767   5.8977   5.9467   6.0684   6.1220
     6.1484   6.1560   6.1755   6.2059   6.2740   6.5575   6.6015   6.6936
     6.8462   6.9472   6.9784   7.0795   7.2298   7.5890   7.9189   8.0141
     8.0595   8.4556   8.5667   8.8423   8.9102   8.9925   9.0867   9.1316
     9.2674   9.4312   9.4955

          k = 0.0000 0.0560 0.0000 ( 34721 PWs)   bands (ev):

   -57.6912 -57.6737 -57.3100 -57.2916 -57.2325 -57.1027 -57.0828 -57.0652
   -57.0534 -57.0477 -56.9825 -56.9648 -56.7229 -56.7036 -56.1417 -56.1240
   -34.0409 -33.9748 -33.9605 -33.8777 -33.8461 -33.8305 -33.7742 -33.5972
   -33.5741 -33.5731 -33.5360 -33.5286 -33.5076 -33.5053 -33.4779 -33.4735
   -33.4574 -33.4275 -33.4201 -33.3737 -33.3174 -33.3142 -33.3140 -33.3027
   -33.2872 -33.2774 -33.2689 -33.2650 -33.2546 -33.2476 -33.2354 -33.2333
   -33.2114 -33.1995 -33.1719 -33.1664 -33.1278 -32.9891 -32.9748 -32.9635
   -32.9275 -32.9044 -32.4963 -32.4833 -32.4719 -32.3498 -32.3040 -32.2741
   -20.3023 -17.7809 -17.6263 -17.3738 -17.2771 -17.2614 -17.2202 -17.1681
   -17.1374 -16.9637 -16.9544 -16.9199 -16.8750 -16.8209 -16.7895 -16.7267
   -16.7172 -16.6853 -16.6264 -16.5981 -16.5415 -16.5061 -16.4241 -16.3792
   -16.3638 -16.3031 -16.2421 -16.1964 -16.1585 -16.1131 -16.0412 -14.7632
   -14.7252 -11.4028  -7.2402  -5.3587  -5.2171  -5.0770  -5.0364  -4.9254
    -4.8595  -4.8248  -4.5631  -4.5053  -4.4739  -4.4187  -4.4106  -4.3676
    -4.3323  -4.2611  -4.2361  -4.2130  -4.1974  -4.1879  -4.1563  -4.0762
    -4.0588  -4.0075  -3.9886  -3.9701  -3.9318  -3.8926  -3.8580  -3.8180
    -3.7981  -3.7319  -3.6365  -3.5870  -3.4346  -3.4277  -3.3055  -3.2671
    -3.2398  -3.2132  -3.1911  -3.0821  -2.8832  -2.8444  -2.8357  -2.7999
    -2.7231  -2.6693  -2.5484  -2.4745  -2.4444  -2.3234  -2.3162  -2.3125
    -2.3042  -2.2502  -2.2083  -2.1805  -2.1491  -2.1181  -2.0331  -2.0115
    -1.9620  -1.9488  -1.9187  -1.9063  -1.8847  -1.8503  -1.8180  -1.7835
    -1.7462  -1.6947  -1.6263  -1.5433  -1.5286  -1.5111  -1.4569  -1.4213
    -1.3818  -1.3658  -1.3510  -1.2917  -1.2406  -1.2185  -1.1574  -1.1046
    -1.0847  -1.0250  -0.9249  -0.8926  -0.8521  -0.7863  -0.7645  -0.6613
    -0.5883  -0.4646  -0.2434   0.0900   0.1423   0.1773   0.1840   1.8635
     2.0235   2.0963   2.1079   2.2083   2.2332   2.2681   2.3651   2.3878
     2.3946   2.4099   2.4329   2.4748   2.5020   2.5366   2.6729   2.6939
     2.7325   2.7739   2.8289   2.9022   2.9140   2.9367   2.9704   2.9718
     3.0138   3.0972   3.1360   3.1556   3.2487   3.2602   3.2848   3.3280
     3.3668   3.3848   3.4392   3.5359   3.5421   3.6349   3.6754   3.7255
     3.7587   3.8218   3.8563   3.8887   3.9301   4.1291   4.1403   4.1571
     4.3260   4.3743   4.5624   4.9047   5.0143   5.0604   5.1725   5.3770
     5.3807   5.4768   5.5167   5.5481   5.6467   5.7215   5.7228   5.7319
     5.7779   5.7862   5.7982   5.8547   5.8839   5.9468   5.9764   5.9901
     6.0000   6.0532   6.1540   6.1698   6.3040   6.3719   6.4100   6.6142
     6.6596   6.7797   6.8691   7.0415   7.2162   7.3336   7.4435   7.7328
     8.0790   8.2064   8.3426   8.6166   8.8933   8.9904   9.3017   9.3325
     9.4228   9.4425   9.5510

          k = 0.0000-0.0840 0.0000 ( 34678 PWs)   bands (ev):

   -57.6826 -57.6824 -57.3025 -57.2992 -57.2321 -57.0972 -57.0883 -57.0565
   -57.0564 -57.0538 -56.9742 -56.9731 -56.7158 -56.7107 -56.1329 -56.1329
   -33.9677 -33.9675 -33.9443 -33.9442 -33.8542 -33.8541 -33.6874 -33.6634
   -33.5673 -33.5639 -33.5298 -33.5193 -33.5149 -33.4782 -33.4545 -33.4252
   -33.4152 -33.4087 -33.3764 -33.3761 -33.3638 -33.3483 -33.3424 -33.3254
   -33.3241 -33.2861 -33.2793 -33.2771 -33.2703 -33.2685 -33.2339 -33.2321
   -33.2169 -33.2150 -33.1650 -33.1642 -33.0505 -33.0298 -32.9717 -32.9664
   -32.9415 -32.9384 -32.4898 -32.4898 -32.3740 -32.3739 -32.3269 -32.3269
   -20.3022 -17.5702 -17.5067 -17.4115 -17.3912 -17.2305 -17.1766 -17.0673
   -17.0631 -17.0171 -17.0045 -16.9908 -16.8732 -16.8408 -16.8408 -16.8021
   -16.7955 -16.5976 -16.5956 -16.5270 -16.5246 -16.4897 -16.4883 -16.4060
   -16.4041 -16.2643 -16.2623 -16.2025 -16.1984 -16.1344 -16.1034 -14.7619
   -14.7618 -11.4024  -7.2397  -5.3478  -5.2230  -4.8009  -4.7345  -4.7334
    -4.6560  -4.6436  -4.6385  -4.6031  -4.5722  -4.5112  -4.5017  -4.4019
    -4.3746  -4.3406  -4.3385  -4.3099  -4.2967  -4.2814  -4.2762  -4.0560
    -4.0344  -4.0249  -4.0121  -3.9937  -3.9443  -3.8108  -3.7944  -3.7845
    -3.7168  -3.6958  -3.6412  -3.5039  -3.4742  -3.3406  -3.3276  -3.2174
    -3.1398  -3.1173  -3.0451  -3.0198  -2.9642  -2.9200  -2.8037  -2.7897
    -2.6990  -2.6944  -2.5782  -2.5406  -2.5143  -2.4963  -2.4748  -2.4487
    -2.4399  -2.4165  -2.3316  -2.2466  -2.0297  -2.0085  -1.9692  -1.9424
    -1.9288  -1.8294  -1.8238  -1.8103  -1.7824  -1.7459  -1.7322  -1.7010
    -1.6665  -1.6418  -1.6153  -1.5600  -1.5169  -1.4889  -1.4825  -1.4543
    -1.4265  -1.4187  -1.4112  -1.3836  -1.3607  -1.3277  -1.2227  -1.1889
    -1.1025  -1.0741  -1.0125  -0.9793  -0.9720  -0.9612  -0.9452  -0.5255
    -0.5204  -0.4582  -0.4441   0.1423   0.1424   0.1850   0.1868   2.0379
     2.0411   2.2172   2.2187   2.2195   2.2354   2.2834   2.3384   2.3459
     2.3460   2.3711   2.3818   2.5263   2.5527   2.5537   2.5997   2.6630
     2.7138   2.7358   2.7487   2.8901   2.9213   2.9885   2.9961   3.0558
     3.0570   3.1007   3.1114   3.1787   3.2168   3.2319   3.2447   3.4024
     3.4248   3.4359   3.4386   3.4716   3.4824   3.7235   3.7643   3.8028
     3.8057   3.8306   3.9077   3.9300   3.9673   4.0723   4.0746   4.1246
     4.1253   4.4171   4.6706   4.9591   4.9993   5.2592   5.3283   5.4561
     5.4878   5.5071   5.5072   5.5726   5.5974   5.6454   5.6638   5.6697
     5.7978   5.8028   5.8250   5.8506   5.8606   5.8654   5.8818   5.9725
     6.0188   6.0582   6.0704   6.1578   6.1952   6.4052   6.4663   6.5639
     6.6037   6.7465   6.7728   6.9802   7.0306   7.1013   7.3283   7.7003
     7.8862   8.1674   8.4091   8.7829   8.8377   8.8592   9.1571   9.6648
     9.7015   9.7408   9.7728

          k = 0.0253 0.0000 0.0000 ( 34707 PWs)   bands (ev):

   -57.6999 -57.6649 -57.3189 -57.2827 -57.2337 -57.1109 -57.0746 -57.0738
   -57.0521 -57.0389 -56.9914 -56.9559 -56.7319 -56.6945 -56.1505 -56.1152
   -34.1363 -33.9821 -33.9536 -33.9002 -33.8713 -33.8067 -33.7462 -33.6552
   -33.6196 -33.6081 -33.5692 -33.5385 -33.5336 -33.5097 -33.4867 -33.4761
   -33.4646 -33.4555 -33.4324 -33.3931 -33.3252 -33.2934 -33.2727 -33.2638
   -33.2596 -33.2587 -33.2455 -33.2425 -33.2408 -33.2309 -33.2306 -33.2136
   -33.1815 -33.1813 -33.1763 -33.1422 -33.1197 -32.9980 -32.9822 -32.9580
   -32.9096 -32.8069 -32.5682 -32.5038 -32.4762 -32.3725 -32.2809 -32.1726
   -20.3026 -17.9839 -17.8026 -17.5159 -17.4342 -17.3573 -17.2596 -17.1456
   -17.0934 -16.9765 -16.9396 -16.8725 -16.8200 -16.8069 -16.7907 -16.7815
   -16.7311 -16.6939 -16.5578 -16.5353 -16.4551 -16.4537 -16.4052 -16.3713
   -16.3402 -16.3136 -16.1845 -16.1665 -16.1525 -15.9815 -15.9310 -14.7338
   -14.6511 -11.4028  -7.2388  -5.4436  -5.2871  -5.2597  -5.2010  -5.0986
    -5.0455  -5.0168  -4.8350  -4.8136  -4.6188  -4.4702  -4.4367  -4.3319
    -4.3124  -4.3025  -4.2489  -4.0982  -4.0378  -4.0338  -3.9976  -3.9460
    -3.9389  -3.9107  -3.8317  -3.8005  -3.7525  -3.7194  -3.6956  -3.6933
    -3.6214  -3.5992  -3.5713  -3.5638  -3.5177  -3.4476  -3.3186  -3.3067
    -3.2515  -3.2240  -3.1671  -3.1076  -3.0350  -2.9775  -2.9223  -2.8971
    -2.7470  -2.6753  -2.6328  -2.6015  -2.5804  -2.5303  -2.5209  -2.5044
    -2.4332  -2.3366  -2.3235  -2.2378  -2.2219  -2.1831  -2.1594  -2.0717
    -2.0104  -2.0005  -1.9643  -1.8823  -1.8513  -1.7542  -1.7405  -1.6519
    -1.5868  -1.5832  -1.5391  -1.4647  -1.4592  -1.3676  -1.3588  -1.3455
    -1.3382  -1.2912  -1.2750  -1.1910  -1.1281  -1.1184  -1.0799  -1.0485
    -0.9740  -0.9161  -0.8309  -0.7873  -0.7755  -0.6522  -0.6437  -0.5519
    -0.4222  -0.2376  -0.1169  -0.0550   0.1161   0.2043   0.2052   1.6609
     1.7240   2.0002   2.0704   2.1475   2.2221   2.2368   2.2687   2.3770
     2.3842   2.4566   2.5033   2.5211   2.5402   2.5772   2.5963   2.6351
     2.6547   2.7332   2.7564   2.8659   2.8828   2.9687   3.0295   3.1028
     3.1201   3.1427   3.1614   3.2023   3.2073   3.2527   3.2685   3.3386
     3.3761   3.4009   3.4497   3.4719   3.5346   3.5592   3.5907   3.5988
     3.6630   3.7288   3.7460   3.9127   4.0008   4.0952   4.1731   4.2751
     4.3733   4.3931   4.5520   4.6740   4.8622   4.9106   4.9250   5.0687
     5.1202   5.1449   5.1875   5.3501   5.5683   5.6218   5.6928   5.8651
     5.8817   5.9238   5.9581   6.0297   6.0792   6.1147   6.1594   6.2084
     6.2178   6.2508   6.2576   6.3069   6.4476   6.5236   6.6418   6.6669
     6.8199   6.8677   7.0331   7.1462   7.3012   7.7451   7.8539   8.0848
     8.3344   8.3542   8.4280   8.6812   8.8447   8.9624   9.1449   9.3455
     9.3623   9.4596   9.4852

          k = 0.0253 0.0280 0.0000 ( 34687 PWs)   bands (ev):

   -57.6976 -57.6673 -57.3165 -57.2851 -57.2333 -57.1087 -57.0767 -57.0716
   -57.0525 -57.0413 -56.9890 -56.9583 -56.7295 -56.6970 -56.1481 -56.1176
   -34.1109 -33.9801 -33.9555 -33.8940 -33.8454 -33.8130 -33.7732 -33.6325
   -33.6128 -33.5831 -33.5438 -33.5357 -33.5231 -33.5173 -33.4941 -33.4735
   -33.4672 -33.4618 -33.4304 -33.3864 -33.3191 -33.2916 -33.2845 -33.2652
   -33.2604 -33.2554 -33.2538 -33.2488 -33.2388 -33.2374 -33.2362 -33.2178
   -33.2040 -33.1865 -33.1784 -33.1460 -33.1429 -32.9942 -32.9805 -32.9594
   -32.9146 -32.8348 -32.5425 -32.5020 -32.4780 -32.3664 -32.2871 -32.2000
   -20.3024 -17.9237 -17.7459 -17.4647 -17.3844 -17.3102 -17.2331 -17.1293
   -17.0989 -17.0072 -16.9642 -16.8597 -16.8313 -16.8067 -16.7851 -16.7712
   -16.7139 -16.7012 -16.6013 -16.5809 -16.5075 -16.4763 -16.3827 -16.3662
   -16.3573 -16.3305 -16.2016 -16.1748 -16.1546 -16.0130 -15.9679 -14.7440
   -14.6746 -11.4024  -7.2383  -5.4061  -5.2290  -5.2052  -5.1816  -5.0222
    -4.9672  -4.9366  -4.7598  -4.7010  -4.5629  -4.4041  -4.3719  -4.3466
    -4.2607  -4.2538  -4.1877  -4.1193  -4.0868  -4.0656  -4.0339  -4.0220
    -3.9771  -3.9436  -3.9139  -3.8685  -3.8231  -3.8107  -3.7852  -3.7201
    -3.6975  -3.6646  -3.6162  -3.6062  -3.5419  -3.5247  -3.3487  -3.2789
    -3.2526  -3.2056  -3.1439  -3.0707  -2.9828  -2.9510  -2.7826  -2.7056
    -2.6805  -2.6369  -2.6109  -2.5357  -2.5043  -2.4551  -2.4486  -2.4216
    -2.4060  -2.3868  -2.3412  -2.3033  -2.2169  -2.1790  -2.1169  -2.1014
    -2.0678  -1.9957  -1.9500  -1.8924  -1.8660  -1.8272  -1.7629  -1.6753
    -1.6459  -1.6177  -1.5897  -1.5633  -1.5100  -1.4629  -1.4411  -1.4014
    -1.3457  -1.3289  -1.2703  -1.2564  -1.2087  -1.1097  -1.0987  -1.0617
    -1.0119  -0.8883  -0.8405  -0.8362  -0.7656  -0.7402  -0.6974  -0.6597
    -0.4332  -0.2823  -0.1352  -0.0867   0.1482   0.1776   0.1878   1.7199
     1.8441   2.0155   2.0979   2.1946   2.2436   2.2810   2.3153   2.3959
     2.4166   2.4660   2.4879   2.5235   2.5318   2.5514   2.5894   2.6731
     2.7042   2.7264   2.7862   2.8057   2.9293   2.9857   3.0088   3.0338
     3.1052   3.1332   3.1449   3.1716   3.2075   3.2411   3.3430   3.3725
     3.4051   3.4352   3.4617   3.5090   3.5513   3.5677   3.6352   3.6601
     3.6724   3.7070   3.7487   3.8935   3.9924   4.1374   4.1846   4.2517
     4.3057   4.4507   4.5083   4.7687   4.9280   4.9512   4.9923   5.0770
     5.1588   5.1744   5.2223   5.3861   5.6421   5.6820   5.7314   5.7770
     5.8534   5.8644   5.8705   6.0064   6.0701   6.0846   6.1184   6.1438
     6.1958   6.2078   6.2188   6.2344   6.4276   6.5281   6.6114   6.6603
     6.7870   6.8649   6.9622   7.1489   7.2245   7.5022   7.9305   8.0315
     8.0931   8.2498   8.4467   8.5762   8.6492   8.7739   8.9360   9.2656
     9.3456   9.4545   9.5087

          k = 0.0253 0.0560 0.0000 ( 34699 PWs)   bands (ev):

   -57.6912 -57.6737 -57.3100 -57.2916 -57.2325 -57.1026 -57.0828 -57.0653
   -57.0534 -57.0477 -56.9825 -56.9648 -56.7229 -56.7036 -56.1417 -56.1240
   -34.0411 -33.9748 -33.9605 -33.8771 -33.8462 -33.8303 -33.7743 -33.5972
   -33.5746 -33.5732 -33.5362 -33.5266 -33.5099 -33.5087 -33.4780 -33.4738
   -33.4564 -33.4275 -33.4148 -33.3683 -33.3178 -33.3149 -33.3097 -33.3026
   -33.2873 -33.2778 -33.2689 -33.2639 -33.2547 -33.2498 -33.2394 -33.2356
   -33.2116 -33.2002 -33.1719 -33.1663 -33.1276 -32.9891 -32.9762 -32.9634
   -32.9276 -32.9044 -32.4970 -32.4831 -32.4718 -32.3498 -32.3040 -32.2741
   -20.3022 -17.7574 -17.5905 -17.3445 -17.2654 -17.2458 -17.1946 -17.1689
   -17.1405 -16.9969 -16.9713 -16.8816 -16.8772 -16.8304 -16.7976 -16.7735
   -16.7490 -16.6716 -16.6242 -16.6059 -16.5804 -16.5315 -16.4279 -16.4134
   -16.3571 -16.2860 -16.2352 -16.1957 -16.1582 -16.1139 -16.0406 -14.7625
   -14.7254 -11.4015  -7.2374  -5.3660  -5.2163  -5.0293  -4.9497  -4.8140
    -4.7579  -4.7152  -4.5593  -4.4985  -4.4905  -4.4147  -4.3951  -4.3399
    -4.2718  -4.2323  -4.2167  -4.1930  -4.1489  -4.1422  -4.1065  -4.0624
    -4.0336  -4.0139  -3.9944  -3.9366  -3.9255  -3.8762  -3.8605  -3.8222
    -3.7750  -3.7161  -3.6553  -3.5727  -3.4734  -3.3894  -3.3109  -3.2787
    -3.2368  -3.2241  -3.1769  -3.0125  -2.9271  -2.8644  -2.8304  -2.7804
    -2.7567  -2.6467  -2.5931  -2.5105  -2.4896  -2.4388  -2.3932  -2.3659
    -2.3437  -2.3253  -2.2885  -2.2644  -2.1908  -2.1421  -2.1288  -2.0409
    -2.0125  -2.0104  -1.9478  -1.9394  -1.9039  -1.8625  -1.8351  -1.8132
    -1.7460  -1.7047  -1.6795  -1.6385  -1.5740  -1.5388  -1.4956  -1.4762
    -1.4321  -1.3742  -1.3393  -1.3037  -1.2246  -1.2065  -1.1324  -1.1067
    -1.0618  -1.0142  -0.9129  -0.8765  -0.8222  -0.8008  -0.7451  -0.6818
    -0.6079  -0.4664  -0.2571   0.0909   0.1275   0.1546   0.1872   1.8608
     2.0471   2.1311   2.1779   2.2303   2.2706   2.3048   2.3464   2.3838
     2.4250   2.4610   2.4797   2.5068   2.5193   2.5825   2.6926   2.7203
     2.7378   2.7753   2.8227   2.8388   2.9028   2.9513   2.9735   2.9849
     3.0262   3.0326   3.1551   3.2063   3.2853   3.3285   3.3392   3.3820
     3.4063   3.4379   3.4596   3.5395   3.5586   3.6297   3.6548   3.7330
     3.7916   3.8182   3.8604   3.8993   3.9036   4.0707   4.1157   4.1643
     4.3420   4.3837   4.6140   4.9637   5.0112   5.1257   5.1401   5.1569
     5.2609   5.2879   5.3122   5.4356   5.5088   5.5603   5.6359   5.7572
     5.8222   5.8490   5.8904   5.9331   5.9599   6.0021   6.0475   6.0609
     6.1350   6.1557   6.2219   6.3278   6.3783   6.4019   6.4806   6.6414
     6.6907   6.7954   6.8473   7.0348   7.1534   7.3632   7.4841   7.5892
     7.9797   8.1740   8.3509   8.5178   8.6468   8.8508   9.0388   9.1132
     9.1851   9.4914   9.6108

          k = 0.0253-0.0840 0.0000 ( 34722 PWs)   bands (ev):

   -57.6826 -57.6824 -57.3025 -57.2992 -57.2321 -57.0971 -57.0882 -57.0565
   -57.0565 -57.0538 -56.9742 -56.9731 -56.7158 -56.7107 -56.1329 -56.1329
   -33.9677 -33.9676 -33.9445 -33.9444 -33.8539 -33.8538 -33.6875 -33.6635
   -33.5672 -33.5639 -33.5304 -33.5191 -33.5148 -33.4782 -33.4537 -33.4254
   -33.4173 -33.4112 -33.3773 -33.3772 -33.3646 -33.3415 -33.3356 -33.3240
   -33.3226 -33.2858 -33.2791 -33.2774 -33.2706 -33.2670 -33.2374 -33.2359
   -33.2185 -33.2167 -33.1650 -33.1642 -33.0505 -33.0298 -32.9722 -32.9672
   -32.9414 -32.9383 -32.4900 -32.4900 -32.3740 -32.3739 -32.3269 -32.3269
   -20.3020 -17.5568 -17.4885 -17.3833 -17.3648 -17.2145 -17.1555 -17.0604
   -17.0509 -17.0052 -16.9809 -16.9766 -16.8900 -16.8804 -16.8702 -16.7869
   -16.7816 -16.6359 -16.6301 -16.5697 -16.5660 -16.5235 -16.5221 -16.3897
   -16.3885 -16.2558 -16.2536 -16.2007 -16.1969 -16.1349 -16.1027 -14.7618
   -14.7617 -11.4012  -7.2369  -5.3553  -5.2224  -4.8011  -4.6453  -4.6366
    -4.6236  -4.5495  -4.5485  -4.5316  -4.5257  -4.4196  -4.4092  -4.3709
    -4.3479  -4.3175  -4.2992  -4.2858  -4.2643  -4.2326  -4.2289  -4.0437
    -4.0399  -4.0156  -3.9846  -3.9657  -3.9218  -3.8488  -3.8421  -3.8167
    -3.7395  -3.6623  -3.6374  -3.4154  -3.4009  -3.3486  -3.3203  -3.2066
    -3.1204  -3.0960  -3.0613  -3.0517  -3.0100  -2.9619  -2.9184  -2.8932
    -2.8098  -2.8055  -2.6234  -2.6015  -2.5780  -2.5574  -2.5312  -2.4646
    -2.4360  -2.3432  -2.3162  -2.2757  -2.1229  -2.0747  -2.0564  -2.0104
    -1.9241  -1.9216  -1.8798  -1.8681  -1.8577  -1.8170  -1.8068  -1.7962
    -1.7683  -1.7300  -1.6871  -1.6584  -1.6218  -1.6085  -1.5958  -1.4768
    -1.4028  -1.3897  -1.2801  -1.2628  -1.2428  -1.2274  -1.1874  -1.1312
    -1.0852  -1.0528  -1.0447  -1.0137  -0.9609  -0.8918  -0.8797  -0.5385
    -0.5307  -0.4587  -0.4462   0.1161   0.1163   0.1956   0.1972   2.0496
     2.0519   2.2165   2.2323   2.2354   2.2388   2.2770   2.3151   2.4225
     2.4246   2.4393   2.4415   2.5568   2.5583   2.5769   2.6542   2.7205
     2.7548   2.8191   2.8279   2.8789   2.8986   2.9370   2.9471   3.0247
     3.0386   3.0842   3.1136   3.2201   3.2681   3.2888   3.3057   3.4215
     3.4269   3.4511   3.4682   3.4930   3.5212   3.7132   3.7389   3.8066
     3.8249   3.8364   3.8849   3.9124   3.9193   4.0799   4.0825   4.1162
     4.1165   4.4725   4.7124   4.9836   5.0227   5.2688   5.3006   5.3090
     5.3264   5.3593   5.3838   5.4256   5.4777   5.5083   5.5521   5.6387
     5.6436   5.7620   5.8323   5.8752   5.8903   6.0148   6.0758   6.0874
     6.1301   6.1846   6.2171   6.2801   6.3007   6.4672   6.5199   6.5943
     6.6372   6.7871   6.7962   6.9898   7.0336   7.1213   7.3854   7.5833
     7.7428   8.0050   8.2786   8.7179   8.7428   8.9691   8.9973   9.2954
     9.3479   9.4293   9.5435

          k = 0.0506 0.0000 0.0000 ( 34729 PWs)   bands (ev):

   -57.6999 -57.6649 -57.3189 -57.2827 -57.2337 -57.1108 -57.0745 -57.0740
   -57.0521 -57.0389 -56.9914 -56.9559 -56.7320 -56.6945 -56.1505 -56.1152
   -34.1370 -33.9821 -33.9537 -33.8988 -33.8715 -33.8067 -33.7462 -33.6567
   -33.6195 -33.6114 -33.5697 -33.5505 -33.5306 -33.5100 -33.4867 -33.4621
   -33.4597 -33.4548 -33.4324 -33.3764 -33.3250 -33.2936 -33.2722 -33.2681
   -33.2638 -33.2627 -33.2619 -33.2387 -33.2356 -33.2309 -33.2306 -33.2130
   -33.1814 -33.1810 -33.1769 -33.1422 -33.1198 -32.9980 -32.9872 -32.9561
   -32.9096 -32.8070 -32.5681 -32.5060 -32.4750 -32.3724 -32.2809 -32.1727
   -20.3022 -17.9179 -17.7077 -17.4172 -17.3915 -17.2841 -17.2670 -17.2385
   -17.1410 -16.9795 -16.9689 -16.9387 -16.8963 -16.8871 -16.8697 -16.8469
   -16.7522 -16.7021 -16.5378 -16.4567 -16.4506 -16.4117 -16.4065 -16.3602
   -16.3553 -16.3288 -16.1767 -16.1615 -16.1549 -15.9816 -15.9306 -14.7316
   -14.6508 -11.4004  -7.2332  -5.4459  -5.2742  -5.1991  -4.9811  -4.9149
    -4.8039  -4.7990  -4.7725  -4.7493  -4.7152  -4.6342  -4.5262  -4.4660
    -4.4190  -4.2492  -4.1334  -4.0386  -4.0264  -4.0201  -3.9752  -3.9312
    -3.9131  -3.8299  -3.7897  -3.7630  -3.7530  -3.6598  -3.6381  -3.6124
    -3.5569  -3.5549  -3.5424  -3.5271  -3.5011  -3.2835  -3.2734  -3.2582
    -3.2239  -3.2032  -3.1569  -3.1118  -2.9960  -2.9435  -2.8836  -2.8521
    -2.8282  -2.7793  -2.7552  -2.6795  -2.6242  -2.6120  -2.5783  -2.5475
    -2.4640  -2.4608  -2.4284  -2.3666  -2.3149  -2.2075  -2.1996  -2.1226
    -2.0872  -1.9927  -1.9403  -1.9330  -1.8444  -1.8187  -1.8018  -1.7155
    -1.6373  -1.5758  -1.5592  -1.5563  -1.4875  -1.4791  -1.4446  -1.4016
    -1.3532  -1.3343  -1.3053  -1.2112  -1.1209  -1.1070  -1.0896  -1.0735
    -0.9921  -0.9538  -0.8898  -0.8164  -0.8108  -0.7948  -0.7583  -0.5335
    -0.5251  -0.2691  -0.2248  -0.0483   0.0918   0.1178   0.1362   1.6409
     1.8173   1.9991   2.0955   2.0995   2.1781   2.1956   2.2798   2.2923
     2.4529   2.4564   2.4694   2.5577   2.5625   2.5840   2.6249   2.6773
     2.7059   2.8212   2.8690   2.8722   2.8980   2.9223   3.0823   3.1068
     3.1464   3.1625   3.1996   3.2003   3.2855   3.2877   3.3302   3.4073
     3.4375   3.4469   3.4990   3.5516   3.5756   3.5845   3.6988   3.7097
     3.7582   3.7616   3.7974   3.8925   3.9237   4.0810   4.1562   4.2098
     4.3462   4.4643   4.5737   4.6500   4.7667   4.7964   4.8597   4.8938
[...]
    -1.2987  -1.2683  -1.2531  -1.1909  -1.1538  -1.0324  -1.0210  -1.0128
    -0.9898  -0.9496  -0.9050  -0.8392  -0.7576  -0.7016  -0.6481  -0.5950
    -0.5909  -0.5358  -0.5192   0.0652   0.0653   0.2099   0.2116   2.1525
     2.1533   2.1999   2.2018   2.2372   2.2381   2.2653   2.2968   2.4869
     2.4925   2.5244   2.5542   2.6079   2.6156   2.6784   2.6804   2.6898
     2.6910   2.8430   2.9087   2.9818   2.9968   3.0330   3.0406   3.0973
     3.2187   3.2482   3.2712   3.3317   3.3725   3.3890   3.4437   3.4916
     3.4991   3.5214   3.5479   3.5797   3.6024   3.6788   3.6987   3.7440
     3.8336   3.8895   3.9060   3.9518   3.9521   4.0951   4.1020   4.1107
     4.1112   4.6133   4.7822   4.7861   4.8013   4.8695   4.9193   4.9244
     4.9408   4.9834   5.0259   5.2479   5.3387   5.3576   5.3683   5.7286
     5.7989   5.9093   5.9255   5.9781   6.0418   6.1504   6.3017   6.3482
     6.3640   6.3733   6.4087   6.5739   6.6141   6.6641   6.6642   6.7020
     6.7622   6.8438   6.8448   6.8514   6.8523   7.3618   7.4093   7.5253
     7.6610   7.8272   8.0148   8.1719   8.2127   8.3196   8.3802   8.8148
     8.9151   9.0432   9.0822

          k =-0.0253 0.0280 0.0000 ( 34687 PWs)   bands (ev):

   -57.6977 -57.6674 -57.3165 -57.2850 -57.2332 -57.1086 -57.0767 -57.0716
   -57.0524 -57.0412 -56.9889 -56.9582 -56.7294 -56.6969 -56.1484 -56.1178
   -34.1110 -33.9803 -33.9556 -33.8941 -33.8453 -33.8131 -33.7733 -33.6324
   -33.6128 -33.5831 -33.5438 -33.5357 -33.5231 -33.5173 -33.4940 -33.4734
   -33.4671 -33.4618 -33.4303 -33.3864 -33.3191 -33.2916 -33.2845 -33.2652
   -33.2601 -33.2554 -33.2540 -33.2487 -33.2387 -33.2373 -33.2362 -33.2178
   -33.2039 -33.1864 -33.1784 -33.1460 -33.1428 -32.9942 -32.9804 -32.9594
   -32.9146 -32.8347 -32.5428 -32.5022 -32.4783 -32.3666 -32.2873 -32.2002
   -20.3025 -17.9237 -17.7458 -17.4647 -17.3845 -17.3103 -17.2332 -17.1293
   -17.0991 -17.0069 -16.9642 -16.8602 -16.8312 -16.8076 -16.7847 -16.7711
   -16.7138 -16.7014 -16.6011 -16.5805 -16.5075 -16.4763 -16.3827 -16.3663
   -16.3574 -16.3305 -16.2017 -16.1749 -16.1546 -16.0130 -15.9680 -14.7435
   -14.6741 -11.4024  -7.2383  -5.4060  -5.2288  -5.2053  -5.1816  -5.0226
    -4.9672  -4.9369  -4.7599  -4.7017  -4.5628  -4.4039  -4.3719  -4.3469
    -4.2619  -4.2505  -4.1890  -4.1177  -4.0910  -4.0652  -4.0365  -4.0220
    -3.9759  -3.9418  -3.9152  -3.8695  -3.8232  -3.8122  -3.7853  -3.7201
    -3.7006  -3.6633  -3.6160  -3.6053  -3.5404  -3.5238  -3.3505  -3.2774
    -3.2514  -3.2053  -3.1435  -3.0682  -2.9840  -2.9471  -2.7815  -2.7049
    -2.6800  -2.6375  -2.6107  -2.5331  -2.5053  -2.4525  -2.4481  -2.4235
    -2.4069  -2.3849  -2.3406  -2.3023  -2.2188  -2.1763  -2.1226  -2.1048
    -2.0636  -1.9920  -1.9514  -1.8956  -1.8645  -1.8278  -1.7435  -1.7086
    -1.6537  -1.6001  -1.5939  -1.5610  -1.5167  -1.4714  -1.4370  -1.3935
    -1.3458  -1.3336  -1.2815  -1.2434  -1.1978  -1.1116  -1.0993  -1.0600
    -1.0120  -0.8936  -0.8417  -0.8319  -0.7565  -0.7399  -0.7094  -0.6606
    -0.4342  -0.2823  -0.1357  -0.0864   0.1485   0.1780   0.1882   1.7198
     1.8440   2.0153   2.0993   2.1944   2.2449   2.2842   2.3181   2.4030
     2.4145   2.4490   2.4850   2.5290   2.5317   2.5463   2.6068   2.6676
     2.7044   2.7380   2.7747   2.8112   2.9379   2.9851   3.0032   3.0262
     3.1063   3.1348   3.1453   3.1732   3.2077   3.2384   3.3465   3.3715
     3.4028   3.4189   3.4633   3.5055   3.5604   3.5696   3.6361   3.6600
     3.6721   3.7080   3.7481   3.8923   3.9911   4.1392   4.1846   4.2522
     4.3056   4.4510   4.5085   4.7696   4.9360   4.9505   4.9830   5.0769
     5.1577   5.1740   5.2221   5.3849   5.6437   5.6754   5.7283   5.7867
     5.8515   5.8642   5.8715   6.0052   6.0728   6.0776   6.1230   6.1445
     6.1959   6.2066   6.2148   6.2431   6.4275   6.5260   6.6112   6.6659
     6.7911   6.8584   6.9621   7.1490   7.2247   7.5019   7.9298   8.0307
     8.0931   8.2481   8.4420   8.5779   8.6455   8.7751   8.9422   9.2709
     9.3406   9.4554   9.5067

          k =-0.0253 0.0560 0.0000 ( 34699 PWs)   bands (ev):

   -57.6913 -57.6738 -57.3100 -57.2916 -57.2324 -57.1026 -57.0827 -57.0652
   -57.0533 -57.0477 -56.9825 -56.9647 -56.7228 -56.7036 -56.1419 -56.1243
   -34.0412 -33.9749 -33.9606 -33.8772 -33.8463 -33.8304 -33.7742 -33.5971
   -33.5746 -33.5731 -33.5361 -33.5265 -33.5099 -33.5087 -33.4779 -33.4738
   -33.4564 -33.4274 -33.4146 -33.3683 -33.3177 -33.3149 -33.3097 -33.3025
   -33.2873 -33.2778 -33.2689 -33.2638 -33.2547 -33.2499 -33.2394 -33.2356
   -33.2114 -33.2002 -33.1718 -33.1662 -33.1275 -32.9891 -32.9761 -32.9634
   -32.9275 -32.9043 -32.4972 -32.4833 -32.4720 -32.3501 -32.3042 -32.2743
   -20.3022 -17.7574 -17.5905 -17.3445 -17.2654 -17.2460 -17.1949 -17.1689
   -17.1403 -16.9969 -16.9713 -16.8817 -16.8775 -16.8310 -16.7980 -16.7735
   -16.7488 -16.6714 -16.6241 -16.6056 -16.5804 -16.5318 -16.4279 -16.4135
   -16.3572 -16.2860 -16.2352 -16.1957 -16.1581 -16.1140 -16.0406 -14.7620
   -14.7249 -11.4016  -7.2374  -5.3659  -5.2163  -5.0289  -4.9497  -4.8146
    -4.7580  -4.7153  -4.5593  -4.4970  -4.4909  -4.4144  -4.3954  -4.3448
    -4.2721  -4.2333  -4.2162  -4.1930  -4.1487  -4.1416  -4.1081  -4.0625
    -4.0326  -4.0113  -3.9956  -3.9377  -3.9253  -3.8743  -3.8641  -3.8227
    -3.7746  -3.7144  -3.6561  -3.5728  -3.4728  -3.3889  -3.3181  -3.2769
    -3.2388  -3.2177  -3.1699  -3.0134  -2.9255  -2.8651  -2.8270  -2.7837
    -2.7546  -2.6461  -2.5924  -2.5111  -2.4880  -2.4401  -2.3945  -2.3629
    -2.3439  -2.3247  -2.2910  -2.2667  -2.1906  -2.1419  -2.1278  -2.0377
    -2.0209  -2.0038  -1.9463  -1.9436  -1.9054  -1.8627  -1.8306  -1.8079
    -1.7440  -1.7115  -1.6734  -1.6433  -1.5806  -1.5402  -1.5058  -1.4613
    -1.4319  -1.3732  -1.3481  -1.3022  -1.2249  -1.2067  -1.1310  -1.1049
    -1.0625  -1.0151  -0.9251  -0.8775  -0.8147  -0.8010  -0.7389  -0.6814
    -0.6079  -0.4680  -0.2586   0.0913   0.1279   0.1550   0.1875   1.8606
     2.0470   2.1340   2.1779   2.2272   2.2688   2.3055   2.3322   2.3828
     2.4434   2.4580   2.4847   2.5122   2.5198   2.5825   2.6918   2.7233
     2.7437   2.7749   2.8267   2.8399   2.8921   2.9487   2.9698   2.9857
     3.0229   3.0337   3.1693   3.2070   3.2893   3.3157   3.3330   3.3697
     3.4106   3.4356   3.4590   3.5420   3.5583   3.6337   3.6562   3.7335
     3.7919   3.8157   3.8612   3.8975   3.9057   4.0715   4.1157   4.1644
     4.3418   4.3838   4.6148   4.9648   5.0183   5.1228   5.1365   5.1552
     5.2584   5.2858   5.3140   5.4272   5.5107   5.5601   5.6389   5.7616
     5.8234   5.8471   5.8940   5.9356   5.9550   5.9959   6.0517   6.0631
     6.1349   6.1543   6.2287   6.3202   6.3785   6.4079   6.4778   6.6450
     6.6937   6.7953   6.8409   7.0353   7.1514   7.3632   7.4846   7.5877
     7.9782   8.1730   8.3517   8.5200   8.6475   8.8539   9.0440   9.1150
     9.1812   9.4958   9.6105

          k =-0.0506 0.0280 0.0000 ( 34685 PWs)   bands (ev):

   -57.6977 -57.6674 -57.3165 -57.2850 -57.2332 -57.1085 -57.0766 -57.0718
   -57.0524 -57.0412 -56.9889 -56.9582 -56.7295 -56.6969 -56.1484 -56.1178
   -34.1117 -33.9802 -33.9556 -33.8927 -33.8456 -33.8131 -33.7733 -33.6339
   -33.6127 -33.5864 -33.5444 -33.5367 -33.5286 -33.5208 -33.4939 -33.4731
   -33.4594 -33.4498 -33.4303 -33.3702 -33.3188 -33.2918 -33.2802 -33.2664
   -33.2652 -33.2625 -33.2598 -33.2546 -33.2388 -33.2373 -33.2351 -33.2154
   -33.2044 -33.1866 -33.1783 -33.1458 -33.1427 -32.9942 -32.9848 -32.9580
   -32.9146 -32.8347 -32.5426 -32.5041 -32.4773 -32.3666 -32.2873 -32.2002
   -20.3021 -17.8615 -17.6522 -17.3699 -17.3425 -17.2507 -17.2255 -17.2155
   -17.1235 -17.0443 -16.9645 -16.9218 -16.8718 -16.8586 -16.8559 -16.8341
   -16.7644 -16.7459 -16.5604 -16.5292 -16.5050 -16.4391 -16.4164 -16.3774
   -16.3699 -16.3126 -16.1926 -16.1733 -16.1534 -16.0142 -15.9678 -14.7415
   -14.6742 -11.3999  -7.2327  -5.4166  -5.2158  -5.2036  -4.8933  -4.8351
    -4.7214  -4.7056  -4.6760  -4.6562  -4.6312  -4.5104  -4.4288  -4.3464
    -4.3194  -4.3024  -4.1600  -4.1268  -4.0613  -4.0279  -4.0096  -3.9942
    -3.9833  -3.9103  -3.8608  -3.8168  -3.7744  -3.7619  -3.7192  -3.6912
    -3.6555  -3.6339  -3.5835  -3.5523  -3.4413  -3.3117  -3.2713  -3.2571
    -3.2088  -3.1699  -3.1007  -3.0577  -2.9531  -2.9376  -2.8714  -2.8409
    -2.7441  -2.6917  -2.6608  -2.6493  -2.6050  -2.5915  -2.5365  -2.4959
    -2.4379  -2.3883  -2.3818  -2.3360  -2.3094  -2.2553  -2.1803  -2.1367
    -2.1144  -2.0631  -2.0271  -1.9752  -1.9408  -1.9060  -1.8605  -1.8322
    -1.7554  -1.7408  -1.7127  -1.6418  -1.5410  -1.5077  -1.4862  -1.4182
    -1.3685  -1.3486  -1.2794  -1.2615  -1.2380  -1.1474  -1.1143  -1.0140
    -0.9784  -0.8809  -0.8563  -0.8146  -0.7793  -0.7646  -0.7061  -0.6907
    -0.5137  -0.3128  -0.2604  -0.0738   0.1092   0.1386   0.1619   1.7033
     1.9042   2.0595   2.1219   2.1266   2.1717   2.2401   2.3604   2.3713
     2.4054   2.4373   2.5170   2.5668   2.5737   2.6019   2.6830   2.6957
     2.7423   2.8019   2.8323   2.9020   2.9551   2.9808   3.0407   3.0595
     3.0902   3.1597   3.1703   3.1998   3.3016   3.3556   3.3753   3.4094
     3.4449   3.4571   3.5460   3.5851   3.6033   3.6527   3.6752   3.6839
     3.7163   3.7701   3.8176   3.8685   3.9313   4.0581   4.1678   4.2812
     4.2924   4.4219   4.6213   4.6888   4.7635   4.8103   4.8546   4.9854
     5.0114   5.1259   5.2232   5.4690   5.5938   5.6402   5.7208   5.8049
     5.8608   5.8720   5.9245   5.9462   5.9801   6.0929   6.1167   6.1384
     6.2311   6.4312   6.4820   6.5394   6.5769   6.6076   6.6843   6.7417
     6.7965   6.8165   6.9730   7.1152   7.1664   7.3964   7.5676   7.7022
     8.1305   8.1628   8.2417   8.3921   8.7324   8.9676   9.0043   9.0420
     9.3710   9.4322   9.6100

          k =-0.0506 0.0560 0.0000 ( 34596 PWs)   bands (ev):

   -57.6913 -57.6738 -57.3099 -57.2916 -57.2324 -57.1025 -57.0827 -57.0653
   -57.0533 -57.0477 -56.9825 -56.9647 -56.7228 -56.7036 -56.1419 -56.1243
   -34.0417 -33.9749 -33.9606 -33.8760 -33.8465 -33.8300 -33.7744 -33.5971
   -33.5757 -33.5732 -33.5365 -33.5225 -33.5163 -33.5120 -33.4780 -33.4746
   -33.4543 -33.4275 -33.4050 -33.3547 -33.3191 -33.3185 -33.3022 -33.3000
   -33.2876 -33.2777 -33.2688 -33.2615 -33.2547 -33.2545 -33.2487 -33.2407
   -33.2115 -33.2017 -33.1718 -33.1659 -33.1271 -32.9892 -32.9789 -32.9632
   -32.9275 -32.9042 -32.4983 -32.4829 -32.4719 -32.3501 -32.3042 -32.2742
   -20.3018 -17.7070 -17.5015 -17.2922 -17.2407 -17.1987 -17.1746 -17.1628
   -17.0908 -17.0380 -17.0069 -16.9145 -16.8575 -16.8500 -16.8455 -16.8074
   -16.7773 -16.7231 -16.6636 -16.6234 -16.6138 -16.5518 -16.5136 -16.4001
   -16.3445 -16.2646 -16.2274 -16.1942 -16.1574 -16.1157 -16.0398 -14.7608
   -14.7252 -11.3990  -7.2314  -5.3813  -5.2151  -5.0196  -4.6601  -4.6182
    -4.5163  -4.4999  -4.4842  -4.4564  -4.4332  -4.3684  -4.3256  -4.3025
    -4.2268  -4.2066  -4.1473  -4.1330  -4.0835  -4.0682  -4.0472  -4.0374
    -4.0155  -3.9974  -3.9698  -3.9157  -3.8951  -3.8893  -3.8231  -3.7881
    -3.7317  -3.6601  -3.6300  -3.5232  -3.4843  -3.3590  -3.3281  -3.2626
    -3.2559  -3.2443  -3.1244  -3.0046  -2.9322  -2.9047  -2.8513  -2.8300
    -2.7572  -2.7273  -2.6854  -2.6107  -2.5928  -2.5685  -2.5278  -2.4906
    -2.4289  -2.4059  -2.3669  -2.3302  -2.3175  -2.3012  -2.2565  -2.1792
    -2.1535  -2.1223  -2.1152  -2.0784  -2.0484  -2.0033  -1.9852  -1.9028
    -1.8923  -1.8528  -1.8339  -1.7257  -1.6388  -1.6072  -1.5739  -1.4796
    -1.4096  -1.3761  -1.3083  -1.2511  -1.2071  -1.1108  -1.0751  -1.0186
    -1.0034  -0.9376  -0.8540  -0.8202  -0.7712  -0.7571  -0.6937  -0.6581
    -0.6526  -0.5186  -0.3256   0.0772   0.1114   0.1293   0.1929   1.8659
     2.0758   2.1645   2.1986   2.2201   2.2428   2.2975   2.3471   2.3923
     2.4028   2.5366   2.5694   2.5785   2.6066   2.6275   2.6826   2.7538
     2.7812   2.8034   2.8379   2.8802   2.9626   3.0035   3.0275   3.0613
     3.0964   3.1353   3.1668   3.2559   3.3347   3.3664   3.3961   3.4401
     3.4779   3.4989   3.5209   3.5417   3.6141   3.6465   3.7106   3.7433
     3.7788   3.8503   3.8792   3.9185   3.9244   3.9533   4.1109   4.1740
     4.2886   4.4727   4.7243   4.8060   4.8157   4.8954   4.9413   5.0913
     5.1645   5.2311   5.2711   5.3266   5.3713   5.4339   5.4948   5.6252
     5.7801   5.8295   5.8807   5.9512   6.0395   6.1232   6.2161   6.2584
     6.2858   6.3473   6.4153   6.4496   6.5032   6.5771   6.6485   6.7154
     6.7299   6.8236   6.8487   6.9836   7.0528   7.4101   7.4308   7.5775
     7.7461   7.9393   8.0716   8.3834   8.5633   8.6098   8.7376   9.0053
     9.2189   9.3210   9.4521

     the Fermi energy is     0.9962 ev

!    total energy              =   -3021.41921203 Ry
     Harris-Foulkes estimate   =   -3021.41921196 Ry
     estimated scf accuracy    <       0.00000057 Ry

     The total energy is the sum of the following terms:

     one-electron contribution =  -41241.15616628 Ry
     hartree contribution      =   20694.81319673 Ry
     xc contribution           =    -553.67110102 Ry
     ewald contribution        =   18078.59506975 Ry
     smearing contrib. (-TS)   =      -0.00021121 Ry

     total magnetization       =     0.00 Bohr mag/cell
     absolute magnetization    =     0.00 Bohr mag/cell

     convergence has been achieved in   8 iterations

     Forces acting on atoms (Ry/au):


     negative rho (up, down):  1.208E-02 1.208E-02
     atom    1 type  1   force =     0.00001773   -0.00035724   -0.13380070
     atom    2 type  2   force =     0.00000597    0.00002767    0.07213229
     atom    3 type  1   force =    -0.00135452    0.00030892   -0.06096497
     atom    4 type  2   force =     0.00290140    0.00048645    0.00638780
     atom    5 type  1   force =     0.00027576    0.00185074    0.00353584
     atom    6 type  2   force =     0.00006378    0.00000828   -0.00288378
     atom    7 type  1   force =    -0.00041877   -0.00075301    0.00452948
     atom    8 type  2   force =     0.00094217   -0.00020561   -0.00071736
     atom    9 type  1   force =    -0.00002707    0.00001932   -0.13355919
     atom   10 type  2   force =    -0.00006559    0.00006450    0.07131875
     atom   11 type  1   force =    -0.00131571   -0.00024144   -0.05587906
     atom   12 type  2   force =     0.00299412   -0.00006942    0.00610360
     atom   13 type  1   force =     0.00029874   -0.00147896    0.00347595
     atom   14 type  2   force =    -0.00119417   -0.00038397   -0.00290265
     atom   15 type  1   force =    -0.00060040    0.00021504    0.00450939
     atom   16 type  2   force =     0.00056959   -0.00018589   -0.00010390
     atom   17 type  2   force =    -0.00007075   -0.00007160    0.07939134
     atom   18 type  1   force =     0.00013549   -0.00017243    0.11911664
     atom   19 type  2   force =    -0.00010684   -0.00017526   -0.06668106
     atom   20 type  2   force =    -0.06322119    0.00014757   -0.03224390
     atom   21 type  2   force =     0.06320056    0.00001282   -0.03244815
     atom   22 type  1   force =     0.00072487    0.00108210    0.05974582
     atom   23 type  2   force =    -0.00017388    0.00005684   -0.00175188
     atom   24 type  2   force =    -0.00143363   -0.00000493   -0.02325486
     atom   25 type  2   force =    -0.00312892    0.00059152    0.00787339
     atom   26 type  1   force =     0.00063443    0.00028999    0.00460898
     atom   27 type  2   force =     0.00051698    0.00059596   -0.00377515
     atom   28 type  2   force =     0.00013811   -0.00008813   -0.00119599
     atom   29 type  2   force =     0.00022003   -0.00034673   -0.00058108
     atom   30 type  1   force =     0.00033774   -0.00080075    0.00378364
     atom   31 type  2   force =    -0.00014634    0.00012517   -0.00265752
     atom   32 type  2   force =     0.00006184   -0.00004549   -0.00117854
     atom   33 type  2   force =    -0.00011927    0.00003821    0.07899607
     atom   34 type  1   force =     0.00006896   -0.00022011    0.11903125
     atom   35 type  2   force =    -0.00030137   -0.00005406   -0.06638040
     atom   36 type  2   force =    -0.06318155   -0.00005430   -0.03233292
     atom   37 type  2   force =     0.06333012   -0.00020203   -0.03248828
     atom   38 type  1   force =     0.00066266   -0.00098194    0.05996350
     atom   39 type  2   force =    -0.00045383    0.00010533   -0.00249578
     atom   40 type  2   force =    -0.00119095    0.00030563   -0.02216683
     atom   41 type  2   force =    -0.00316571   -0.00014963    0.00789899
     atom   42 type  1   force =     0.00051316    0.00006419    0.00373172
     atom   43 type  2   force =     0.00068452    0.00023395   -0.00297561
     atom   44 type  2   force =     0.00022380    0.00010133   -0.00115379
     atom   45 type  2   force =     0.00019762    0.00031188   -0.00061480
     atom   46 type  1   force =     0.00059017    0.00040558    0.00388119
     atom   47 type  2   force =     0.00005045   -0.00031738   -0.00134810
     atom   48 type  2   force =     0.00014074    0.00008727   -0.00091943
     atom   49 type  3   force =    -0.03098768   -0.00086952   -0.00551676
     atom   50 type  2   force =    -0.00131477   -0.00022866   -0.00308266
     atom   51 type  4   force =     0.03318306    0.00023546    0.00866305
     atom   52 type  4   force =     0.00037796    0.00033422    0.00110099
     atom   53 type  4   force =    -0.00018400    0.00099669   -0.00093320
     atom   54 type  4   force =     0.00009438   -0.00064412   -0.00079138

     Total force =     0.365581     Total SCF correction =     0.001093
 !ASE

     Writing output data file calc.save
 
     init_run     :     55.96s CPU     70.04s WALL (       1 calls)
     electrons    :   1909.67s CPU   2380.41s WALL (       1 calls)
     forces       :     39.96s CPU     41.69s WALL (       1 calls)

     Called by init_run:
     wfcinit      :     47.39s CPU     60.63s WALL (       1 calls)
     potinit      :      1.32s CPU      1.66s WALL (       1 calls)

     Called by electrons:
     c_bands      :   1665.54s CPU   2072.93s WALL (       9 calls)
     sum_band     :    208.73s CPU    266.80s WALL (       9 calls)
     v_of_rho     :      8.82s CPU     11.35s WALL (       9 calls)
     newd         :     30.63s CPU     33.71s WALL (       9 calls)
     mix_rho      :      0.28s CPU      0.40s WALL (       9 calls)
     vdW_energy   :      1.63s CPU      2.00s WALL (      10 calls)
     vdW_ffts     :      2.36s CPU      3.29s WALL (      20 calls)
     vdW_v        :      0.92s CPU      1.11s WALL (      10 calls)

     Called by c_bands:
     init_us_2    :      5.40s CPU      6.04s WALL (     800 calls)
     cegterg      :   1633.34s CPU   2038.89s WALL (     360 calls)

     Called by *egterg:
     h_psi        :    686.02s CPU   1013.48s WALL (    1876 calls)
     s_psi        :     83.55s CPU     89.20s WALL (    1876 calls)
     g_psi        :      4.51s CPU      4.76s WALL (    1476 calls)
     cdiaghg      :    556.20s CPU    573.03s WALL (    1796 calls)

     Called by h_psi:
     add_vuspsi   :     84.14s CPU     88.44s WALL (    1876 calls)

     General routines
     calbec       :    126.81s CPU    129.77s WALL (    2276 calls)
     fft          :      5.35s CPU      7.06s WALL (     794 calls)
     ffts         :      0.04s CPU      0.07s WALL (      36 calls)
     fftw         :    452.64s CPU    817.94s WALL (  662478 calls)
     interpolate  :      0.28s CPU      0.46s WALL (      36 calls)
     davcio       :      0.16s CPU      3.09s WALL (      40 calls)
 
     Parallel routines
     fft_scatter  :    242.86s CPU    433.86s WALL (  663308 calls)
 
     PWSCF        : 33m26.82s CPU    41m37.21s WALL

 
   This run was terminated on:  18:46:14  12Feb2018            

=------------------------------------------------------------------------------=
   JOB DONE.
=------------------------------------------------------------------------------=
