  python dir          : /home/vossj/suncat/lib/python2.7/site-packages/espresso
  espresso dir        : /home/vossj/suncat/esdld/espresso-dynpy-beef/bin
  pseudo dir          : /home/alatimer/bin/psp/esp_psp_w_gbrvRu/
  ase-espresso py git : ffa2778-git



     Program PWSCF v.5.1rc2 (svn rev. ) starts on 26Feb2018 at 19:41:55 

     This program is part of the open-source Quantum ESPRESSO suite
     for quantum simulation of materials; please cite
         "P. Giannozzi et al., J. Phys.:Condens. Matter 21 395502 (2009);
          URL http://www.quantum-espresso.org", 
     in publications or presentations arising from this work. More details at
     http://www.quantum-espresso.org/quote

     Parallel version (MPI), running on    16 processors
     R & G space division:  proc/nbgrp/npool/nimage =      16
     Reading input from pw.inp
     Message from routine read_cards :
     DEPRECATED: no units specified in CELL_PARAMETERS card

     Current dimensions of program PWSCF are:
     Max number of different atomic species (ntypx) = 10
     Max number of k-points (npk) =  40000
     Max angular momentum in pseudopotentials (lmaxx) =  3

     **************************************************************************
     Initializing libbeef V0.1.1 with the BEEF-vdW functional.
     Citation: Wellendorff et al., PRB 85, 235149 (2012).
     **************************************************************************


     IMPORTANT: XC functional enforced from input :
     Exchange-correlation      = BEEF ( 1  4 27 13 2)
     Any further DFT definition will be discarded
     Please, verify this is what you really want


     Subspace diagonalization in iterative solution of the eigenvalue problem:
     a serial algorithm will be used

 
     Parallelization info
     --------------------
     sticks:   dense  smooth     PW     G-vecs:    dense   smooth      PW
     Min         281     112     31                68535    17318    2565
     Max         282     113     32                68545    17369    2582
     Sum        4501    1795    503              1096637   277353   41113
 
     Generating pointlists ...
     new r_m :   0.4125 (alat units)  0.7795 (a.u.) for type    1
     new r_m :   0.4125 (alat units)  0.7795 (a.u.) for type    2
     new r_m :   0.4125 (alat units)  0.7795 (a.u.) for type    3
     new r_m :   0.4125 (alat units)  0.7795 (a.u.) for type    4


     bravais-lattice index     =            0
     lattice parameter (alat)  =       1.8897  a.u.
     unit-cell volume          =    7990.9933 (a.u.)^3
     number of atoms/cell      =           54
     number of atomic types    =            4
     number of electrons       =       398.00
     number of Kohn-Sham states=          299
     kinetic-energy cutoff     =      40.4243  Ry
     charge density cutoff     =     404.2426  Ry
     convergence threshold     =      7.3E-07
     mixing beta               =       0.1000
     number of iterations used =           10  plain     mixing
     Exchange-correlation      = BEEF ( 1  4 27 13 2)
     nstep                     =           50


     celldm(1)=   1.889726  celldm(2)=   0.000000  celldm(3)=   0.000000
     celldm(4)=   0.000000  celldm(5)=   0.000000  celldm(6)=   0.000000

     crystal axes: (cart. coord. in units of alat)
               a(1) = (   6.590708   0.000000   0.000000 )  
               a(2) = (   0.000000   5.950229   0.000000 )  
               a(3) = (   0.000000   0.000000  30.195235 )  

     reciprocal axes: (cart. coord. in units 2 pi/alat)
               b(1) = (  0.151729  0.000000  0.000000 )  
               b(2) = (  0.000000  0.168061  0.000000 )  
               b(3) = (  0.000000  0.000000  0.033118 )  


     PseudoPot. # 1 for Ti read from file:
     /home/alatimer/bin/psp/esp_psp_w_gbrvRu/Ti.UPF
     MD5 check sum: 8e4df49b7f0d34bbd5052bf3f5ea0213
     Pseudo is Ultrasoft, Zval = 12.0
     Generated by new atomic code, or converted to UPF format
     Using radial grid of  851 points,  6 beta functions with: 
                l(1) =   0
                l(2) =   0
                l(3) =   1
                l(4) =   1
                l(5) =   2
                l(6) =   2
     Q(r) pseudized with  8 coefficients,  rinner =    1.000   1.000   1.000
                                                       1.000   1.000

     PseudoPot. # 2 for  O read from file:
     /home/alatimer/bin/psp/esp_psp_w_gbrvRu/O.UPF
     MD5 check sum: e057bbcf3229fb5d8c36c0c92f9568b4
     Pseudo is Ultrasoft + core correction, Zval =  6.0
     Generated using "atomic" code by A. Dal Corso  v.5.0.2 svn rev. 9415
     Using radial grid of 1095 points,  4 beta functions with: 
                l(1) =   0
                l(2) =   0
                l(3) =   1
                l(4) =   1
     Q(r) pseudized with 0 coefficients 


     PseudoPot. # 3 for  C read from file:
     /home/alatimer/bin/psp/esp_psp_w_gbrvRu/C.UPF
     MD5 check sum: ab446d787031eba755f1d5ee46644bb0
     Pseudo is Ultrasoft + core correction, Zval =  4.0
     Generated using "atomic" code by A. Dal Corso  v.5.0.2 svn rev. 9415
     Using radial grid of 1073 points,  4 beta functions with: 
                l(1) =   0
                l(2) =   0
                l(3) =   1
                l(4) =   1
     Q(r) pseudized with 0 coefficients 


     PseudoPot. # 4 for  H read from file:
     /home/alatimer/bin/psp/esp_psp_w_gbrvRu/H.UPF
     MD5 check sum: bd57da0722753ddfd9833a65b40bb853
     Pseudo is Ultrasoft, Zval =  1.0
     Generated using "atomic" code by A. Dal Corso  v.5.0.2 svn rev. 9415
     Using radial grid of  929 points,  2 beta functions with: 
                l(1) =   0
                l(2) =   0
     Q(r) pseudized with 0 coefficients 


     vdW kernel table read from file vdW_kernel_table
     MD5 check sum: 095c7af220d748ca6e76c0b4c6cfb241

     atomic species   valence    mass     pseudopotential
        Ti1           12.00    47.88000     Ti( 1.00)
        O1             6.00    15.99940      O( 1.00)
        C1             4.00    12.01100      C( 1.00)
        H1             1.00     1.00794      H( 1.00)

     Starting magnetic structure 
     atomic species   magnetization
        Ti1          0.250
        O1           0.500
        C1           0.750
        H1           0.000

     No symmetry found



   Cartesian axes

     site n.     atom                  positions (alat units)
         1           Ti1 tau(   1) = (   1.6476770   0.7437786   2.6545865  )
         2           O1  tau(   2) = (   1.6476770   2.2313359   3.9361215  )
         3           Ti1 tau(   3) = (   1.6476770   2.2313359   5.9499405  )
         4           O1  tau(   4) = (   0.3661420   0.7437786   5.9499405  )
         5           Ti1 tau(   5) = (   1.6407309   0.9134410   9.3139491  )
         6           O1  tau(   6) = (   1.6648823   2.2608486  10.4895904  )
         7           Ti1 tau(   7) = (   1.7578240   2.2899216  13.0472362  )
         8           O1  tau(   8) = (   0.4801583   0.7600008  12.7739736  )
         9           Ti1 tau(   9) = (   1.6476770   3.7188931   2.6545865  )
        10           O1  tau(  10) = (   1.6476770   5.2064503   3.9361215  )
        11           Ti1 tau(  11) = (   1.6476770   5.2064503   5.9499405  )
        12           O1  tau(  12) = (   0.3661420   3.7188931   5.9499405  )
        13           Ti1 tau(  13) = (   1.6336050   3.7786827   9.1566831  )
        14           O1  tau(  14) = (   1.6678212   5.2513959  10.5409436  )
        15           Ti1 tau(  15) = (   1.7144009   5.2558216  12.3462911  )
        16           O1  tau(  16) = (   0.4635505   3.7986228  12.7318280  )
        17           O1  tau(  17) = (   1.6476770   2.2313359   1.3730516  )
        18           Ti1 tau(  18) = (   4.9430310   2.2313359   2.6545865  )
        19           O1  tau(  19) = (   4.9430310   2.2313359   4.6684056  )
        20           O1  tau(  20) = (   6.2245660   0.7437786   2.6545865  )
        21           O1  tau(  21) = (   3.6614961   0.7437786   2.6545865  )
        22           Ti1 tau(  22) = (   4.9430310   0.7437786   5.9499405  )
        23           O1  tau(  23) = (   1.6683653   2.2752577   7.9427336  )
        24           O1  tau(  24) = (   4.9430310   2.2313359   7.2314755  )
        25           O1  tau(  25) = (   2.9292120   0.7437786   5.9499405  )
        26           Ti1 tau(  26) = (   4.9404121   2.2664794   9.4552217  )
        27           O1  tau(  27) = (   5.0099888   2.2616732  11.2946145  )
        28           O1  tau(  28) = (   6.2612001   0.7714827   9.2659748  )
        29           O1  tau(  29) = (   3.6791272   0.7744986   9.2965846  )
        30           Ti1 tau(  30) = (   5.0117873   0.7976728  12.8161605  )
        31           O1  tau(  31) = (   4.9963122   2.2836652  13.8750618  )
        32           O1  tau(  32) = (   2.9819382   0.7448324  12.7109220  )
        33           O1  tau(  33) = (   1.6476770   5.2064503   1.3730516  )
        34           Ti1 tau(  34) = (   4.9430310   5.2064503   2.6545865  )
        35           O1  tau(  35) = (   4.9430310   5.2064503   4.6684056  )
        36           O1  tau(  36) = (   6.2245660   3.7188931   2.6545865  )
        37           O1  tau(  37) = (   3.6614961   3.7188931   2.6545865  )
        38           Ti1 tau(  38) = (   4.9430310   3.7188931   5.9499405  )
        39           O1  tau(  39) = (   1.6664207   5.2035600   7.9365221  )
        40           O1  tau(  40) = (   4.9430310   5.2064503   7.2314755  )
        41           O1  tau(  41) = (   2.9292120   3.7188931   5.9499405  )
        42           Ti1 tau(  42) = (   4.9524353   5.2460635   9.4426343  )
        43           O1  tau(  43) = (   5.0107556   5.2394944  11.2927493  )
        44           O1  tau(  44) = (   6.2663940   3.7551737   9.2646230  )
        45           O1  tau(  45) = (   3.6780957   3.7542261   9.2971476  )
        46           Ti1 tau(  46) = (   5.0587989   3.7766986  12.8010349  )
        47           O1  tau(  47) = (   5.0196089   5.2502198  13.8813978  )
        48           O1  tau(  48) = (   2.9624133   3.7943242  12.7299881  )
        49           O1  tau(  49) = (   1.7427453   2.2533568  14.8370015  )
        50           C1  tau(  50) = (   2.7196098   4.2826273  16.2318421  )
        51           H1  tau(  51) = (   3.3037454   4.9255546  15.5827400  )
        52           H1  tau(  52) = (   3.3286606   3.7870117  16.9822022  )
        53           H1  tau(  53) = (   2.3125587   3.3726405  15.5729816  )
        54           H1  tau(  54) = (   1.8391288   4.7650601  16.6448379  )

     number of k points=    40  Fermi-Dirac smearing, width (Ry)=  0.0073
                       cart. coord. in units 2pi/alat
        k(    1) = (   0.0000000   0.0000000   0.0000000), wk =   0.0277778
        k(    2) = (   0.0000000   0.0280101   0.0000000), wk =   0.0555556
        k(    3) = (   0.0000000   0.0560203   0.0000000), wk =   0.0555556
        k(    4) = (   0.0000000  -0.0840304   0.0000000), wk =   0.0277778
        k(    5) = (   0.0252881   0.0000000   0.0000000), wk =   0.0555556
        k(    6) = (   0.0252881   0.0280101   0.0000000), wk =   0.0555556
        k(    7) = (   0.0252881   0.0560203   0.0000000), wk =   0.0555556
        k(    8) = (   0.0252881  -0.0840304   0.0000000), wk =   0.0555556
        k(    9) = (   0.0505763   0.0000000   0.0000000), wk =   0.0555556
        k(   10) = (   0.0505763   0.0280101   0.0000000), wk =   0.0555556
        k(   11) = (   0.0505763   0.0560203   0.0000000), wk =   0.0555556
        k(   12) = (   0.0505763  -0.0840304   0.0000000), wk =   0.0555556
        k(   13) = (  -0.0758644   0.0000000   0.0000000), wk =   0.0277778
        k(   14) = (  -0.0758644   0.0280101   0.0000000), wk =   0.0555556
        k(   15) = (  -0.0758644   0.0560203   0.0000000), wk =   0.0555556
        k(   16) = (  -0.0758644  -0.0840304   0.0000000), wk =   0.0277778
        k(   17) = (  -0.0252881   0.0280101   0.0000000), wk =   0.0555556
        k(   18) = (  -0.0252881   0.0560203   0.0000000), wk =   0.0555556
        k(   19) = (  -0.0505763   0.0280101   0.0000000), wk =   0.0555556
        k(   20) = (  -0.0505763   0.0560203   0.0000000), wk =   0.0555556
        k(   21) = (   0.0000000   0.0000000   0.0000000), wk =   0.0277778
        k(   22) = (   0.0000000   0.0280101   0.0000000), wk =   0.0555556
        k(   23) = (   0.0000000   0.0560203   0.0000000), wk =   0.0555556
        k(   24) = (   0.0000000  -0.0840304   0.0000000), wk =   0.0277778
        k(   25) = (   0.0252881   0.0000000   0.0000000), wk =   0.0555556
        k(   26) = (   0.0252881   0.0280101   0.0000000), wk =   0.0555556
        k(   27) = (   0.0252881   0.0560203   0.0000000), wk =   0.0555556
        k(   28) = (   0.0252881  -0.0840304   0.0000000), wk =   0.0555556
        k(   29) = (   0.0505763   0.0000000   0.0000000), wk =   0.0555556
        k(   30) = (   0.0505763   0.0280101   0.0000000), wk =   0.0555556
        k(   31) = (   0.0505763   0.0560203   0.0000000), wk =   0.0555556
        k(   32) = (   0.0505763  -0.0840304   0.0000000), wk =   0.0555556
        k(   33) = (  -0.0758644   0.0000000   0.0000000), wk =   0.0277778
        k(   34) = (  -0.0758644   0.0280101   0.0000000), wk =   0.0555556
        k(   35) = (  -0.0758644   0.0560203   0.0000000), wk =   0.0555556
        k(   36) = (  -0.0758644  -0.0840304   0.0000000), wk =   0.0277778
        k(   37) = (  -0.0252881   0.0280101   0.0000000), wk =   0.0555556
        k(   38) = (  -0.0252881   0.0560203   0.0000000), wk =   0.0555556
        k(   39) = (  -0.0505763   0.0280101   0.0000000), wk =   0.0555556
        k(   40) = (  -0.0505763   0.0560203   0.0000000), wk =   0.0555556

     Dense  grid:  1096637 G-vectors     FFT dimensions: (  80,  72, 375)

     Smooth grid:   277353 G-vectors     FFT dimensions: (  54,  45, 240)

     Largest allocated arrays     est. size (Mb)     dimensions
        Kohn-Sham Wavefunctions         9.95 Mb     (    2180,  299)
        NL pseudopotentials            18.89 Mb     (    2180,  568)
        Each V/rho on FFT grid          4.22 Mb     (  138240,   2)
        Each G-vector array             0.52 Mb     (   68538)
        G-vector shells                 0.25 Mb     (   33046)
     Largest temporary arrays     est. size (Mb)     dimensions
        Auxiliary wavefunctions        39.78 Mb     (    2180, 1196)
        Each subspace H/S matrix       21.83 Mb     (    1196, 1196)
        Each <psi_i|beta_j> matrix      2.59 Mb     (     568,  299)
        Arrays for rho mixing          21.09 Mb     (  138240,   10)

     Check: negative/imaginary core charge=   -0.000049    0.000000

     The initial density is read from file :
     ./calc.save/charge-density.dat


     negative rho (up, down):  1.189E-02 1.196E-02


     ************************************************************************
     *
     * You are using vdW-DF for exchange-correlation in this calculation.
     * Please cite the following three references that made this development
     * possible:
     *
     *   M. Dion, H. Rydberg, E. Schroder, D. C. Langreth, and
     *   B. I. Lundqvist, Phys. Rev. Lett. 92, 246401 (2004).
     *
     *   T. Thonhauser, V. R. Cooper, S. Li, A. Puzder, P. Hyldgaard, and
     *   D. C. Langreth, Phys. Rev. B 76, 125112 (2007).
     *
     *   G. Roman-Perez and J. M. Soler, Phys. Rev. Lett. 103, 096102 (2009).
     *
     *
     * If you are using vdW-DF2, please also cite:
     *
     *   K. Lee, E. D. Murray, L. Kong, B. I. Lundqvist, and
     *   D. C. Langreth, Phys. Rev. B 82, 081101(R) (2010).
     *
     *
     * If you are calculating the stress with vdW-DF, please also cite:
     *
     *   R. Sabatini, E. Kucukbenli, B. Kolb, T. Thonhauser, and
     *   S. de Gironcoli, J. Phys.: Condens. Matter 24, 424209 (2012).
     *
     ************************************************************************

     Carrying out vdW-DF run using the following parameters:

     Nqs =      20    Nr_points =    1024   r_max =   100.000
     q_mesh =
               0.00001000     0.04494208     0.09755937     0.15916263
               0.23128650     0.31572767     0.41458969     0.53033537
               0.66584808     0.82450364     1.01025438     1.22772762
               1.48234092     1.78043706     2.12944203     2.53805004
               3.01644009     3.57652955     4.23227104     5.00000000

     Gradients computed in reciprocal space

     ************************************************************************


     Starting wfc are  300 randomized atomic wfcs

     total cpu time spent up to now is       81.1 secs

     Self-consistent Calculation

     iteration #  1     ecut=    40.42 Ry     beta=0.10
     Davidson diagonalization with overlap
     ethr =  1.00E-05,  avg # of iterations = 15.0

     negative rho (up, down):  1.189E-02 1.196E-02
 
     Magnetic moment per site:
     atom:    1    charge:    3.1244    magn:   -0.0003    constr:    0.0000
     atom:    2    charge:    2.0896    magn:    0.0003    constr:    0.0000
     atom:    3    charge:    3.1198    magn:   -0.0000    constr:    0.0000
     atom:    4    charge:    2.0867    magn:   -0.0001    constr:    0.0000
     atom:    5    charge:    3.1161    magn:   -0.0002    constr:    0.0000
     atom:    6    charge:    2.0795    magn:    0.0020    constr:    0.0000
     atom:    7    charge:    3.1164    magn:   -0.0052    constr:    0.0000
     atom:    8    charge:    2.0795    magn:    0.0247    constr:    0.0000
     atom:    9    charge:    3.1244    magn:   -0.0003    constr:    0.0000
     atom:   10    charge:    2.0898    magn:    0.0003    constr:    0.0000
     atom:   11    charge:    3.1198    magn:   -0.0000    constr:    0.0000
     atom:   12    charge:    2.0870    magn:   -0.0000    constr:    0.0000
     atom:   13    charge:    3.1150    magn:   -0.0002    constr:    0.0000
     atom:   14    charge:    2.0939    magn:    0.0022    constr:    0.0000
     atom:   15    charge:    3.1183    magn:   -0.0008    constr:    0.0000
     atom:   16    charge:    2.0829    magn:    0.0046    constr:    0.0000
     atom:   17    charge:    2.0623    magn:    0.0018    constr:    0.0000
     atom:   18    charge:    3.1239    magn:   -0.0001    constr:    0.0000
     atom:   19    charge:    2.0875    magn:    0.0001    constr:    0.0000
     atom:   20    charge:    2.0847    magn:    0.0002    constr:    0.0000
     atom:   21    charge:    2.0847    magn:    0.0002    constr:    0.0000
     atom:   22    charge:    3.1199    magn:    0.0000    constr:    0.0000
     atom:   23    charge:    2.0908    magn:    0.0002    constr:    0.0000
     atom:   24    charge:    2.0754    magn:   -0.0002    constr:    0.0000
     atom:   25    charge:    2.0867    magn:    0.0000    constr:    0.0000
     atom:   26    charge:    3.1127    magn:   -0.0002    constr:    0.0000
     atom:   27    charge:    2.0803    magn:    0.0024    constr:    0.0000
     atom:   28    charge:    2.0839    magn:    0.0006    constr:    0.0000
     atom:   29    charge:    2.0860    magn:    0.0008    constr:    0.0000
     atom:   30    charge:    3.1171    magn:   -0.0008    constr:    0.0000
     atom:   31    charge:    2.0826    magn:    0.0006    constr:    0.0000
     atom:   32    charge:    2.0830    magn:    0.0064    constr:    0.0000
     atom:   33    charge:    2.0623    magn:    0.0018    constr:    0.0000
     atom:   34    charge:    3.1239    magn:   -0.0001    constr:    0.0000
     atom:   35    charge:    2.0876    magn:    0.0001    constr:    0.0000
     atom:   36    charge:    2.0847    magn:    0.0002    constr:    0.0000
     atom:   37    charge:    2.0847    magn:    0.0002    constr:    0.0000
     atom:   38    charge:    3.1200    magn:    0.0000    constr:    0.0000
     atom:   39    charge:    2.0839    magn:    0.0002    constr:    0.0000
     atom:   40    charge:    2.0756    magn:   -0.0003    constr:    0.0000
     atom:   41    charge:    2.0870    magn:   -0.0000    constr:    0.0000
     atom:   42    charge:    3.1151    magn:   -0.0002    constr:    0.0000
     atom:   43    charge:    2.0803    magn:    0.0030    constr:    0.0000
     atom:   44    charge:    2.0851    magn:    0.0008    constr:    0.0000
     atom:   45    charge:    2.0858    magn:    0.0004    constr:    0.0000
     atom:   46    charge:    3.1147    magn:   -0.0007    constr:    0.0000
     atom:   47    charge:    2.0806    magn:    0.0046    constr:    0.0000
     atom:   48    charge:    2.0838    magn:    0.0135    constr:    0.0000
     atom:   49    charge:    2.0539    magn:    0.2386    constr:    0.0000
     atom:   50    charge:    0.6700    magn:    0.0552    constr:    0.0000
     atom:   51    charge:    0.4220    magn:    0.0009    constr:    0.0000
     atom:   52    charge:    0.4228    magn:    0.0009    constr:    0.0000
     atom:   53    charge:    0.3594    magn:    0.0214    constr:    0.0000
     atom:   54    charge:    0.4231    magn:    0.0007    constr:    0.0000

     total cpu time spent up to now is     1047.5 secs

     total energy              =   -3021.14995935 Ry
     Harris-Foulkes estimate   =   -3021.15077264 Ry
     estimated scf accuracy    <       0.00590013 Ry

     total magnetization       =     1.05 Bohr mag/cell
     absolute magnetization    =     1.22 Bohr mag/cell

     iteration #  2     ecut=    40.42 Ry     beta=0.10
     Davidson diagonalization with overlap
     ethr =  1.48E-06,  avg # of iterations =  1.5

     negative rho (up, down):  1.189E-02 1.196E-02
 
     Magnetic moment per site:
     atom:    1    charge:    3.1244    magn:   -0.0003    constr:    0.0000
     atom:    2    charge:    2.0897    magn:    0.0003    constr:    0.0000
     atom:    3    charge:    3.1198    magn:   -0.0000    constr:    0.0000
     atom:    4    charge:    2.0867    magn:   -0.0001    constr:    0.0000
     atom:    5    charge:    3.1161    magn:   -0.0002    constr:    0.0000
     atom:    6    charge:    2.0794    magn:    0.0020    constr:    0.0000
     atom:    7    charge:    3.1164    magn:   -0.0052    constr:    0.0000
     atom:    8    charge:    2.0794    magn:    0.0246    constr:    0.0000
     atom:    9    charge:    3.1244    magn:   -0.0003    constr:    0.0000
     atom:   10    charge:    2.0899    magn:    0.0003    constr:    0.0000
     atom:   11    charge:    3.1198    magn:   -0.0000    constr:    0.0000
     atom:   12    charge:    2.0871    magn:   -0.0000    constr:    0.0000
     atom:   13    charge:    3.1150    magn:   -0.0002    constr:    0.0000
     atom:   14    charge:    2.0939    magn:    0.0022    constr:    0.0000
     atom:   15    charge:    3.1183    magn:   -0.0008    constr:    0.0000
     atom:   16    charge:    2.0828    magn:    0.0046    constr:    0.0000
     atom:   17    charge:    2.0627    magn:    0.0017    constr:    0.0000
     atom:   18    charge:    3.1240    magn:   -0.0001    constr:    0.0000
     atom:   19    charge:    2.0876    magn:    0.0001    constr:    0.0000
     atom:   20    charge:    2.0847    magn:    0.0002    constr:    0.0000
     atom:   21    charge:    2.0847    magn:    0.0002    constr:    0.0000
     atom:   22    charge:    3.1199    magn:    0.0000    constr:    0.0000
     atom:   23    charge:    2.0908    magn:    0.0002    constr:    0.0000
     atom:   24    charge:    2.0754    magn:   -0.0002    constr:    0.0000
     atom:   25    charge:    2.0868    magn:    0.0000    constr:    0.0000
     atom:   26    charge:    3.1127    magn:   -0.0002    constr:    0.0000
     atom:   27    charge:    2.0802    magn:    0.0025    constr:    0.0000
     atom:   28    charge:    2.0838    magn:    0.0006    constr:    0.0000
     atom:   29    charge:    2.0860    magn:    0.0008    constr:    0.0000
     atom:   30    charge:    3.1171    magn:   -0.0008    constr:    0.0000
     atom:   31    charge:    2.0826    magn:    0.0006    constr:    0.0000
     atom:   32    charge:    2.0829    magn:    0.0064    constr:    0.0000
     atom:   33    charge:    2.0627    magn:    0.0017    constr:    0.0000
     atom:   34    charge:    3.1239    magn:   -0.0001    constr:    0.0000
     atom:   35    charge:    2.0876    magn:    0.0001    constr:    0.0000
     atom:   36    charge:    2.0847    magn:    0.0002    constr:    0.0000
     atom:   37    charge:    2.0847    magn:    0.0002    constr:    0.0000
     atom:   38    charge:    3.1200    magn:    0.0000    constr:    0.0000
     atom:   39    charge:    2.0839    magn:    0.0002    constr:    0.0000
     atom:   40    charge:    2.0756    magn:   -0.0003    constr:    0.0000
     atom:   41    charge:    2.0870    magn:   -0.0000    constr:    0.0000
     atom:   42    charge:    3.1151    magn:   -0.0002    constr:    0.0000
     atom:   43    charge:    2.0802    magn:    0.0030    constr:    0.0000
     atom:   44    charge:    2.0850    magn:    0.0008    constr:    0.0000
     atom:   45    charge:    2.0858    magn:    0.0004    constr:    0.0000
     atom:   46    charge:    3.1147    magn:   -0.0007    constr:    0.0000
     atom:   47    charge:    2.0806    magn:    0.0046    constr:    0.0000
     atom:   48    charge:    2.0838    magn:    0.0134    constr:    0.0000
     atom:   49    charge:    2.0542    magn:    0.2381    constr:    0.0000
     atom:   50    charge:    0.6695    magn:    0.0554    constr:    0.0000
     atom:   51    charge:    0.4220    magn:    0.0009    constr:    0.0000
     atom:   52    charge:    0.4228    magn:    0.0009    constr:    0.0000
     atom:   53    charge:    0.3591    magn:    0.0216    constr:    0.0000
     atom:   54    charge:    0.4231    magn:    0.0007    constr:    0.0000

     total cpu time spent up to now is     1257.1 secs

     total energy              =   -3021.14980018 Ry
     Harris-Foulkes estimate   =   -3021.15022560 Ry
     estimated scf accuracy    <       0.00424836 Ry

     total magnetization       =     1.06 Bohr mag/cell
     absolute magnetization    =     1.23 Bohr mag/cell

     iteration #  3     ecut=    40.42 Ry     beta=0.10
     Davidson diagonalization with overlap
     ethr =  1.07E-06,  avg # of iterations =  2.6

     negative rho (up, down):  1.189E-02 1.196E-02
 
     Magnetic moment per site:
     atom:    1    charge:    3.1244    magn:   -0.0003    constr:    0.0000
     atom:    2    charge:    2.0897    magn:    0.0003    constr:    0.0000
     atom:    3    charge:    3.1198    magn:   -0.0000    constr:    0.0000
     atom:    4    charge:    2.0868    magn:   -0.0001    constr:    0.0000
     atom:    5    charge:    3.1161    magn:   -0.0002    constr:    0.0000
     atom:    6    charge:    2.0795    magn:    0.0020    constr:    0.0000
     atom:    7    charge:    3.1164    magn:   -0.0051    constr:    0.0000
     atom:    8    charge:    2.0795    magn:    0.0244    constr:    0.0000
     atom:    9    charge:    3.1244    magn:   -0.0003    constr:    0.0000
     atom:   10    charge:    2.0898    magn:    0.0003    constr:    0.0000
     atom:   11    charge:    3.1198    magn:   -0.0000    constr:    0.0000
     atom:   12    charge:    2.0871    magn:   -0.0000    constr:    0.0000
     atom:   13    charge:    3.1150    magn:   -0.0002    constr:    0.0000
     atom:   14    charge:    2.0939    magn:    0.0022    constr:    0.0000
     atom:   15    charge:    3.1183    magn:   -0.0008    constr:    0.0000
     atom:   16    charge:    2.0828    magn:    0.0046    constr:    0.0000
     atom:   17    charge:    2.0624    magn:    0.0017    constr:    0.0000
     atom:   18    charge:    3.1239    magn:   -0.0001    constr:    0.0000
     atom:   19    charge:    2.0876    magn:    0.0001    constr:    0.0000
     atom:   20    charge:    2.0847    magn:    0.0002    constr:    0.0000
     atom:   21    charge:    2.0847    magn:    0.0002    constr:    0.0000
     atom:   22    charge:    3.1199    magn:    0.0000    constr:    0.0000
     atom:   23    charge:    2.0908    magn:    0.0002    constr:    0.0000
     atom:   24    charge:    2.0754    magn:   -0.0002    constr:    0.0000
     atom:   25    charge:    2.0868    magn:    0.0000    constr:    0.0000
     atom:   26    charge:    3.1127    magn:   -0.0002    constr:    0.0000
     atom:   27    charge:    2.0802    magn:    0.0025    constr:    0.0000
     atom:   28    charge:    2.0839    magn:    0.0006    constr:    0.0000
     atom:   29    charge:    2.0860    magn:    0.0008    constr:    0.0000
     atom:   30    charge:    3.1171    magn:   -0.0008    constr:    0.0000
     atom:   31    charge:    2.0826    magn:    0.0006    constr:    0.0000
     atom:   32    charge:    2.0829    magn:    0.0063    constr:    0.0000
     atom:   33    charge:    2.0624    magn:    0.0017    constr:    0.0000
     atom:   34    charge:    3.1239    magn:   -0.0001    constr:    0.0000
     atom:   35    charge:    2.0876    magn:    0.0001    constr:    0.0000
     atom:   36    charge:    2.0847    magn:    0.0002    constr:    0.0000
     atom:   37    charge:    2.0847    magn:    0.0002    constr:    0.0000
     atom:   38    charge:    3.1200    magn:    0.0000    constr:    0.0000
     atom:   39    charge:    2.0839    magn:    0.0002    constr:    0.0000
     atom:   40    charge:    2.0757    magn:   -0.0002    constr:    0.0000
     atom:   41    charge:    2.0871    magn:   -0.0000    constr:    0.0000
     atom:   42    charge:    3.1151    magn:   -0.0002    constr:    0.0000
     atom:   43    charge:    2.0803    magn:    0.0030    constr:    0.0000
     atom:   44    charge:    2.0851    magn:    0.0008    constr:    0.0000
     atom:   45    charge:    2.0858    magn:    0.0004    constr:    0.0000
     atom:   46    charge:    3.1147    magn:   -0.0007    constr:    0.0000
     atom:   47    charge:    2.0806    magn:    0.0046    constr:    0.0000
     atom:   48    charge:    2.0839    magn:    0.0132    constr:    0.0000
     atom:   49    charge:    2.0550    magn:    0.2368    constr:    0.0000
     atom:   50    charge:    0.6683    magn:    0.0560    constr:    0.0000
     atom:   51    charge:    0.4221    magn:    0.0010    constr:    0.0000
     atom:   52    charge:    0.4229    magn:    0.0010    constr:    0.0000
     atom:   53    charge:    0.3586    magn:    0.0221    constr:    0.0000
     atom:   54    charge:    0.4231    magn:    0.0007    constr:    0.0000

     total cpu time spent up to now is     1482.5 secs

     total energy              =   -3021.14962933 Ry
     Harris-Foulkes estimate   =   -3021.15012982 Ry
     estimated scf accuracy    <       0.00553351 Ry

     total magnetization       =     1.06 Bohr mag/cell
     absolute magnetization    =     1.22 Bohr mag/cell

     iteration #  4     ecut=    40.42 Ry     beta=0.10
     Davidson diagonalization with overlap
     ethr =  1.07E-06,  avg # of iterations =  2.3

     negative rho (up, down):  1.189E-02 1.196E-02
 
     Magnetic moment per site:
     atom:    1    charge:    3.1244    magn:   -0.0003    constr:    0.0000
     atom:    2    charge:    2.0897    magn:    0.0003    constr:    0.0000
     atom:    3    charge:    3.1198    magn:   -0.0000    constr:    0.0000
     atom:    4    charge:    2.0867    magn:   -0.0001    constr:    0.0000
     atom:    5    charge:    3.1161    magn:   -0.0002    constr:    0.0000
     atom:    6    charge:    2.0795    magn:    0.0021    constr:    0.0000
     atom:    7    charge:    3.1165    magn:   -0.0050    constr:    0.0000
     atom:    8    charge:    2.0795    magn:    0.0242    constr:    0.0000
     atom:    9    charge:    3.1244    magn:   -0.0003    constr:    0.0000
     atom:   10    charge:    2.0898    magn:    0.0003    constr:    0.0000
     atom:   11    charge:    3.1198    magn:   -0.0000    constr:    0.0000
     atom:   12    charge:    2.0870    magn:   -0.0000    constr:    0.0000
     atom:   13    charge:    3.1150    magn:   -0.0002    constr:    0.0000
     atom:   14    charge:    2.0939    magn:    0.0022    constr:    0.0000
     atom:   15    charge:    3.1184    magn:   -0.0008    constr:    0.0000
     atom:   16    charge:    2.0828    magn:    0.0045    constr:    0.0000
     atom:   17    charge:    2.0625    magn:    0.0016    constr:    0.0000
     atom:   18    charge:    3.1240    magn:   -0.0001    constr:    0.0000
     atom:   19    charge:    2.0875    magn:    0.0001    constr:    0.0000
     atom:   20    charge:    2.0847    magn:    0.0001    constr:    0.0000
     atom:   21    charge:    2.0847    magn:    0.0001    constr:    0.0000
     atom:   22    charge:    3.1199    magn:    0.0000    constr:    0.0000
     atom:   23    charge:    2.0908    magn:    0.0002    constr:    0.0000
     atom:   24    charge:    2.0754    magn:   -0.0001    constr:    0.0000
     atom:   25    charge:    2.0867    magn:    0.0000    constr:    0.0000
     atom:   26    charge:    3.1127    magn:   -0.0002    constr:    0.0000
     atom:   27    charge:    2.0803    magn:    0.0025    constr:    0.0000
     atom:   28    charge:    2.0839    magn:    0.0006    constr:    0.0000
     atom:   29    charge:    2.0860    magn:    0.0008    constr:    0.0000
     atom:   30    charge:    3.1171    magn:   -0.0008    constr:    0.0000
     atom:   31    charge:    2.0827    magn:    0.0006    constr:    0.0000
     atom:   32    charge:    2.0830    magn:    0.0063    constr:    0.0000
     atom:   33    charge:    2.0625    magn:    0.0016    constr:    0.0000
     atom:   34    charge:    3.1240    magn:   -0.0001    constr:    0.0000
     atom:   35    charge:    2.0875    magn:    0.0001    constr:    0.0000
     atom:   36    charge:    2.0847    magn:    0.0001    constr:    0.0000
     atom:   37    charge:    2.0847    magn:    0.0001    constr:    0.0000
     atom:   38    charge:    3.1200    magn:    0.0000    constr:    0.0000
     atom:   39    charge:    2.0839    magn:    0.0002    constr:    0.0000
     atom:   40    charge:    2.0756    magn:   -0.0002    constr:    0.0000
     atom:   41    charge:    2.0870    magn:   -0.0000    constr:    0.0000
     atom:   42    charge:    3.1151    magn:   -0.0002    constr:    0.0000
     atom:   43    charge:    2.0803    magn:    0.0030    constr:    0.0000
     atom:   44    charge:    2.0851    magn:    0.0008    constr:    0.0000
     atom:   45    charge:    2.0858    magn:    0.0004    constr:    0.0000
     atom:   46    charge:    3.1147    magn:   -0.0007    constr:    0.0000
     atom:   47    charge:    2.0807    magn:    0.0045    constr:    0.0000
     atom:   48    charge:    2.0839    magn:    0.0131    constr:    0.0000
     atom:   49    charge:    2.0546    magn:    0.2362    constr:    0.0000
     atom:   50    charge:    0.6679    magn:    0.0563    constr:    0.0000
     atom:   51    charge:    0.4221    magn:    0.0009    constr:    0.0000
     atom:   52    charge:    0.4230    magn:    0.0011    constr:    0.0000
     atom:   53    charge:    0.3584    magn:    0.0223    constr:    0.0000
     atom:   54    charge:    0.4231    magn:    0.0007    constr:    0.0000

     total cpu time spent up to now is     1704.2 secs

     total energy              =   -3021.14979329 Ry
     Harris-Foulkes estimate   =   -3021.14984713 Ry
     estimated scf accuracy    <       0.00059756 Ry

     total magnetization       =     1.06 Bohr mag/cell
     absolute magnetization    =     1.23 Bohr mag/cell

     iteration #  5     ecut=    40.42 Ry     beta=0.10
     Davidson diagonalization with overlap
     ethr =  1.50E-07,  avg # of iterations =  3.4

     negative rho (up, down):  1.188E-02 1.196E-02
 
     Magnetic moment per site:
     atom:    1    charge:    3.1244    magn:   -0.0003    constr:    0.0000
     atom:    2    charge:    2.0897    magn:    0.0003    constr:    0.0000
     atom:    3    charge:    3.1198    magn:   -0.0000    constr:    0.0000
     atom:    4    charge:    2.0867    magn:   -0.0001    constr:    0.0000
     atom:    5    charge:    3.1161    magn:   -0.0002    constr:    0.0000
     atom:    6    charge:    2.0795    magn:    0.0021    constr:    0.0000
     atom:    7    charge:    3.1166    magn:   -0.0049    constr:    0.0000
     atom:    8    charge:    2.0794    magn:    0.0241    constr:    0.0000
     atom:    9    charge:    3.1244    magn:   -0.0003    constr:    0.0000
     atom:   10    charge:    2.0898    magn:    0.0003    constr:    0.0000
     atom:   11    charge:    3.1198    magn:   -0.0000    constr:    0.0000
     atom:   12    charge:    2.0870    magn:   -0.0000    constr:    0.0000
     atom:   13    charge:    3.1150    magn:   -0.0002    constr:    0.0000
     atom:   14    charge:    2.0939    magn:    0.0022    constr:    0.0000
     atom:   15    charge:    3.1184    magn:   -0.0008    constr:    0.0000
     atom:   16    charge:    2.0829    magn:    0.0045    constr:    0.0000
     atom:   17    charge:    2.0625    magn:    0.0015    constr:    0.0000
     atom:   18    charge:    3.1240    magn:   -0.0001    constr:    0.0000
     atom:   19    charge:    2.0875    magn:    0.0001    constr:    0.0000
     atom:   20    charge:    2.0847    magn:    0.0001    constr:    0.0000
     atom:   21    charge:    2.0847    magn:    0.0001    constr:    0.0000
     atom:   22    charge:    3.1199    magn:    0.0000    constr:    0.0000
     atom:   23    charge:    2.0908    magn:    0.0002    constr:    0.0000
     atom:   24    charge:    2.0754    magn:   -0.0001    constr:    0.0000
     atom:   25    charge:    2.0867    magn:    0.0000    constr:    0.0000
     atom:   26    charge:    3.1127    magn:   -0.0002    constr:    0.0000
     atom:   27    charge:    2.0802    magn:    0.0025    constr:    0.0000
     atom:   28    charge:    2.0839    magn:    0.0006    constr:    0.0000
     atom:   29    charge:    2.0860    magn:    0.0008    constr:    0.0000
     atom:   30    charge:    3.1171    magn:   -0.0008    constr:    0.0000
     atom:   31    charge:    2.0827    magn:    0.0006    constr:    0.0000
     atom:   32    charge:    2.0829    magn:    0.0063    constr:    0.0000
     atom:   33    charge:    2.0625    magn:    0.0015    constr:    0.0000
     atom:   34    charge:    3.1239    magn:   -0.0001    constr:    0.0000
     atom:   35    charge:    2.0875    magn:    0.0001    constr:    0.0000
     atom:   36    charge:    2.0847    magn:    0.0001    constr:    0.0000
     atom:   37    charge:    2.0847    magn:    0.0001    constr:    0.0000
     atom:   38    charge:    3.1200    magn:    0.0000    constr:    0.0000
     atom:   39    charge:    2.0839    magn:    0.0002    constr:    0.0000
     atom:   40    charge:    2.0756    magn:   -0.0002    constr:    0.0000
     atom:   41    charge:    2.0870    magn:   -0.0000    constr:    0.0000
     atom:   42    charge:    3.1151    magn:   -0.0002    constr:    0.0000
     atom:   43    charge:    2.0803    magn:    0.0030    constr:    0.0000
     atom:   44    charge:    2.0851    magn:    0.0009    constr:    0.0000
     atom:   45    charge:    2.0858    magn:    0.0004    constr:    0.0000
     atom:   46    charge:    3.1147    magn:   -0.0007    constr:    0.0000
     atom:   47    charge:    2.0809    magn:    0.0045    constr:    0.0000
     atom:   48    charge:    2.0838    magn:    0.0129    constr:    0.0000
     atom:   49    charge:    2.0537    magn:    0.2355    constr:    0.0000
     atom:   50    charge:    0.6680    magn:    0.0567    constr:    0.0000
     atom:   51    charge:    0.4220    magn:    0.0009    constr:    0.0000
     atom:   52    charge:    0.4229    magn:    0.0011    constr:    0.0000
     atom:   53    charge:    0.3582    magn:    0.0224    constr:    0.0000
     atom:   54    charge:    0.4231    magn:    0.0007    constr:    0.0000

     total cpu time spent up to now is     1947.8 secs

     total energy              =   -3021.14980485 Ry
     Harris-Foulkes estimate   =   -3021.14982567 Ry
     estimated scf accuracy    <       0.00029534 Ry

     total magnetization       =     1.06 Bohr mag/cell
     absolute magnetization    =     1.23 Bohr mag/cell

     iteration #  6     ecut=    40.42 Ry     beta=0.10
     Davidson diagonalization with overlap
     ethr =  7.42E-08,  avg # of iterations =  2.1

     negative rho (up, down):  1.188E-02 1.196E-02
 
     Magnetic moment per site:
     atom:    1    charge:    3.1244    magn:   -0.0002    constr:    0.0000
     atom:    2    charge:    2.0897    magn:    0.0002    constr:    0.0000
     atom:    3    charge:    3.1198    magn:   -0.0000    constr:    0.0000
     atom:    4    charge:    2.0867    magn:   -0.0001    constr:    0.0000
     atom:    5    charge:    3.1161    magn:   -0.0002    constr:    0.0000
     atom:    6    charge:    2.0794    magn:    0.0021    constr:    0.0000
     atom:    7    charge:    3.1166    magn:   -0.0047    constr:    0.0000
     atom:    8    charge:    2.0792    magn:    0.0238    constr:    0.0000
     atom:    9    charge:    3.1244    magn:   -0.0002    constr:    0.0000
     atom:   10    charge:    2.0898    magn:    0.0002    constr:    0.0000
     atom:   11    charge:    3.1198    magn:   -0.0000    constr:    0.0000
     atom:   12    charge:    2.0870    magn:   -0.0000    constr:    0.0000
     atom:   13    charge:    3.1150    magn:   -0.0002    constr:    0.0000
     atom:   14    charge:    2.0939    magn:    0.0022    constr:    0.0000
     atom:   15    charge:    3.1184    magn:   -0.0008    constr:    0.0000
     atom:   16    charge:    2.0829    magn:    0.0045    constr:    0.0000
     atom:   17    charge:    2.0624    magn:    0.0013    constr:    0.0000
     atom:   18    charge:    3.1239    magn:   -0.0001    constr:    0.0000
     atom:   19    charge:    2.0876    magn:    0.0001    constr:    0.0000
     atom:   20    charge:    2.0847    magn:    0.0001    constr:    0.0000
     atom:   21    charge:    2.0847    magn:    0.0001    constr:    0.0000
     atom:   22    charge:    3.1199    magn:    0.0000    constr:    0.0000
     atom:   23    charge:    2.0908    magn:    0.0002    constr:    0.0000
     atom:   24    charge:    2.0754    magn:   -0.0001    constr:    0.0000
     atom:   25    charge:    2.0867    magn:    0.0000    constr:    0.0000
     atom:   26    charge:    3.1127    magn:   -0.0002    constr:    0.0000
     atom:   27    charge:    2.0802    magn:    0.0025    constr:    0.0000
     atom:   28    charge:    2.0839    magn:    0.0007    constr:    0.0000
     atom:   29    charge:    2.0860    magn:    0.0008    constr:    0.0000
     atom:   30    charge:    3.1171    magn:   -0.0008    constr:    0.0000
     atom:   31    charge:    2.0826    magn:    0.0006    constr:    0.0000
     atom:   32    charge:    2.0829    magn:    0.0063    constr:    0.0000
     atom:   33    charge:    2.0624    magn:    0.0013    constr:    0.0000
     atom:   34    charge:    3.1239    magn:   -0.0001    constr:    0.0000
     atom:   35    charge:    2.0876    magn:    0.0000    constr:    0.0000
     atom:   36    charge:    2.0847    magn:    0.0001    constr:    0.0000
     atom:   37    charge:    2.0847    magn:    0.0001    constr:    0.0000
     atom:   38    charge:    3.1200    magn:    0.0000    constr:    0.0000
     atom:   39    charge:    2.0839    magn:    0.0002    constr:    0.0000
     atom:   40    charge:    2.0756    magn:   -0.0002    constr:    0.0000
     atom:   41    charge:    2.0870    magn:   -0.0000    constr:    0.0000
     atom:   42    charge:    3.1151    magn:   -0.0002    constr:    0.0000
     atom:   43    charge:    2.0802    magn:    0.0030    constr:    0.0000
     atom:   44    charge:    2.0851    magn:    0.0009    constr:    0.0000
     atom:   45    charge:    2.0858    magn:    0.0005    constr:    0.0000
     atom:   46    charge:    3.1148    magn:   -0.0007    constr:    0.0000
     atom:   47    charge:    2.0809    magn:    0.0044    constr:    0.0000
     atom:   48    charge:    2.0837    magn:    0.0127    constr:    0.0000
     atom:   49    charge:    2.0525    magn:    0.2340    constr:    0.0000
     atom:   50    charge:    0.6685    magn:    0.0575    constr:    0.0000
     atom:   51    charge:    0.4219    magn:    0.0008    constr:    0.0000
     atom:   52    charge:    0.4228    magn:    0.0012    constr:    0.0000
     atom:   53    charge:    0.3579    magn:    0.0224    constr:    0.0000
     atom:   54    charge:    0.4230    magn:    0.0006    constr:    0.0000

     total cpu time spent up to now is     2168.5 secs

     total energy              =   -3021.14980566 Ry
     Harris-Foulkes estimate   =   -3021.14981153 Ry
     estimated scf accuracy    <       0.00014605 Ry

     total magnetization       =     1.06 Bohr mag/cell
     absolute magnetization    =     1.23 Bohr mag/cell

     iteration #  7     ecut=    40.42 Ry     beta=0.10
     Davidson diagonalization with overlap
     ethr =  3.67E-08,  avg # of iterations =  3.0

     negative rho (up, down):  1.188E-02 1.196E-02
 
     Magnetic moment per site:
     atom:    1    charge:    3.1244    magn:   -0.0002    constr:    0.0000
     atom:    2    charge:    2.0897    magn:    0.0002    constr:    0.0000
     atom:    3    charge:    3.1198    magn:   -0.0000    constr:    0.0000
     atom:    4    charge:    2.0867    magn:   -0.0001    constr:    0.0000
     atom:    5    charge:    3.1161    magn:   -0.0002    constr:    0.0000
     atom:    6    charge:    2.0795    magn:    0.0021    constr:    0.0000
     atom:    7    charge:    3.1166    magn:   -0.0047    constr:    0.0000
     atom:    8    charge:    2.0793    magn:    0.0238    constr:    0.0000
     atom:    9    charge:    3.1244    magn:   -0.0002    constr:    0.0000
     atom:   10    charge:    2.0898    magn:    0.0002    constr:    0.0000
     atom:   11    charge:    3.1198    magn:   -0.0000    constr:    0.0000
     atom:   12    charge:    2.0870    magn:   -0.0000    constr:    0.0000
     atom:   13    charge:    3.1150    magn:   -0.0002    constr:    0.0000
     atom:   14    charge:    2.0939    magn:    0.0021    constr:    0.0000
     atom:   15    charge:    3.1184    magn:   -0.0008    constr:    0.0000
     atom:   16    charge:    2.0829    magn:    0.0045    constr:    0.0000
     atom:   17    charge:    2.0624    magn:    0.0012    constr:    0.0000
     atom:   18    charge:    3.1239    magn:   -0.0001    constr:    0.0000
     atom:   19    charge:    2.0875    magn:    0.0000    constr:    0.0000
     atom:   20    charge:    2.0847    magn:    0.0001    constr:    0.0000
     atom:   21    charge:    2.0847    magn:    0.0001    constr:    0.0000
     atom:   22    charge:    3.1199    magn:    0.0000    constr:    0.0000
     atom:   23    charge:    2.0908    magn:    0.0002    constr:    0.0000
     atom:   24    charge:    2.0754    magn:   -0.0001    constr:    0.0000
     atom:   25    charge:    2.0867    magn:    0.0000    constr:    0.0000
     atom:   26    charge:    3.1127    magn:   -0.0002    constr:    0.0000
     atom:   27    charge:    2.0802    magn:    0.0025    constr:    0.0000
     atom:   28    charge:    2.0839    magn:    0.0007    constr:    0.0000
     atom:   29    charge:    2.0860    magn:    0.0008    constr:    0.0000
     atom:   30    charge:    3.1171    magn:   -0.0008    constr:    0.0000
     atom:   31    charge:    2.0826    magn:    0.0006    constr:    0.0000
     atom:   32    charge:    2.0829    magn:    0.0063    constr:    0.0000
     atom:   33    charge:    2.0624    magn:    0.0013    constr:    0.0000
     atom:   34    charge:    3.1239    magn:   -0.0001    constr:    0.0000
     atom:   35    charge:    2.0876    magn:    0.0000    constr:    0.0000
     atom:   36    charge:    2.0847    magn:    0.0001    constr:    0.0000
     atom:   37    charge:    2.0847    magn:    0.0001    constr:    0.0000
     atom:   38    charge:    3.1200    magn:    0.0000    constr:    0.0000
     atom:   39    charge:    2.0839    magn:    0.0002    constr:    0.0000
     atom:   40    charge:    2.0756    magn:   -0.0001    constr:    0.0000
     atom:   41    charge:    2.0870    magn:   -0.0000    constr:    0.0000
     atom:   42    charge:    3.1151    magn:   -0.0002    constr:    0.0000
     atom:   43    charge:    2.0802    magn:    0.0030    constr:    0.0000
     atom:   44    charge:    2.0851    magn:    0.0009    constr:    0.0000
     atom:   45    charge:    2.0858    magn:    0.0005    constr:    0.0000
     atom:   46    charge:    3.1148    magn:   -0.0007    constr:    0.0000
     atom:   47    charge:    2.0808    magn:    0.0044    constr:    0.0000
     atom:   48    charge:    2.0837    magn:    0.0127    constr:    0.0000
     atom:   49    charge:    2.0523    magn:    0.2337    constr:    0.0000
     atom:   50    charge:    0.6689    magn:    0.0576    constr:    0.0000
     atom:   51    charge:    0.4218    magn:    0.0008    constr:    0.0000
     atom:   52    charge:    0.4227    magn:    0.0012    constr:    0.0000
     atom:   53    charge:    0.3579    magn:    0.0224    constr:    0.0000
     atom:   54    charge:    0.4230    magn:    0.0006    constr:    0.0000

     total cpu time spent up to now is     2409.3 secs

     total energy              =   -3021.14981313 Ry
     Harris-Foulkes estimate   =   -3021.14981703 Ry
     estimated scf accuracy    <       0.00004025 Ry

     total magnetization       =     1.06 Bohr mag/cell
     absolute magnetization    =     1.22 Bohr mag/cell

     iteration #  8     ecut=    40.42 Ry     beta=0.10
     Davidson diagonalization with overlap
     ethr =  1.01E-08,  avg # of iterations =  3.1

     negative rho (up, down):  1.188E-02 1.196E-02
 
     Magnetic moment per site:
     atom:    1    charge:    3.1244    magn:   -0.0002    constr:    0.0000
     atom:    2    charge:    2.0897    magn:    0.0002    constr:    0.0000
     atom:    3    charge:    3.1198    magn:   -0.0000    constr:    0.0000
     atom:    4    charge:    2.0867    magn:   -0.0001    constr:    0.0000
     atom:    5    charge:    3.1161    magn:   -0.0002    constr:    0.0000
     atom:    6    charge:    2.0795    magn:    0.0021    constr:    0.0000
     atom:    7    charge:    3.1166    magn:   -0.0046    constr:    0.0000
     atom:    8    charge:    2.0793    magn:    0.0237    constr:    0.0000
     atom:    9    charge:    3.1244    magn:   -0.0002    constr:    0.0000
     atom:   10    charge:    2.0898    magn:    0.0002    constr:    0.0000
     atom:   11    charge:    3.1198    magn:   -0.0000    constr:    0.0000
     atom:   12    charge:    2.0870    magn:   -0.0000    constr:    0.0000
     atom:   13    charge:    3.1150    magn:   -0.0002    constr:    0.0000
     atom:   14    charge:    2.0939    magn:    0.0021    constr:    0.0000
     atom:   15    charge:    3.1184    magn:   -0.0008    constr:    0.0000
     atom:   16    charge:    2.0828    magn:    0.0045    constr:    0.0000
     atom:   17    charge:    2.0624    magn:    0.0012    constr:    0.0000
     atom:   18    charge:    3.1239    magn:   -0.0000    constr:    0.0000
     atom:   19    charge:    2.0875    magn:    0.0000    constr:    0.0000
     atom:   20    charge:    2.0847    magn:    0.0001    constr:    0.0000
     atom:   21    charge:    2.0847    magn:    0.0001    constr:    0.0000
     atom:   22    charge:    3.1199    magn:    0.0000    constr:    0.0000
     atom:   23    charge:    2.0908    magn:    0.0002    constr:    0.0000
     atom:   24    charge:    2.0754    magn:   -0.0001    constr:    0.0000
     atom:   25    charge:    2.0867    magn:    0.0000    constr:    0.0000
     atom:   26    charge:    3.1127    magn:   -0.0003    constr:    0.0000
     atom:   27    charge:    2.0802    magn:    0.0025    constr:    0.0000
     atom:   28    charge:    2.0839    magn:    0.0007    constr:    0.0000
     atom:   29    charge:    2.0860    magn:    0.0009    constr:    0.0000
     atom:   30    charge:    3.1171    magn:   -0.0008    constr:    0.0000
     atom:   31    charge:    2.0825    magn:    0.0006    constr:    0.0000
     atom:   32    charge:    2.0829    magn:    0.0063    constr:    0.0000
     atom:   33    charge:    2.0624    magn:    0.0012    constr:    0.0000
     atom:   34    charge:    3.1239    magn:   -0.0000    constr:    0.0000
     atom:   35    charge:    2.0876    magn:    0.0000    constr:    0.0000
     atom:   36    charge:    2.0847    magn:    0.0001    constr:    0.0000
     atom:   37    charge:    2.0847    magn:    0.0001    constr:    0.0000
     atom:   38    charge:    3.1200    magn:    0.0000    constr:    0.0000
     atom:   39    charge:    2.0839    magn:    0.0002    constr:    0.0000
     atom:   40    charge:    2.0756    magn:   -0.0001    constr:    0.0000
     atom:   41    charge:    2.0870    magn:   -0.0000    constr:    0.0000
     atom:   42    charge:    3.1151    magn:   -0.0002    constr:    0.0000
     atom:   43    charge:    2.0803    magn:    0.0030    constr:    0.0000
     atom:   44    charge:    2.0851    magn:    0.0009    constr:    0.0000
     atom:   45    charge:    2.0858    magn:    0.0005    constr:    0.0000
     atom:   46    charge:    3.1147    magn:   -0.0007    constr:    0.0000
     atom:   47    charge:    2.0807    magn:    0.0044    constr:    0.0000
     atom:   48    charge:    2.0837    magn:    0.0126    constr:    0.0000
     atom:   49    charge:    2.0523    magn:    0.2333    constr:    0.0000
     atom:   50    charge:    0.6692    magn:    0.0579    constr:    0.0000
     atom:   51    charge:    0.4218    magn:    0.0008    constr:    0.0000
     atom:   52    charge:    0.4226    magn:    0.0011    constr:    0.0000
     atom:   53    charge:    0.3578    magn:    0.0223    constr:    0.0000
     atom:   54    charge:    0.4229    magn:    0.0006    constr:    0.0000

     total cpu time spent up to now is     2644.6 secs

     total energy              =   -3021.14981612 Ry
     Harris-Foulkes estimate   =   -3021.14981480 Ry
     estimated scf accuracy    <       0.00001180 Ry

     total magnetization       =     1.06 Bohr mag/cell
     absolute magnetization    =     1.22 Bohr mag/cell

     iteration #  9     ecut=    40.42 Ry     beta=0.10
     Davidson diagonalization with overlap
     ethr =  2.96E-09,  avg # of iterations =  3.0

     negative rho (up, down):  1.188E-02 1.196E-02
 
     Magnetic moment per site:
     atom:    1    charge:    3.1244    magn:   -0.0002    constr:    0.0000
     atom:    2    charge:    2.0897    magn:    0.0002    constr:    0.0000
     atom:    3    charge:    3.1198    magn:   -0.0000    constr:    0.0000
     atom:    4    charge:    2.0867    magn:   -0.0001    constr:    0.0000
     atom:    5    charge:    3.1161    magn:   -0.0002    constr:    0.0000
     atom:    6    charge:    2.0795    magn:    0.0021    constr:    0.0000
     atom:    7    charge:    3.1166    magn:   -0.0045    constr:    0.0000
     atom:    8    charge:    2.0793    magn:    0.0237    constr:    0.0000
     atom:    9    charge:    3.1244    magn:   -0.0002    constr:    0.0000
     atom:   10    charge:    2.0898    magn:    0.0002    constr:    0.0000
     atom:   11    charge:    3.1198    magn:   -0.0000    constr:    0.0000
     atom:   12    charge:    2.0870    magn:   -0.0000    constr:    0.0000
     atom:   13    charge:    3.1150    magn:   -0.0002    constr:    0.0000
     atom:   14    charge:    2.0939    magn:    0.0021    constr:    0.0000
     atom:   15    charge:    3.1184    magn:   -0.0008    constr:    0.0000
     atom:   16    charge:    2.0828    magn:    0.0045    constr:    0.0000
     atom:   17    charge:    2.0624    magn:    0.0011    constr:    0.0000
     atom:   18    charge:    3.1239    magn:   -0.0000    constr:    0.0000
     atom:   19    charge:    2.0875    magn:    0.0000    constr:    0.0000
     atom:   20    charge:    2.0847    magn:    0.0001    constr:    0.0000
     atom:   21    charge:    2.0847    magn:    0.0001    constr:    0.0000
     atom:   22    charge:    3.1199    magn:    0.0000    constr:    0.0000
     atom:   23    charge:    2.0908    magn:    0.0002    constr:    0.0000
     atom:   24    charge:    2.0754    magn:   -0.0000    constr:    0.0000
     atom:   25    charge:    2.0867    magn:    0.0000    constr:    0.0000
     atom:   26    charge:    3.1127    magn:   -0.0003    constr:    0.0000
     atom:   27    charge:    2.0802    magn:    0.0026    constr:    0.0000
     atom:   28    charge:    2.0839    magn:    0.0007    constr:    0.0000
     atom:   29    charge:    2.0860    magn:    0.0009    constr:    0.0000
     atom:   30    charge:    3.1171    magn:   -0.0008    constr:    0.0000
     atom:   31    charge:    2.0825    magn:    0.0006    constr:    0.0000
     atom:   32    charge:    2.0829    magn:    0.0062    constr:    0.0000
     atom:   33    charge:    2.0624    magn:    0.0011    constr:    0.0000
     atom:   34    charge:    3.1239    magn:   -0.0000    constr:    0.0000
     atom:   35    charge:    2.0876    magn:    0.0000    constr:    0.0000
     atom:   36    charge:    2.0847    magn:    0.0001    constr:    0.0000
     atom:   37    charge:    2.0847    magn:    0.0001    constr:    0.0000
     atom:   38    charge:    3.1200    magn:    0.0000    constr:    0.0000
     atom:   39    charge:    2.0839    magn:    0.0002    constr:    0.0000
     atom:   40    charge:    2.0756    magn:   -0.0001    constr:    0.0000
     atom:   41    charge:    2.0870    magn:   -0.0000    constr:    0.0000
     atom:   42    charge:    3.1151    magn:   -0.0002    constr:    0.0000
     atom:   43    charge:    2.0803    magn:    0.0030    constr:    0.0000
     atom:   44    charge:    2.0851    magn:    0.0010    constr:    0.0000
     atom:   45    charge:    2.0858    magn:    0.0005    constr:    0.0000
     atom:   46    charge:    3.1147    magn:   -0.0007    constr:    0.0000
     atom:   47    charge:    2.0807    magn:    0.0044    constr:    0.0000
     atom:   48    charge:    2.0837    magn:    0.0125    constr:    0.0000
     atom:   49    charge:    2.0523    magn:    0.2330    constr:    0.0000
     atom:   50    charge:    0.6693    magn:    0.0580    constr:    0.0000
     atom:   51    charge:    0.4217    magn:    0.0008    constr:    0.0000
     atom:   52    charge:    0.4225    magn:    0.0011    constr:    0.0000
     atom:   53    charge:    0.3578    magn:    0.0223    constr:    0.0000
     atom:   54    charge:    0.4229    magn:    0.0005    constr:    0.0000

     total cpu time spent up to now is     2882.3 secs

     total energy              =   -3021.14981684 Ry
     Harris-Foulkes estimate   =   -3021.14981675 Ry
     estimated scf accuracy    <       0.00000533 Ry

     total magnetization       =     1.06 Bohr mag/cell
     absolute magnetization    =     1.22 Bohr mag/cell

     iteration # 10     ecut=    40.42 Ry     beta=0.10
     Davidson diagonalization with overlap
     ethr =  1.34E-09,  avg # of iterations =  3.0

     negative rho (up, down):  1.188E-02 1.196E-02
 
     Magnetic moment per site:
     atom:    1    charge:    3.1244    magn:   -0.0002    constr:    0.0000
     atom:    2    charge:    2.0897    magn:    0.0001    constr:    0.0000
     atom:    3    charge:    3.1198    magn:   -0.0000    constr:    0.0000
     atom:    4    charge:    2.0867    magn:   -0.0001    constr:    0.0000
     atom:    5    charge:    3.1161    magn:   -0.0002    constr:    0.0000
     atom:    6    charge:    2.0795    magn:    0.0021    constr:    0.0000
     atom:    7    charge:    3.1166    magn:   -0.0044    constr:    0.0000
     atom:    8    charge:    2.0793    magn:    0.0236    constr:    0.0000
     atom:    9    charge:    3.1244    magn:   -0.0002    constr:    0.0000
     atom:   10    charge:    2.0898    magn:    0.0001    constr:    0.0000
     atom:   11    charge:    3.1198    magn:   -0.0000    constr:    0.0000
     atom:   12    charge:    2.0870    magn:   -0.0000    constr:    0.0000
     atom:   13    charge:    3.1150    magn:   -0.0002    constr:    0.0000
     atom:   14    charge:    2.0939    magn:    0.0021    constr:    0.0000
     atom:   15    charge:    3.1184    magn:   -0.0008    constr:    0.0000
     atom:   16    charge:    2.0828    magn:    0.0044    constr:    0.0000
     atom:   17    charge:    2.0625    magn:    0.0009    constr:    0.0000
     atom:   18    charge:    3.1240    magn:   -0.0000    constr:    0.0000
     atom:   19    charge:    2.0875    magn:    0.0000    constr:    0.0000
     atom:   20    charge:    2.0847    magn:    0.0001    constr:    0.0000
     atom:   21    charge:    2.0847    magn:    0.0001    constr:    0.0000
     atom:   22    charge:    3.1199    magn:    0.0000    constr:    0.0000
     atom:   23    charge:    2.0908    magn:    0.0003    constr:    0.0000
     atom:   24    charge:    2.0754    magn:   -0.0000    constr:    0.0000
     atom:   25    charge:    2.0867    magn:    0.0000    constr:    0.0000
     atom:   26    charge:    3.1127    magn:   -0.0003    constr:    0.0000
     atom:   27    charge:    2.0802    magn:    0.0026    constr:    0.0000
     atom:   28    charge:    2.0839    magn:    0.0007    constr:    0.0000
     atom:   29    charge:    2.0860    magn:    0.0009    constr:    0.0000
     atom:   30    charge:    3.1171    magn:   -0.0008    constr:    0.0000
     atom:   31    charge:    2.0826    magn:    0.0006    constr:    0.0000
     atom:   32    charge:    2.0829    magn:    0.0062    constr:    0.0000
     atom:   33    charge:    2.0624    magn:    0.0009    constr:    0.0000
     atom:   34    charge:    3.1239    magn:   -0.0000    constr:    0.0000
     atom:   35    charge:    2.0875    magn:    0.0000    constr:    0.0000
     atom:   36    charge:    2.0847    magn:    0.0001    constr:    0.0000
     atom:   37    charge:    2.0847    magn:    0.0001    constr:    0.0000
     atom:   38    charge:    3.1200    magn:    0.0000    constr:    0.0000
     atom:   39    charge:    2.0839    magn:    0.0002    constr:    0.0000
     atom:   40    charge:    2.0756    magn:   -0.0001    constr:    0.0000
     atom:   41    charge:    2.0870    magn:   -0.0000    constr:    0.0000
     atom:   42    charge:    3.1151    magn:   -0.0002    constr:    0.0000
     atom:   43    charge:    2.0803    magn:    0.0030    constr:    0.0000
     atom:   44    charge:    2.0851    magn:    0.0010    constr:    0.0000
     atom:   45    charge:    2.0858    magn:    0.0005    constr:    0.0000
     atom:   46    charge:    3.1147    magn:   -0.0007    constr:    0.0000
     atom:   47    charge:    2.0807    magn:    0.0044    constr:    0.0000
     atom:   48    charge:    2.0838    magn:    0.0125    constr:    0.0000
     atom:   49    charge:    2.0524    magn:    0.2327    constr:    0.0000
     atom:   50    charge:    0.6695    magn:    0.0582    constr:    0.0000
     atom:   51    charge:    0.4217    magn:    0.0007    constr:    0.0000
     atom:   52    charge:    0.4225    magn:    0.0011    constr:    0.0000
     atom:   53    charge:    0.3578    magn:    0.0222    constr:    0.0000
     atom:   54    charge:    0.4229    magn:    0.0005    constr:    0.0000

     total cpu time spent up to now is     3118.2 secs

     total energy              =   -3021.14981734 Ry
     Harris-Foulkes estimate   =   -3021.14981706 Ry
     estimated scf accuracy    <       0.00000163 Ry

     total magnetization       =     1.06 Bohr mag/cell
     absolute magnetization    =     1.22 Bohr mag/cell

     iteration # 11     ecut=    40.42 Ry     beta=0.10
     Davidson diagonalization with overlap
     ethr =  4.10E-10,  avg # of iterations =  3.5

     negative rho (up, down):  1.188E-02 1.196E-02
 
     Magnetic moment per site:
     atom:    1    charge:    3.1244    magn:   -0.0001    constr:    0.0000
     atom:    2    charge:    2.0897    magn:    0.0001    constr:    0.0000
     atom:    3    charge:    3.1198    magn:   -0.0000    constr:    0.0000
     atom:    4    charge:    2.0867    magn:   -0.0001    constr:    0.0000
     atom:    5    charge:    3.1161    magn:   -0.0003    constr:    0.0000
     atom:    6    charge:    2.0795    magn:    0.0021    constr:    0.0000
     atom:    7    charge:    3.1166    magn:   -0.0043    constr:    0.0000
     atom:    8    charge:    2.0793    magn:    0.0235    constr:    0.0000
     atom:    9    charge:    3.1244    magn:   -0.0001    constr:    0.0000
     atom:   10    charge:    2.0898    magn:    0.0001    constr:    0.0000
     atom:   11    charge:    3.1198    magn:   -0.0000    constr:    0.0000
     atom:   12    charge:    2.0870    magn:   -0.0000    constr:    0.0000
     atom:   13    charge:    3.1150    magn:   -0.0002    constr:    0.0000
     atom:   14    charge:    2.0939    magn:    0.0021    constr:    0.0000
     atom:   15    charge:    3.1184    magn:   -0.0008    constr:    0.0000
     atom:   16    charge:    2.0828    magn:    0.0044    constr:    0.0000
     atom:   17    charge:    2.0624    magn:    0.0007    constr:    0.0000
     atom:   18    charge:    3.1239    magn:   -0.0000    constr:    0.0000
     atom:   19    charge:    2.0876    magn:    0.0000    constr:    0.0000
     atom:   20    charge:    2.0847    magn:    0.0000    constr:    0.0000
     atom:   21    charge:    2.0847    magn:    0.0000    constr:    0.0000
     atom:   22    charge:    3.1199    magn:    0.0000    constr:    0.0000
     atom:   23    charge:    2.0908    magn:    0.0003    constr:    0.0000
     atom:   24    charge:    2.0754    magn:    0.0000    constr:    0.0000
     atom:   25    charge:    2.0867    magn:    0.0000    constr:    0.0000
     atom:   26    charge:    3.1127    magn:   -0.0003    constr:    0.0000
     atom:   27    charge:    2.0802    magn:    0.0026    constr:    0.0000
     atom:   28    charge:    2.0839    magn:    0.0008    constr:    0.0000
     atom:   29    charge:    2.0860    magn:    0.0009    constr:    0.0000
     atom:   30    charge:    3.1171    magn:   -0.0007    constr:    0.0000
     atom:   31    charge:    2.0826    magn:    0.0006    constr:    0.0000
     atom:   32    charge:    2.0829    magn:    0.0062    constr:    0.0000
     atom:   33    charge:    2.0624    magn:    0.0007    constr:    0.0000
     atom:   34    charge:    3.1239    magn:   -0.0000    constr:    0.0000
     atom:   35    charge:    2.0876    magn:    0.0000    constr:    0.0000
     atom:   36    charge:    2.0847    magn:    0.0000    constr:    0.0000
     atom:   37    charge:    2.0847    magn:    0.0000    constr:    0.0000
     atom:   38    charge:    3.1200    magn:    0.0000    constr:    0.0000
     atom:   39    charge:    2.0839    magn:    0.0002    constr:    0.0000
     atom:   40    charge:    2.0756    magn:   -0.0001    constr:    0.0000
     atom:   41    charge:    2.0870    magn:   -0.0000    constr:    0.0000
     atom:   42    charge:    3.1151    magn:   -0.0003    constr:    0.0000
     atom:   43    charge:    2.0803    magn:    0.0030    constr:    0.0000
     atom:   44    charge:    2.0851    magn:    0.0010    constr:    0.0000
     atom:   45    charge:    2.0858    magn:    0.0005    constr:    0.0000
     atom:   46    charge:    3.1148    magn:   -0.0007    constr:    0.0000
     atom:   47    charge:    2.0807    magn:    0.0044    constr:    0.0000
     atom:   48    charge:    2.0837    magn:    0.0124    constr:    0.0000
     atom:   49    charge:    2.0525    magn:    0.2323    constr:    0.0000
     atom:   50    charge:    0.6693    magn:    0.0584    constr:    0.0000
     atom:   51    charge:    0.4217    magn:    0.0007    constr:    0.0000
     atom:   52    charge:    0.4226    magn:    0.0011    constr:    0.0000
     atom:   53    charge:    0.3578    magn:    0.0222    constr:    0.0000
     atom:   54    charge:    0.4229    magn:    0.0005    constr:    0.0000

     total cpu time spent up to now is     3372.9 secs

     End of self-consistent calculation

 ------ SPIN UP ------------


          k = 0.0000 0.0000 0.0000 ( 34665 PWs)   bands (ev):

   -58.2868 -58.2517 -57.3684 -57.3627 -57.3298 -57.2919 -57.2402 -57.0688
   -57.0448 -57.0396 -57.0013 -56.9027 -56.8825 -56.8675 -56.7846 -56.7462
   -34.7320 -34.5554 -34.5266 -34.4934 -34.3984 -34.3415 -33.8635 -33.8510
   -33.7325 -33.6599 -33.6181 -33.5750 -33.5430 -33.5360 -33.5300 -33.5236
   -33.5112 -33.4970 -33.4717 -33.4695 -33.4553 -33.4524 -33.4512 -33.4304
   -33.3221 -33.3196 -33.3122 -33.3092 -33.2946 -33.2684 -33.2635 -33.2435
   -33.2227 -33.2179 -33.2176 -33.2080 -33.1843 -33.1575 -33.1252 -33.1213
   -33.0850 -33.0626 -33.0314 -33.0122 -32.9985 -32.9735 -32.9297 -32.8661
   -18.4522 -18.0186 -17.7937 -17.6946 -17.5326 -17.5127 -17.4663 -17.3667
   -17.3390 -17.2402 -17.0271 -17.0068 -16.9991 -16.9701 -16.9089 -16.8368
   -16.8184 -16.7802 -16.7223 -16.6856 -16.6700 -16.6359 -16.5757 -16.5710
   -16.4485 -16.4000 -16.3821 -16.3396 -16.3075 -16.1311 -16.0713 -15.5818
   -15.5209 -11.2217  -6.0307  -5.4790  -5.2649  -5.1853  -5.0769  -4.9867
    -4.9638  -4.9501  -4.8614  -4.7163  -4.6324  -4.5824  -4.5681  -4.4933
    -4.4121  -4.3961  -4.3345  -4.2984  -4.2192  -4.2015  -4.1835  -4.1245
    -4.0130  -4.0056  -3.9632  -3.8892  -3.8744  -3.8682  -3.8657  -3.8173
    -3.7590  -3.7580  -3.7339  -3.6930  -3.6122  -3.5651  -3.5244  -3.5106
    -3.5040  -3.4033  -3.3903  -3.3422  -3.2551  -3.2160  -3.1704  -3.0697
    -2.9048  -2.8789  -2.8320  -2.7858  -2.7279  -2.6762  -2.6549  -2.6458
    -2.6152  -2.5193  -2.4689  -2.4205  -2.3600  -2.3119  -2.2289  -2.2117
    -2.2059  -2.1418  -2.0533  -2.0231  -1.9754  -1.9411  -1.9114  -1.8801
    -1.8348  -1.7187  -1.6738  -1.6481  -1.6211  -1.6121  -1.5658  -1.4812
    -1.4018  -1.3472  -1.3340  -1.3186  -1.2972  -1.2509  -1.2027  -1.1524
    -1.1415  -1.0928  -1.0888  -1.0658  -1.0386  -0.9597  -0.8551  -0.8046
    -0.7903  -0.6751  -0.6680  -0.6060  -0.5342  -0.4920  -0.4643  -0.1676
     1.0440   1.1408   1.4356   1.7143   1.8222   1.9401   1.9881   2.0343
     2.0643   2.1522   2.2287   2.2493   2.2958   2.4144   2.4898   2.5032
     2.5108   2.5379   2.6398   2.6850   2.6900   2.7056   2.7292   2.8457
     2.8609   2.9054   2.9199   2.9714   2.9872   3.0404   3.0489   3.0706
     3.1246   3.1790   3.2172   3.2179   3.2663   3.2745   3.4302   3.4620
     3.4960   3.5392   3.6164   3.6443   3.6884   3.7331   3.8473   3.9743
     4.1222   4.1538   4.3448   4.4910   4.6122   4.7252   4.8017   4.8516
     5.1013   5.1514   5.2177   5.3681   5.4092   5.4220   5.4273   5.4518
     5.4536   5.5417   5.5728   5.6805   5.7374   5.7466   5.9158   5.9252
     5.9733   6.0929   6.1132   6.1554   6.2310   6.3158   6.4401   6.5083
     6.5567   6.5653   6.7988   6.8300   7.2104   7.9157   8.1558   8.1921
     8.3230   8.4010   8.6039   8.7017   8.7661   8.9619   9.1405   9.2261
     9.2774   9.4350   9.6072

          k = 0.0000 0.0280 0.0000 ( 34717 PWs)   bands (ev):

   -58.2845 -58.2541 -57.3667 -57.3611 -57.3321 -57.2930 -57.2398 -57.0685
   -57.0448 -57.0380 -57.0033 -56.9004 -56.8827 -56.8699 -56.7821 -56.7487
   -34.7066 -34.5534 -34.5286 -34.4871 -34.4049 -34.3686 -33.8382 -33.8255
   -33.7117 -33.6536 -33.6119 -33.5724 -33.5498 -33.5324 -33.5243 -33.5162
   -33.5106 -33.4990 -33.4956 -33.4784 -33.4699 -33.4537 -33.4441 -33.4241
   -33.3156 -33.3102 -33.2972 -33.2942 -33.2914 -33.2850 -33.2611 -33.2418
   -33.2275 -33.2197 -33.2183 -33.2073 -33.1861 -33.1837 -33.1314 -33.1153
   -33.0973 -33.0592 -33.0376 -33.0120 -32.9983 -32.9783 -32.9571 -32.8948
   -18.3938 -17.9589 -17.7437 -17.6644 -17.5890 -17.4880 -17.4173 -17.3547
   -17.3078 -17.2708 -17.0780 -16.9865 -16.9777 -16.9593 -16.9105 -16.8586
   -16.7788 -16.7557 -16.7426 -16.7171 -16.6864 -16.6599 -16.6003 -16.5490
   -16.4625 -16.4253 -16.3889 -16.3629 -16.3396 -16.1500 -16.1131 -15.5958
   -15.5464 -11.2226  -5.9453  -5.3949  -5.1856  -5.1150  -5.0104  -4.9707
    -4.9141  -4.8993  -4.7905  -4.7120  -4.6510  -4.6363  -4.5091  -4.4985
    -4.3993  -4.3589  -4.3453  -4.3052  -4.2400  -4.1992  -4.1826  -4.1608
    -4.0814  -4.0504  -4.0005  -3.9862  -3.9598  -3.9530  -3.9038  -3.8419
    -3.7976  -3.7764  -3.7427  -3.7355  -3.6949  -3.6546  -3.5390  -3.4211
    -3.3854  -3.3055  -3.2902  -3.2827  -3.2505  -3.1069  -3.0868  -2.9275
    -2.8869  -2.8648  -2.7850  -2.7305  -2.7262  -2.7032  -2.6711  -2.6335
    -2.5791  -2.4996  -2.4404  -2.4254  -2.3980  -2.2610  -2.2372  -2.2037
    -2.1933  -2.1345  -2.1253  -2.0086  -1.9669  -1.9380  -1.9075  -1.8945
    -1.8527  -1.7494  -1.7386  -1.7000  -1.6593  -1.5894  -1.5641  -1.5530
    -1.4830  -1.4429  -1.3710  -1.3618  -1.3571  -1.3398  -1.2659  -1.2514
    -1.2163  -1.1566  -1.1087  -1.0513  -0.9749  -0.9345  -0.9017  -0.8785
    -0.8580  -0.8168  -0.7105  -0.5806  -0.5549  -0.5411  -0.5201  -0.2086
     1.1766   1.1817   1.4368   1.8504   1.8948   1.9120   1.9448   2.0210
     2.0801   2.0981   2.3190   2.3271   2.3603   2.4774   2.5131   2.5336
     2.5410   2.5630   2.5680   2.6162   2.7330   2.7505   2.8200   2.8327
     2.8542   2.9192   2.9554   2.9838   3.0002   3.0131   3.0341   3.0852
     3.1055   3.1413   3.1951   3.2538   3.2661   3.3453   3.4550   3.4953
     3.5304   3.5623   3.5821   3.6063   3.6615   3.6857   3.8057   3.9263
     4.0764   4.2214   4.3012   4.5446   4.7230   4.7265   4.8318   4.9268
     5.1279   5.1919   5.2690   5.3215   5.3911   5.4301   5.4536   5.4913
     5.5170   5.5261   5.5667   5.6801   5.7211   5.7323   5.8401   5.9016
     5.9587   6.0109   6.0360   6.0699   6.2006   6.2673   6.4071   6.4514
     6.4693   6.5593   6.7309   6.8316   7.3148   7.4678   7.9722   8.0503
     8.3467   8.5042   8.5152   8.6803   8.7640   8.9809   9.1004   9.3034
     9.3560   9.4377   9.5078

          k = 0.0000 0.0560 0.0000 ( 34721 PWs)   bands (ev):

   -58.2781 -58.2605 -57.3632 -57.3560 -57.3385 -57.2952 -57.2390 -57.0681
   -57.0452 -57.0335 -57.0082 -56.8940 -56.8832 -56.8763 -56.7754 -56.7554
   -34.6367 -34.5482 -34.5337 -34.4700 -34.4417 -34.4225 -33.7683 -33.7561
   -33.6610 -33.6367 -33.5952 -33.5729 -33.5723 -33.5661 -33.5515 -33.5483
   -33.5202 -33.5105 -33.4939 -33.4744 -33.4518 -33.4471 -33.4428 -33.3896
   -33.3501 -33.3059 -33.3032 -33.2862 -33.2625 -33.2526 -33.2372 -33.2371
   -33.2361 -33.2274 -33.2244 -33.2058 -33.2010 -33.1948 -33.1492 -33.1177
   -33.0991 -33.0564 -33.0542 -33.0310 -33.0114 -32.9984 -32.9903 -32.9652
   -18.2327 -17.7942 -17.7727 -17.6137 -17.5817 -17.3910 -17.3720 -17.3545
   -17.2863 -17.2453 -17.2115 -17.0254 -16.9706 -16.9020 -16.8981 -16.8811
   -16.8211 -16.7969 -16.7090 -16.6854 -16.6800 -16.6542 -16.5996 -16.5416
   -16.4947 -16.4897 -16.4307 -16.4200 -16.3953 -16.2165 -16.1934 -15.6243
   -15.6001 -11.2244  -5.7059  -5.1620  -5.0267  -4.9771  -4.9615  -4.9264
    -4.8294  -4.8127  -4.7960  -4.7529  -4.7141  -4.5342  -4.4885  -4.4459
    -4.3745  -4.3731  -4.3315  -4.3006  -4.2862  -4.2680  -4.2285  -4.1938
    -4.1890  -4.1726  -4.1114  -4.0405  -3.9981  -3.9643  -3.9467  -3.8906
    -3.8672  -3.8006  -3.7614  -3.7563  -3.6346  -3.5274  -3.3933  -3.3861
    -3.3458  -3.2670  -3.2278  -3.1199  -3.0702  -3.0525  -3.0210  -2.9920
    -2.9483  -2.9385  -2.8075  -2.7778  -2.7205  -2.6761  -2.6312  -2.5377
    -2.4638  -2.4555  -2.4220  -2.3347  -2.2824  -2.2772  -2.2010  -2.1673
    -2.1337  -2.1189  -2.0997  -2.0663  -2.0342  -1.9899  -1.9749  -1.9498
    -1.9126  -1.8707  -1.8597  -1.8412  -1.7889  -1.7303  -1.6347  -1.5867
    -1.5765  -1.5580  -1.4916  -1.4532  -1.4339  -1.4264  -1.4108  -1.3566
    -1.2720  -1.2509  -1.1942  -1.1604  -1.0687  -0.9731  -0.9500  -0.9237
    -0.8398  -0.8156  -0.7168  -0.6964  -0.6012  -0.5619  -0.5449  -0.3120
     1.3055   1.4473   1.5199   1.7412   1.8178   1.9108   1.9813   2.0798
     2.1603   2.2958   2.3006   2.3527   2.4368   2.5061   2.5254   2.5512
     2.5922   2.6320   2.6822   2.7279   2.7723   2.7898   2.8205   2.8689
     2.8847   2.9033   2.9133   2.9829   3.0295   3.0477   3.0568   3.0832
     3.1446   3.1777   3.2010   3.2800   3.3278   3.3591   3.4061   3.4528
     3.4910   3.5065   3.5825   3.6287   3.6933   3.7045   3.7432   3.8202
     3.9433   4.1785   4.3444   4.6721   4.7622   4.8626   4.9527   5.0908
     5.0981   5.1927   5.3017   5.3524   5.4211   5.4569   5.4900   5.5193
     5.5200   5.5806   5.5997   5.6667   5.6723   5.7722   5.7920   5.8105
     5.8423   5.8868   5.9074   5.9520   6.1366   6.1723   6.3080   6.3713
     6.4407   6.4577   6.7340   6.7636   6.9893   7.1803   7.6037   7.7347
     8.1887   8.3678   8.6887   8.8176   8.8359   8.8840   9.1680   9.3278
     9.4028   9.5909   9.6999

          k = 0.0000-0.0840 0.0000 ( 34678 PWs)   bands (ev):

   -58.2700 -58.2686 -57.3616 -57.3497 -57.3454 -57.2964 -57.2387 -57.0679
   -57.0455 -57.0302 -57.0116 -56.8855 -56.8848 -56.8835 -56.7687 -56.7622
   -34.5418 -34.5408 -34.5399 -34.5393 -34.4469 -34.4457 -33.6843 -33.6714
   -33.6677 -33.6286 -33.6272 -33.6217 -33.5901 -33.5741 -33.5700 -33.5590
   -33.5187 -33.5122 -33.4933 -33.4837 -33.4487 -33.4414 -33.3801 -33.3632
   -33.3611 -33.3450 -33.3070 -33.3027 -33.2829 -33.2547 -33.2415 -33.2326
   -33.2310 -33.2305 -33.2076 -33.2057 -33.1592 -33.1307 -33.1298 -33.1258
   -33.1108 -33.1085 -33.0771 -33.0764 -33.0118 -33.0040 -33.0011 -32.9950
   -18.0076 -18.0069 -17.5743 -17.5650 -17.4908 -17.4684 -17.4682 -17.3773
   -17.2402 -17.1988 -17.1117 -17.0829 -17.0541 -17.0197 -16.8774 -16.8269
   -16.7899 -16.7896 -16.7882 -16.6566 -16.5948 -16.5917 -16.5852 -16.5610
   -16.5257 -16.5021 -16.4889 -16.4573 -16.4485 -16.2586 -16.2354 -15.6336
   -15.6336 -11.2253  -5.3663  -5.3661  -4.9605  -4.8700  -4.8690  -4.8561
    -4.8337  -4.7523  -4.7408  -4.7013  -4.6402  -4.5860  -4.5473  -4.5419
    -4.4721  -4.4513  -4.4281  -4.3740  -4.3577  -4.2474  -4.2352  -4.2278
    -4.1404  -4.0993  -4.0485  -4.0178  -3.9747  -3.8939  -3.8706  -3.8653
    -3.7851  -3.7482  -3.7277  -3.6584  -3.6511  -3.6309  -3.6057  -3.3944
    -3.3433  -3.3303  -3.1325  -3.0592  -3.0534  -3.0163  -2.9130  -2.9091
    -2.9003  -2.8316  -2.8089  -2.7735  -2.7555  -2.6751  -2.6516  -2.6256
    -2.5037  -2.4858  -2.4022  -2.3861  -2.3777  -2.3560  -2.2918  -2.2244
    -2.2080  -2.1471  -2.0999  -2.0373  -1.9859  -1.9617  -1.9576  -1.9529
    -1.9483  -1.9235  -1.8126  -1.7791  -1.7596  -1.7095  -1.6736  -1.6362
    -1.6207  -1.5904  -1.5725  -1.4971  -1.4890  -1.4465  -1.4271  -1.4016
    -1.3641  -1.3134  -1.2565  -1.1600  -1.1194  -1.0969  -1.0705  -1.0142
    -0.8182  -0.7958  -0.5990  -0.5900  -0.5843  -0.5766  -0.5270  -0.4784
     1.5018   1.5045   1.6540   1.6546   1.7337   1.7346   2.1045   2.1053
     2.1691   2.2240   2.3948   2.4294   2.4660   2.5119   2.5597   2.5664
     2.6747   2.6860   2.6953   2.7093   2.7605   2.7729   2.8287   2.8321
     2.9320   2.9670   3.0107   3.0383   3.0432   3.0463   3.0524   3.0560
     3.0634   3.2448   3.2539   3.2855   3.3174   3.3588   3.3851   3.4153
     3.4518   3.4670   3.5227   3.6433   3.7131   3.7532   3.7681   3.8089
     3.8639   4.0562   4.3971   4.7765   4.8520   4.8854   4.8861   5.0697
     5.1637   5.2411   5.3335   5.3497   5.3850   5.4277   5.4880   5.5615
     5.5846   5.6153   5.6193   5.7063   5.7189   5.7381   5.7494   5.7638
     5.7859   5.8261   5.8608   5.9597   6.0403   6.1757   6.2679   6.3826
     6.4746   6.4909   6.5849   6.6072   6.9232   6.9723   7.4411   7.6032
     8.0240   8.2258   8.7035   8.9124   9.1128   9.1989   9.3593   9.3608
     9.4294   9.6309   9.7129

[...]
    -1.7104  -1.4905  -1.4480  -1.4370  -1.4160  -1.3791  -1.3018  -1.1336
    -1.1254  -1.0683  -1.0516  -1.0349  -0.9491  -0.8923  -0.8524  -0.7678
    -0.7145  -0.7076  -0.6780  -0.6510  -0.5789  -0.5545  -0.5414   0.3452
     1.6207   1.6242   1.6368   1.6421   1.9845   1.9853   2.1142   2.1151
     2.2987   2.3190   2.3323   2.4141   2.4372   2.5074   2.5925   2.6532
     2.6751   2.7197   2.8033   2.8364   2.8934   2.9454   2.9673   2.9953
     3.0102   3.0181   3.0589   3.1174   3.1327   3.2285   3.2540   3.2634
     3.2792   3.3027   3.3601   3.4064   3.4195   3.4252   3.4799   3.4924
     3.5024   3.5304   3.5446   3.5961   3.6546   3.6709   3.7963   3.8955
     3.9303   3.9420   4.1595   4.1600   4.6098   4.6394   4.6619   4.7475
     4.9033   4.9182   4.9507   5.1012   5.1799   5.1848   5.2047   5.4616
     5.6925   5.7014   5.7134   5.9454   5.9508   5.9845   6.0336   6.0367
     6.1114   6.1252   6.1918   6.2824   6.2896   6.2952   6.4026   6.4799
     6.5171   6.6249   7.0440   7.1987   7.3111   7.3698   7.5519   7.5874
     7.7059   7.7591   7.9136   8.1019   8.2846   8.3306   8.4398   8.8601
     9.0006   9.0537   9.2050

          k =-0.0253 0.0280 0.0000 ( 34687 PWs)   bands (ev):

   -58.2846 -58.2543 -57.3663 -57.3614 -57.3321 -57.2930 -57.2406 -57.0724
   -57.0458 -57.0394 -57.0045 -56.9032 -56.9011 -56.8706 -56.7856 -56.7522
   -34.7071 -34.5537 -34.5287 -34.4865 -34.4050 -34.3688 -33.8383 -33.8276
   -33.7126 -33.6460 -33.6118 -33.5727 -33.5469 -33.5329 -33.5294 -33.5204
   -33.5117 -33.4998 -33.4982 -33.4780 -33.4708 -33.4481 -33.4458 -33.4266
   -33.3166 -33.3078 -33.2995 -33.2978 -33.2926 -33.2860 -33.2626 -33.2435
   -33.2324 -33.2198 -33.2198 -33.2106 -33.1946 -33.1840 -33.1474 -33.1161
   -33.1133 -33.0624 -33.0383 -33.0214 -33.0024 -32.9815 -32.9578 -32.8974
   -18.3500 -17.9201 -17.7554 -17.7123 -17.5025 -17.4956 -17.3540 -17.3477
   -17.3242 -17.2940 -17.0905 -17.0475 -16.9630 -16.9179 -16.8519 -16.8102
   -16.7715 -16.7275 -16.7117 -16.6483 -16.6417 -16.5603 -16.5232 -16.4644
   -16.4402 -16.3852 -16.3437 -16.3259 -16.1386 -16.1050 -15.9032 -15.5914
   -15.5427 -10.7992  -5.8208  -5.2888  -5.1229  -5.1041  -4.9732  -4.9316
    -4.8931  -4.8023  -4.6779  -4.6568  -4.6156  -4.5155  -4.4776  -4.4208
    -4.3882  -4.2928  -4.2692  -4.2324  -4.1837  -4.1655  -4.1215  -4.1076
    -4.0801  -4.0470  -4.0055  -3.9737  -3.9355  -3.8935  -3.8709  -3.7791
    -3.7660  -3.7035  -3.6953  -3.6419  -3.6016  -3.5939  -3.4882  -3.3742
    -3.3270  -3.3000  -3.2776  -3.2431  -3.2042  -3.1623  -3.0925  -3.0760
    -2.9008  -2.8626  -2.8025  -2.7577  -2.7013  -2.6669  -2.6542  -2.5969
    -2.5673  -2.4889  -2.4795  -2.4219  -2.3919  -2.3376  -2.2674  -2.2449
    -2.1943  -2.1727  -2.0842  -2.0221  -1.9409  -1.9209  -1.8968  -1.8304
    -1.8191  -1.7706  -1.7249  -1.6656  -1.6144  -1.5743  -1.5415  -1.4905
    -1.4565  -1.4157  -1.3866  -1.3604  -1.3425  -1.3255  -1.2937  -1.2694
    -1.1847  -1.1064  -1.0482  -0.9904  -0.9662  -0.9331  -0.9091  -0.8651
    -0.8226  -0.7996  -0.6124  -0.5897  -0.5661  -0.5025  -0.2445   0.3689
     1.1726   1.2662   1.4502   1.8395   1.8788   1.9461   1.9826   2.0504
     2.0615   2.2107   2.3216   2.3672   2.4086   2.4522   2.4753   2.5249
     2.5450   2.5693   2.6100   2.6703   2.7181   2.7423   2.7974   2.8529
     2.8974   2.9349   2.9512   2.9949   3.0116   3.0356   3.0614   3.1146
     3.1912   3.2119   3.2544   3.2790   3.3147   3.3555   3.4506   3.4854
     3.5154   3.5770   3.6316   3.6620   3.6832   3.7645   3.8378   3.8855
     4.0323   4.2289   4.3051   4.4566   4.6453   4.7428   4.8641   4.8816
     5.0212   5.0453   5.1336   5.2174   5.2590   5.3707   5.4802   5.5682
     5.6465   5.7148   5.7272   5.8231   5.8695   5.9038   5.9292   5.9523
     5.9858   6.0099   6.0798   6.1264   6.1962   6.3001   6.4188   6.4685
     6.4819   6.5932   6.7600   6.8186   7.3727   7.5004   7.7764   7.8857
     8.0761   8.2142   8.4897   8.5311   8.7720   8.8820   9.0647   9.3090
     9.3715   9.5226   9.6098

          k =-0.0253 0.0560 0.0000 ( 34699 PWs)   bands (ev):

   -58.2783 -58.2607 -57.3631 -57.3562 -57.3385 -57.2953 -57.2398 -57.0719
   -57.0463 -57.0348 -57.0094 -56.9037 -56.8947 -56.8771 -56.7789 -56.7589
   -34.6372 -34.5484 -34.5340 -34.4695 -34.4420 -34.4224 -33.7685 -33.7584
   -33.6619 -33.6307 -33.5951 -33.5715 -33.5674 -33.5663 -33.5549 -33.5484
   -33.5219 -33.5113 -33.4985 -33.4756 -33.4635 -33.4448 -33.4355 -33.3922
   -33.3513 -33.3046 -33.3014 -33.2901 -33.2644 -33.2549 -33.2385 -33.2385
   -33.2375 -33.2281 -33.2248 -33.2111 -33.2036 -33.1962 -33.1620 -33.1439
   -33.0998 -33.0595 -33.0549 -33.0317 -33.0184 -33.0048 -32.9935 -32.9679
   -18.1922 -17.7823 -17.7598 -17.5907 -17.5805 -17.4362 -17.3736 -17.3496
   -17.2281 -17.2207 -17.1832 -17.0377 -16.9280 -16.8991 -16.8609 -16.8196
   -16.7769 -16.7236 -16.7129 -16.6976 -16.6640 -16.5760 -16.5279 -16.5113
   -16.4798 -16.4206 -16.3912 -16.3851 -16.2019 -16.1853 -15.9022 -15.6201
   -15.5965 -10.8011  -5.5856  -5.0615  -5.0044  -4.9359  -4.9031  -4.7975
    -4.7754  -4.7376  -4.6677  -4.6518  -4.5058  -4.4888  -4.4258  -4.3758
    -4.3577  -4.3492  -4.3011  -4.2571  -4.2303  -4.2203  -4.1898  -4.1575
    -4.1121  -4.1059  -4.0492  -4.0134  -3.9753  -3.9522  -3.9125  -3.8703
    -3.8135  -3.7866  -3.7036  -3.6509  -3.5796  -3.5177  -3.4419  -3.3644
    -3.3464  -3.2724  -3.1678  -3.1411  -3.1068  -3.0924  -3.0399  -3.0046
    -2.9635  -2.9073  -2.8243  -2.7737  -2.7426  -2.6844  -2.5900  -2.5716
    -2.5055  -2.4912  -2.4382  -2.3720  -2.3563  -2.2983  -2.2801  -2.2387
    -2.1680  -2.1162  -2.1013  -2.0691  -2.0294  -1.9868  -1.9652  -1.9290
    -1.9116  -1.8863  -1.8730  -1.8269  -1.7481  -1.6820  -1.6700  -1.5728
    -1.5523  -1.5244  -1.4987  -1.4649  -1.4263  -1.3922  -1.3623  -1.3042
    -1.2686  -1.2020  -1.1371  -1.0153  -0.9856  -0.9500  -0.9177  -0.8372
    -0.7454  -0.7166  -0.6849  -0.6201  -0.5895  -0.5356  -0.3418   0.3501
     1.3069   1.4888   1.5842   1.7781   1.7935   1.9318   1.9984   2.0786
     2.2851   2.2963   2.3628   2.3991   2.4357   2.5079   2.5428   2.5687
     2.5931   2.6164   2.6746   2.7257   2.7415   2.7849   2.8275   2.8776
     2.9026   2.9377   2.9825   3.0272   3.0533   3.0665   3.0765   3.1302
     3.1791   3.2191   3.2383   3.3096   3.3379   3.3665   3.3977   3.4781
     3.5297   3.5543   3.6310   3.6511   3.6847   3.7460   3.7648   3.8184
     3.9151   4.1190   4.4127   4.5210   4.7362   4.8793   4.9302   4.9806
     5.0157   5.1098   5.2075   5.2272   5.3531   5.4062   5.4542   5.5481
     5.5838   5.6188   5.6713   5.7295   5.7592   5.8238   5.8405   5.8801
     5.9432   5.9559   5.9846   6.1104   6.1526   6.2274   6.3446   6.4442
     6.4627   6.4901   6.7330   6.7851   7.0651   7.2685   7.6634   7.8206
     8.0781   8.2275   8.3100   8.4827   8.7580   8.8892   9.0164   9.1713
     9.3689   9.5506   9.6399

          k =-0.0506 0.0280 0.0000 ( 34685 PWs)   bands (ev):

   -58.2846 -58.2543 -57.3654 -57.3623 -57.3321 -57.2931 -57.2406 -57.0724
   -57.0454 -57.0398 -57.0045 -56.9031 -56.9011 -56.8706 -56.7856 -56.7522
   -34.7078 -34.5536 -34.5287 -34.4850 -34.4050 -34.3689 -33.8387 -33.8316
   -33.7128 -33.6264 -33.6117 -33.5728 -33.5521 -33.5347 -33.5334 -33.5257
   -33.5119 -33.5071 -33.4971 -33.4779 -33.4709 -33.4469 -33.4360 -33.4277
   -33.3167 -33.3014 -33.2998 -33.2976 -33.2869 -33.2856 -33.2628 -33.2455
   -33.2423 -33.2199 -33.2188 -33.2135 -33.1948 -33.1834 -33.1433 -33.1160
   -33.1137 -33.0625 -33.0383 -33.0283 -33.0008 -32.9815 -32.9579 -32.8975
   -18.2416 -17.8436 -17.8303 -17.6798 -17.5667 -17.4350 -17.4172 -17.3238
   -17.2961 -17.2289 -17.1593 -17.0649 -16.9756 -16.9306 -16.9018 -16.8752
   -16.7874 -16.7464 -16.7352 -16.6753 -16.6126 -16.5286 -16.5007 -16.4687
   -16.4400 -16.3861 -16.3671 -16.3316 -16.1350 -16.1053 -15.9042 -15.5895
   -15.5428 -10.7990  -5.5195  -5.1665  -5.1335  -5.0994  -4.9282  -4.8490
    -4.7468  -4.6887  -4.6616  -4.6319  -4.5804  -4.5658  -4.5115  -4.3866
    -4.3445  -4.3023  -4.2223  -4.1969  -4.1625  -4.1461  -4.1281  -4.0549
    -4.0337  -3.9940  -3.9571  -3.9144  -3.8698  -3.8185  -3.7984  -3.7749
    -3.7030  -3.6667  -3.6431  -3.6240  -3.5727  -3.5163  -3.4679  -3.4373
    -3.3630  -3.3502  -3.2909  -3.2447  -3.1838  -3.1300  -3.0977  -3.0373
    -2.9887  -2.9597  -2.8831  -2.8159  -2.7380  -2.6781  -2.6688  -2.6468
    -2.5964  -2.5741  -2.5606  -2.5045  -2.4961  -2.3751  -2.3202  -2.3123
    -2.2506  -2.1818  -2.1653  -2.1390  -2.0604  -1.9906  -1.9838  -1.9242
    -1.9035  -1.8732  -1.7912  -1.7017  -1.6891  -1.6644  -1.5947  -1.5644
    -1.5035  -1.4548  -1.4332  -1.3757  -1.3587  -1.3092  -1.2924  -1.2405
    -1.2239  -1.0999  -1.0377  -1.0149  -0.9903  -0.9368  -0.9052  -0.8577
    -0.8076  -0.7768  -0.7026  -0.6613  -0.6401  -0.5158  -0.3706   0.3544
     1.1595   1.3594   1.4846   1.5854   1.9534   1.9636   1.9858   2.0777
     2.1444   2.2192   2.2741   2.3499   2.4253   2.4598   2.5479   2.5657
     2.6123   2.6712   2.7073   2.7206   2.7747   2.8483   2.8710   2.9017
     2.9599   2.9661   3.0003   3.0042   3.0108   3.1217   3.1289   3.1576
     3.2051   3.2343   3.3074   3.3284   3.3746   3.4019   3.4263   3.4747
     3.4882   3.5661   3.6209   3.6858   3.7610   3.7984   3.8184   3.9185
     3.9749   4.0802   4.1288   4.4268   4.5302   4.6757   4.7679   4.8283
     4.8613   4.9331   4.9858   5.3061   5.3471   5.4266   5.5448   5.5781
     5.6587   5.7862   5.8062   5.8731   5.9110   5.9318   5.9537   6.0709
     6.1134   6.1823   6.2693   6.3501   6.3974   6.4082   6.4613   6.5091
     6.5605   6.5699   6.7265   6.9118   7.0494   7.2187   7.5662   7.5999
     7.7167   8.2006   8.4026   8.4652   8.8690   8.9293   9.0567   9.2127
     9.4180   9.5990   9.6830

          k =-0.0506 0.0560 0.0000 ( 34596 PWs)   bands (ev):

   -58.2783 -58.2607 -57.3627 -57.3565 -57.3385 -57.2953 -57.2398 -57.0719
   -57.0461 -57.0350 -57.0094 -56.9037 -56.8947 -56.8771 -56.7789 -56.7589
   -34.6378 -34.5484 -34.5339 -34.4682 -34.4422 -34.4220 -33.7688 -33.7629
   -33.6620 -33.6149 -33.5950 -33.5707 -33.5690 -33.5661 -33.5494 -33.5483
   -33.5252 -33.5117 -33.5104 -33.4759 -33.4727 -33.4449 -33.4238 -33.3939
   -33.3517 -33.3044 -33.2891 -33.2864 -33.2668 -33.2571 -33.2397 -33.2384
   -33.2370 -33.2279 -33.2243 -33.2212 -33.2043 -33.1965 -33.1612 -33.1399
   -33.0998 -33.0596 -33.0549 -33.0316 -33.0226 -33.0054 -32.9935 -32.9677
   -18.0891 -17.8001 -17.6817 -17.5944 -17.5784 -17.5379 -17.3608 -17.3498
   -17.1992 -17.1869 -17.0975 -17.0754 -16.9581 -16.8926 -16.8481 -16.8232
   -16.8042 -16.7874 -16.7425 -16.7161 -16.7015 -16.6069 -16.5773 -16.4872
   -16.4766 -16.4179 -16.4010 -16.3918 -16.2013 -16.1817 -15.9021 -15.6188
   -15.5969 -10.8008  -5.2830  -4.9727  -4.9219  -4.9137  -4.7642  -4.7566
    -4.6973  -4.6207  -4.5070  -4.4870  -4.4813  -4.3987  -4.3837  -4.3614
    -4.3419  -4.3083  -4.2905  -4.2306  -4.1822  -4.1569  -4.1521  -4.0988
    -4.0850  -4.0627  -4.0280  -3.9813  -3.9620  -3.8930  -3.8720  -3.8152
    -3.7647  -3.7188  -3.6703  -3.6542  -3.5920  -3.5448  -3.4864  -3.4161
    -3.3793  -3.3007  -3.2423  -3.2118  -3.1195  -3.1136  -3.0620  -3.0341
    -2.9772  -2.9587  -2.9391  -2.8859  -2.7817  -2.7450  -2.7301  -2.6871
    -2.6106  -2.5688  -2.5269  -2.4862  -2.4590  -2.3951  -2.3702  -2.3508
    -2.3315  -2.2704  -2.1755  -2.1532  -2.1278  -2.1090  -2.0840  -2.0291
    -1.9941  -1.9525  -1.9261  -1.8537  -1.8299  -1.7624  -1.7108  -1.6363
    -1.5468  -1.5298  -1.5199  -1.4787  -1.4273  -1.3664  -1.3337  -1.2869
    -1.2238  -1.1555  -1.0571  -1.0034  -0.9701  -0.8836  -0.8337  -0.8266
    -0.7733  -0.6876  -0.6746  -0.6527  -0.6365  -0.5337  -0.4556   0.3524
     1.3275   1.5171   1.6659   1.6876   1.8723   2.0233   2.0517   2.0875
     2.2630   2.2761   2.3800   2.3967   2.4529   2.4815   2.5682   2.6050
     2.6702   2.7154   2.7496   2.7643   2.8315   2.8624   2.8910   2.9231
     2.9545   2.9711   3.0268   3.0613   3.0923   3.1336   3.1649   3.2105
     3.2155   3.2696   3.3044   3.3444   3.3533   3.3967   3.4351   3.4868
     3.4995   3.5687   3.5959   3.6601   3.6863   3.7623   3.8224   3.8592
     3.9010   3.9784   4.1722   4.5233   4.6165   4.6357   4.7745   4.8422
     4.9084   4.9846   5.0294   5.2065   5.3212   5.3957   5.4297   5.4615
     5.6133   5.6331   5.6877   5.7362   5.8983   5.9163   6.0070   6.0247
     6.0860   6.1278   6.1840   6.2172   6.3127   6.3538   6.4218   6.4429
     6.5576   6.6286   6.7576   6.8235   7.1701   7.3417   7.4844   7.6099
     7.9246   8.0019   8.0957   8.3570   8.5973   8.7114   8.7923   9.0323
     9.1789   9.3336   9.4355

     the Fermi energy is    -0.2711 ev

!    total energy              =   -3021.14981765 Ry
     Harris-Foulkes estimate   =   -3021.14981765 Ry
     estimated scf accuracy    <       0.00000064 Ry

     The total energy is the sum of the following terms:

     one-electron contribution =  -40439.00048926 Ry
     hartree contribution      =   20291.13121873 Ry
     xc contribution           =    -553.20044960 Ry
     ewald contribution        =   17679.93966217 Ry
     smearing contrib. (-TS)   =      -0.01975970 Ry

     total magnetization       =     1.06 Bohr mag/cell
     absolute magnetization    =     1.22 Bohr mag/cell

     convergence has been achieved in  11 iterations

     Forces acting on atoms (Ry/au):


     negative rho (up, down):  1.188E-02 1.196E-02
     atom    1 type  1   force =     0.00018626   -0.00089697   -0.10468028
     atom    2 type  2   force =     0.00014500    0.00068586    0.04001337
     atom    3 type  1   force =     0.00075094   -0.00174816   -0.02052681
     atom    4 type  2   force =    -0.00327228    0.00312766   -0.00324312
     atom    5 type  1   force =     0.00034877   -0.00000505    0.00039462
     atom    6 type  2   force =    -0.00011852   -0.00006697    0.00027743
     atom    7 type  1   force =    -0.00040713   -0.00005969    0.00039988
     atom    8 type  2   force =    -0.00032186   -0.00040103   -0.00048590
     atom    9 type  1   force =    -0.00003262    0.00056924   -0.10481365
     atom   10 type  2   force =     0.00034944   -0.00020862    0.03598312
     atom   11 type  1   force =     0.00068093    0.00184189    0.00263012
     atom   12 type  2   force =    -0.00520187   -0.00266523   -0.00520861
     atom   13 type  1   force =     0.00041702    0.00015880   -0.00017464
     atom   14 type  2   force =     0.00013551   -0.00008449   -0.00027778
     atom   15 type  1   force =    -0.00016722    0.00003951   -0.00000667
     atom   16 type  2   force =    -0.00029575   -0.00004019   -0.00034060
     atom   17 type  2   force =     0.00000962   -0.00001059    0.06654493
     atom   18 type  1   force =     0.00006015    0.00003341    0.13152931
     atom   19 type  2   force =     0.00017851   -0.00052519   -0.08523962
     atom   20 type  2   force =    -0.05793553    0.00014523   -0.03610202
     atom   21 type  2   force =     0.05782881   -0.00004410   -0.03606398
     atom   22 type  1   force =    -0.00042968    0.00075189    0.08018356
     atom   23 type  2   force =     0.00020023   -0.00005013    0.00001210
     atom   24 type  2   force =     0.00064489    0.00186224   -0.03467419
     atom   25 type  2   force =     0.00414854    0.00332945   -0.00511396
     atom   26 type  1   force =     0.00040884   -0.00004352    0.00006239
     atom   27 type  2   force =    -0.00009706   -0.00012270    0.00012990
     atom   28 type  2   force =     0.00003372   -0.00018563   -0.00003184
     atom   29 type  2   force =     0.00002115   -0.00006649    0.00006548
     atom   30 type  1   force =     0.00009656   -0.00018667   -0.00033509
     atom   31 type  2   force =     0.00006599   -0.00002085    0.00030861
     atom   32 type  2   force =     0.00000028    0.00001048    0.00008728
     atom   33 type  2   force =    -0.00016476    0.00005272    0.06627791
     atom   34 type  1   force =     0.00007885   -0.00003106    0.13131003
     atom   35 type  2   force =     0.00018997   -0.00012596   -0.08484946
     atom   36 type  2   force =    -0.05782953    0.00006791   -0.03571501
     atom   37 type  2   force =     0.05800362   -0.00017258   -0.03611157
     atom   38 type  1   force =    -0.00037354   -0.00019955    0.07985473
     atom   39 type  2   force =     0.00007891   -0.00025055   -0.00011343
     atom   40 type  2   force =     0.00049127    0.00124496   -0.03528004
     atom   41 type  2   force =     0.00589582   -0.00243136   -0.00723729
     atom   42 type  1   force =     0.00024765   -0.00006802    0.00003169
     atom   43 type  2   force =    -0.00020047   -0.00010678    0.00010731
     atom   44 type  2   force =    -0.00001661   -0.00016330   -0.00003468
     atom   45 type  2   force =     0.00002222   -0.00017434    0.00004909
     atom   46 type  1   force =    -0.00028301   -0.00005364   -0.00038863
     atom   47 type  2   force =    -0.00017793   -0.00019308    0.00048984
     atom   48 type  2   force =    -0.00000663    0.00015428    0.00018262
     atom   49 type  2   force =     0.00144823    0.00252927    0.00218173
     atom   50 type  3   force =    -0.00226486   -0.00628075   -0.00210802
     atom   51 type  4   force =    -0.00151551   -0.00206868   -0.00172410
     atom   52 type  4   force =    -0.00036751   -0.00047161    0.00047797
     atom   53 type  4   force =    -0.00004271    0.00524560    0.00243864
     atom   54 type  4   force =    -0.00164515   -0.00162687   -0.00114269

     Total force =     0.342512     Total SCF correction =     0.001319
 !ASE

     Writing output data file calc.save
 
     init_run     :     67.16s CPU     80.60s WALL (       1 calls)
     electrons    :   2866.98s CPU   3292.06s WALL (       1 calls)
     forces       :     48.87s CPU     50.84s WALL (       1 calls)

     Called by init_run:
     wfcinit      :     59.09s CPU     71.90s WALL (       1 calls)
     potinit      :      1.39s CPU      1.65s WALL (       1 calls)

     Called by electrons:
     c_bands      :   2521.23s CPU   2885.24s WALL (      11 calls)
     sum_band     :    296.74s CPU    352.00s WALL (      11 calls)
     v_of_rho     :     12.36s CPU     14.92s WALL (      12 calls)
     newd         :     40.14s CPU     43.59s WALL (      12 calls)
     mix_rho      :      0.47s CPU      0.61s WALL (      11 calls)
     vdW_energy   :      2.70s CPU      3.07s WALL (      13 calls)
     vdW_ffts     :      3.22s CPU      4.08s WALL (      26 calls)
     vdW_v        :      1.29s CPU      1.44s WALL (      13 calls)

     Called by c_bands:
     init_us_2    :      6.81s CPU      7.32s WALL (     960 calls)
     cegterg      :   2480.12s CPU   2842.03s WALL (     440 calls)

     Called by *egterg:
     h_psi        :    958.64s CPU   1241.86s WALL (    2172 calls)
     s_psi        :    164.52s CPU    169.63s WALL (    2172 calls)
     g_psi        :      4.80s CPU      4.87s WALL (    1692 calls)
     cdiaghg      :    805.55s CPU    823.14s WALL (    2132 calls)

     Called by h_psi:
     add_vuspsi   :    166.44s CPU    172.16s WALL (    2172 calls)

     General routines
     calbec       :    245.10s CPU    250.80s WALL (    2652 calls)
     fft          :      6.68s CPU      8.39s WALL (    1029 calls)
     ffts         :      0.05s CPU      0.06s WALL (      46 calls)
     fftw         :    534.80s CPU    854.08s WALL (  780332 calls)
     interpolate  :      0.35s CPU      0.52s WALL (      46 calls)
     davcio       :      0.01s CPU      0.83s WALL (      40 calls)
 
     Parallel routines
     fft_scatter  :    271.05s CPU    447.05s WALL (  781407 calls)
 
     PWSCF        : 49m45.42s CPU    57m 7.45s WALL

 
   This run was terminated on:  20:39: 3  26Feb2018            

=------------------------------------------------------------------------------=
   JOB DONE.
=------------------------------------------------------------------------------=
