  python dir          : /home/vossj/suncat/lib/python2.7/site-packages/espresso
  espresso dir        : /home/vossj/suncat/esdld/espresso-dynpy-beef/bin
  pseudo dir          : /home/alatimer/bin/psp/esp_psp_w_gbrvRu/
  ase-espresso py git : ffa2778-git



     Program PWSCF v.5.1rc2 (svn rev. ) starts on 10Feb2018 at 19:47:34 

     This program is part of the open-source Quantum ESPRESSO suite
     for quantum simulation of materials; please cite
         "P. Giannozzi et al., J. Phys.:Condens. Matter 21 395502 (2009);
          URL http://www.quantum-espresso.org", 
     in publications or presentations arising from this work. More details at
     http://www.quantum-espresso.org/quote

     Parallel version (MPI), running on    16 processors
     R & G space division:  proc/nbgrp/npool/nimage =      16
     Reading input from pw.inp
     Message from routine read_cards :
     DEPRECATED: no units specified in CELL_PARAMETERS card

     Current dimensions of program PWSCF are:
     Max number of different atomic species (ntypx) = 10
     Max number of k-points (npk) =  40000
     Max angular momentum in pseudopotentials (lmaxx) =  3

     **************************************************************************
     Initializing libbeef V0.1.1 with the BEEF-vdW functional.
     Citation: Wellendorff et al., PRB 85, 235149 (2012).
     **************************************************************************


     IMPORTANT: XC functional enforced from input :
     Exchange-correlation      = BEEF ( 1  4 27 13 2)
     Any further DFT definition will be discarded
     Please, verify this is what you really want


     Subspace diagonalization in iterative solution of the eigenvalue problem:
     a serial algorithm will be used

 
     Parallelization info
     --------------------
     sticks:   dense  smooth     PW     G-vecs:    dense   smooth      PW
     Min         281     112     31                68535    17318    2565
     Max         282     113     32                68545    17369    2582
     Sum        4501    1795    503              1096637   277353   41113
 
     Generating pointlists ...
     new r_m :   0.4125 (alat units)  0.7795 (a.u.) for type    1
     new r_m :   0.3996 (alat units)  0.7551 (a.u.) for type    2
     new r_m :   0.3996 (alat units)  0.7551 (a.u.) for type    3


     bravais-lattice index     =            0
     lattice parameter (alat)  =       1.8897  a.u.
     unit-cell volume          =    7990.9933 (a.u.)^3
     number of atoms/cell      =           50
     number of atomic types    =            3
     number of electrons       =       391.00
     number of Kohn-Sham states=          295
     kinetic-energy cutoff     =      40.4243  Ry
     charge density cutoff     =     404.2426  Ry
     convergence threshold     =      7.3E-07
     mixing beta               =       0.1000
     number of iterations used =           10  plain     mixing
     Exchange-correlation      = BEEF ( 1  4 27 13 2)
     nstep                     =           50


     celldm(1)=   1.889726  celldm(2)=   0.000000  celldm(3)=   0.000000
     celldm(4)=   0.000000  celldm(5)=   0.000000  celldm(6)=   0.000000

     crystal axes: (cart. coord. in units of alat)
               a(1) = (   6.590708   0.000000   0.000000 )  
               a(2) = (   0.000000   5.950229   0.000000 )  
               a(3) = (   0.000000   0.000000  30.195235 )  

     reciprocal axes: (cart. coord. in units 2 pi/alat)
               b(1) = (  0.151729  0.000000  0.000000 )  
               b(2) = (  0.000000  0.168061  0.000000 )  
               b(3) = (  0.000000  0.000000  0.033118 )  


     PseudoPot. # 1 for Ti read from file:
     /home/alatimer/bin/psp/esp_psp_w_gbrvRu/Ti.UPF
     MD5 check sum: 8e4df49b7f0d34bbd5052bf3f5ea0213
     Pseudo is Ultrasoft, Zval = 12.0
     Generated by new atomic code, or converted to UPF format
     Using radial grid of  851 points,  6 beta functions with: 
                l(1) =   0
                l(2) =   0
                l(3) =   1
                l(4) =   1
                l(5) =   2
                l(6) =   2
     Q(r) pseudized with  8 coefficients,  rinner =    1.000   1.000   1.000
                                                       1.000   1.000

     PseudoPot. # 2 for  O read from file:
     /home/alatimer/bin/psp/esp_psp_w_gbrvRu/O.UPF
     MD5 check sum: e057bbcf3229fb5d8c36c0c92f9568b4
     Pseudo is Ultrasoft + core correction, Zval =  6.0
     Generated using "atomic" code by A. Dal Corso  v.5.0.2 svn rev. 9415
     Using radial grid of 1095 points,  4 beta functions with: 
                l(1) =   0
                l(2) =   0
                l(3) =   1
                l(4) =   1
     Q(r) pseudized with 0 coefficients 


     PseudoPot. # 3 for  H read from file:
     /home/alatimer/bin/psp/esp_psp_w_gbrvRu/H.UPF
     MD5 check sum: bd57da0722753ddfd9833a65b40bb853
     Pseudo is Ultrasoft, Zval =  1.0
     Generated using "atomic" code by A. Dal Corso  v.5.0.2 svn rev. 9415
     Using radial grid of  929 points,  2 beta functions with: 
                l(1) =   0
                l(2) =   0
     Q(r) pseudized with 0 coefficients 


     vdW kernel table read from file vdW_kernel_table
     MD5 check sum: 095c7af220d748ca6e76c0b4c6cfb241

     atomic species   valence    mass     pseudopotential
        Ti1           12.00    47.88000     Ti( 1.00)
        O1             6.00    15.99940      O( 1.00)
        H1             1.00     1.00794      H( 1.00)

     Starting magnetic structure 
     atomic species   magnetization
        Ti1          0.250
        O1           0.500
        H1           0.000

     No symmetry found



   Cartesian axes

     site n.     atom                  positions (alat units)
         1           Ti1 tau(   1) = (   1.6476770   0.7437786   2.6545865  )
         2           O1  tau(   2) = (   1.6476770   2.2313359   3.9361215  )
         3           Ti1 tau(   3) = (   1.6476770   2.2313359   5.9499405  )
         4           O1  tau(   4) = (   0.3661420   0.7437786   5.9499405  )
         5           Ti1 tau(   5) = (   1.6423058   0.7993178   9.2289010  )
         6           O1  tau(   6) = (   1.6406404   2.2313359  10.4535548  )
         7           Ti1 tau(   7) = (   1.6373334   2.2313359  13.0586656  )
         8           O1  tau(   8) = (   0.3716334   0.7231912  12.7369480  )
         9           Ti1 tau(   9) = (   1.6476770   3.7188931   2.6545865  )
        10           O1  tau(  10) = (   1.6476770   5.2064503   3.9361215  )
        11           Ti1 tau(  11) = (   1.6476770   5.2064503   5.9499405  )
        12           O1  tau(  12) = (   0.3661420   3.7188931   5.9499405  )
        13           Ti1 tau(  13) = (   1.6423059   3.6633529   9.2289023  )
        14           O1  tau(  14) = (   1.6396028   5.2064504  10.5374954  )
        15           Ti1 tau(  15) = (   1.6366369   5.2064504  12.3426698  )
        16           O1  tau(  16) = (   0.3716333   3.7394800  12.7369475  )
        17           O1  tau(  17) = (   1.6476770   2.2313359   1.3730516  )
        18           Ti1 tau(  18) = (   4.9430310   2.2313359   2.6545865  )
        19           O1  tau(  19) = (   4.9430310   2.2313359   4.6684056  )
        20           O1  tau(  20) = (   6.2245660   0.7437786   2.6545865  )
        21           O1  tau(  21) = (   3.6614961   0.7437786   2.6545865  )
        22           Ti1 tau(  22) = (   4.9430310   0.7437786   5.9499405  )
        23           O1  tau(  23) = (   1.6444126   2.2313359   7.9291264  )
        24           O1  tau(  24) = (   4.9430310   2.2313359   7.2314755  )
        25           O1  tau(  25) = (   2.9292120   0.7437786   5.9499405  )
        26           Ti1 tau(  26) = (   4.9374203   2.2313360   9.4425711  )
        27           O1  tau(  27) = (   4.9384755   2.2313359  11.2756104  )
        28           O1  tau(  28) = (   6.2333856   0.7395591   9.2701299  )
        29           O1  tau(  29) = (   3.6424277   0.7403199   9.2676498  )
        30           Ti1 tau(  30) = (   4.9388558   0.7382018  12.7898683  )
        31           O1  tau(  31) = (   4.8884434   2.2313358  13.8602379  )
        32           O1  tau(  32) = (   2.8718067   0.7224686  12.6922084  )
        33           O1  tau(  33) = (   1.6476770   5.2064503   1.3730516  )
        34           Ti1 tau(  34) = (   4.9430310   5.2064503   2.6545865  )
        35           O1  tau(  35) = (   4.9430310   5.2064503   4.6684056  )
        36           O1  tau(  36) = (   6.2245660   3.7188931   2.6545865  )
        37           O1  tau(  37) = (   3.6614961   3.7188931   2.6545865  )
        38           Ti1 tau(  38) = (   4.9430310   3.7188931   5.9499405  )
        39           O1  tau(  39) = (   1.6444418   5.2064506   7.9393866  )
        40           O1  tau(  40) = (   4.9430310   5.2064503   7.2314755  )
        41           O1  tau(  41) = (   2.9292120   3.7188931   5.9499405  )
        42           Ti1 tau(  42) = (   4.9387790   5.2064503   9.4241858  )
        43           O1  tau(  43) = (   4.9379278   5.2064504  11.2756977  )
        44           O1  tau(  44) = (   6.2333855   3.7231127   9.2701299  )
        45           O1  tau(  45) = (   3.6424278   3.7223520   9.2676499  )
        46           Ti1 tau(  46) = (   4.9388558   3.7244696  12.7898683  )
        47           O1  tau(  47) = (   4.8902929   5.2064502  13.8618696  )
        48           O1  tau(  48) = (   2.8718066   3.7402036  12.6922086  )
        49           O1  tau(  49) = (   1.7618258   2.2613358  14.8494317  )
        50           H1  tau(  50) = (   2.6007197   2.2313366  15.3328018  )

     number of k points=    40  Fermi-Dirac smearing, width (Ry)=  0.0073
                       cart. coord. in units 2pi/alat
        k(    1) = (   0.0000000   0.0000000   0.0000000), wk =   0.0277778
        k(    2) = (   0.0000000   0.0280101   0.0000000), wk =   0.0555556
        k(    3) = (   0.0000000   0.0560203   0.0000000), wk =   0.0555556
        k(    4) = (   0.0000000  -0.0840304   0.0000000), wk =   0.0277778
        k(    5) = (   0.0252881   0.0000000   0.0000000), wk =   0.0555556
        k(    6) = (   0.0252881   0.0280101   0.0000000), wk =   0.0555556
        k(    7) = (   0.0252881   0.0560203   0.0000000), wk =   0.0555556
        k(    8) = (   0.0252881  -0.0840304   0.0000000), wk =   0.0555556
        k(    9) = (   0.0505763   0.0000000   0.0000000), wk =   0.0555556
        k(   10) = (   0.0505763   0.0280101   0.0000000), wk =   0.0555556
        k(   11) = (   0.0505763   0.0560203   0.0000000), wk =   0.0555556
        k(   12) = (   0.0505763  -0.0840304   0.0000000), wk =   0.0555556
        k(   13) = (  -0.0758644   0.0000000   0.0000000), wk =   0.0277778
        k(   14) = (  -0.0758644   0.0280101   0.0000000), wk =   0.0555556
        k(   15) = (  -0.0758644   0.0560203   0.0000000), wk =   0.0555556
        k(   16) = (  -0.0758644  -0.0840304   0.0000000), wk =   0.0277778
        k(   17) = (  -0.0252881   0.0280101   0.0000000), wk =   0.0555556
        k(   18) = (  -0.0252881   0.0560203   0.0000000), wk =   0.0555556
        k(   19) = (  -0.0505763   0.0280101   0.0000000), wk =   0.0555556
        k(   20) = (  -0.0505763   0.0560203   0.0000000), wk =   0.0555556
        k(   21) = (   0.0000000   0.0000000   0.0000000), wk =   0.0277778
        k(   22) = (   0.0000000   0.0280101   0.0000000), wk =   0.0555556
        k(   23) = (   0.0000000   0.0560203   0.0000000), wk =   0.0555556
        k(   24) = (   0.0000000  -0.0840304   0.0000000), wk =   0.0277778
        k(   25) = (   0.0252881   0.0000000   0.0000000), wk =   0.0555556
        k(   26) = (   0.0252881   0.0280101   0.0000000), wk =   0.0555556
        k(   27) = (   0.0252881   0.0560203   0.0000000), wk =   0.0555556
        k(   28) = (   0.0252881  -0.0840304   0.0000000), wk =   0.0555556
        k(   29) = (   0.0505763   0.0000000   0.0000000), wk =   0.0555556
        k(   30) = (   0.0505763   0.0280101   0.0000000), wk =   0.0555556
        k(   31) = (   0.0505763   0.0560203   0.0000000), wk =   0.0555556
        k(   32) = (   0.0505763  -0.0840304   0.0000000), wk =   0.0555556
        k(   33) = (  -0.0758644   0.0000000   0.0000000), wk =   0.0277778
        k(   34) = (  -0.0758644   0.0280101   0.0000000), wk =   0.0555556
        k(   35) = (  -0.0758644   0.0560203   0.0000000), wk =   0.0555556
        k(   36) = (  -0.0758644  -0.0840304   0.0000000), wk =   0.0277778
        k(   37) = (  -0.0252881   0.0280101   0.0000000), wk =   0.0555556
        k(   38) = (  -0.0252881   0.0560203   0.0000000), wk =   0.0555556
        k(   39) = (  -0.0505763   0.0280101   0.0000000), wk =   0.0555556
        k(   40) = (  -0.0505763   0.0560203   0.0000000), wk =   0.0555556

     Dense  grid:  1096637 G-vectors     FFT dimensions: (  80,  72, 375)

     Smooth grid:   277353 G-vectors     FFT dimensions: (  54,  45, 240)

     Largest allocated arrays     est. size (Mb)     dimensions
        Kohn-Sham Wavefunctions         9.81 Mb     (    2180,  295)
        NL pseudopotentials            18.43 Mb     (    2180,  554)
        Each V/rho on FFT grid          4.22 Mb     (  138240,   2)
        Each G-vector array             0.52 Mb     (   68538)
        G-vector shells                 0.25 Mb     (   33046)
     Largest temporary arrays     est. size (Mb)     dimensions
        Auxiliary wavefunctions        39.25 Mb     (    2180, 1180)
        Each subspace H/S matrix       21.25 Mb     (    1180, 1180)
        Each <psi_i|beta_j> matrix      2.49 Mb     (     554,  295)
        Arrays for rho mixing          21.09 Mb     (  138240,   10)

     Check: negative/imaginary core charge=   -0.000049    0.000000

     The initial density is read from file :
     ./calc.save/charge-density.dat


     negative rho (up, down):  1.350E-02 1.350E-02


     ************************************************************************
     *
     * You are using vdW-DF for exchange-correlation in this calculation.
     * Please cite the following three references that made this development
     * possible:
     *
     *   M. Dion, H. Rydberg, E. Schroder, D. C. Langreth, and
     *   B. I. Lundqvist, Phys. Rev. Lett. 92, 246401 (2004).
     *
     *   T. Thonhauser, V. R. Cooper, S. Li, A. Puzder, P. Hyldgaard, and
     *   D. C. Langreth, Phys. Rev. B 76, 125112 (2007).
     *
     *   G. Roman-Perez and J. M. Soler, Phys. Rev. Lett. 103, 096102 (2009).
     *
     *
     * If you are using vdW-DF2, please also cite:
     *
     *   K. Lee, E. D. Murray, L. Kong, B. I. Lundqvist, and
     *   D. C. Langreth, Phys. Rev. B 82, 081101(R) (2010).
     *
     *
     * If you are calculating the stress with vdW-DF, please also cite:
     *
     *   R. Sabatini, E. Kucukbenli, B. Kolb, T. Thonhauser, and
     *   S. de Gironcoli, J. Phys.: Condens. Matter 24, 424209 (2012).
     *
     ************************************************************************

     Carrying out vdW-DF run using the following parameters:

     Nqs =      20    Nr_points =    1024   r_max =   100.000
     q_mesh =
               0.00001000     0.04494208     0.09755937     0.15916263
               0.23128650     0.31572767     0.41458969     0.53033537
               0.66584808     0.82450364     1.01025438     1.22772762
               1.48234092     1.78043706     2.12944203     2.53805004
               3.01644009     3.57652955     4.23227104     5.00000000

     Gradients computed in reciprocal space

     ************************************************************************


     Starting wfc are  293 randomized atomic wfcs +    2 random wfc

     total cpu time spent up to now is       71.1 secs

     Self-consistent Calculation

     iteration #  1     ecut=    40.42 Ry     beta=0.10
     Davidson diagonalization with overlap
     c_bands:  1 eigenvalues not converged
     c_bands:  1 eigenvalues not converged
     ethr =  1.00E-05,  avg # of iterations = 16.6

     negative rho (up, down):  1.350E-02 1.350E-02
 
     Magnetic moment per site:
     atom:    1    charge:    3.1244    magn:   -0.0002    constr:    0.0000
     atom:    2    charge:    1.9465    magn:    0.0002    constr:    0.0000
     atom:    3    charge:    3.1200    magn:    0.0000    constr:    0.0000
     atom:    4    charge:    1.9515    magn:   -0.0000    constr:    0.0000
     atom:    5    charge:    3.1144    magn:    0.0001    constr:    0.0000
     atom:    6    charge:    1.9404    magn:   -0.0002    constr:    0.0000
     atom:    7    charge:    3.1162    magn:    0.0000    constr:    0.0000
     atom:    8    charge:    1.9456    magn:   -0.0001    constr:    0.0000
     atom:    9    charge:    3.1244    magn:   -0.0002    constr:    0.0000
     atom:   10    charge:    1.9467    magn:    0.0002    constr:    0.0000
     atom:   11    charge:    3.1198    magn:    0.0000    constr:    0.0000
     atom:   12    charge:    1.9515    magn:   -0.0000    constr:    0.0000
     atom:   13    charge:    3.1144    magn:    0.0001    constr:    0.0000
     atom:   14    charge:    1.9542    magn:   -0.0000    constr:    0.0000
     atom:   15    charge:    3.1166    magn:    0.0000    constr:    0.0000
     atom:   16    charge:    1.9469    magn:   -0.0001    constr:    0.0000
     atom:   17    charge:    1.9197    magn:    0.0010    constr:    0.0000
     atom:   18    charge:    3.1239    magn:    0.0000    constr:    0.0000
     atom:   19    charge:    1.9419    magn:    0.0000    constr:    0.0000
     atom:   20    charge:    1.9484    magn:    0.0000    constr:    0.0000
     atom:   21    charge:    1.9484    magn:    0.0000    constr:    0.0000
     atom:   22    charge:    3.1199    magn:    0.0000    constr:    0.0000
     atom:   23    charge:    1.9555    magn:   -0.0001    constr:    0.0000
     atom:   24    charge:    1.9364    magn:   -0.0002    constr:    0.0000
     atom:   25    charge:    1.9515    magn:   -0.0000    constr:    0.0000
     atom:   26    charge:    3.1144    magn:    0.0001    constr:    0.0000
     atom:   27    charge:    1.9395    magn:   -0.0003    constr:    0.0000
     atom:   28    charge:    1.9493    magn:   -0.0002    constr:    0.0000
     atom:   29    charge:    1.9471    magn:   -0.0002    constr:    0.0000
     atom:   30    charge:    3.1191    magn:    0.0000    constr:    0.0000
     atom:   31    charge:    1.9474    magn:   -0.0000    constr:    0.0000
     atom:   32    charge:    1.9454    magn:   -0.0001    constr:    0.0000
     atom:   33    charge:    1.9197    magn:    0.0010    constr:    0.0000
     atom:   34    charge:    3.1239    magn:    0.0000    constr:    0.0000
     atom:   35    charge:    1.9420    magn:    0.0000    constr:    0.0000
     atom:   36    charge:    1.9484    magn:    0.0000    constr:    0.0000
     atom:   37    charge:    1.9484    magn:    0.0000    constr:    0.0000
     atom:   38    charge:    3.1199    magn:    0.0000    constr:    0.0000
     atom:   39    charge:    1.9474    magn:   -0.0001    constr:    0.0000
     atom:   40    charge:    1.9368    magn:   -0.0002    constr:    0.0000
     atom:   41    charge:    1.9515    magn:   -0.0000    constr:    0.0000
     atom:   42    charge:    3.1217    magn:    0.0001    constr:    0.0000
     atom:   43    charge:    1.9394    magn:   -0.0002    constr:    0.0000
     atom:   44    charge:    1.9494    magn:   -0.0002    constr:    0.0000
     atom:   45    charge:    1.9472    magn:   -0.0002    constr:    0.0000
     atom:   46    charge:    3.1196    magn:    0.0000    constr:    0.0000
     atom:   47    charge:    1.9474    magn:   -0.0001    constr:    0.0000
     atom:   48    charge:    1.9471    magn:   -0.0001    constr:    0.0000
     atom:   49    charge:    1.9505    magn:    0.0000    constr:    0.0000
     atom:   50    charge:    0.3949    magn:   -0.0000    constr:    0.0000

     total cpu time spent up to now is      999.4 secs

     total energy              =   -3005.55732421 Ry
     Harris-Foulkes estimate   =   -3005.56989073 Ry
     estimated scf accuracy    <       0.08537803 Ry

     total magnetization       =     0.00 Bohr mag/cell
     absolute magnetization    =     0.01 Bohr mag/cell

     iteration #  2     ecut=    40.42 Ry     beta=0.10
     Davidson diagonalization with overlap
     ethr =  2.18E-05,  avg # of iterations =  2.0

     negative rho (up, down):  1.351E-02 1.351E-02
 
     Magnetic moment per site:
     atom:    1    charge:    3.1244    magn:   -0.0002    constr:    0.0000
     atom:    2    charge:    1.9463    magn:    0.0002    constr:    0.0000
     atom:    3    charge:    3.1200    magn:    0.0000    constr:    0.0000
     atom:    4    charge:    1.9515    magn:   -0.0000    constr:    0.0000
     atom:    5    charge:    3.1144    magn:    0.0001    constr:    0.0000
     atom:    6    charge:    1.9407    magn:   -0.0002    constr:    0.0000
     atom:    7    charge:    3.1161    magn:    0.0000    constr:    0.0000
     atom:    8    charge:    1.9456    magn:   -0.0001    constr:    0.0000
     atom:    9    charge:    3.1244    magn:   -0.0002    constr:    0.0000
     atom:   10    charge:    1.9464    magn:    0.0002    constr:    0.0000
     atom:   11    charge:    3.1198    magn:    0.0000    constr:    0.0000
     atom:   12    charge:    1.9515    magn:   -0.0000    constr:    0.0000
     atom:   13    charge:    3.1144    magn:    0.0001    constr:    0.0000
     atom:   14    charge:    1.9543    magn:   -0.0000    constr:    0.0000
     atom:   15    charge:    3.1166    magn:    0.0000    constr:    0.0000
     atom:   16    charge:    1.9473    magn:   -0.0001    constr:    0.0000
     atom:   17    charge:    1.9186    magn:    0.0010    constr:    0.0000
     atom:   18    charge:    3.1239    magn:    0.0000    constr:    0.0000
     atom:   19    charge:    1.9419    magn:    0.0000    constr:    0.0000
     atom:   20    charge:    1.9483    magn:    0.0000    constr:    0.0000
     atom:   21    charge:    1.9483    magn:    0.0000    constr:    0.0000
     atom:   22    charge:    3.1199    magn:    0.0000    constr:    0.0000
     atom:   23    charge:    1.9556    magn:   -0.0001    constr:    0.0000
     atom:   24    charge:    1.9366    magn:   -0.0002    constr:    0.0000
     atom:   25    charge:    1.9515    magn:   -0.0000    constr:    0.0000
     atom:   26    charge:    3.1143    magn:    0.0001    constr:    0.0000
     atom:   27    charge:    1.9399    magn:   -0.0002    constr:    0.0000
     atom:   28    charge:    1.9496    magn:   -0.0002    constr:    0.0000
     atom:   29    charge:    1.9474    magn:   -0.0002    constr:    0.0000
     atom:   30    charge:    3.1191    magn:    0.0000    constr:    0.0000
     atom:   31    charge:    1.9474    magn:   -0.0000    constr:    0.0000
     atom:   32    charge:    1.9454    magn:   -0.0001    constr:    0.0000
     atom:   33    charge:    1.9185    magn:    0.0010    constr:    0.0000
     atom:   34    charge:    3.1239    magn:    0.0000    constr:    0.0000
     atom:   35    charge:    1.9419    magn:    0.0000    constr:    0.0000
     atom:   36    charge:    1.9483    magn:    0.0000    constr:    0.0000
     atom:   37    charge:    1.9483    magn:    0.0000    constr:    0.0000
     atom:   38    charge:    3.1199    magn:    0.0000    constr:    0.0000
     atom:   39    charge:    1.9475    magn:   -0.0001    constr:    0.0000
     atom:   40    charge:    1.9370    magn:   -0.0002    constr:    0.0000
     atom:   41    charge:    1.9515    magn:   -0.0000    constr:    0.0000
     atom:   42    charge:    3.1217    magn:    0.0001    constr:    0.0000
     atom:   43    charge:    1.9398    magn:   -0.0002    constr:    0.0000
     atom:   44    charge:    1.9496    magn:   -0.0002    constr:    0.0000
     atom:   45    charge:    1.9474    magn:   -0.0002    constr:    0.0000
     atom:   46    charge:    3.1196    magn:    0.0000    constr:    0.0000
     atom:   47    charge:    1.9476    magn:   -0.0001    constr:    0.0000
     atom:   48    charge:    1.9476    magn:   -0.0001    constr:    0.0000
     atom:   49    charge:    1.9523    magn:    0.0000    constr:    0.0000
     atom:   50    charge:    0.3947    magn:   -0.0000    constr:    0.0000

     total cpu time spent up to now is     1204.4 secs

     total energy              =   -3005.53999566 Ry
     Harris-Foulkes estimate   =   -3005.55794964 Ry
     estimated scf accuracy    <       0.06119170 Ry

     total magnetization       =     0.00 Bohr mag/cell
     absolute magnetization    =     0.01 Bohr mag/cell

     iteration #  3     ecut=    40.42 Ry     beta=0.10
     Davidson diagonalization with overlap
     ethr =  1.57E-05,  avg # of iterations =  3.7

     negative rho (up, down):  1.351E-02 1.351E-02
 
     Magnetic moment per site:
     atom:    1    charge:    3.1244    magn:   -0.0002    constr:    0.0000
     atom:    2    charge:    1.9465    magn:    0.0002    constr:    0.0000
     atom:    3    charge:    3.1200    magn:    0.0000    constr:    0.0000
     atom:    4    charge:    1.9516    magn:   -0.0000    constr:    0.0000
     atom:    5    charge:    3.1144    magn:    0.0000    constr:    0.0000
     atom:    6    charge:    1.9404    magn:   -0.0001    constr:    0.0000
     atom:    7    charge:    3.1160    magn:    0.0000    constr:    0.0000
     atom:    8    charge:    1.9455    magn:   -0.0001    constr:    0.0000
     atom:    9    charge:    3.1244    magn:   -0.0002    constr:    0.0000
     atom:   10    charge:    1.9466    magn:    0.0002    constr:    0.0000
     atom:   11    charge:    3.1198    magn:    0.0000    constr:    0.0000
     atom:   12    charge:    1.9516    magn:   -0.0000    constr:    0.0000
     atom:   13    charge:    3.1144    magn:    0.0000    constr:    0.0000
     atom:   14    charge:    1.9542    magn:   -0.0000    constr:    0.0000
     atom:   15    charge:    3.1165    magn:    0.0000    constr:    0.0000
     atom:   16    charge:    1.9472    magn:   -0.0001    constr:    0.0000
     atom:   17    charge:    1.9193    magn:    0.0009    constr:    0.0000
     atom:   18    charge:    3.1240    magn:    0.0000    constr:    0.0000
     atom:   19    charge:    1.9419    magn:    0.0000    constr:    0.0000
     atom:   20    charge:    1.9484    magn:    0.0000    constr:    0.0000
     atom:   21    charge:    1.9484    magn:    0.0000    constr:    0.0000
     atom:   22    charge:    3.1199    magn:    0.0000    constr:    0.0000
     atom:   23    charge:    1.9556    magn:   -0.0001    constr:    0.0000
     atom:   24    charge:    1.9365    magn:   -0.0001    constr:    0.0000
     atom:   25    charge:    1.9516    magn:   -0.0000    constr:    0.0000
     atom:   26    charge:    3.1143    magn:    0.0001    constr:    0.0000
     atom:   27    charge:    1.9395    magn:   -0.0002    constr:    0.0000
     atom:   28    charge:    1.9494    magn:   -0.0002    constr:    0.0000
     atom:   29    charge:    1.9473    magn:   -0.0002    constr:    0.0000
     atom:   30    charge:    3.1192    magn:    0.0000    constr:    0.0000
     atom:   31    charge:    1.9474    magn:   -0.0000    constr:    0.0000
     atom:   32    charge:    1.9452    magn:   -0.0001    constr:    0.0000
     atom:   33    charge:    1.9193    magn:    0.0009    constr:    0.0000
     atom:   34    charge:    3.1239    magn:    0.0000    constr:    0.0000
     atom:   35    charge:    1.9419    magn:    0.0000    constr:    0.0000
     atom:   36    charge:    1.9484    magn:    0.0000    constr:    0.0000
     atom:   37    charge:    1.9484    magn:    0.0000    constr:    0.0000
     atom:   38    charge:    3.1199    magn:    0.0000    constr:    0.0000
     atom:   39    charge:    1.9475    magn:   -0.0001    constr:    0.0000
     atom:   40    charge:    1.9369    magn:   -0.0002    constr:    0.0000
     atom:   41    charge:    1.9516    magn:   -0.0000    constr:    0.0000
     atom:   42    charge:    3.1217    magn:    0.0001    constr:    0.0000
     atom:   43    charge:    1.9394    magn:   -0.0002    constr:    0.0000
     atom:   44    charge:    1.9494    magn:   -0.0002    constr:    0.0000
     atom:   45    charge:    1.9472    magn:   -0.0002    constr:    0.0000
     atom:   46    charge:    3.1194    magn:    0.0000    constr:    0.0000
     atom:   47    charge:    1.9475    magn:   -0.0001    constr:    0.0000
     atom:   48    charge:    1.9474    magn:   -0.0001    constr:    0.0000
     atom:   49    charge:    1.9546    magn:    0.0000    constr:    0.0000
     atom:   50    charge:    0.3944    magn:   -0.0000    constr:    0.0000

     total cpu time spent up to now is     1439.3 secs

     total energy              =   -3005.52720963 Ry
     Harris-Foulkes estimate   =   -3005.54455975 Ry
     estimated scf accuracy    <       0.08857644 Ry

     total magnetization       =    -0.00 Bohr mag/cell
     absolute magnetization    =     0.01 Bohr mag/cell

     iteration #  4     ecut=    40.42 Ry     beta=0.10
     Davidson diagonalization with overlap
     ethr =  1.57E-05,  avg # of iterations =  2.0

     negative rho (up, down):  1.352E-02 1.352E-02
 
     Magnetic moment per site:
     atom:    1    charge:    3.1244    magn:   -0.0002    constr:    0.0000
     atom:    2    charge:    1.9465    magn:    0.0002    constr:    0.0000
     atom:    3    charge:    3.1200    magn:    0.0000    constr:    0.0000
     atom:    4    charge:    1.9514    magn:   -0.0000    constr:    0.0000
     atom:    5    charge:    3.1144    magn:    0.0000    constr:    0.0000
     atom:    6    charge:    1.9404    magn:   -0.0001    constr:    0.0000
     atom:    7    charge:    3.1162    magn:    0.0000    constr:    0.0000
     atom:    8    charge:    1.9467    magn:   -0.0000    constr:    0.0000
     atom:    9    charge:    3.1244    magn:   -0.0002    constr:    0.0000
     atom:   10    charge:    1.9466    magn:    0.0002    constr:    0.0000
     atom:   11    charge:    3.1198    magn:    0.0000    constr:    0.0000
     atom:   12    charge:    1.9514    magn:   -0.0000    constr:    0.0000
     atom:   13    charge:    3.1143    magn:    0.0000    constr:    0.0000
     atom:   14    charge:    1.9542    magn:   -0.0000    constr:    0.0000
     atom:   15    charge:    3.1165    magn:    0.0000    constr:    0.0000
     atom:   16    charge:    1.9460    magn:   -0.0000    constr:    0.0000
     atom:   17    charge:    1.9200    magn:    0.0008    constr:    0.0000
     atom:   18    charge:    3.1240    magn:    0.0000    constr:    0.0000
     atom:   19    charge:    1.9419    magn:    0.0000    constr:    0.0000
     atom:   20    charge:    1.9484    magn:    0.0000    constr:    0.0000
     atom:   21    charge:    1.9484    magn:    0.0000    constr:    0.0000
     atom:   22    charge:    3.1199    magn:    0.0000    constr:    0.0000
     atom:   23    charge:    1.9554    magn:   -0.0001    constr:    0.0000
     atom:   24    charge:    1.9363    magn:   -0.0001    constr:    0.0000
     atom:   25    charge:    1.9514    magn:   -0.0000    constr:    0.0000
     atom:   26    charge:    3.1143    magn:    0.0001    constr:    0.0000
     atom:   27    charge:    1.9395    magn:   -0.0002    constr:    0.0000
     atom:   28    charge:    1.9493    magn:   -0.0002    constr:    0.0000
     atom:   29    charge:    1.9471    magn:   -0.0002    constr:    0.0000
     atom:   30    charge:    3.1196    magn:    0.0000    constr:    0.0000
     atom:   31    charge:    1.9474    magn:   -0.0000    constr:    0.0000
     atom:   32    charge:    1.9468    magn:   -0.0000    constr:    0.0000
     atom:   33    charge:    1.9200    magn:    0.0009    constr:    0.0000
     atom:   34    charge:    3.1239    magn:    0.0000    constr:    0.0000
     atom:   35    charge:    1.9419    magn:    0.0000    constr:    0.0000
     atom:   36    charge:    1.9484    magn:    0.0000    constr:    0.0000
     atom:   37    charge:    1.9484    magn:    0.0000    constr:    0.0000
     atom:   38    charge:    3.1199    magn:    0.0000    constr:    0.0000
     atom:   39    charge:    1.9472    magn:   -0.0001    constr:    0.0000
     atom:   40    charge:    1.9367    magn:   -0.0001    constr:    0.0000
     atom:   41    charge:    1.9514    magn:   -0.0000    constr:    0.0000
     atom:   42    charge:    3.1217    magn:    0.0001    constr:    0.0000
     atom:   43    charge:    1.9394    magn:   -0.0002    constr:    0.0000
     atom:   44    charge:    1.9493    magn:   -0.0002    constr:    0.0000
     atom:   45    charge:    1.9470    magn:   -0.0002    constr:    0.0000
     atom:   46    charge:    3.1191    magn:    0.0000    constr:    0.0000
     atom:   47    charge:    1.9475    magn:   -0.0001    constr:    0.0000
     atom:   48    charge:    1.9459    magn:   -0.0000    constr:    0.0000
     atom:   49    charge:    1.9550    magn:    0.0000    constr:    0.0000
     atom:   50    charge:    0.3943    magn:   -0.0000    constr:    0.0000

     total cpu time spent up to now is     1649.2 secs

     total energy              =   -3005.52922000 Ry
     Harris-Foulkes estimate   =   -3005.53110849 Ry
     estimated scf accuracy    <       0.00635621 Ry

     total magnetization       =     0.00 Bohr mag/cell
     absolute magnetization    =     0.01 Bohr mag/cell

     iteration #  5     ecut=    40.42 Ry     beta=0.10
     Davidson diagonalization with overlap
     ethr =  1.63E-06,  avg # of iterations =  6.8

     negative rho (up, down):  1.352E-02 1.351E-02
 
     Magnetic moment per site:
     atom:    1    charge:    3.1244    magn:   -0.0002    constr:    0.0000
     atom:    2    charge:    1.9465    magn:    0.0002    constr:    0.0000
     atom:    3    charge:    3.1200    magn:    0.0000    constr:    0.0000
     atom:    4    charge:    1.9515    magn:   -0.0000    constr:    0.0000
     atom:    5    charge:    3.1144    magn:    0.0000    constr:    0.0000
     atom:    6    charge:    1.9404    magn:   -0.0001    constr:    0.0000
     atom:    7    charge:    3.1163    magn:    0.0000    constr:    0.0000
     atom:    8    charge:    1.9470    magn:   -0.0000    constr:    0.0000
     atom:    9    charge:    3.1244    magn:   -0.0002    constr:    0.0000
     atom:   10    charge:    1.9466    magn:    0.0002    constr:    0.0000
     atom:   11    charge:    3.1198    magn:    0.0000    constr:    0.0000
     atom:   12    charge:    1.9515    magn:   -0.0000    constr:    0.0000
     atom:   13    charge:    3.1144    magn:    0.0000    constr:    0.0000
     atom:   14    charge:    1.9542    magn:   -0.0000    constr:    0.0000
     atom:   15    charge:    3.1165    magn:    0.0000    constr:    0.0000
     atom:   16    charge:    1.9456    magn:   -0.0000    constr:    0.0000
     atom:   17    charge:    1.9197    magn:    0.0008    constr:    0.0000
     atom:   18    charge:    3.1239    magn:    0.0000    constr:    0.0000
     atom:   19    charge:    1.9419    magn:    0.0000    constr:    0.0000
     atom:   20    charge:    1.9484    magn:    0.0000    constr:    0.0000
     atom:   21    charge:    1.9484    magn:    0.0000    constr:    0.0000
     atom:   22    charge:    3.1199    magn:    0.0000    constr:    0.0000
     atom:   23    charge:    1.9555    magn:   -0.0000    constr:    0.0000
     atom:   24    charge:    1.9364    magn:   -0.0001    constr:    0.0000
     atom:   25    charge:    1.9515    magn:   -0.0000    constr:    0.0000
     atom:   26    charge:    3.1143    magn:    0.0001    constr:    0.0000
     atom:   27    charge:    1.9395    magn:   -0.0002    constr:    0.0000
     atom:   28    charge:    1.9494    magn:   -0.0002    constr:    0.0000
     atom:   29    charge:    1.9472    magn:   -0.0002    constr:    0.0000
     atom:   30    charge:    3.1196    magn:    0.0000    constr:    0.0000
     atom:   31    charge:    1.9474    magn:   -0.0000    constr:    0.0000
     atom:   32    charge:    1.9472    magn:   -0.0000    constr:    0.0000
     atom:   33    charge:    1.9197    magn:    0.0008    constr:    0.0000
     atom:   34    charge:    3.1239    magn:    0.0000    constr:    0.0000
     atom:   35    charge:    1.9419    magn:    0.0000    constr:    0.0000
     atom:   36    charge:    1.9484    magn:    0.0000    constr:    0.0000
     atom:   37    charge:    1.9484    magn:    0.0000    constr:    0.0000
     atom:   38    charge:    3.1199    magn:    0.0000    constr:    0.0000
     atom:   39    charge:    1.9473    magn:   -0.0001    constr:    0.0000
     atom:   40    charge:    1.9368    magn:   -0.0001    constr:    0.0000
     atom:   41    charge:    1.9515    magn:   -0.0000    constr:    0.0000
     atom:   42    charge:    3.1217    magn:    0.0001    constr:    0.0000
     atom:   43    charge:    1.9394    magn:   -0.0002    constr:    0.0000
     atom:   44    charge:    1.9493    magn:   -0.0002    constr:    0.0000
     atom:   45    charge:    1.9471    magn:   -0.0002    constr:    0.0000
     atom:   46    charge:    3.1190    magn:    0.0000    constr:    0.0000
     atom:   47    charge:    1.9474    magn:   -0.0001    constr:    0.0000
     atom:   48    charge:    1.9454    magn:   -0.0000    constr:    0.0000
     atom:   49    charge:    1.9550    magn:    0.0000    constr:    0.0000
     atom:   50    charge:    0.3944    magn:   -0.0000    constr:    0.0000

     total cpu time spent up to now is     1946.3 secs

     total energy              =   -3005.52967294 Ry
     Harris-Foulkes estimate   =   -3005.52999537 Ry
     estimated scf accuracy    <       0.00548638 Ry

     total magnetization       =     0.00 Bohr mag/cell
     absolute magnetization    =     0.01 Bohr mag/cell

     iteration #  6     ecut=    40.42 Ry     beta=0.10
     Davidson diagonalization with overlap
     ethr =  1.40E-06,  avg # of iterations =  1.0

     negative rho (up, down):  1.351E-02 1.351E-02
 
     Magnetic moment per site:
     atom:    1    charge:    3.1244    magn:   -0.0001    constr:    0.0000
     atom:    2    charge:    1.9465    magn:    0.0001    constr:    0.0000
     atom:    3    charge:    3.1200    magn:    0.0000    constr:    0.0000
     atom:    4    charge:    1.9515    magn:   -0.0000    constr:    0.0000
     atom:    5    charge:    3.1144    magn:    0.0000    constr:    0.0000
     atom:    6    charge:    1.9404    magn:   -0.0001    constr:    0.0000
     atom:    7    charge:    3.1163    magn:    0.0000    constr:    0.0000
     atom:    8    charge:    1.9469    magn:   -0.0000    constr:    0.0000
     atom:    9    charge:    3.1244    magn:   -0.0001    constr:    0.0000
     atom:   10    charge:    1.9466    magn:    0.0002    constr:    0.0000
     atom:   11    charge:    3.1198    magn:    0.0000    constr:    0.0000
     atom:   12    charge:    1.9515    magn:   -0.0000    constr:    0.0000
     atom:   13    charge:    3.1144    magn:    0.0000    constr:    0.0000
     atom:   14    charge:    1.9542    magn:   -0.0000    constr:    0.0000
     atom:   15    charge:    3.1165    magn:    0.0000    constr:    0.0000
     atom:   16    charge:    1.9458    magn:   -0.0000    constr:    0.0000
     atom:   17    charge:    1.9195    magn:    0.0008    constr:    0.0000
     atom:   18    charge:    3.1239    magn:    0.0000    constr:    0.0000
     atom:   19    charge:    1.9419    magn:    0.0000    constr:    0.0000
     atom:   20    charge:    1.9484    magn:    0.0000    constr:    0.0000
     atom:   21    charge:    1.9484    magn:    0.0000    constr:    0.0000
     atom:   22    charge:    3.1199    magn:    0.0000    constr:    0.0000
     atom:   23    charge:    1.9555    magn:   -0.0000    constr:    0.0000
     atom:   24    charge:    1.9365    magn:   -0.0001    constr:    0.0000
     atom:   25    charge:    1.9515    magn:   -0.0000    constr:    0.0000
     atom:   26    charge:    3.1143    magn:    0.0001    constr:    0.0000
     atom:   27    charge:    1.9395    magn:   -0.0002    constr:    0.0000
     atom:   28    charge:    1.9494    magn:   -0.0001    constr:    0.0000
     atom:   29    charge:    1.9472    magn:   -0.0001    constr:    0.0000
     atom:   30    charge:    3.1195    magn:    0.0000    constr:    0.0000
     atom:   31    charge:    1.9474    magn:   -0.0000    constr:    0.0000
     atom:   32    charge:    1.9471    magn:   -0.0000    constr:    0.0000
     atom:   33    charge:    1.9195    magn:    0.0008    constr:    0.0000
     atom:   34    charge:    3.1239    magn:    0.0000    constr:    0.0000
     atom:   35    charge:    1.9419    magn:    0.0000    constr:    0.0000
     atom:   36    charge:    1.9484    magn:    0.0000    constr:    0.0000
     atom:   37    charge:    1.9484    magn:    0.0000    constr:    0.0000
     atom:   38    charge:    3.1199    magn:    0.0000    constr:    0.0000
     atom:   39    charge:    1.9474    magn:   -0.0001    constr:    0.0000
     atom:   40    charge:    1.9369    magn:   -0.0001    constr:    0.0000
     atom:   41    charge:    1.9515    magn:   -0.0000    constr:    0.0000
     atom:   42    charge:    3.1217    magn:    0.0001    constr:    0.0000
     atom:   43    charge:    1.9394    magn:   -0.0002    constr:    0.0000
     atom:   44    charge:    1.9494    magn:   -0.0001    constr:    0.0000
     atom:   45    charge:    1.9472    magn:   -0.0001    constr:    0.0000
     atom:   46    charge:    3.1191    magn:    0.0000    constr:    0.0000
     atom:   47    charge:    1.9475    magn:   -0.0000    constr:    0.0000
     atom:   48    charge:    1.9456    magn:   -0.0000    constr:    0.0000
     atom:   49    charge:    1.9550    magn:    0.0000    constr:    0.0000
     atom:   50    charge:    0.3944    magn:   -0.0000    constr:    0.0000

     total cpu time spent up to now is     2135.4 secs

     total energy              =   -3005.52968325 Ry
     Harris-Foulkes estimate   =   -3005.52977438 Ry
     estimated scf accuracy    <       0.00087071 Ry

     total magnetization       =     0.00 Bohr mag/cell
     absolute magnetization    =     0.01 Bohr mag/cell

     iteration #  7     ecut=    40.42 Ry     beta=0.10
     Davidson diagonalization with overlap
     ethr =  2.23E-07,  avg # of iterations =  1.0

     negative rho (up, down):  1.351E-02 1.351E-02
 
     Magnetic moment per site:
     atom:    1    charge:    3.1244    magn:   -0.0001    constr:    0.0000
     atom:    2    charge:    1.9465    magn:    0.0001    constr:    0.0000
     atom:    3    charge:    3.1200    magn:   -0.0000    constr:    0.0000
     atom:    4    charge:    1.9515    magn:   -0.0000    constr:    0.0000
     atom:    5    charge:    3.1144    magn:    0.0000    constr:    0.0000
     atom:    6    charge:    1.9404    magn:   -0.0001    constr:    0.0000
     atom:    7    charge:    3.1162    magn:    0.0000    constr:    0.0000
     atom:    8    charge:    1.9466    magn:   -0.0000    constr:    0.0000
     atom:    9    charge:    3.1244    magn:   -0.0001    constr:    0.0000
     atom:   10    charge:    1.9466    magn:    0.0001    constr:    0.0000
     atom:   11    charge:    3.1198    magn:    0.0000    constr:    0.0000
     atom:   12    charge:    1.9515    magn:   -0.0000    constr:    0.0000
     atom:   13    charge:    3.1144    magn:    0.0000    constr:    0.0000
     atom:   14    charge:    1.9542    magn:   -0.0000    constr:    0.0000
     atom:   15    charge:    3.1165    magn:    0.0000    constr:    0.0000
     atom:   16    charge:    1.9461    magn:   -0.0000    constr:    0.0000
     atom:   17    charge:    1.9196    magn:    0.0007    constr:    0.0000
     atom:   18    charge:    3.1239    magn:   -0.0000    constr:    0.0000
     atom:   19    charge:    1.9419    magn:    0.0000    constr:    0.0000
     atom:   20    charge:    1.9484    magn:    0.0000    constr:    0.0000
     atom:   21    charge:    1.9484    magn:    0.0000    constr:    0.0000
     atom:   22    charge:    3.1199    magn:    0.0000    constr:    0.0000
     atom:   23    charge:    1.9555    magn:   -0.0000    constr:    0.0000
     atom:   24    charge:    1.9364    magn:   -0.0001    constr:    0.0000
     atom:   25    charge:    1.9515    magn:   -0.0000    constr:    0.0000
     atom:   26    charge:    3.1143    magn:    0.0000    constr:    0.0000
     atom:   27    charge:    1.9395    magn:   -0.0001    constr:    0.0000
     atom:   28    charge:    1.9493    magn:   -0.0001    constr:    0.0000
     atom:   29    charge:    1.9471    magn:   -0.0001    constr:    0.0000
     atom:   30    charge:    3.1193    magn:    0.0000    constr:    0.0000
     atom:   31    charge:    1.9474    magn:   -0.0000    constr:    0.0000
     atom:   32    charge:    1.9466    magn:   -0.0000    constr:    0.0000
     atom:   33    charge:    1.9196    magn:    0.0007    constr:    0.0000
     atom:   34    charge:    3.1239    magn:   -0.0000    constr:    0.0000
     atom:   35    charge:    1.9419    magn:    0.0000    constr:    0.0000
     atom:   36    charge:    1.9484    magn:    0.0000    constr:    0.0000
     atom:   37    charge:    1.9484    magn:    0.0000    constr:    0.0000
     atom:   38    charge:    3.1199    magn:    0.0000    constr:    0.0000
     atom:   39    charge:    1.9474    magn:   -0.0001    constr:    0.0000
     atom:   40    charge:    1.9368    magn:   -0.0001    constr:    0.0000
     atom:   41    charge:    1.9515    magn:   -0.0000    constr:    0.0000
     atom:   42    charge:    3.1217    magn:    0.0000    constr:    0.0000
     atom:   43    charge:    1.9394    magn:   -0.0001    constr:    0.0000
     atom:   44    charge:    1.9494    magn:   -0.0001    constr:    0.0000
     atom:   45    charge:    1.9472    magn:   -0.0001    constr:    0.0000
     atom:   46    charge:    3.1193    magn:    0.0000    constr:    0.0000
     atom:   47    charge:    1.9475    magn:   -0.0000    constr:    0.0000
     atom:   48    charge:    1.9461    magn:   -0.0000    constr:    0.0000
     atom:   49    charge:    1.9550    magn:    0.0000    constr:    0.0000
     atom:   50    charge:    0.3945    magn:   -0.0000    constr:    0.0000

     total cpu time spent up to now is     2324.7 secs

     total energy              =   -3005.52968969 Ry
     Harris-Foulkes estimate   =   -3005.52974107 Ry
     estimated scf accuracy    <       0.00037827 Ry

     total magnetization       =     0.00 Bohr mag/cell
     absolute magnetization    =     0.01 Bohr mag/cell

     iteration #  8     ecut=    40.42 Ry     beta=0.10
     Davidson diagonalization with overlap
     ethr =  9.67E-08,  avg # of iterations =  1.8

     negative rho (up, down):  1.351E-02 1.351E-02
 
     Magnetic moment per site:
     atom:    1    charge:    3.1244    magn:   -0.0001    constr:    0.0000
     atom:    2    charge:    1.9465    magn:    0.0001    constr:    0.0000
     atom:    3    charge:    3.1200    magn:   -0.0000    constr:    0.0000
     atom:    4    charge:    1.9515    magn:   -0.0000    constr:    0.0000
     atom:    5    charge:    3.1144    magn:    0.0000    constr:    0.0000
     atom:    6    charge:    1.9404    magn:   -0.0001    constr:    0.0000
     atom:    7    charge:    3.1162    magn:    0.0000    constr:    0.0000
     atom:    8    charge:    1.9463    magn:   -0.0000    constr:    0.0000
     atom:    9    charge:    3.1244    magn:   -0.0001    constr:    0.0000
     atom:   10    charge:    1.9466    magn:    0.0001    constr:    0.0000
     atom:   11    charge:    3.1198    magn:    0.0000    constr:    0.0000
     atom:   12    charge:    1.9515    magn:   -0.0000    constr:    0.0000
     atom:   13    charge:    3.1144    magn:    0.0000    constr:    0.0000
     atom:   14    charge:    1.9542    magn:   -0.0000    constr:    0.0000
     atom:   15    charge:    3.1165    magn:    0.0000    constr:    0.0000
     atom:   16    charge:    1.9463    magn:   -0.0000    constr:    0.0000
     atom:   17    charge:    1.9195    magn:    0.0006    constr:    0.0000
     atom:   18    charge:    3.1239    magn:   -0.0000    constr:    0.0000
     atom:   19    charge:    1.9419    magn:    0.0000    constr:    0.0000
     atom:   20    charge:    1.9484    magn:    0.0000    constr:    0.0000
     atom:   21    charge:    1.9484    magn:    0.0000    constr:    0.0000
     atom:   22    charge:    3.1199    magn:    0.0000    constr:    0.0000
     atom:   23    charge:    1.9555    magn:   -0.0000    constr:    0.0000
     atom:   24    charge:    1.9365    magn:   -0.0001    constr:    0.0000
     atom:   25    charge:    1.9515    magn:   -0.0000    constr:    0.0000
     atom:   26    charge:    3.1143    magn:    0.0000    constr:    0.0000
     atom:   27    charge:    1.9395    magn:   -0.0001    constr:    0.0000
     atom:   28    charge:    1.9494    magn:   -0.0001    constr:    0.0000
     atom:   29    charge:    1.9472    magn:   -0.0001    constr:    0.0000
     atom:   30    charge:    3.1193    magn:    0.0000    constr:    0.0000
     atom:   31    charge:    1.9474    magn:   -0.0000    constr:    0.0000
     atom:   32    charge:    1.9463    magn:   -0.0000    constr:    0.0000
     atom:   33    charge:    1.9195    magn:    0.0007    constr:    0.0000
     atom:   34    charge:    3.1239    magn:   -0.0000    constr:    0.0000
     atom:   35    charge:    1.9419    magn:    0.0000    constr:    0.0000
     atom:   36    charge:    1.9484    magn:    0.0000    constr:    0.0000
     atom:   37    charge:    1.9484    magn:    0.0000    constr:    0.0000
     atom:   38    charge:    3.1199    magn:    0.0000    constr:    0.0000
     atom:   39    charge:    1.9474    magn:   -0.0001    constr:    0.0000
     atom:   40    charge:    1.9369    magn:   -0.0001    constr:    0.0000
     atom:   41    charge:    1.9515    magn:   -0.0000    constr:    0.0000
     atom:   42    charge:    3.1217    magn:    0.0000    constr:    0.0000
     atom:   43    charge:    1.9394    magn:   -0.0001    constr:    0.0000
     atom:   44    charge:    1.9494    magn:   -0.0001    constr:    0.0000
     atom:   45    charge:    1.9472    magn:   -0.0001    constr:    0.0000
     atom:   46    charge:    3.1193    magn:    0.0000    constr:    0.0000
     atom:   47    charge:    1.9474    magn:   -0.0000    constr:    0.0000
     atom:   48    charge:    1.9463    magn:   -0.0000    constr:    0.0000
     atom:   49    charge:    1.9551    magn:    0.0000    constr:    0.0000
     atom:   50    charge:    0.3946    magn:   -0.0000    constr:    0.0000

     total cpu time spent up to now is     2527.1 secs

     total energy              =   -3005.52970761 Ry
     Harris-Foulkes estimate   =   -3005.52971502 Ry
     estimated scf accuracy    <       0.00006626 Ry

     total magnetization       =     0.00 Bohr mag/cell
     absolute magnetization    =     0.01 Bohr mag/cell

     iteration #  9     ecut=    40.42 Ry     beta=0.10
     Davidson diagonalization with overlap
     ethr =  1.69E-08,  avg # of iterations =  1.9

     negative rho (up, down):  1.351E-02 1.351E-02
 
     Magnetic moment per site:
     atom:    1    charge:    3.1244    magn:   -0.0001    constr:    0.0000
     atom:    2    charge:    1.9465    magn:    0.0001    constr:    0.0000
     atom:    3    charge:    3.1200    magn:   -0.0000    constr:    0.0000
     atom:    4    charge:    1.9515    magn:   -0.0000    constr:    0.0000
     atom:    5    charge:    3.1144    magn:    0.0000    constr:    0.0000
     atom:    6    charge:    1.9404    magn:   -0.0001    constr:    0.0000
     atom:    7    charge:    3.1162    magn:    0.0000    constr:    0.0000
     atom:    8    charge:    1.9463    magn:   -0.0000    constr:    0.0000
     atom:    9    charge:    3.1244    magn:   -0.0001    constr:    0.0000
     atom:   10    charge:    1.9466    magn:    0.0001    constr:    0.0000
     atom:   11    charge:    3.1198    magn:    0.0000    constr:    0.0000
     atom:   12    charge:    1.9515    magn:   -0.0000    constr:    0.0000
     atom:   13    charge:    3.1144    magn:    0.0000    constr:    0.0000
     atom:   14    charge:    1.9542    magn:   -0.0000    constr:    0.0000
     atom:   15    charge:    3.1165    magn:    0.0000    constr:    0.0000
     atom:   16    charge:    1.9464    magn:   -0.0000    constr:    0.0000
     atom:   17    charge:    1.9196    magn:    0.0006    constr:    0.0000
     atom:   18    charge:    3.1239    magn:   -0.0000    constr:    0.0000
     atom:   19    charge:    1.9419    magn:    0.0000    constr:    0.0000
     atom:   20    charge:    1.9484    magn:    0.0000    constr:    0.0000
     atom:   21    charge:    1.9484    magn:    0.0000    constr:    0.0000
     atom:   22    charge:    3.1199    magn:    0.0000    constr:    0.0000
     atom:   23    charge:    1.9555    magn:   -0.0000    constr:    0.0000
     atom:   24    charge:    1.9364    magn:   -0.0001    constr:    0.0000
     atom:   25    charge:    1.9515    magn:   -0.0000    constr:    0.0000
     atom:   26    charge:    3.1143    magn:    0.0000    constr:    0.0000
     atom:   27    charge:    1.9395    magn:   -0.0001    constr:    0.0000
     atom:   28    charge:    1.9494    magn:   -0.0001    constr:    0.0000
     atom:   29    charge:    1.9472    magn:   -0.0001    constr:    0.0000
     atom:   30    charge:    3.1193    magn:    0.0000    constr:    0.0000
     atom:   31    charge:    1.9474    magn:   -0.0000    constr:    0.0000
     atom:   32    charge:    1.9463    magn:   -0.0000    constr:    0.0000
     atom:   33    charge:    1.9195    magn:    0.0006    constr:    0.0000
     atom:   34    charge:    3.1239    magn:   -0.0000    constr:    0.0000
     atom:   35    charge:    1.9419    magn:    0.0000    constr:    0.0000
     atom:   36    charge:    1.9484    magn:    0.0000    constr:    0.0000
     atom:   37    charge:    1.9484    magn:    0.0000    constr:    0.0000
     atom:   38    charge:    3.1199    magn:    0.0000    constr:    0.0000
     atom:   39    charge:    1.9474    magn:   -0.0001    constr:    0.0000
     atom:   40    charge:    1.9368    magn:   -0.0001    constr:    0.0000
     atom:   41    charge:    1.9515    magn:   -0.0000    constr:    0.0000
     atom:   42    charge:    3.1217    magn:    0.0000    constr:    0.0000
     atom:   43    charge:    1.9394    magn:   -0.0001    constr:    0.0000
     atom:   44    charge:    1.9494    magn:   -0.0001    constr:    0.0000
     atom:   45    charge:    1.9472    magn:   -0.0001    constr:    0.0000
     atom:   46    charge:    3.1193    magn:    0.0000    constr:    0.0000
     atom:   47    charge:    1.9474    magn:   -0.0000    constr:    0.0000
     atom:   48    charge:    1.9463    magn:   -0.0000    constr:    0.0000
     atom:   49    charge:    1.9551    magn:    0.0000    constr:    0.0000
     atom:   50    charge:    0.3946    magn:   -0.0000    constr:    0.0000

     total cpu time spent up to now is     2732.6 secs

     total energy              =   -3005.52971267 Ry
     Harris-Foulkes estimate   =   -3005.52971342 Ry
     estimated scf accuracy    <       0.00001742 Ry

     total magnetization       =     0.00 Bohr mag/cell
     absolute magnetization    =     0.01 Bohr mag/cell

     iteration # 10     ecut=    40.42 Ry     beta=0.10
     Davidson diagonalization with overlap
     ethr =  4.46E-09,  avg # of iterations =  1.0

     negative rho (up, down):  1.351E-02 1.351E-02
 
     Magnetic moment per site:
     atom:    1    charge:    3.1244    magn:   -0.0001    constr:    0.0000
     atom:    2    charge:    1.9465    magn:    0.0001    constr:    0.0000
     atom:    3    charge:    3.1200    magn:   -0.0000    constr:    0.0000
     atom:    4    charge:    1.9515    magn:   -0.0000    constr:    0.0000
     atom:    5    charge:    3.1144    magn:    0.0000    constr:    0.0000
     atom:    6    charge:    1.9404    magn:   -0.0001    constr:    0.0000
     atom:    7    charge:    3.1162    magn:    0.0000    constr:    0.0000
     atom:    8    charge:    1.9463    magn:   -0.0000    constr:    0.0000
     atom:    9    charge:    3.1244    magn:   -0.0001    constr:    0.0000
     atom:   10    charge:    1.9466    magn:    0.0001    constr:    0.0000
     atom:   11    charge:    3.1198    magn:    0.0000    constr:    0.0000
     atom:   12    charge:    1.9515    magn:   -0.0000    constr:    0.0000
     atom:   13    charge:    3.1144    magn:    0.0000    constr:    0.0000
     atom:   14    charge:    1.9542    magn:   -0.0000    constr:    0.0000
     atom:   15    charge:    3.1165    magn:    0.0000    constr:    0.0000
     atom:   16    charge:    1.9463    magn:   -0.0000    constr:    0.0000
     atom:   17    charge:    1.9196    magn:    0.0005    constr:    0.0000
     atom:   18    charge:    3.1239    magn:   -0.0000    constr:    0.0000
     atom:   19    charge:    1.9419    magn:    0.0000    constr:    0.0000
     atom:   20    charge:    1.9484    magn:    0.0000    constr:    0.0000
     atom:   21    charge:    1.9484    magn:    0.0000    constr:    0.0000
     atom:   22    charge:    3.1199    magn:    0.0000    constr:    0.0000
     atom:   23    charge:    1.9555    magn:   -0.0000    constr:    0.0000
     atom:   24    charge:    1.9364    magn:   -0.0001    constr:    0.0000
     atom:   25    charge:    1.9515    magn:   -0.0000    constr:    0.0000
     atom:   26    charge:    3.1143    magn:    0.0000    constr:    0.0000
     atom:   27    charge:    1.9395    magn:   -0.0001    constr:    0.0000
     atom:   28    charge:    1.9494    magn:   -0.0001    constr:    0.0000
     atom:   29    charge:    1.9472    magn:   -0.0001    constr:    0.0000
     atom:   30    charge:    3.1193    magn:    0.0000    constr:    0.0000
     atom:   31    charge:    1.9474    magn:   -0.0000    constr:    0.0000
     atom:   32    charge:    1.9463    magn:   -0.0000    constr:    0.0000
     atom:   33    charge:    1.9195    magn:    0.0005    constr:    0.0000
     atom:   34    charge:    3.1239    magn:   -0.0000    constr:    0.0000
     atom:   35    charge:    1.9419    magn:    0.0000    constr:    0.0000
     atom:   36    charge:    1.9484    magn:    0.0000    constr:    0.0000
     atom:   37    charge:    1.9484    magn:    0.0000    constr:    0.0000
     atom:   38    charge:    3.1199    magn:    0.0000    constr:    0.0000
     atom:   39    charge:    1.9474    magn:   -0.0000    constr:    0.0000
     atom:   40    charge:    1.9368    magn:   -0.0001    constr:    0.0000
     atom:   41    charge:    1.9515    magn:   -0.0000    constr:    0.0000
     atom:   42    charge:    3.1217    magn:    0.0000    constr:    0.0000
     atom:   43    charge:    1.9394    magn:   -0.0001    constr:    0.0000
     atom:   44    charge:    1.9494    magn:   -0.0001    constr:    0.0000
     atom:   45    charge:    1.9472    magn:   -0.0001    constr:    0.0000
     atom:   46    charge:    3.1193    magn:    0.0000    constr:    0.0000
     atom:   47    charge:    1.9475    magn:   -0.0000    constr:    0.0000
     atom:   48    charge:    1.9463    magn:   -0.0000    constr:    0.0000
     atom:   49    charge:    1.9553    magn:   -0.0000    constr:    0.0000
     atom:   50    charge:    0.3946    magn:   -0.0000    constr:    0.0000

     total cpu time spent up to now is     2921.7 secs

     total energy              =   -3005.52971386 Ry
     Harris-Foulkes estimate   =   -3005.52971362 Ry
     estimated scf accuracy    <       0.00000418 Ry

     total magnetization       =     0.00 Bohr mag/cell
     absolute magnetization    =     0.01 Bohr mag/cell

     iteration # 11     ecut=    40.42 Ry     beta=0.10
     Davidson diagonalization with overlap
     ethr =  1.07E-09,  avg # of iterations =  2.0

     negative rho (up, down):  1.351E-02 1.351E-02
 
     Magnetic moment per site:
     atom:    1    charge:    3.1244    magn:   -0.0001    constr:    0.0000
     atom:    2    charge:    1.9465    magn:    0.0001    constr:    0.0000
     atom:    3    charge:    3.1200    magn:   -0.0000    constr:    0.0000
     atom:    4    charge:    1.9515    magn:   -0.0000    constr:    0.0000
     atom:    5    charge:    3.1144    magn:    0.0000    constr:    0.0000
     atom:    6    charge:    1.9404    magn:   -0.0001    constr:    0.0000
     atom:    7    charge:    3.1162    magn:    0.0000    constr:    0.0000
     atom:    8    charge:    1.9463    magn:   -0.0000    constr:    0.0000
     atom:    9    charge:    3.1244    magn:   -0.0001    constr:    0.0000
     atom:   10    charge:    1.9466    magn:    0.0001    constr:    0.0000
     atom:   11    charge:    3.1198    magn:    0.0000    constr:    0.0000
     atom:   12    charge:    1.9515    magn:   -0.0000    constr:    0.0000
     atom:   13    charge:    3.1144    magn:    0.0000    constr:    0.0000
     atom:   14    charge:    1.9542    magn:   -0.0000    constr:    0.0000
     atom:   15    charge:    3.1165    magn:    0.0000    constr:    0.0000
     atom:   16    charge:    1.9463    magn:   -0.0000    constr:    0.0000
     atom:   17    charge:    1.9196    magn:    0.0005    constr:    0.0000
     atom:   18    charge:    3.1239    magn:   -0.0000    constr:    0.0000
     atom:   19    charge:    1.9419    magn:    0.0000    constr:    0.0000
     atom:   20    charge:    1.9484    magn:    0.0000    constr:    0.0000
     atom:   21    charge:    1.9484    magn:    0.0000    constr:    0.0000
     atom:   22    charge:    3.1199    magn:    0.0000    constr:    0.0000
     atom:   23    charge:    1.9555    magn:   -0.0000    constr:    0.0000
     atom:   24    charge:    1.9364    magn:   -0.0000    constr:    0.0000
     atom:   25    charge:    1.9515    magn:   -0.0000    constr:    0.0000
     atom:   26    charge:    3.1143    magn:    0.0000    constr:    0.0000
     atom:   27    charge:    1.9395    magn:   -0.0001    constr:    0.0000
     atom:   28    charge:    1.9494    magn:   -0.0001    constr:    0.0000
     atom:   29    charge:    1.9472    magn:   -0.0001    constr:    0.0000
     atom:   30    charge:    3.1193    magn:    0.0000    constr:    0.0000
     atom:   31    charge:    1.9474    magn:   -0.0000    constr:    0.0000
     atom:   32    charge:    1.9463    magn:   -0.0000    constr:    0.0000
     atom:   33    charge:    1.9195    magn:    0.0005    constr:    0.0000
     atom:   34    charge:    3.1239    magn:   -0.0000    constr:    0.0000
     atom:   35    charge:    1.9419    magn:    0.0000    constr:    0.0000
     atom:   36    charge:    1.9484    magn:    0.0000    constr:    0.0000
     atom:   37    charge:    1.9484    magn:    0.0000    constr:    0.0000
     atom:   38    charge:    3.1199    magn:    0.0000    constr:    0.0000
     atom:   39    charge:    1.9474    magn:   -0.0000    constr:    0.0000
     atom:   40    charge:    1.9368    magn:   -0.0001    constr:    0.0000
     atom:   41    charge:    1.9515    magn:   -0.0000    constr:    0.0000
     atom:   42    charge:    3.1217    magn:    0.0000    constr:    0.0000
     atom:   43    charge:    1.9394    magn:   -0.0001    constr:    0.0000
     atom:   44    charge:    1.9494    magn:   -0.0001    constr:    0.0000
     atom:   45    charge:    1.9472    magn:   -0.0001    constr:    0.0000
     atom:   46    charge:    3.1193    magn:    0.0000    constr:    0.0000
     atom:   47    charge:    1.9475    magn:   -0.0000    constr:    0.0000
     atom:   48    charge:    1.9463    magn:   -0.0000    constr:    0.0000
     atom:   49    charge:    1.9553    magn:   -0.0000    constr:    0.0000
     atom:   50    charge:    0.3946    magn:   -0.0000    constr:    0.0000

     total cpu time spent up to now is     3129.2 secs

     total energy              =   -3005.52971415 Ry
     Harris-Foulkes estimate   =   -3005.52971408 Ry
     estimated scf accuracy    <       0.00000100 Ry

     total magnetization       =     0.00 Bohr mag/cell
     absolute magnetization    =     0.01 Bohr mag/cell

     iteration # 12     ecut=    40.42 Ry     beta=0.10
     Davidson diagonalization with overlap
     ethr =  2.55E-10,  avg # of iterations =  2.0

     negative rho (up, down):  1.350E-02 1.350E-02
 
     Magnetic moment per site:
     atom:    1    charge:    3.1244    magn:   -0.0001    constr:    0.0000
     atom:    2    charge:    1.9465    magn:    0.0001    constr:    0.0000
     atom:    3    charge:    3.1200    magn:   -0.0000    constr:    0.0000
     atom:    4    charge:    1.9515    magn:    0.0000    constr:    0.0000
     atom:    5    charge:    3.1144    magn:    0.0000    constr:    0.0000
     atom:    6    charge:    1.9404    magn:   -0.0000    constr:    0.0000
     atom:    7    charge:    3.1162    magn:    0.0000    constr:    0.0000
     atom:    8    charge:    1.9463    magn:   -0.0000    constr:    0.0000
     atom:    9    charge:    3.1244    magn:   -0.0001    constr:    0.0000
     atom:   10    charge:    1.9466    magn:    0.0001    constr:    0.0000
     atom:   11    charge:    3.1198    magn:   -0.0000    constr:    0.0000
     atom:   12    charge:    1.9515    magn:    0.0000    constr:    0.0000
     atom:   13    charge:    3.1144    magn:    0.0000    constr:    0.0000
     atom:   14    charge:    1.9542    magn:   -0.0000    constr:    0.0000
     atom:   15    charge:    3.1165    magn:    0.0000    constr:    0.0000
     atom:   16    charge:    1.9463    magn:   -0.0000    constr:    0.0000
     atom:   17    charge:    1.9197    magn:    0.0004    constr:    0.0000
     atom:   18    charge:    3.1239    magn:   -0.0000    constr:    0.0000
     atom:   19    charge:    1.9419    magn:    0.0000    constr:    0.0000
     atom:   20    charge:    1.9484    magn:    0.0000    constr:    0.0000
     atom:   21    charge:    1.9484    magn:    0.0000    constr:    0.0000
     atom:   22    charge:    3.1199    magn:    0.0000    constr:    0.0000
     atom:   23    charge:    1.9555    magn:   -0.0000    constr:    0.0000
     atom:   24    charge:    1.9364    magn:   -0.0000    constr:    0.0000
     atom:   25    charge:    1.9515    magn:    0.0000    constr:    0.0000
     atom:   26    charge:    3.1143    magn:    0.0000    constr:    0.0000
     atom:   27    charge:    1.9395    magn:   -0.0001    constr:    0.0000
     atom:   28    charge:    1.9494    magn:   -0.0000    constr:    0.0000
     atom:   29    charge:    1.9472    magn:   -0.0000    constr:    0.0000
     atom:   30    charge:    3.1193    magn:    0.0000    constr:    0.0000
     atom:   31    charge:    1.9474    magn:   -0.0000    constr:    0.0000
     atom:   32    charge:    1.9463    magn:   -0.0000    constr:    0.0000
     atom:   33    charge:    1.9196    magn:    0.0004    constr:    0.0000
     atom:   34    charge:    3.1239    magn:   -0.0000    constr:    0.0000
     atom:   35    charge:    1.9419    magn:    0.0000    constr:    0.0000
     atom:   36    charge:    1.9484    magn:    0.0000    constr:    0.0000
     atom:   37    charge:    1.9484    magn:    0.0000    constr:    0.0000
     atom:   38    charge:    3.1199    magn:    0.0000    constr:    0.0000
     atom:   39    charge:    1.9474    magn:   -0.0000    constr:    0.0000
     atom:   40    charge:    1.9368    magn:   -0.0000    constr:    0.0000
     atom:   41    charge:    1.9515    magn:    0.0000    constr:    0.0000
     atom:   42    charge:    3.1217    magn:    0.0000    constr:    0.0000
     atom:   43    charge:    1.9394    magn:   -0.0000    constr:    0.0000
     atom:   44    charge:    1.9494    magn:   -0.0000    constr:    0.0000
     atom:   45    charge:    1.9471    magn:   -0.0000    constr:    0.0000
     atom:   46    charge:    3.1193    magn:    0.0000    constr:    0.0000
     atom:   47    charge:    1.9474    magn:   -0.0000    constr:    0.0000
     atom:   48    charge:    1.9463    magn:   -0.0000    constr:    0.0000
     atom:   49    charge:    1.9552    magn:   -0.0000    constr:    0.0000
     atom:   50    charge:    0.3946    magn:   -0.0000    constr:    0.0000

     total cpu time spent up to now is     3338.4 secs

     End of self-consistent calculation

 ------ SPIN UP ------------


          k = 0.0000 0.0000 0.0000 ( 34665 PWs)   bands (ev):

   -58.5101 -58.4751 -57.5989 -57.5693 -57.5632 -57.4866 -57.4734 -57.4338
   -57.3364 -57.3053 -57.2678 -57.2321 -57.1229 -57.0876 -57.0182 -56.9802
   -34.9550 -34.7791 -34.7503 -34.7164 -34.6214 -34.5646 -34.0981 -34.0538
   -34.0158 -33.8727 -33.8518 -33.7935 -33.7721 -33.7662 -33.7568 -33.7480
   -33.7427 -33.7256 -33.7049 -33.6987 -33.6961 -33.6755 -33.6649 -33.6605
   -33.6540 -33.6447 -33.6385 -33.5966 -33.5547 -33.5516 -33.5416 -33.5052
   -33.5004 -33.4933 -33.4638 -33.4496 -33.4382 -33.4369 -33.4172 -33.3887
   -33.3413 -33.2954 -33.2516 -33.2512 -33.2314 -33.2070 -33.1499 -33.0991
   -18.6738 -18.2585 -18.2205 -18.0134 -17.9156 -17.7473 -17.7337 -17.6313
   -17.5956 -17.5722 -17.4611 -17.2647 -17.2227 -17.2162 -17.1521 -17.0538
   -17.0330 -17.0115 -16.9435 -16.9020 -16.8535 -16.8183 -16.8117 -16.7878
   -16.6942 -16.6321 -16.6179 -16.5150 -16.5007 -16.3509 -16.2876 -15.8029
   -15.7426  -6.2519  -5.9780  -5.6969  -5.5006  -5.4190  -5.3170  -5.1913
    -5.1688  -5.0821  -4.9508  -4.8593  -4.8038  -4.7910  -4.7191  -4.6445
    -4.6162  -4.5478  -4.5343  -4.4212  -4.4183  -4.3625  -4.3468  -4.2522
    -4.2284  -4.1739  -4.1114  -4.0989  -4.0921  -4.0799  -3.9979  -3.9819
    -3.9138  -3.8423  -3.8364  -3.7464  -3.7382  -3.7318  -3.6235  -3.6189
    -3.5873  -3.4748  -3.4521  -3.4129  -3.3014  -3.1325  -3.0939  -3.0405
    -2.9773  -2.9618  -2.8994  -2.8857  -2.8813  -2.7721  -2.7544  -2.7396
    -2.6487  -2.5953  -2.5116  -2.4359  -2.4323  -2.3978  -2.3396  -2.2890
    -2.2364  -2.1781  -2.1741  -2.1254  -2.0833  -2.0780  -1.9314  -1.8485
    -1.8322  -1.8274  -1.8178  -1.7148  -1.6260  -1.5698  -1.5586  -1.5234
    -1.5211  -1.5050  -1.4537  -1.3702  -1.3493  -1.3285  -1.3130  -1.2894
    -1.2795  -1.1616  -1.0715  -0.9915  -0.9559  -0.8855  -0.8748  -0.8222
    -0.7554  -0.7194  -0.6693  -0.3757   0.8214   0.9188   1.2117   1.4946
     1.6021   1.6882   1.7175   1.8101   1.8421   1.9189   1.9526   2.0199
     2.0254   2.1710   2.1854   2.2572   2.2824   2.3116   2.3919   2.4156
     2.4636   2.4708   2.5072   2.5208   2.6024   2.6257   2.6710   2.7172
     2.7437   2.7501   2.7976   2.8285   2.8557   2.8740   2.8826   2.9940
     3.0083   3.0335   3.2079   3.2101   3.2375   3.2482   3.3473   3.4062
     3.4403   3.4990   3.5936   3.7441   3.8769   3.8910   4.0779   4.2696
     4.4016   4.4795   4.5028   4.6459   4.7914   4.9235   4.9612   5.0578
     5.1865   5.2000   5.2301   5.2455   5.3363   5.3386   5.3514   5.4573
     5.4777   5.5257   5.6903   5.7095   5.7879   5.8779   5.9036   5.9089
     5.9986   6.0382   6.2245   6.2881   6.3420   6.4100   6.5823   6.6086
     7.1058   7.7898   7.9896   8.0199   8.2195   8.2392   8.5743   8.7199
     8.7985   9.0636   9.1868   9.2279   9.3567   9.4745   9.6167

          k = 0.0000 0.0280 0.0000 ( 34717 PWs)   bands (ev):

   -58.5078 -58.4774 -57.5965 -57.5684 -57.5655 -57.4876 -57.4713 -57.4359
   -57.3350 -57.3068 -57.2655 -57.2344 -57.1205 -57.0900 -57.0156 -56.9827
   -34.9296 -34.7771 -34.7522 -34.7102 -34.6280 -34.5916 -34.0726 -34.0286
   -33.9925 -33.8667 -33.8457 -33.7897 -33.7747 -33.7661 -33.7453 -33.7446
   -33.7423 -33.7322 -33.7094 -33.6992 -33.6924 -33.6878 -33.6812 -33.6697
   -33.6528 -33.6421 -33.6407 -33.5932 -33.5745 -33.5254 -33.5168 -33.5099
   -33.4965 -33.4908 -33.4621 -33.4505 -33.4415 -33.4400 -33.4364 -33.4151
   -33.3353 -33.2919 -33.2577 -33.2498 -33.2328 -33.2119 -33.1773 -33.1278
   -18.6154 -18.2328 -18.1836 -17.9649 -17.8854 -17.8104 -17.7036 -17.5828
   -17.5819 -17.5408 -17.4918 -17.3167 -17.1941 -17.1936 -17.1428 -17.0850
   -16.9918 -16.9864 -16.9730 -16.9338 -16.8734 -16.8307 -16.8169 -16.7865
   -16.7077 -16.6574 -16.6217 -16.5424 -16.5341 -16.3703 -16.3278 -15.8170
   -15.7681  -6.1664  -5.9770  -5.6126  -5.4207  -5.3476  -5.2469  -5.1407
    -5.1123  -5.0124  -4.9341  -4.8737  -4.8620  -4.7348  -4.7282  -4.6313
    -4.5930  -4.5666  -4.5184  -4.4628  -4.4013  -4.3915  -4.3811  -4.3154
    -4.2710  -4.2155  -4.1932  -4.1788  -4.1693  -4.1249  -4.0461  -4.0042
    -3.9586  -3.9214  -3.9043  -3.7874  -3.6474  -3.6248  -3.5474  -3.5110
    -3.5033  -3.4707  -3.3478  -3.3210  -3.1518  -3.1172  -3.0864  -3.0138
    -2.9469  -2.9428  -2.9226  -2.9056  -2.8639  -2.7529  -2.7213  -2.6742
    -2.6602  -2.6192  -2.4714  -2.4597  -2.4121  -2.3944  -2.3587  -2.3287
    -2.2281  -2.1924  -2.1350  -2.1318  -2.1133  -2.0336  -1.9679  -1.9614
    -1.9164  -1.8317  -1.7737  -1.7673  -1.7130  -1.6772  -1.6355  -1.5876
    -1.5709  -1.5659  -1.5035  -1.4738  -1.4365  -1.3807  -1.3691  -1.2569
    -1.1947  -1.1445  -1.1184  -1.0814  -1.0376  -1.0159  -0.9276  -0.8050
    -0.7754  -0.7508  -0.7337  -0.4172   0.9541   0.9586   1.2132   1.6240
     1.6827   1.6894   1.7218   1.7989   1.8058   1.8828   2.0168   2.0880
     2.0974   2.1976   2.2669   2.2880   2.3146   2.3229   2.3390   2.3585
     2.4501   2.4905   2.5085   2.6144   2.6167   2.6537   2.6746   2.7339
     2.7774   2.7857   2.7897   2.8022   2.8561   2.8758   2.9341   2.9632
     2.9859   3.0484   3.1916   3.2344   3.2618   3.3001   3.3419   3.3530
     3.4219   3.4456   3.5545   3.6932   3.8331   3.9588   4.0361   4.3299
     4.4935   4.5041   4.5134   4.7194   4.8078   4.9641   5.0110   5.0785
     5.0994   5.1958   5.2305   5.2910   5.3204   5.3329   5.4393   5.4502
     5.4873   5.4947   5.6067   5.6706   5.7301   5.8028   5.8221   5.8939
     5.9232   6.0368   6.1939   6.2299   6.2480   6.3800   6.5471   6.6260
     7.2246   7.2710   7.8034   8.1171   8.2067   8.3298   8.5830   8.7276
     8.8448   8.9821   9.1737   9.2527   9.3347   9.3534   9.5118

          k = 0.0000 0.0560 0.0000 ( 34721 PWs)   bands (ev):

   -58.5014 -58.4838 -57.5900 -57.5722 -57.5662 -57.4896 -57.4661 -57.4412
   -57.3316 -57.3102 -57.2596 -57.2404 -57.1141 -57.0965 -57.0088 -56.9896
   -34.8597 -34.7718 -34.7573 -34.6930 -34.6647 -34.6455 -34.0023 -33.9600
   -33.9327 -33.8506 -33.8289 -33.8059 -33.7937 -33.7833 -33.7808 -33.7551
   -33.7461 -33.7416 -33.7090 -33.7004 -33.6824 -33.6819 -33.6771 -33.6705
   -33.6568 -33.6513 -33.6202 -33.6112 -33.5835 -33.5209 -33.4918 -33.4874
   -33.4856 -33.4820 -33.4706 -33.4574 -33.4536 -33.4475 -33.4447 -33.4328
   -33.3191 -33.2888 -33.2743 -33.2512 -33.2460 -33.2363 -33.2244 -33.1982
   -18.4542 -18.2234 -18.0236 -17.9940 -17.8367 -17.8027 -17.6176 -17.5946
   -17.5754 -17.4792 -17.4604 -17.4245 -17.2441 -17.1413 -17.1140 -17.1020
   -17.0428 -16.9966 -16.9302 -16.9163 -16.8965 -16.8619 -16.7829 -16.7691
   -16.7312 -16.7265 -16.6421 -16.6248 -16.5984 -16.4329 -16.4095 -15.8458
   -15.8218  -5.9756  -5.9270  -5.3791  -5.2484  -5.2005  -5.1607  -5.0612
    -5.0504  -5.0171  -4.9611  -4.9382  -4.7524  -4.7144  -4.6815  -4.5998
    -4.5936  -4.5514  -4.5469  -4.5103  -4.4961  -4.4389  -4.4240  -4.4173
    -4.3942  -4.3295  -4.2696  -4.2211  -4.1782  -4.1461  -4.1048  -4.0373
    -4.0222  -3.8655  -3.7552  -3.6128  -3.6061  -3.5847  -3.4859  -3.4672
    -3.3633  -3.2884  -3.2794  -3.2546  -3.2179  -3.1638  -3.1554  -3.0407
    -2.9984  -2.9487  -2.8932  -2.8663  -2.7879  -2.6842  -2.6776  -2.6304
    -2.5119  -2.5008  -2.4955  -2.4255  -2.3736  -2.3569  -2.3358  -2.3259
    -2.2692  -2.2566  -2.2225  -2.1916  -2.1713  -2.1495  -2.0695  -2.0667
    -2.0562  -1.9965  -1.8804  -1.8098  -1.7881  -1.7684  -1.7485  -1.6958
    -1.6560  -1.6554  -1.6296  -1.5817  -1.5598  -1.4773  -1.4319  -1.3751
    -1.2870  -1.1917  -1.1733  -1.1378  -1.0460  -1.0401  -0.9160  -0.9117
    -0.8193  -0.7822  -0.7575  -0.5204   1.0821   1.2246   1.2970   1.5191
     1.5952   1.6884   1.7560   1.8651   1.9477   2.0555   2.0754   2.0965
     2.1581   2.2183   2.2541   2.2973   2.3415   2.4138   2.4243   2.4683
     2.5153   2.5256   2.5657   2.6284   2.6337   2.6658   2.6783   2.7169
     2.7584   2.7635   2.8136   2.8532   2.8896   2.9214   2.9609   3.0189
     3.0657   3.0668   3.1486   3.1764   3.1997   3.2583   3.2794   3.3526
     3.4531   3.4643   3.5050   3.5772   3.7012   3.9250   4.0896   4.4674
     4.5399   4.5505   4.6661   4.8277   4.8760   4.9216   5.0803   5.1049
     5.1510   5.1887   5.2359   5.2921   5.3133   5.3560   5.3807   5.4230
     5.4402   5.5281   5.5844   5.6227   5.6399   5.6604   5.6690   5.7372
     5.8980   5.9766   6.0916   6.2089   6.2446   6.2690   6.5569   6.5667
     6.8472   7.1729   7.5746   7.6124   8.1419   8.3953   8.6528   8.6857
     8.8212   9.0200   9.2045   9.3680   9.5967   9.6782   9.7082

          k = 0.0000-0.0840 0.0000 ( 34678 PWs)   bands (ev):

   -58.4935 -58.4918 -57.5813 -57.5810 -57.5653 -57.4906 -57.4623 -57.4449
   -57.3294 -57.3123 -57.2541 -57.2459 -57.1053 -57.1053 -57.0005 -56.9979
   -34.7656 -34.7641 -34.7632 -34.7622 -34.6701 -34.6686 -33.9058 -33.9047
   -33.8876 -33.8851 -33.8360 -33.8270 -33.8093 -33.8058 -33.8056 -33.7772
   -33.7745 -33.7400 -33.7010 -33.6985 -33.6934 -33.6734 -33.6723 -33.6598
   -33.6578 -33.6259 -33.5884 -33.5851 -33.5806 -33.5586 -33.5466 -33.5276
   -33.4823 -33.4726 -33.4671 -33.4670 -33.4510 -33.4510 -33.3506 -33.3502
   -33.3472 -33.3371 -33.2970 -33.2967 -33.2426 -33.2404 -33.2379 -33.2310
   -18.2293 -18.2282 -18.2210 -17.8060 -17.7901 -17.7130 -17.6893 -17.6893
   -17.6197 -17.4556 -17.4010 -17.2907 -17.2868 -17.2574 -17.2072 -17.0334
   -17.0090 -17.0054 -17.0051 -16.8422 -16.8251 -16.8247 -16.8175 -16.7848
   -16.7399 -16.6929 -16.6881 -16.6790 -16.6746 -16.4710 -16.4555 -15.8553
   -15.8552  -5.9751  -5.5874  -5.5874  -5.0909  -5.0898  -5.0646  -5.0549
    -4.9735  -4.9711  -4.9150  -4.8787  -4.8387  -4.7984  -4.7452  -4.6874
    -4.6814  -4.6499  -4.6093  -4.5901  -4.4725  -4.4698  -4.4108  -4.4071
    -4.3290  -4.2785  -4.2230  -4.1874  -4.1052  -4.0895  -3.9895  -3.9866
    -3.8972  -3.8739  -3.8586  -3.8317  -3.6111  -3.5547  -3.4771  -3.4638
    -3.2815  -3.2743  -3.2511  -3.1479  -3.1276  -3.1208  -3.0407  -3.0379
    -2.9782  -2.9659  -2.9148  -2.8732  -2.8469  -2.7433  -2.6897  -2.6389
    -2.6074  -2.5912  -2.5845  -2.5540  -2.4620  -2.4044  -2.3642  -2.2652
    -2.2618  -2.1957  -2.1846  -2.1832  -2.1830  -2.1788  -2.1326  -1.9967
    -1.9963  -1.9491  -1.9253  -1.9107  -1.8470  -1.7641  -1.7544  -1.7210
    -1.7139  -1.6615  -1.6434  -1.6305  -1.6214  -1.5774  -1.5254  -1.3815
    -1.3525  -1.3199  -1.2958  -1.2602  -1.0460  -0.9938  -0.8165  -0.8068
    -0.7982  -0.7932  -0.7198  -0.6952   1.2802   1.2817   1.4312   1.4316
     1.5113   1.5125   1.8794   1.8814   1.9417   1.9820   2.1357   2.2147
     2.2491   2.2612   2.2796   2.3178   2.3913   2.4430   2.4554   2.4604
     2.4943   2.5192   2.5793   2.5959   2.6156   2.7421   2.7482   2.7617
     2.7951   2.8126   2.8173   2.8220   2.8246   2.9395   3.0118   3.0290
     3.0394   3.0817   3.1313   3.1519   3.1886   3.1988   3.2957   3.3061
     3.4454   3.5110   3.5394   3.5594   3.5790   3.8337   4.1494   4.5716
     4.6072   4.6395   4.6632   4.6640   4.9419   4.9647   5.1015   5.1290
     5.1459   5.1911   5.2486   5.2671   5.3563   5.3750   5.4145   5.4651
     5.4743   5.5023   5.5033   5.5091   5.5674   5.6032   5.6468   5.7250
     5.8330   5.9067   6.0892   6.1893   6.2812   6.3098   6.4832   6.6185
     6.8190   6.8671   7.3874   7.4048   8.1094   8.1561   8.8826   9.0472
[...]
    -4.2699  -4.2415  -4.2395  -4.2234  -4.1134  -4.0595  -3.9968  -3.9765
    -3.9422  -3.8669  -3.8533  -3.8506  -3.7347  -3.6556  -3.6445  -3.6411
    -3.5170  -3.5146  -3.3609  -3.3586  -3.3480  -3.3131  -3.2438  -3.2091
    -3.1424  -3.1162  -3.0594  -3.0493  -3.0166  -3.0022  -2.9824  -2.9031
    -2.8560  -2.7637  -2.7267  -2.6834  -2.6421  -2.6116  -2.5780  -2.5568
    -2.5269  -2.4539  -2.4289  -2.4220  -2.3908  -2.3391  -2.2824  -2.2514
    -2.1373  -2.0680  -2.0541  -2.0429  -1.9248  -1.8590  -1.8414  -1.6987
    -1.6588  -1.6320  -1.6184  -1.5937  -1.3525  -1.3106  -1.2953  -1.2844
    -1.2549  -1.2050  -1.1287  -1.0396  -0.9810  -0.9497  -0.9365  -0.8998
    -0.8768  -0.8410  -0.7743  -0.7608   1.3984   1.4024   1.4141   1.4198
     1.7618   1.7624   1.8903   1.8921   2.0424   2.0996   2.1026   2.1564
     2.2289   2.2581   2.3524   2.4250   2.4327   2.5012   2.5346   2.5860
     2.5980   2.6302   2.7532   2.7578   2.7687   2.7849   2.8024   2.8318
     2.8804   2.9056   2.9473   3.0361   3.0395   3.0425   3.0651   3.0803
     3.1569   3.1904   3.1915   3.2291   3.2547   3.2788   3.2934   3.2958
     3.3593   3.3843   3.5348   3.6111   3.6834   3.6850   3.9377   3.9381
     4.3353   4.4217   4.4478   4.5071   4.6244   4.6555   4.6987   4.7559
     4.9556   4.9736   4.9823   4.9863   5.4675   5.4713   5.4893   5.7022
     5.7295   5.7317   5.7988   5.8139   5.8917   5.8961   5.9398   6.0373
     6.0809   6.0883   6.1659   6.2328   6.2919   6.3899   6.7666   7.1253
     7.4103   7.4223   7.4701   7.5321   7.7073   7.7122   7.8500   7.9333
     8.2697   8.2750   8.4452   8.5826   9.0554   9.0798   9.1867

          k =-0.0253 0.0280 0.0000 ( 34687 PWs)   bands (ev):

   -58.5078 -58.4775 -57.5964 -57.5685 -57.5654 -57.4876 -57.4712 -57.4358
   -57.3349 -57.3067 -57.2654 -57.2343 -57.1210 -57.0904 -57.0156 -56.9827
   -34.9300 -34.7772 -34.7522 -34.7094 -34.6279 -34.5917 -34.0727 -34.0308
   -33.9926 -33.8586 -33.8456 -33.7898 -33.7714 -33.7663 -33.7521 -33.7494
   -33.7424 -33.7319 -33.7102 -33.7019 -33.6878 -33.6871 -33.6808 -33.6697
   -33.6528 -33.6403 -33.6360 -33.5917 -33.5744 -33.5280 -33.5171 -33.5067
   -33.5020 -33.4904 -33.4635 -33.4503 -33.4415 -33.4398 -33.4365 -33.4148
   -33.3357 -33.2919 -33.2581 -33.2520 -33.2317 -33.2118 -33.1777 -33.1277
   -18.5718 -18.2287 -18.1500 -17.9766 -17.9421 -17.7246 -17.7198 -17.5753
   -17.5689 -17.5363 -17.5267 -17.3227 -17.2762 -17.1753 -17.1385 -17.0931
   -17.0321 -16.9905 -16.9501 -16.9326 -16.8787 -16.8658 -16.7725 -16.7609
   -16.7048 -16.6827 -16.6228 -16.5633 -16.5347 -16.3688 -16.3281 -15.8141
   -15.7660  -6.0420  -5.9749  -5.5097  -5.3573  -5.3335  -5.1949  -5.1794
    -5.1188  -5.0084  -4.9001  -4.8833  -4.8423  -4.7427  -4.7034  -4.6476
    -4.6137  -4.5164  -4.4862  -4.4460  -4.3882  -4.3760  -4.3449  -4.3217
    -4.2926  -4.2597  -4.1988  -4.1549  -4.1300  -4.1008  -4.0098  -3.9826
    -3.9280  -3.8738  -3.8254  -3.7567  -3.6165  -3.5633  -3.5340  -3.5197
    -3.4703  -3.4418  -3.4107  -3.3290  -3.2996  -3.1405  -3.0982  -3.0398
    -2.9846  -2.9383  -2.9179  -2.8858  -2.8324  -2.8098  -2.7189  -2.7080
    -2.6907  -2.6580  -2.5604  -2.5113  -2.4924  -2.4258  -2.4068  -2.3192
    -2.2519  -2.2221  -2.1454  -2.1371  -2.0552  -2.0423  -1.9930  -1.9719
    -1.9522  -1.8364  -1.7901  -1.7623  -1.7467  -1.6983  -1.6449  -1.6163
    -1.5826  -1.5619  -1.5547  -1.5379  -1.5003  -1.4336  -1.3469  -1.3105
    -1.2015  -1.1391  -1.1209  -1.1160  -1.0928  -1.0456  -0.9950  -0.8601
    -0.8115  -0.7897  -0.7266  -0.4666   0.9492   1.0433   1.2268   1.6183
     1.6509   1.7236   1.7616   1.8390   1.8489   1.9292   2.0745   2.1090
     2.1590   2.1729   2.2202   2.2809   2.3090   2.3157   2.3538   2.4122
     2.4320   2.4914   2.5165   2.6326   2.6414   2.6639   2.7197   2.7420
     2.7685   2.7815   2.8163   2.8191   2.9089   2.9525   2.9614   2.9803
     3.0158   3.0793   3.1591   3.2345   3.2598   3.3276   3.3559   3.3986
     3.4266   3.4946   3.5135   3.6492   3.7839   3.9591   4.0314   4.2346
     4.4280   4.5269   4.5336   4.6540   4.7623   4.8142   4.8636   4.8801
     5.0163   5.1079   5.2664   5.3360   5.4872   5.4916   5.5433   5.5845
     5.6426   5.6536   5.6922   5.7296   5.7523   5.7545   5.8547   5.9464
     5.9610   6.0600   6.2032   6.2367   6.2653   6.3903   6.5756   6.6059
     7.2759   7.3029   7.6648   7.7501   8.0907   8.2698   8.3691   8.4424
     8.7183   8.9335   9.1376   9.2193   9.3788   9.5419   9.6841

          k =-0.0253 0.0560 0.0000 ( 34699 PWs)   bands (ev):

   -58.5015 -58.4839 -57.5899 -57.5721 -57.5663 -57.4896 -57.4660 -57.4411
   -57.3316 -57.3101 -57.2594 -57.2403 -57.1145 -57.0969 -57.0087 -56.9896
   -34.8600 -34.7719 -34.7574 -34.6924 -34.6648 -34.6453 -34.0024 -33.9626
   -33.9327 -33.8444 -33.8288 -33.8053 -33.7879 -33.7832 -33.7810 -33.7611
   -33.7477 -33.7395 -33.7090 -33.7044 -33.6899 -33.6822 -33.6779 -33.6706
   -33.6568 -33.6377 -33.6202 -33.6111 -33.5824 -33.5203 -33.4938 -33.4879
   -33.4877 -33.4809 -33.4702 -33.4585 -33.4546 -33.4478 -33.4448 -33.4324
   -33.3195 -33.2888 -33.2747 -33.2516 -33.2475 -33.2359 -33.2244 -33.1981
   -18.4140 -18.2223 -18.0042 -17.9915 -17.8211 -17.8022 -17.6586 -17.6006
   -17.5764 -17.4655 -17.4491 -17.3925 -17.2631 -17.1478 -17.1280 -17.0838
   -17.0393 -16.9933 -16.9478 -16.9355 -16.9293 -16.8772 -16.7809 -16.7630
   -16.7554 -16.7239 -16.6441 -16.6262 -16.6100 -16.4331 -16.4072 -15.8431
   -15.8199  -5.9735  -5.8068  -5.2817  -5.2259  -5.1665  -5.1279  -5.0189
    -4.9992  -4.9889  -4.8900  -4.8564  -4.7293  -4.7118  -4.6577  -4.5924
    -4.5821  -4.5772  -4.5344  -4.4742  -4.4665  -4.4539  -4.3999  -4.3755
    -4.3279  -4.3142  -4.2536  -4.2214  -4.1955  -4.1437  -4.0935  -4.0521
    -3.9869  -3.8425  -3.7490  -3.6736  -3.6017  -3.5882  -3.5002  -3.3994
    -3.3777  -3.3578  -3.3208  -3.2752  -3.2304  -3.2041  -3.1374  -3.0622
    -3.0120  -2.9715  -2.9338  -2.8667  -2.8096  -2.7434  -2.7349  -2.6948
    -2.6055  -2.5869  -2.5582  -2.5014  -2.4854  -2.3809  -2.3442  -2.3233
    -2.3066  -2.2905  -2.2386  -2.1916  -2.1717  -2.1441  -2.1254  -2.0971
    -2.0864  -2.0085  -1.9034  -1.8780  -1.8212  -1.7739  -1.7489  -1.7301
    -1.6983  -1.6582  -1.6201  -1.6045  -1.5381  -1.5050  -1.4334  -1.3472
    -1.3192  -1.1980  -1.1483  -1.1307  -1.0557  -1.0102  -0.9314  -0.9044
    -0.8405  -0.8151  -0.7502  -0.5612   1.0838   1.2656   1.3619   1.5559
     1.5716   1.7094   1.7727   1.8616   2.0602   2.0760   2.1133   2.1423
     2.1856   2.2548   2.2891   2.2986   2.3194   2.3695   2.4336   2.4622
     2.5163   2.5471   2.5628   2.5887   2.6636   2.6898   2.7035   2.7670
     2.7976   2.8188   2.8334   2.8762   2.9272   2.9717   2.9927   3.0130
     3.0521   3.0986   3.1127   3.1474   3.2532   3.2734   3.3029   3.3644
     3.4073   3.4969   3.5160   3.5652   3.6667   3.8580   4.1453   4.2991
     4.5273   4.5863   4.6760   4.7102   4.7870   4.8390   4.9117   4.9629
     5.0386   5.1733   5.2356   5.3177   5.3577   5.3654   5.4268   5.4999
     5.5246   5.5965   5.6193   5.6325   5.7060   5.7310   5.8105   5.8596
     5.9125   6.0200   6.1175   6.2490   6.2745   6.3108   6.5458   6.5872
     6.9135   7.2348   7.6175   7.6924   8.0700   8.1577   8.3230   8.5032
     8.7467   8.8645   8.9427   9.2533   9.3867   9.5041   9.5520

          k =-0.0506 0.0280 0.0000 ( 34685 PWs)   bands (ev):

   -58.5078 -58.4775 -57.5962 -57.5686 -57.5655 -57.4876 -57.4712 -57.4358
   -57.3349 -57.3067 -57.2654 -57.2343 -57.1210 -57.0904 -57.0156 -56.9827
   -34.9307 -34.7771 -34.7522 -34.7079 -34.6279 -34.5918 -34.0731 -34.0352
   -33.9928 -33.8455 -33.8368 -33.7899 -33.7746 -33.7678 -33.7619 -33.7574
   -33.7426 -33.7315 -33.7120 -33.7069 -33.6878 -33.6802 -33.6760 -33.6698
   -33.6528 -33.6397 -33.6255 -33.5887 -33.5745 -33.5316 -33.5170 -33.5139
   -33.5022 -33.4900 -33.4655 -33.4502 -33.4419 -33.4388 -33.4368 -33.4146
   -33.3357 -33.2919 -33.2581 -33.2567 -33.2299 -33.2118 -33.1777 -33.1278
   -18.4636 -18.2240 -18.0654 -18.0635 -17.9125 -17.7874 -17.6589 -17.6385
   -17.5491 -17.5280 -17.4351 -17.3761 -17.3057 -17.1967 -17.1664 -17.1265
   -17.0925 -17.0074 -16.9688 -16.9552 -16.8930 -16.8526 -16.7604 -16.7108
   -16.7069 -16.6847 -16.6249 -16.5957 -16.5360 -16.3672 -16.3286 -15.8123
   -15.7661  -5.9708  -5.7407  -5.4027  -5.3547  -5.3312  -5.1462  -5.0749
    -4.9708  -4.9222  -4.8895  -4.8535  -4.8087  -4.7882  -4.7242  -4.6064
    -4.5597  -4.5375  -4.4406  -4.4123  -4.3703  -4.3692  -4.3514  -4.2480
    -4.2103  -4.1953  -4.1474  -4.0960  -4.0473  -4.0234  -3.9909  -3.9105
    -3.8693  -3.8192  -3.7704  -3.7054  -3.6820  -3.6117  -3.5783  -3.5532
    -3.4669  -3.4052  -3.3857  -3.3227  -3.2746  -3.2194  -3.1966  -3.1186
    -3.0633  -2.9634  -2.9059  -2.9016  -2.8884  -2.8261  -2.8115  -2.8049
    -2.7395  -2.7206  -2.6743  -2.5785  -2.5387  -2.4880  -2.4331  -2.4035
    -2.3707  -2.3031  -2.2426  -2.2039  -2.1745  -2.1377  -2.1028  -2.0547
    -1.9546  -1.9122  -1.8898  -1.8049  -1.7834  -1.7366  -1.6890  -1.6476
    -1.6028  -1.5826  -1.5428  -1.5228  -1.4742  -1.4391  -1.3408  -1.2861
    -1.2397  -1.2035  -1.1977  -1.1205  -1.0867  -1.0309  -0.9973  -0.9339
    -0.8811  -0.8605  -0.7337  -0.5886   0.9359   1.1356   1.2615   1.3648
     1.7265   1.7469   1.7635   1.8548   1.8933   1.9641   2.0161   2.1017
     2.1858   2.2394   2.3104   2.3406   2.3684   2.3848   2.4041   2.4588
     2.5242   2.5608   2.6350   2.6606   2.6872   2.7103   2.7236   2.7558
     2.7758   2.8279   2.8754   2.9007   2.9291   2.9777   3.0030   3.0401
     3.0865   3.1203   3.1537   3.2147   3.2594   3.3024   3.3782   3.4093
     3.4673   3.5549   3.5776   3.6215   3.6925   3.8200   3.9071   4.1546
     4.3122   4.4073   4.5133   4.5944   4.6161   4.6556   4.7645   4.9165
     5.1172   5.1671   5.3185   5.3461   5.4396   5.5372   5.5791   5.6352
     5.6554   5.6860   5.7485   5.8417   5.8927   5.9630   6.0494   6.1245
     6.1789   6.2251   6.2527   6.2966   6.3253   6.3432   6.5079   6.7373
     7.0519   7.1235   7.3672   7.5262   7.6314   8.1563   8.3010   8.5442
     8.7593   8.9626   9.0147   9.2905   9.4496   9.5522   9.5780

          k =-0.0506 0.0560 0.0000 ( 34596 PWs)   bands (ev):

   -58.5015 -58.4839 -57.5898 -57.5720 -57.5665 -57.4896 -57.4659 -57.4411
   -57.3315 -57.3101 -57.2595 -57.2403 -57.1145 -57.0969 -57.0087 -56.9896
   -34.8606 -34.7719 -34.7574 -34.6911 -34.6650 -34.6449 -34.0028 -33.9675
   -33.9329 -33.8288 -33.8278 -33.8042 -33.7829 -33.7819 -33.7808 -33.7704
   -33.7485 -33.7380 -33.7143 -33.7090 -33.7033 -33.6828 -33.6715 -33.6702
   -33.6569 -33.6210 -33.6203 -33.6111 -33.5801 -33.5191 -33.5003 -33.4891
   -33.4886 -33.4803 -33.4697 -33.4597 -33.4571 -33.4476 -33.4443 -33.4316
   -33.3195 -33.2888 -33.2747 -33.2515 -33.2504 -33.2353 -33.2243 -33.1980
   -18.3110 -18.2203 -18.0213 -17.9166 -17.8212 -17.8008 -17.7636 -17.5887
   -17.5745 -17.4358 -17.4210 -17.3103 -17.2863 -17.1731 -17.1271 -17.0729
   -17.0425 -17.0290 -17.0187 -16.9606 -16.9469 -16.9208 -16.8171 -16.7891
   -16.7329 -16.7188 -16.6462 -16.6296 -16.6233 -16.4336 -16.4036 -15.8419
   -15.8204  -5.9691  -5.5042  -5.2067  -5.1454  -5.1374  -4.9858  -4.9800
    -4.9150  -4.8436  -4.7360  -4.7146  -4.7042  -4.6212  -4.5982  -4.5900
    -4.5581  -4.5341  -4.5214  -4.4467  -4.4032  -4.3786  -4.3567  -4.3309
    -4.3036  -4.2487  -4.2296  -4.1969  -4.1454  -4.1215  -4.0290  -4.0007
    -3.8978  -3.8196  -3.7919  -3.7268  -3.6625  -3.6231  -3.5233  -3.4709
    -3.4404  -3.3821  -3.3381  -3.2966  -3.2869  -3.2105  -3.1798  -3.1687
    -3.1501  -3.0320  -2.9705  -2.9560  -2.9259  -2.8436  -2.8082  -2.7768
    -2.7361  -2.6841  -2.6210  -2.6111  -2.5838  -2.5657  -2.5078  -2.4498
    -2.3854  -2.3644  -2.3395  -2.3333  -2.2683  -2.2259  -2.2024  -2.1726
    -2.1359  -2.0507  -1.9995  -1.9276  -1.8672  -1.7816  -1.7555  -1.7462
    -1.7262  -1.6539  -1.6396  -1.5692  -1.5058  -1.4226  -1.3819  -1.3096
    -1.2299  -1.2104  -1.1300  -1.0833  -1.0458  -0.9540  -0.9349  -0.9022
    -0.8752  -0.8560  -0.7464  -0.6703   1.1049   1.2938   1.4448   1.4650
     1.6500   1.8005   1.8261   1.8647   2.0095   2.0414   2.1429   2.1590
     2.2053   2.2413   2.3366   2.3656   2.4201   2.4626   2.5116   2.5256
     2.5484   2.6058   2.6253   2.6694   2.6753   2.7169   2.7668   2.8047
     2.8309   2.8596   2.8906   2.9737   2.9838   2.9990   3.0320   3.0469
     3.0822   3.1221   3.1599   3.1652   3.2647   3.2838   3.3039   3.3641
     3.4422   3.4994   3.5379   3.6049   3.6352   3.7229   3.9504   4.2540
     4.4001   4.4141   4.5132   4.5788   4.6629   4.7000   4.7905   4.9182
     5.0172   5.1214   5.1510   5.2009   5.3858   5.4246   5.4580   5.4959
     5.6494   5.6868   5.7640   5.7891   5.8641   5.8868   5.9369   5.9782
     6.0945   6.1355   6.2117   6.2478   6.3441   6.4408   6.5963   6.6250
     7.0618   7.3035   7.4438   7.6029   7.8863   7.9475   8.0276   8.3825
     8.5891   8.6772   8.7935   8.9093   9.2080   9.2368   9.3853

     the Fermi energy is    -0.4917 ev

!    total energy              =   -3005.52971443 Ry
     Harris-Foulkes estimate   =   -3005.52971424 Ry
     estimated scf accuracy    <       0.00000069 Ry

     The total energy is the sum of the following terms:

     one-electron contribution =  -41015.22252938 Ry
     hartree contribution      =   20573.32232566 Ry
     xc contribution           =    -546.72975484 Ry
     ewald contribution        =   17983.11989021 Ry
     smearing contrib. (-TS)   =      -0.01964608 Ry

     total magnetization       =     0.00 Bohr mag/cell
     absolute magnetization    =     0.00 Bohr mag/cell

     convergence has been achieved in  12 iterations

     Forces acting on atoms (Ry/au):


     negative rho (up, down):  1.350E-02 1.350E-02
     atom    1 type  1   force =     0.00001037   -0.00108529   -0.10417567
     atom    2 type  2   force =     0.00001593    0.00002801    0.03814766
     atom    3 type  1   force =    -0.00014576    0.00006380   -0.02284031
     atom    4 type  2   force =    -0.00618679    0.00314398   -0.00578319
     atom    5 type  1   force =     0.00029451    0.00042554   -0.00093601
     atom    6 type  2   force =    -0.00039434    0.00013676   -0.00006492
     atom    7 type  1   force =     0.00098200    0.00164499   -0.00058426
     atom    8 type  2   force =     0.00009560    0.00025378    0.00027557
     atom    9 type  1   force =    -0.00003047    0.00109391   -0.10418776
     atom   10 type  2   force =    -0.00001515   -0.00003997    0.03430566
     atom   11 type  1   force =    -0.00012040    0.00001294    0.01132726
     atom   12 type  2   force =    -0.00616398   -0.00313955   -0.00578785
     atom   13 type  1   force =     0.00025819   -0.00037833   -0.00081385
     atom   14 type  2   force =    -0.00075095    0.00007722   -0.00106077
     atom   15 type  1   force =     0.00044027   -0.00084513    0.00121355
     atom   16 type  2   force =     0.00023272   -0.00032439   -0.00069775
     atom   17 type  2   force =    -0.00001730   -0.00000528    0.06629784
     atom   18 type  1   force =     0.00011038    0.00001297    0.13064985
     atom   19 type  2   force =    -0.00017746    0.00003967   -0.08414930
     atom   20 type  2   force =    -0.05790360    0.00009756   -0.03629945
     atom   21 type  2   force =     0.05799984    0.00018146   -0.03622448
     atom   22 type  1   force =    -0.00005641    0.00084111    0.07795940
     atom   23 type  2   force =    -0.00018412    0.00004554    0.00142648
     atom   24 type  2   force =    -0.00022408    0.00010985   -0.03628711
     atom   25 type  2   force =     0.00591922    0.00311253   -0.00550402
     atom   26 type  1   force =    -0.00039230    0.00007742    0.00026319
     atom   27 type  2   force =     0.00032646    0.00004643    0.00143832
     atom   28 type  2   force =    -0.00021441    0.00039831   -0.00038358
     atom   29 type  2   force =    -0.00036253    0.00013639    0.00009368
     atom   30 type  1   force =     0.00020288    0.00064856    0.00072961
     atom   31 type  2   force =    -0.00039981   -0.00033307   -0.00029589
     atom   32 type  2   force =    -0.00024275    0.00038411    0.00094741
     atom   33 type  2   force =    -0.00003012    0.00000780    0.06630548
     atom   34 type  1   force =     0.00007818   -0.00001316    0.13047535
     atom   35 type  2   force =    -0.00014228    0.00000880   -0.08357344
     atom   36 type  2   force =    -0.05789135   -0.00018763   -0.03624237
     atom   37 type  2   force =     0.05797055   -0.00015844   -0.03618878
     atom   38 type  1   force =    -0.00003205   -0.00089460    0.07797282
     atom   39 type  2   force =    -0.00010268    0.00002012   -0.00021060
     atom   40 type  2   force =     0.00007213    0.00004374   -0.03531340
     atom   41 type  2   force =     0.00591422   -0.00306190   -0.00549759
     atom   42 type  1   force =    -0.00058935    0.00003751    0.00090762
     atom   43 type  2   force =     0.00042607    0.00005332    0.00163313
     atom   44 type  2   force =    -0.00022762   -0.00032661   -0.00040501
     atom   45 type  2   force =    -0.00035487   -0.00018522    0.00008052
     atom   46 type  1   force =    -0.00036829   -0.00071998    0.00065356
     atom   47 type  2   force =     0.00151961    0.00022114    0.00046171
     atom   48 type  2   force =     0.00095319    0.00124035   -0.00127509
     atom   49 type  2   force =     0.00221119   -0.00319581    0.00203722
     atom   50 type  3   force =    -0.00231229    0.00024876   -0.00082040

     Total force =     0.340171     Total SCF correction =     0.003861
 !ASE

     Writing output data file calc.save
 
     init_run     :     61.13s CPU     70.70s WALL (       1 calls)
     electrons    :   2910.57s CPU   3267.59s WALL (       1 calls)
     forces       :     47.40s CPU     49.27s WALL (       1 calls)

     Called by init_run:
     wfcinit      :     53.97s CPU     62.89s WALL (       1 calls)
     potinit      :      1.29s CPU      1.57s WALL (       1 calls)

     Called by electrons:
     c_bands      :   2540.05s CPU   2835.23s WALL (      12 calls)
     sum_band     :    317.61s CPU    373.85s WALL (      12 calls)
     v_of_rho     :     13.13s CPU     15.60s WALL (      13 calls)
     newd         :     43.14s CPU     46.41s WALL (      13 calls)
     mix_rho      :      0.47s CPU      0.63s WALL (      12 calls)
     vdW_energy   :      2.91s CPU      3.29s WALL (      14 calls)
     vdW_ffts     :      3.46s CPU      4.35s WALL (      28 calls)
     vdW_v        :      1.33s CPU      1.48s WALL (      14 calls)

     Called by c_bands:
     init_us_2    :      7.07s CPU      7.69s WALL (    1040 calls)
     cegterg      :   2494.91s CPU   2787.77s WALL (     480 calls)

     Called by *egterg:
     h_psi        :    989.54s CPU   1206.25s WALL (    2196 calls)
     s_psi        :    169.33s CPU    173.81s WALL (    2196 calls)
     g_psi        :      5.02s CPU      5.08s WALL (    1676 calls)
     cdiaghg      :    769.61s CPU    782.71s WALL (    2156 calls)

     Called by h_psi:
     add_vuspsi   :    170.89s CPU    175.67s WALL (    2196 calls)

     General routines
     calbec       :    253.20s CPU    257.47s WALL (    2716 calls)
     fft          :      6.78s CPU      8.48s WALL (    1110 calls)
     ffts         :      0.06s CPU      0.09s WALL (      50 calls)
     fftw         :    557.09s CPU    815.01s WALL (  826376 calls)
     interpolate  :      0.42s CPU      0.62s WALL (      50 calls)
     davcio       :      0.15s CPU      2.63s WALL (      40 calls)
 
     Parallel routines
     fft_scatter  :    273.67s CPU    429.70s WALL (  827536 calls)
 
     PWSCF        : 50m20.13s CPU    56m31.65s WALL

 
   This run was terminated on:  20:44: 6  10Feb2018            

=------------------------------------------------------------------------------=
   JOB DONE.
=------------------------------------------------------------------------------=
