  python dir          : /home/vossj/suncat/lib/python2.7/site-packages/espresso
  espresso dir        : /home/vossj/suncat/esdld/espresso-dynpy-beef/bin
  pseudo dir          : /home/alatimer/bin/psp/esp_psp_w_gbrvRu/
  ase-espresso py git : ffa2778-git



     Program PWSCF v.5.1rc2 (svn rev. ) starts on 12Feb2018 at 14:55:25 

     This program is part of the open-source Quantum ESPRESSO suite
     for quantum simulation of materials; please cite
         "P. Giannozzi et al., J. Phys.:Condens. Matter 21 395502 (2009);
          URL http://www.quantum-espresso.org", 
     in publications or presentations arising from this work. More details at
     http://www.quantum-espresso.org/quote

     Parallel version (MPI), running on    16 processors
     R & G space division:  proc/nbgrp/npool/nimage =      16
     Reading input from pw.inp
     Message from routine read_cards :
     DEPRECATED: no units specified in CELL_PARAMETERS card

     Current dimensions of program PWSCF are:
     Max number of different atomic species (ntypx) = 10
     Max number of k-points (npk) =  40000
     Max angular momentum in pseudopotentials (lmaxx) =  3

     **************************************************************************
     Initializing libbeef V0.1.1 with the BEEF-vdW functional.
     Citation: Wellendorff et al., PRB 85, 235149 (2012).
     **************************************************************************


     IMPORTANT: XC functional enforced from input :
     Exchange-correlation      = BEEF ( 1  4 27 13 2)
     Any further DFT definition will be discarded
     Please, verify this is what you really want


     Subspace diagonalization in iterative solution of the eigenvalue problem:
     a serial algorithm will be used

 
     Parallelization info
     --------------------
     sticks:   dense  smooth     PW     G-vecs:    dense   smooth      PW
     Min         281     112     31                68535    17318    2565
     Max         282     113     32                68545    17369    2582
     Sum        4501    1795    503              1096637   277353   41113
 
     Generating pointlists ...
     new r_m :   0.4125 (alat units)  0.7795 (a.u.) for type    1
     new r_m :   0.3996 (alat units)  0.7551 (a.u.) for type    2
     new r_m :   0.4125 (alat units)  0.7795 (a.u.) for type    3
     new r_m :   0.3996 (alat units)  0.7551 (a.u.) for type    4


     bravais-lattice index     =            0
     lattice parameter (alat)  =       1.8897  a.u.
     unit-cell volume          =    7990.9933 (a.u.)^3
     number of atoms/cell      =           54
     number of atomic types    =            4
     number of electrons       =       398.00
     number of Kohn-Sham states=          299
     kinetic-energy cutoff     =      40.4243  Ry
     charge density cutoff     =     404.2426  Ry
     convergence threshold     =      7.3E-07
     mixing beta               =       0.1000
     number of iterations used =           10  plain     mixing
     Exchange-correlation      = BEEF ( 1  4 27 13 2)
     nstep                     =           50


     celldm(1)=   1.889726  celldm(2)=   0.000000  celldm(3)=   0.000000
     celldm(4)=   0.000000  celldm(5)=   0.000000  celldm(6)=   0.000000

     crystal axes: (cart. coord. in units of alat)
               a(1) = (   6.590708   0.000000   0.000000 )  
               a(2) = (   0.000000   5.950229   0.000000 )  
               a(3) = (   0.000000   0.000000  30.195235 )  

     reciprocal axes: (cart. coord. in units 2 pi/alat)
               b(1) = (  0.151729  0.000000  0.000000 )  
               b(2) = (  0.000000  0.168061  0.000000 )  
               b(3) = (  0.000000  0.000000  0.033118 )  


     PseudoPot. # 1 for Ti read from file:
     /home/alatimer/bin/psp/esp_psp_w_gbrvRu/Ti.UPF
     MD5 check sum: 8e4df49b7f0d34bbd5052bf3f5ea0213
     Pseudo is Ultrasoft, Zval = 12.0
     Generated by new atomic code, or converted to UPF format
     Using radial grid of  851 points,  6 beta functions with: 
                l(1) =   0
                l(2) =   0
                l(3) =   1
                l(4) =   1
                l(5) =   2
                l(6) =   2
     Q(r) pseudized with  8 coefficients,  rinner =    1.000   1.000   1.000
                                                       1.000   1.000

     PseudoPot. # 2 for  O read from file:
     /home/alatimer/bin/psp/esp_psp_w_gbrvRu/O.UPF
     MD5 check sum: e057bbcf3229fb5d8c36c0c92f9568b4
     Pseudo is Ultrasoft + core correction, Zval =  6.0
     Generated using "atomic" code by A. Dal Corso  v.5.0.2 svn rev. 9415
     Using radial grid of 1095 points,  4 beta functions with: 
                l(1) =   0
                l(2) =   0
                l(3) =   1
                l(4) =   1
     Q(r) pseudized with 0 coefficients 


     PseudoPot. # 3 for  C read from file:
     /home/alatimer/bin/psp/esp_psp_w_gbrvRu/C.UPF
     MD5 check sum: ab446d787031eba755f1d5ee46644bb0
     Pseudo is Ultrasoft + core correction, Zval =  4.0
     Generated using "atomic" code by A. Dal Corso  v.5.0.2 svn rev. 9415
     Using radial grid of 1073 points,  4 beta functions with: 
                l(1) =   0
                l(2) =   0
                l(3) =   1
                l(4) =   1
     Q(r) pseudized with 0 coefficients 


     PseudoPot. # 4 for  H read from file:
     /home/alatimer/bin/psp/esp_psp_w_gbrvRu/H.UPF
     MD5 check sum: bd57da0722753ddfd9833a65b40bb853
     Pseudo is Ultrasoft, Zval =  1.0
     Generated using "atomic" code by A. Dal Corso  v.5.0.2 svn rev. 9415
     Using radial grid of  929 points,  2 beta functions with: 
                l(1) =   0
                l(2) =   0
     Q(r) pseudized with 0 coefficients 


     vdW kernel table read from file vdW_kernel_table
     MD5 check sum: 095c7af220d748ca6e76c0b4c6cfb241

     atomic species   valence    mass     pseudopotential
        Ti1           12.00    47.88000     Ti( 1.00)
        O1             6.00    15.99940      O( 1.00)
        C1             4.00    12.01100      C( 1.00)
        H1             1.00     1.00794      H( 1.00)

     Starting magnetic structure 
     atomic species   magnetization
        Ti1          0.250
        O1           0.500
        C1           0.750
        H1           0.000

     No symmetry found



   Cartesian axes

     site n.     atom                  positions (alat units)
         1           Ti1 tau(   1) = (   1.6476770   0.7437786   2.6545865  )
         2           O1  tau(   2) = (   1.6476770   2.2313359   3.9361215  )
         3           Ti1 tau(   3) = (   1.6476770   2.2313359   5.9499405  )
         4           O1  tau(   4) = (   0.3661420   0.7437786   5.9499405  )
         5           Ti1 tau(   5) = (   1.7592931   0.7557636   9.1813031  )
         6           O1  tau(   6) = (   1.6162490   2.2572048  10.5951269  )
         7           Ti1 tau(   7) = (   1.5595004   2.2680265  12.4668274  )
         8           O1  tau(   8) = (   0.3709531   0.7738127  12.6996540  )
         9           Ti1 tau(   9) = (   1.6476770   3.7188931   2.6545865  )
        10           O1  tau(  10) = (   1.6476770   5.2064503   3.9361215  )
        11           Ti1 tau(  11) = (   1.6476770   5.2064503   5.9499405  )
        12           O1  tau(  12) = (   0.3661420   3.7188931   5.9499405  )
        13           Ti1 tau(  13) = (   1.7607536   3.7112867   9.1949733  )
        14           O1  tau(  14) = (   1.6133076   5.2250699  10.5465640  )
        15           Ti1 tau(  15) = (   1.6492307   5.2431137  12.3448001  )
        16           O1  tau(  16) = (   0.3719744   3.7598389  12.7007434  )
        17           O1  tau(  17) = (   1.6476770   2.2313359   1.3730516  )
        18           Ti1 tau(  18) = (   4.9430310   2.2313359   2.6545865  )
        19           O1  tau(  19) = (   4.9430310   2.2313359   4.6684056  )
        20           O1  tau(  20) = (   6.2245660   0.7437786   2.6545865  )
        21           O1  tau(  21) = (   3.6614961   0.7437786   2.6545865  )
        22           Ti1 tau(  22) = (   4.9430310   0.7437786   5.9499405  )
        23           O1  tau(  23) = (   1.6387103   2.2391978   8.0037664  )
        24           O1  tau(  24) = (   4.9430310   2.2313359   7.2314755  )
        25           O1  tau(  25) = (   2.9292120   0.7437786   5.9499405  )
        26           Ti1 tau(  26) = (   5.0158092   2.2383949   9.3973727  )
        27           O1  tau(  27) = (   4.9391445   2.2276729  11.2675731  )
        28           O1  tau(  28) = (   6.2094020   0.7514556   9.2742047  )
        29           O1  tau(  29) = (   3.6131301   0.7515640   9.2682932  )
        30           Ti1 tau(  30) = (   4.8940083   0.8207741  12.7348365  )
        31           O1  tau(  31) = (   4.8487174   2.2703822  13.8475395  )
        32           O1  tau(  32) = (   2.8766274   0.7418004  12.6316555  )
        33           O1  tau(  33) = (   1.6476770   5.2064503   1.3730516  )
        34           Ti1 tau(  34) = (   4.9430310   5.2064503   2.6545865  )
        35           O1  tau(  35) = (   4.9430310   5.2064503   4.6684056  )
        36           O1  tau(  36) = (   6.2245660   3.7188931   2.6545865  )
        37           O1  tau(  37) = (   3.6614961   3.7188931   2.6545865  )
        38           Ti1 tau(  38) = (   4.9430310   3.7188931   5.9499405  )
        39           O1  tau(  39) = (   1.6418458   5.2133935   8.0066417  )
        40           O1  tau(  40) = (   4.9430310   5.2064503   7.2314755  )
        41           O1  tau(  41) = (   2.9292120   3.7188931   5.9499405  )
        42           Ti1 tau(  42) = (   5.0218241   5.2139137   9.3870600  )
        43           O1  tau(  43) = (   4.9399496   5.2040061  11.2598200  )
        44           O1  tau(  44) = (   6.2073000   3.7245411   9.2731052  )
        45           O1  tau(  45) = (   3.6137513   3.7232133   9.2682466  )
        46           Ti1 tau(  46) = (   4.8936935   3.8094630  12.7397413  )
        47           O1  tau(  47) = (   4.9051259   5.2510468  13.8339921  )
        48           O1  tau(  48) = (   2.8743370   3.7938830  12.6403791  )
        49           C1  tau(  49) = (   1.0587210   2.2268971  15.9066084  )
        50           O1  tau(  50) = (   1.8917182   2.2055032  14.7378010  )
        51           H1  tau(  51) = (   0.0310076   2.2200215  15.5603933  )
        52           H1  tau(  52) = (   2.8355400   2.2288152  14.9543747  )
        53           H1  tau(  53) = (   1.2478062   1.3326534  16.5039879  )
        54           H1  tau(  54) = (   1.2341453   3.1195140  16.5098874  )

     number of k points=    40  Fermi-Dirac smearing, width (Ry)=  0.0073
                       cart. coord. in units 2pi/alat
        k(    1) = (   0.0000000   0.0000000   0.0000000), wk =   0.0277778
        k(    2) = (   0.0000000   0.0280101   0.0000000), wk =   0.0555556
        k(    3) = (   0.0000000   0.0560203   0.0000000), wk =   0.0555556
        k(    4) = (   0.0000000  -0.0840304   0.0000000), wk =   0.0277778
        k(    5) = (   0.0252881   0.0000000   0.0000000), wk =   0.0555556
        k(    6) = (   0.0252881   0.0280101   0.0000000), wk =   0.0555556
        k(    7) = (   0.0252881   0.0560203   0.0000000), wk =   0.0555556
        k(    8) = (   0.0252881  -0.0840304   0.0000000), wk =   0.0555556
        k(    9) = (   0.0505763   0.0000000   0.0000000), wk =   0.0555556
        k(   10) = (   0.0505763   0.0280101   0.0000000), wk =   0.0555556
        k(   11) = (   0.0505763   0.0560203   0.0000000), wk =   0.0555556
        k(   12) = (   0.0505763  -0.0840304   0.0000000), wk =   0.0555556
        k(   13) = (  -0.0758644   0.0000000   0.0000000), wk =   0.0277778
        k(   14) = (  -0.0758644   0.0280101   0.0000000), wk =   0.0555556
        k(   15) = (  -0.0758644   0.0560203   0.0000000), wk =   0.0555556
        k(   16) = (  -0.0758644  -0.0840304   0.0000000), wk =   0.0277778
        k(   17) = (  -0.0252881   0.0280101   0.0000000), wk =   0.0555556
        k(   18) = (  -0.0252881   0.0560203   0.0000000), wk =   0.0555556
        k(   19) = (  -0.0505763   0.0280101   0.0000000), wk =   0.0555556
        k(   20) = (  -0.0505763   0.0560203   0.0000000), wk =   0.0555556
        k(   21) = (   0.0000000   0.0000000   0.0000000), wk =   0.0277778
        k(   22) = (   0.0000000   0.0280101   0.0000000), wk =   0.0555556
        k(   23) = (   0.0000000   0.0560203   0.0000000), wk =   0.0555556
        k(   24) = (   0.0000000  -0.0840304   0.0000000), wk =   0.0277778
        k(   25) = (   0.0252881   0.0000000   0.0000000), wk =   0.0555556
        k(   26) = (   0.0252881   0.0280101   0.0000000), wk =   0.0555556
        k(   27) = (   0.0252881   0.0560203   0.0000000), wk =   0.0555556
        k(   28) = (   0.0252881  -0.0840304   0.0000000), wk =   0.0555556
        k(   29) = (   0.0505763   0.0000000   0.0000000), wk =   0.0555556
        k(   30) = (   0.0505763   0.0280101   0.0000000), wk =   0.0555556
        k(   31) = (   0.0505763   0.0560203   0.0000000), wk =   0.0555556
        k(   32) = (   0.0505763  -0.0840304   0.0000000), wk =   0.0555556
        k(   33) = (  -0.0758644   0.0000000   0.0000000), wk =   0.0277778
        k(   34) = (  -0.0758644   0.0280101   0.0000000), wk =   0.0555556
        k(   35) = (  -0.0758644   0.0560203   0.0000000), wk =   0.0555556
        k(   36) = (  -0.0758644  -0.0840304   0.0000000), wk =   0.0277778
        k(   37) = (  -0.0252881   0.0280101   0.0000000), wk =   0.0555556
        k(   38) = (  -0.0252881   0.0560203   0.0000000), wk =   0.0555556
        k(   39) = (  -0.0505763   0.0280101   0.0000000), wk =   0.0555556
        k(   40) = (  -0.0505763   0.0560203   0.0000000), wk =   0.0555556

     Dense  grid:  1096637 G-vectors     FFT dimensions: (  80,  72, 375)

     Smooth grid:   277353 G-vectors     FFT dimensions: (  54,  45, 240)

     Largest allocated arrays     est. size (Mb)     dimensions
        Kohn-Sham Wavefunctions         9.95 Mb     (    2180,  299)
        NL pseudopotentials            18.89 Mb     (    2180,  568)
        Each V/rho on FFT grid          4.22 Mb     (  138240,   2)
        Each G-vector array             0.52 Mb     (   68538)
        G-vector shells                 0.25 Mb     (   33046)
     Largest temporary arrays     est. size (Mb)     dimensions
        Auxiliary wavefunctions        39.78 Mb     (    2180, 1196)
        Each subspace H/S matrix       21.83 Mb     (    1196, 1196)
        Each <psi_i|beta_j> matrix      2.59 Mb     (     568,  299)
        Arrays for rho mixing          21.09 Mb     (  138240,   10)

     Check: negative/imaginary core charge=   -0.000049    0.000000

     The initial density is read from file :
     ./calc.save/charge-density.dat


     negative rho (up, down):  1.209E-02 1.209E-02


     ************************************************************************
     *
     * You are using vdW-DF for exchange-correlation in this calculation.
     * Please cite the following three references that made this development
     * possible:
     *
     *   M. Dion, H. Rydberg, E. Schroder, D. C. Langreth, and
     *   B. I. Lundqvist, Phys. Rev. Lett. 92, 246401 (2004).
     *
     *   T. Thonhauser, V. R. Cooper, S. Li, A. Puzder, P. Hyldgaard, and
     *   D. C. Langreth, Phys. Rev. B 76, 125112 (2007).
     *
     *   G. Roman-Perez and J. M. Soler, Phys. Rev. Lett. 103, 096102 (2009).
     *
     *
     * If you are using vdW-DF2, please also cite:
     *
     *   K. Lee, E. D. Murray, L. Kong, B. I. Lundqvist, and
     *   D. C. Langreth, Phys. Rev. B 82, 081101(R) (2010).
     *
     *
     * If you are calculating the stress with vdW-DF, please also cite:
     *
     *   R. Sabatini, E. Kucukbenli, B. Kolb, T. Thonhauser, and
     *   S. de Gironcoli, J. Phys.: Condens. Matter 24, 424209 (2012).
     *
     ************************************************************************

     Carrying out vdW-DF run using the following parameters:

     Nqs =      20    Nr_points =    1024   r_max =   100.000
     q_mesh =
               0.00001000     0.04494208     0.09755937     0.15916263
               0.23128650     0.31572767     0.41458969     0.53033537
               0.66584808     0.82450364     1.01025438     1.22772762
               1.48234092     1.78043706     2.12944203     2.53805004
               3.01644009     3.57652955     4.23227104     5.00000000

     Gradients computed in reciprocal space

     ************************************************************************


     Starting wfc are  300 randomized atomic wfcs

     total cpu time spent up to now is       72.7 secs

     Self-consistent Calculation

     iteration #  1     ecut=    40.42 Ry     beta=0.10
     Davidson diagonalization with overlap
     ethr =  1.00E-05,  avg # of iterations = 14.6

     negative rho (up, down):  1.209E-02 1.209E-02
 
     Magnetic moment per site:
     atom:    1    charge:    3.1250    magn:   -0.0002    constr:    0.0000
     atom:    2    charge:    1.9463    magn:    0.0000    constr:    0.0000
     atom:    3    charge:    3.1198    magn:    0.0000    constr:    0.0000
     atom:    4    charge:    1.9515    magn:   -0.0001    constr:    0.0000
     atom:    5    charge:    3.1166    magn:    0.0000    constr:    0.0000
     atom:    6    charge:    1.9488    magn:   -0.0001    constr:    0.0000
     atom:    7    charge:    3.1157    magn:    0.0001    constr:    0.0000
     atom:    8    charge:    1.9469    magn:   -0.0001    constr:    0.0000
     atom:    9    charge:    3.1250    magn:   -0.0002    constr:    0.0000
     atom:   10    charge:    1.9463    magn:    0.0000    constr:    0.0000
     atom:   11    charge:    3.1197    magn:    0.0000    constr:    0.0000
     atom:   12    charge:    1.9515    magn:   -0.0001    constr:    0.0000
     atom:   13    charge:    3.1158    magn:    0.0000    constr:    0.0000
     atom:   14    charge:    1.9598    magn:   -0.0001    constr:    0.0000
     atom:   15    charge:    3.1189    magn:    0.0001    constr:    0.0000
     atom:   16    charge:    1.9451    magn:   -0.0001    constr:    0.0000
     atom:   17    charge:    1.9196    magn:    0.0004    constr:    0.0000
     atom:   18    charge:    3.1240    magn:   -0.0001    constr:    0.0000
     atom:   19    charge:    1.9420    magn:   -0.0000    constr:    0.0000
     atom:   20    charge:    1.9482    magn:    0.0000    constr:    0.0000
     atom:   21    charge:    1.9482    magn:    0.0000    constr:    0.0000
     atom:   22    charge:    3.1196    magn:    0.0000    constr:    0.0000
     atom:   23    charge:    1.9577    magn:   -0.0001    constr:    0.0000
     atom:   24    charge:    1.9390    magn:   -0.0001    constr:    0.0000
     atom:   25    charge:    1.9516    magn:   -0.0001    constr:    0.0000
     atom:   26    charge:    3.1145    magn:    0.0001    constr:    0.0000
     atom:   27    charge:    1.9409    magn:   -0.0001    constr:    0.0000
     atom:   28    charge:    1.9528    magn:   -0.0001    constr:    0.0000
     atom:   29    charge:    1.9487    magn:   -0.0001    constr:    0.0000
     atom:   30    charge:    3.1169    magn:    0.0000    constr:    0.0000
     atom:   31    charge:    1.9457    magn:   -0.0000    constr:    0.0000
     atom:   32    charge:    1.9458    magn:   -0.0001    constr:    0.0000
     atom:   33    charge:    1.9195    magn:    0.0004    constr:    0.0000
     atom:   34    charge:    3.1239    magn:   -0.0001    constr:    0.0000
     atom:   35    charge:    1.9420    magn:   -0.0000    constr:    0.0000
     atom:   36    charge:    1.9482    magn:    0.0000    constr:    0.0000
     atom:   37    charge:    1.9482    magn:    0.0000    constr:    0.0000
     atom:   38    charge:    3.1196    magn:    0.0000    constr:    0.0000
     atom:   39    charge:    1.9561    magn:   -0.0001    constr:    0.0000
     atom:   40    charge:    1.9394    magn:   -0.0001    constr:    0.0000
     atom:   41    charge:    1.9516    magn:   -0.0001    constr:    0.0000
     atom:   42    charge:    3.1141    magn:    0.0001    constr:    0.0000
     atom:   43    charge:    1.9424    magn:   -0.0001    constr:    0.0000
     atom:   44    charge:    1.9529    magn:   -0.0001    constr:    0.0000
     atom:   45    charge:    1.9480    magn:   -0.0001    constr:    0.0000
     atom:   46    charge:    3.1162    magn:    0.0000    constr:    0.0000
     atom:   47    charge:    1.9442    magn:   -0.0000    constr:    0.0000
     atom:   48    charge:    1.9448    magn:   -0.0001    constr:    0.0000
     atom:   49    charge:    0.6580    magn:   -0.0001    constr:    0.0000
     atom:   50    charge:    1.9608    magn:   -0.0001    constr:    0.0000
     atom:   51    charge:    0.4025    magn:    0.0000    constr:    0.0000
     atom:   52    charge:    0.4007    magn:    0.0000    constr:    0.0000
     atom:   53    charge:    0.4038    magn:    0.0000    constr:    0.0000
     atom:   54    charge:    0.4039    magn:    0.0000    constr:    0.0000

     total cpu time spent up to now is      840.7 secs

     total energy              =   -3021.44774736 Ry
     Harris-Foulkes estimate   =   -3021.46039242 Ry
     estimated scf accuracy    <       0.08573723 Ry

     total magnetization       =     0.00 Bohr mag/cell
     absolute magnetization    =     0.01 Bohr mag/cell

     iteration #  2     ecut=    40.42 Ry     beta=0.10
     Davidson diagonalization with overlap
     ethr =  2.15E-05,  avg # of iterations =  2.0

     negative rho (up, down):  1.211E-02 1.211E-02
 
     Magnetic moment per site:
     atom:    1    charge:    3.1250    magn:   -0.0001    constr:    0.0000
     atom:    2    charge:    1.9463    magn:    0.0000    constr:    0.0000
     atom:    3    charge:    3.1197    magn:    0.0000    constr:    0.0000
     atom:    4    charge:    1.9515    magn:   -0.0000    constr:    0.0000
     atom:    5    charge:    3.1166    magn:    0.0000    constr:    0.0000
     atom:    6    charge:    1.9488    magn:   -0.0001    constr:    0.0000
     atom:    7    charge:    3.1156    magn:    0.0000    constr:    0.0000
     atom:    8    charge:    1.9476    magn:   -0.0001    constr:    0.0000
     atom:    9    charge:    3.1250    magn:   -0.0001    constr:    0.0000
     atom:   10    charge:    1.9463    magn:    0.0000    constr:    0.0000
     atom:   11    charge:    3.1197    magn:    0.0000    constr:    0.0000
     atom:   12    charge:    1.9515    magn:   -0.0000    constr:    0.0000
     atom:   13    charge:    3.1158    magn:    0.0000    constr:    0.0000
     atom:   14    charge:    1.9598    magn:   -0.0001    constr:    0.0000
     atom:   15    charge:    3.1189    magn:    0.0000    constr:    0.0000
     atom:   16    charge:    1.9445    magn:   -0.0001    constr:    0.0000
     atom:   17    charge:    1.9196    magn:    0.0003    constr:    0.0000
     atom:   18    charge:    3.1239    magn:   -0.0001    constr:    0.0000
     atom:   19    charge:    1.9420    magn:   -0.0000    constr:    0.0000
     atom:   20    charge:    1.9482    magn:    0.0000    constr:    0.0000
     atom:   21    charge:    1.9482    magn:    0.0000    constr:    0.0000
     atom:   22    charge:    3.1196    magn:    0.0000    constr:    0.0000
     atom:   23    charge:    1.9577    magn:   -0.0001    constr:    0.0000
     atom:   24    charge:    1.9390    magn:   -0.0000    constr:    0.0000
     atom:   25    charge:    1.9516    magn:   -0.0000    constr:    0.0000
     atom:   26    charge:    3.1145    magn:    0.0000    constr:    0.0000
     atom:   27    charge:    1.9410    magn:   -0.0000    constr:    0.0000
     atom:   28    charge:    1.9528    magn:   -0.0001    constr:    0.0000
     atom:   29    charge:    1.9487    magn:   -0.0001    constr:    0.0000
     atom:   30    charge:    3.1169    magn:    0.0000    constr:    0.0000
     atom:   31    charge:    1.9457    magn:   -0.0000    constr:    0.0000
     atom:   32    charge:    1.9468    magn:   -0.0001    constr:    0.0000
     atom:   33    charge:    1.9195    magn:    0.0003    constr:    0.0000
     atom:   34    charge:    3.1239    magn:   -0.0001    constr:    0.0000
     atom:   35    charge:    1.9420    magn:   -0.0000    constr:    0.0000
     atom:   36    charge:    1.9482    magn:    0.0000    constr:    0.0000
     atom:   37    charge:    1.9482    magn:    0.0000    constr:    0.0000
     atom:   38    charge:    3.1196    magn:    0.0000    constr:    0.0000
     atom:   39    charge:    1.9561    magn:   -0.0001    constr:    0.0000
     atom:   40    charge:    1.9394    magn:   -0.0000    constr:    0.0000
     atom:   41    charge:    1.9516    magn:   -0.0000    constr:    0.0000
     atom:   42    charge:    3.1141    magn:    0.0000    constr:    0.0000
     atom:   43    charge:    1.9424    magn:   -0.0000    constr:    0.0000
     atom:   44    charge:    1.9529    magn:   -0.0001    constr:    0.0000
     atom:   45    charge:    1.9480    magn:   -0.0001    constr:    0.0000
     atom:   46    charge:    3.1162    magn:    0.0000    constr:    0.0000
     atom:   47    charge:    1.9442    magn:   -0.0000    constr:    0.0000
     atom:   48    charge:    1.9440    magn:   -0.0001    constr:    0.0000
     atom:   49    charge:    0.6579    magn:   -0.0000    constr:    0.0000
     atom:   50    charge:    1.9649    magn:   -0.0000    constr:    0.0000
     atom:   51    charge:    0.4025    magn:    0.0000    constr:    0.0000
     atom:   52    charge:    0.4004    magn:    0.0000    constr:    0.0000
     atom:   53    charge:    0.4049    magn:    0.0000    constr:    0.0000
     atom:   54    charge:    0.4027    magn:    0.0000    constr:    0.0000

     total cpu time spent up to now is     1029.3 secs

     total energy              =   -3021.41292771 Ry
     Harris-Foulkes estimate   =   -3021.44825093 Ry
     estimated scf accuracy    <       0.05968420 Ry

     total magnetization       =     0.00 Bohr mag/cell
     absolute magnetization    =     0.01 Bohr mag/cell

     iteration #  3     ecut=    40.42 Ry     beta=0.10
     Davidson diagonalization with overlap
     ethr =  1.50E-05,  avg # of iterations =  3.0

     negative rho (up, down):  1.211E-02 1.211E-02
 
     Magnetic moment per site:
     atom:    1    charge:    3.1250    magn:   -0.0001    constr:    0.0000
     atom:    2    charge:    1.9463    magn:    0.0000    constr:    0.0000
     atom:    3    charge:    3.1198    magn:    0.0000    constr:    0.0000
     atom:    4    charge:    1.9515    magn:   -0.0000    constr:    0.0000
     atom:    5    charge:    3.1165    magn:    0.0000    constr:    0.0000
     atom:    6    charge:    1.9487    magn:   -0.0001    constr:    0.0000
     atom:    7    charge:    3.1158    magn:    0.0000    constr:    0.0000
     atom:    8    charge:    1.9458    magn:   -0.0001    constr:    0.0000
     atom:    9    charge:    3.1250    magn:   -0.0001    constr:    0.0000
     atom:   10    charge:    1.9463    magn:    0.0000    constr:    0.0000
     atom:   11    charge:    3.1197    magn:    0.0000    constr:    0.0000
     atom:   12    charge:    1.9515    magn:   -0.0000    constr:    0.0000
     atom:   13    charge:    3.1159    magn:    0.0000    constr:    0.0000
     atom:   14    charge:    1.9598    magn:   -0.0001    constr:    0.0000
     atom:   15    charge:    3.1188    magn:    0.0000    constr:    0.0000
     atom:   16    charge:    1.9462    magn:   -0.0001    constr:    0.0000
     atom:   17    charge:    1.9195    magn:    0.0003    constr:    0.0000
     atom:   18    charge:    3.1239    magn:   -0.0001    constr:    0.0000
     atom:   19    charge:    1.9420    magn:   -0.0000    constr:    0.0000
     atom:   20    charge:    1.9482    magn:    0.0000    constr:    0.0000
     atom:   21    charge:    1.9482    magn:    0.0000    constr:    0.0000
     atom:   22    charge:    3.1196    magn:    0.0000    constr:    0.0000
     atom:   23    charge:    1.9577    magn:   -0.0001    constr:    0.0000
     atom:   24    charge:    1.9390    magn:   -0.0000    constr:    0.0000
     atom:   25    charge:    1.9516    magn:   -0.0000    constr:    0.0000
     atom:   26    charge:    3.1145    magn:    0.0000    constr:    0.0000
     atom:   27    charge:    1.9410    magn:   -0.0000    constr:    0.0000
     atom:   28    charge:    1.9528    magn:   -0.0000    constr:    0.0000
     atom:   29    charge:    1.9487    magn:   -0.0001    constr:    0.0000
     atom:   30    charge:    3.1162    magn:    0.0000    constr:    0.0000
     atom:   31    charge:    1.9459    magn:   -0.0000    constr:    0.0000
     atom:   32    charge:    1.9446    magn:   -0.0001    constr:    0.0000
     atom:   33    charge:    1.9195    magn:    0.0003    constr:    0.0000
     atom:   34    charge:    3.1239    magn:   -0.0001    constr:    0.0000
     atom:   35    charge:    1.9420    magn:   -0.0000    constr:    0.0000
     atom:   36    charge:    1.9482    magn:    0.0000    constr:    0.0000
     atom:   37    charge:    1.9482    magn:    0.0000    constr:    0.0000
     atom:   38    charge:    3.1196    magn:    0.0000    constr:    0.0000
     atom:   39    charge:    1.9561    magn:   -0.0001    constr:    0.0000
     atom:   40    charge:    1.9394    magn:   -0.0000    constr:    0.0000
     atom:   41    charge:    1.9516    magn:   -0.0000    constr:    0.0000
     atom:   42    charge:    3.1141    magn:    0.0000    constr:    0.0000
     atom:   43    charge:    1.9424    magn:   -0.0000    constr:    0.0000
     atom:   44    charge:    1.9529    magn:   -0.0000    constr:    0.0000
     atom:   45    charge:    1.9480    magn:   -0.0001    constr:    0.0000
     atom:   46    charge:    3.1170    magn:    0.0000    constr:    0.0000
     atom:   47    charge:    1.9440    magn:   -0.0000    constr:    0.0000
     atom:   48    charge:    1.9461    magn:   -0.0001    constr:    0.0000
     atom:   49    charge:    0.6579    magn:   -0.0000    constr:    0.0000
     atom:   50    charge:    1.9655    magn:   -0.0000    constr:    0.0000
     atom:   51    charge:    0.4025    magn:    0.0000    constr:    0.0000
     atom:   52    charge:    0.4004    magn:    0.0000    constr:    0.0000
     atom:   53    charge:    0.4047    magn:    0.0000    constr:    0.0000
     atom:   54    charge:    0.4030    magn:    0.0000    constr:    0.0000

     total cpu time spent up to now is     1240.1 secs

     total energy              =   -3021.41954044 Ry
     Harris-Foulkes estimate   =   -3021.42115342 Ry
     estimated scf accuracy    <       0.00394768 Ry

     total magnetization       =     0.00 Bohr mag/cell
     absolute magnetization    =     0.00 Bohr mag/cell

     iteration #  4     ecut=    40.42 Ry     beta=0.10
     Davidson diagonalization with overlap
     ethr =  9.92E-07,  avg # of iterations =  5.6

     negative rho (up, down):  1.211E-02 1.211E-02
 
     Magnetic moment per site:
     atom:    1    charge:    3.1250    magn:   -0.0001    constr:    0.0000
     atom:    2    charge:    1.9463    magn:    0.0000    constr:    0.0000
     atom:    3    charge:    3.1198    magn:    0.0000    constr:    0.0000
     atom:    4    charge:    1.9515    magn:   -0.0000    constr:    0.0000
     atom:    5    charge:    3.1166    magn:    0.0000    constr:    0.0000
     atom:    6    charge:    1.9488    magn:   -0.0000    constr:    0.0000
     atom:    7    charge:    3.1157    magn:    0.0000    constr:    0.0000
     atom:    8    charge:    1.9458    magn:   -0.0000    constr:    0.0000
     atom:    9    charge:    3.1250    magn:   -0.0001    constr:    0.0000
     atom:   10    charge:    1.9463    magn:    0.0000    constr:    0.0000
     atom:   11    charge:    3.1197    magn:    0.0000    constr:    0.0000
     atom:   12    charge:    1.9515    magn:   -0.0000    constr:    0.0000
     atom:   13    charge:    3.1158    magn:    0.0000    constr:    0.0000
     atom:   14    charge:    1.9598    magn:   -0.0001    constr:    0.0000
     atom:   15    charge:    3.1188    magn:    0.0000    constr:    0.0000
     atom:   16    charge:    1.9462    magn:   -0.0000    constr:    0.0000
     atom:   17    charge:    1.9195    magn:    0.0003    constr:    0.0000
     atom:   18    charge:    3.1239    magn:   -0.0000    constr:    0.0000
     atom:   19    charge:    1.9420    magn:   -0.0000    constr:    0.0000
     atom:   20    charge:    1.9482    magn:    0.0000    constr:    0.0000
     atom:   21    charge:    1.9482    magn:    0.0000    constr:    0.0000
     atom:   22    charge:    3.1196    magn:    0.0000    constr:    0.0000
     atom:   23    charge:    1.9577    magn:   -0.0000    constr:    0.0000
     atom:   24    charge:    1.9390    magn:   -0.0000    constr:    0.0000
     atom:   25    charge:    1.9516    magn:   -0.0000    constr:    0.0000
     atom:   26    charge:    3.1145    magn:    0.0000    constr:    0.0000
     atom:   27    charge:    1.9410    magn:   -0.0000    constr:    0.0000
     atom:   28    charge:    1.9528    magn:   -0.0000    constr:    0.0000
     atom:   29    charge:    1.9487    magn:   -0.0000    constr:    0.0000
     atom:   30    charge:    3.1165    magn:    0.0000    constr:    0.0000
     atom:   31    charge:    1.9458    magn:   -0.0000    constr:    0.0000
     atom:   32    charge:    1.9446    magn:   -0.0000    constr:    0.0000
     atom:   33    charge:    1.9195    magn:    0.0003    constr:    0.0000
     atom:   34    charge:    3.1239    magn:   -0.0000    constr:    0.0000
     atom:   35    charge:    1.9420    magn:   -0.0000    constr:    0.0000
     atom:   36    charge:    1.9482    magn:    0.0000    constr:    0.0000
     atom:   37    charge:    1.9482    magn:    0.0000    constr:    0.0000
     atom:   38    charge:    3.1196    magn:    0.0000    constr:    0.0000
     atom:   39    charge:    1.9561    magn:   -0.0000    constr:    0.0000
     atom:   40    charge:    1.9394    magn:   -0.0000    constr:    0.0000
     atom:   41    charge:    1.9516    magn:   -0.0000    constr:    0.0000
     atom:   42    charge:    3.1141    magn:    0.0000    constr:    0.0000
     atom:   43    charge:    1.9424    magn:   -0.0000    constr:    0.0000
     atom:   44    charge:    1.9529    magn:   -0.0000    constr:    0.0000
     atom:   45    charge:    1.9480    magn:   -0.0000    constr:    0.0000
     atom:   46    charge:    3.1167    magn:    0.0000    constr:    0.0000
     atom:   47    charge:    1.9442    magn:   -0.0000    constr:    0.0000
     atom:   48    charge:    1.9462    magn:   -0.0000    constr:    0.0000
     atom:   49    charge:    0.6580    magn:   -0.0000    constr:    0.0000
     atom:   50    charge:    1.9655    magn:   -0.0000    constr:    0.0000
     atom:   51    charge:    0.4025    magn:    0.0000    constr:    0.0000
     atom:   52    charge:    0.4004    magn:    0.0000    constr:    0.0000
     atom:   53    charge:    0.4044    magn:    0.0000    constr:    0.0000
     atom:   54    charge:    0.4033    magn:    0.0000    constr:    0.0000

     total cpu time spent up to now is     1487.4 secs

     total energy              =   -3021.41995678 Ry
     Harris-Foulkes estimate   =   -3021.42003134 Ry
     estimated scf accuracy    <       0.00035956 Ry

     total magnetization       =     0.00 Bohr mag/cell
     absolute magnetization    =     0.00 Bohr mag/cell

     iteration #  5     ecut=    40.42 Ry     beta=0.10
     Davidson diagonalization with overlap
     ethr =  9.03E-08,  avg # of iterations =  2.6

     negative rho (up, down):  1.211E-02 1.211E-02
 
     Magnetic moment per site:
     atom:    1    charge:    3.1250    magn:   -0.0001    constr:    0.0000
     atom:    2    charge:    1.9463    magn:    0.0000    constr:    0.0000
     atom:    3    charge:    3.1198    magn:    0.0000    constr:    0.0000
     atom:    4    charge:    1.9515    magn:   -0.0000    constr:    0.0000
     atom:    5    charge:    3.1166    magn:    0.0000    constr:    0.0000
     atom:    6    charge:    1.9488    magn:   -0.0000    constr:    0.0000
     atom:    7    charge:    3.1157    magn:    0.0000    constr:    0.0000
     atom:    8    charge:    1.9460    magn:   -0.0000    constr:    0.0000
     atom:    9    charge:    3.1250    magn:   -0.0001    constr:    0.0000
     atom:   10    charge:    1.9463    magn:    0.0000    constr:    0.0000
     atom:   11    charge:    3.1197    magn:    0.0000    constr:    0.0000
     atom:   12    charge:    1.9515    magn:   -0.0000    constr:    0.0000
     atom:   13    charge:    3.1158    magn:    0.0000    constr:    0.0000
     atom:   14    charge:    1.9598    magn:   -0.0000    constr:    0.0000
     atom:   15    charge:    3.1188    magn:    0.0000    constr:    0.0000
     atom:   16    charge:    1.9460    magn:   -0.0000    constr:    0.0000
     atom:   17    charge:    1.9195    magn:    0.0002    constr:    0.0000
     atom:   18    charge:    3.1239    magn:   -0.0000    constr:    0.0000
     atom:   19    charge:    1.9420    magn:   -0.0000    constr:    0.0000
     atom:   20    charge:    1.9482    magn:    0.0000    constr:    0.0000
     atom:   21    charge:    1.9482    magn:    0.0000    constr:    0.0000
     atom:   22    charge:    3.1196    magn:    0.0000    constr:    0.0000
     atom:   23    charge:    1.9577    magn:   -0.0000    constr:    0.0000
     atom:   24    charge:    1.9390    magn:   -0.0000    constr:    0.0000
     atom:   25    charge:    1.9516    magn:   -0.0000    constr:    0.0000
     atom:   26    charge:    3.1145    magn:    0.0000    constr:    0.0000
     atom:   27    charge:    1.9409    magn:   -0.0000    constr:    0.0000
     atom:   28    charge:    1.9529    magn:   -0.0000    constr:    0.0000
     atom:   29    charge:    1.9487    magn:   -0.0000    constr:    0.0000
     atom:   30    charge:    3.1167    magn:    0.0000    constr:    0.0000
     atom:   31    charge:    1.9458    magn:   -0.0000    constr:    0.0000
     atom:   32    charge:    1.9447    magn:   -0.0000    constr:    0.0000
     atom:   33    charge:    1.9195    magn:    0.0002    constr:    0.0000
     atom:   34    charge:    3.1239    magn:   -0.0000    constr:    0.0000
     atom:   35    charge:    1.9420    magn:   -0.0000    constr:    0.0000
     atom:   36    charge:    1.9482    magn:    0.0000    constr:    0.0000
     atom:   37    charge:    1.9482    magn:    0.0000    constr:    0.0000
     atom:   38    charge:    3.1196    magn:    0.0000    constr:    0.0000
     atom:   39    charge:    1.9561    magn:   -0.0000    constr:    0.0000
     atom:   40    charge:    1.9394    magn:   -0.0000    constr:    0.0000
     atom:   41    charge:    1.9516    magn:   -0.0000    constr:    0.0000
     atom:   42    charge:    3.1141    magn:    0.0000    constr:    0.0000
     atom:   43    charge:    1.9424    magn:   -0.0000    constr:    0.0000
     atom:   44    charge:    1.9528    magn:   -0.0000    constr:    0.0000
     atom:   45    charge:    1.9480    magn:   -0.0000    constr:    0.0000
     atom:   46    charge:    3.1165    magn:    0.0000    constr:    0.0000
     atom:   47    charge:    1.9442    magn:   -0.0000    constr:    0.0000
     atom:   48    charge:    1.9460    magn:   -0.0000    constr:    0.0000
     atom:   49    charge:    0.6581    magn:   -0.0000    constr:    0.0000
     atom:   50    charge:    1.9654    magn:   -0.0000    constr:    0.0000
     atom:   51    charge:    0.4025    magn:    0.0000    constr:    0.0000
     atom:   52    charge:    0.4005    magn:    0.0000    constr:    0.0000
     atom:   53    charge:    0.4040    magn:    0.0000    constr:    0.0000
     atom:   54    charge:    0.4037    magn:    0.0000    constr:    0.0000

     total cpu time spent up to now is     1687.1 secs

     total energy              =   -3021.41993631 Ry
     Harris-Foulkes estimate   =   -3021.41997992 Ry
     estimated scf accuracy    <       0.00017146 Ry

     total magnetization       =     0.00 Bohr mag/cell
     absolute magnetization    =     0.00 Bohr mag/cell

     iteration #  6     ecut=    40.42 Ry     beta=0.10
     Davidson diagonalization with overlap
     ethr =  4.31E-08,  avg # of iterations =  2.9

     negative rho (up, down):  1.211E-02 1.211E-02
 
     Magnetic moment per site:
     atom:    1    charge:    3.1250    magn:   -0.0001    constr:    0.0000
     atom:    2    charge:    1.9463    magn:    0.0000    constr:    0.0000
     atom:    3    charge:    3.1198    magn:    0.0000    constr:    0.0000
     atom:    4    charge:    1.9515    magn:   -0.0000    constr:    0.0000
     atom:    5    charge:    3.1166    magn:    0.0000    constr:    0.0000
     atom:    6    charge:    1.9488    magn:   -0.0000    constr:    0.0000
     atom:    7    charge:    3.1157    magn:    0.0000    constr:    0.0000
     atom:    8    charge:    1.9464    magn:   -0.0000    constr:    0.0000
     atom:    9    charge:    3.1250    magn:   -0.0001    constr:    0.0000
     atom:   10    charge:    1.9463    magn:    0.0000    constr:    0.0000
     atom:   11    charge:    3.1197    magn:    0.0000    constr:    0.0000
     atom:   12    charge:    1.9515    magn:   -0.0000    constr:    0.0000
     atom:   13    charge:    3.1158    magn:    0.0000    constr:    0.0000
     atom:   14    charge:    1.9598    magn:   -0.0000    constr:    0.0000
     atom:   15    charge:    3.1188    magn:    0.0000    constr:    0.0000
     atom:   16    charge:    1.9456    magn:   -0.0000    constr:    0.0000
     atom:   17    charge:    1.9195    magn:    0.0002    constr:    0.0000
     atom:   18    charge:    3.1239    magn:   -0.0000    constr:    0.0000
     atom:   19    charge:    1.9420    magn:   -0.0000    constr:    0.0000
     atom:   20    charge:    1.9482    magn:    0.0000    constr:    0.0000
     atom:   21    charge:    1.9482    magn:    0.0000    constr:    0.0000
     atom:   22    charge:    3.1196    magn:    0.0000    constr:    0.0000
     atom:   23    charge:    1.9577    magn:   -0.0000    constr:    0.0000
     atom:   24    charge:    1.9390    magn:   -0.0000    constr:    0.0000
     atom:   25    charge:    1.9516    magn:   -0.0000    constr:    0.0000
     atom:   26    charge:    3.1145    magn:    0.0000    constr:    0.0000
     atom:   27    charge:    1.9409    magn:   -0.0000    constr:    0.0000
     atom:   28    charge:    1.9528    magn:   -0.0000    constr:    0.0000
     atom:   29    charge:    1.9487    magn:   -0.0000    constr:    0.0000
     atom:   30    charge:    3.1167    magn:    0.0000    constr:    0.0000
     atom:   31    charge:    1.9458    magn:   -0.0000    constr:    0.0000
     atom:   32    charge:    1.9452    magn:   -0.0000    constr:    0.0000
     atom:   33    charge:    1.9195    magn:    0.0002    constr:    0.0000
     atom:   34    charge:    3.1239    magn:   -0.0000    constr:    0.0000
     atom:   35    charge:    1.9420    magn:   -0.0000    constr:    0.0000
     atom:   36    charge:    1.9482    magn:    0.0000    constr:    0.0000
     atom:   37    charge:    1.9482    magn:    0.0000    constr:    0.0000
     atom:   38    charge:    3.1196    magn:    0.0000    constr:    0.0000
     atom:   39    charge:    1.9561    magn:   -0.0000    constr:    0.0000
     atom:   40    charge:    1.9394    magn:   -0.0000    constr:    0.0000
     atom:   41    charge:    1.9516    magn:   -0.0000    constr:    0.0000
     atom:   42    charge:    3.1141    magn:    0.0000    constr:    0.0000
     atom:   43    charge:    1.9424    magn:   -0.0000    constr:    0.0000
     atom:   44    charge:    1.9529    magn:   -0.0000    constr:    0.0000
     atom:   45    charge:    1.9480    magn:   -0.0000    constr:    0.0000
     atom:   46    charge:    3.1165    magn:    0.0000    constr:    0.0000
     atom:   47    charge:    1.9441    magn:   -0.0000    constr:    0.0000
     atom:   48    charge:    1.9456    magn:   -0.0000    constr:    0.0000
     atom:   49    charge:    0.6581    magn:   -0.0000    constr:    0.0000
     atom:   50    charge:    1.9656    magn:   -0.0000    constr:    0.0000
     atom:   51    charge:    0.4025    magn:    0.0000    constr:    0.0000
     atom:   52    charge:    0.4006    magn:    0.0000    constr:    0.0000
     atom:   53    charge:    0.4037    magn:    0.0000    constr:    0.0000
     atom:   54    charge:    0.4040    magn:    0.0000    constr:    0.0000

     total cpu time spent up to now is     1890.1 secs

     total energy              =   -3021.41992904 Ry
     Harris-Foulkes estimate   =   -3021.41994521 Ry
     estimated scf accuracy    <       0.00006277 Ry

     total magnetization       =     0.00 Bohr mag/cell
     absolute magnetization    =     0.00 Bohr mag/cell

     iteration #  7     ecut=    40.42 Ry     beta=0.10
     Davidson diagonalization with overlap
     ethr =  1.58E-08,  avg # of iterations =  3.2

     negative rho (up, down):  1.210E-02 1.210E-02
 
     Magnetic moment per site:
     atom:    1    charge:    3.1250    magn:   -0.0001    constr:    0.0000
     atom:    2    charge:    1.9463    magn:    0.0000    constr:    0.0000
     atom:    3    charge:    3.1198    magn:    0.0000    constr:    0.0000
     atom:    4    charge:    1.9515    magn:   -0.0000    constr:    0.0000
     atom:    5    charge:    3.1166    magn:    0.0000    constr:    0.0000
     atom:    6    charge:    1.9488    magn:   -0.0000    constr:    0.0000
     atom:    7    charge:    3.1157    magn:    0.0000    constr:    0.0000
     atom:    8    charge:    1.9464    magn:   -0.0000    constr:    0.0000
     atom:    9    charge:    3.1250    magn:   -0.0001    constr:    0.0000
     atom:   10    charge:    1.9463    magn:    0.0000    constr:    0.0000
     atom:   11    charge:    3.1197    magn:    0.0000    constr:    0.0000
     atom:   12    charge:    1.9515    magn:   -0.0000    constr:    0.0000
     atom:   13    charge:    3.1158    magn:    0.0000    constr:    0.0000
     atom:   14    charge:    1.9598    magn:   -0.0000    constr:    0.0000
     atom:   15    charge:    3.1188    magn:    0.0000    constr:    0.0000
     atom:   16    charge:    1.9456    magn:   -0.0000    constr:    0.0000
     atom:   17    charge:    1.9195    magn:    0.0001    constr:    0.0000
     atom:   18    charge:    3.1239    magn:   -0.0000    constr:    0.0000
     atom:   19    charge:    1.9420    magn:   -0.0000    constr:    0.0000
     atom:   20    charge:    1.9482    magn:    0.0000    constr:    0.0000
     atom:   21    charge:    1.9482    magn:    0.0000    constr:    0.0000
     atom:   22    charge:    3.1196    magn:    0.0000    constr:    0.0000
     atom:   23    charge:    1.9577    magn:   -0.0000    constr:    0.0000
     atom:   24    charge:    1.9390    magn:   -0.0000    constr:    0.0000
     atom:   25    charge:    1.9516    magn:   -0.0000    constr:    0.0000
     atom:   26    charge:    3.1145    magn:    0.0000    constr:    0.0000
     atom:   27    charge:    1.9409    magn:   -0.0000    constr:    0.0000
     atom:   28    charge:    1.9528    magn:   -0.0000    constr:    0.0000
     atom:   29    charge:    1.9487    magn:   -0.0000    constr:    0.0000
     atom:   30    charge:    3.1167    magn:    0.0000    constr:    0.0000
     atom:   31    charge:    1.9458    magn:   -0.0000    constr:    0.0000
     atom:   32    charge:    1.9452    magn:   -0.0000    constr:    0.0000
     atom:   33    charge:    1.9195    magn:    0.0001    constr:    0.0000
     atom:   34    charge:    3.1239    magn:   -0.0000    constr:    0.0000
     atom:   35    charge:    1.9420    magn:   -0.0000    constr:    0.0000
     atom:   36    charge:    1.9482    magn:    0.0000    constr:    0.0000
     atom:   37    charge:    1.9482    magn:    0.0000    constr:    0.0000
     atom:   38    charge:    3.1196    magn:    0.0000    constr:    0.0000
     atom:   39    charge:    1.9561    magn:   -0.0000    constr:    0.0000
     atom:   40    charge:    1.9394    magn:   -0.0000    constr:    0.0000
     atom:   41    charge:    1.9516    magn:   -0.0000    constr:    0.0000
     atom:   42    charge:    3.1141    magn:    0.0000    constr:    0.0000
     atom:   43    charge:    1.9424    magn:   -0.0000    constr:    0.0000
     atom:   44    charge:    1.9529    magn:   -0.0000    constr:    0.0000
     atom:   45    charge:    1.9480    magn:   -0.0000    constr:    0.0000
     atom:   46    charge:    3.1164    magn:    0.0000    constr:    0.0000
     atom:   47    charge:    1.9442    magn:   -0.0000    constr:    0.0000
     atom:   48    charge:    1.9455    magn:   -0.0000    constr:    0.0000
     atom:   49    charge:    0.6581    magn:   -0.0000    constr:    0.0000
     atom:   50    charge:    1.9657    magn:   -0.0000    constr:    0.0000
     atom:   51    charge:    0.4025    magn:    0.0000    constr:    0.0000
     atom:   52    charge:    0.4006    magn:    0.0000    constr:    0.0000
     atom:   53    charge:    0.4037    magn:    0.0000    constr:    0.0000
     atom:   54    charge:    0.4040    magn:    0.0000    constr:    0.0000

     total cpu time spent up to now is     2106.3 secs

     total energy              =   -3021.41993682 Ry
     Harris-Foulkes estimate   =   -3021.41993612 Ry
     estimated scf accuracy    <       0.00000660 Ry

     total magnetization       =     0.00 Bohr mag/cell
     absolute magnetization    =     0.00 Bohr mag/cell

     iteration #  8     ecut=    40.42 Ry     beta=0.10
     Davidson diagonalization with overlap
     ethr =  1.66E-09,  avg # of iterations =  2.0

     negative rho (up, down):  1.210E-02 1.210E-02
 
     Magnetic moment per site:
     atom:    1    charge:    3.1250    magn:   -0.0000    constr:    0.0000
     atom:    2    charge:    1.9463    magn:    0.0000    constr:    0.0000
     atom:    3    charge:    3.1198    magn:    0.0000    constr:    0.0000
     atom:    4    charge:    1.9515    magn:   -0.0000    constr:    0.0000
     atom:    5    charge:    3.1166    magn:    0.0000    constr:    0.0000
     atom:    6    charge:    1.9488    magn:   -0.0000    constr:    0.0000
     atom:    7    charge:    3.1157    magn:    0.0000    constr:    0.0000
     atom:    8    charge:    1.9463    magn:   -0.0000    constr:    0.0000
     atom:    9    charge:    3.1250    magn:   -0.0000    constr:    0.0000
     atom:   10    charge:    1.9463    magn:    0.0000    constr:    0.0000
     atom:   11    charge:    3.1197    magn:    0.0000    constr:    0.0000
     atom:   12    charge:    1.9515    magn:   -0.0000    constr:    0.0000
     atom:   13    charge:    3.1158    magn:    0.0000    constr:    0.0000
     atom:   14    charge:    1.9598    magn:   -0.0000    constr:    0.0000
     atom:   15    charge:    3.1188    magn:    0.0000    constr:    0.0000
     atom:   16    charge:    1.9457    magn:   -0.0000    constr:    0.0000
     atom:   17    charge:    1.9195    magn:    0.0001    constr:    0.0000
     atom:   18    charge:    3.1239    magn:   -0.0000    constr:    0.0000
     atom:   19    charge:    1.9420    magn:   -0.0000    constr:    0.0000
     atom:   20    charge:    1.9482    magn:    0.0000    constr:    0.0000
     atom:   21    charge:    1.9482    magn:    0.0000    constr:    0.0000
     atom:   22    charge:    3.1196    magn:    0.0000    constr:    0.0000
     atom:   23    charge:    1.9577    magn:   -0.0000    constr:    0.0000
     atom:   24    charge:    1.9390    magn:   -0.0000    constr:    0.0000
     atom:   25    charge:    1.9516    magn:   -0.0000    constr:    0.0000
     atom:   26    charge:    3.1145    magn:    0.0000    constr:    0.0000
     atom:   27    charge:    1.9409    magn:   -0.0000    constr:    0.0000
     atom:   28    charge:    1.9528    magn:   -0.0000    constr:    0.0000
     atom:   29    charge:    1.9487    magn:   -0.0000    constr:    0.0000
     atom:   30    charge:    3.1167    magn:    0.0000    constr:    0.0000
     atom:   31    charge:    1.9458    magn:   -0.0000    constr:    0.0000
     atom:   32    charge:    1.9452    magn:   -0.0000    constr:    0.0000
     atom:   33    charge:    1.9195    magn:    0.0001    constr:    0.0000
     atom:   34    charge:    3.1239    magn:   -0.0000    constr:    0.0000
     atom:   35    charge:    1.9420    magn:   -0.0000    constr:    0.0000
     atom:   36    charge:    1.9482    magn:    0.0000    constr:    0.0000
     atom:   37    charge:    1.9482    magn:    0.0000    constr:    0.0000
     atom:   38    charge:    3.1196    magn:    0.0000    constr:    0.0000
     atom:   39    charge:    1.9561    magn:   -0.0000    constr:    0.0000
     atom:   40    charge:    1.9394    magn:   -0.0000    constr:    0.0000
     atom:   41    charge:    1.9516    magn:   -0.0000    constr:    0.0000
     atom:   42    charge:    3.1141    magn:    0.0000    constr:    0.0000
     atom:   43    charge:    1.9424    magn:   -0.0000    constr:    0.0000
     atom:   44    charge:    1.9529    magn:   -0.0000    constr:    0.0000
     atom:   45    charge:    1.9480    magn:   -0.0000    constr:    0.0000
     atom:   46    charge:    3.1165    magn:    0.0000    constr:    0.0000
     atom:   47    charge:    1.9442    magn:   -0.0000    constr:    0.0000
     atom:   48    charge:    1.9455    magn:   -0.0000    constr:    0.0000
     atom:   49    charge:    0.6580    magn:   -0.0000    constr:    0.0000
     atom:   50    charge:    1.9659    magn:   -0.0000    constr:    0.0000
     atom:   51    charge:    0.4025    magn:    0.0000    constr:    0.0000
     atom:   52    charge:    0.4006    magn:    0.0000    constr:    0.0000
     atom:   53    charge:    0.4038    magn:    0.0000    constr:    0.0000
     atom:   54    charge:    0.4039    magn:    0.0000    constr:    0.0000

     total cpu time spent up to now is     2296.4 secs

     total energy              =   -3021.41993712 Ry
     Harris-Foulkes estimate   =   -3021.41993708 Ry
     estimated scf accuracy    <       0.00000309 Ry

     total magnetization       =     0.00 Bohr mag/cell
     absolute magnetization    =     0.00 Bohr mag/cell

     iteration #  9     ecut=    40.42 Ry     beta=0.10
     Davidson diagonalization with overlap
     ethr =  7.75E-10,  avg # of iterations =  3.0

     negative rho (up, down):  1.209E-02 1.209E-02
 
     Magnetic moment per site:
     atom:    1    charge:    3.1250    magn:   -0.0000    constr:    0.0000
     atom:    2    charge:    1.9463    magn:    0.0000    constr:    0.0000
     atom:    3    charge:    3.1198    magn:    0.0000    constr:    0.0000
     atom:    4    charge:    1.9515    magn:   -0.0000    constr:    0.0000
     atom:    5    charge:    3.1166    magn:    0.0000    constr:    0.0000
     atom:    6    charge:    1.9488    magn:   -0.0000    constr:    0.0000
     atom:    7    charge:    3.1157    magn:    0.0000    constr:    0.0000
     atom:    8    charge:    1.9464    magn:   -0.0000    constr:    0.0000
     atom:    9    charge:    3.1250    magn:   -0.0000    constr:    0.0000
     atom:   10    charge:    1.9463    magn:    0.0000    constr:    0.0000
     atom:   11    charge:    3.1197    magn:    0.0000    constr:    0.0000
     atom:   12    charge:    1.9515    magn:   -0.0000    constr:    0.0000
     atom:   13    charge:    3.1158    magn:    0.0000    constr:    0.0000
     atom:   14    charge:    1.9598    magn:   -0.0000    constr:    0.0000
     atom:   15    charge:    3.1188    magn:    0.0000    constr:    0.0000
     atom:   16    charge:    1.9456    magn:   -0.0000    constr:    0.0000
     atom:   17    charge:    1.9195    magn:    0.0000    constr:    0.0000
     atom:   18    charge:    3.1239    magn:   -0.0000    constr:    0.0000
     atom:   19    charge:    1.9420    magn:   -0.0000    constr:    0.0000
     atom:   20    charge:    1.9482    magn:    0.0000    constr:    0.0000
     atom:   21    charge:    1.9482    magn:    0.0000    constr:    0.0000
     atom:   22    charge:    3.1196    magn:    0.0000    constr:    0.0000
     atom:   23    charge:    1.9577    magn:   -0.0000    constr:    0.0000
     atom:   24    charge:    1.9390    magn:   -0.0000    constr:    0.0000
     atom:   25    charge:    1.9516    magn:   -0.0000    constr:    0.0000
     atom:   26    charge:    3.1145    magn:    0.0000    constr:    0.0000
     atom:   27    charge:    1.9410    magn:   -0.0000    constr:    0.0000
     atom:   28    charge:    1.9529    magn:   -0.0000    constr:    0.0000
     atom:   29    charge:    1.9487    magn:   -0.0000    constr:    0.0000
     atom:   30    charge:    3.1167    magn:    0.0000    constr:    0.0000
     atom:   31    charge:    1.9458    magn:   -0.0000    constr:    0.0000
     atom:   32    charge:    1.9451    magn:   -0.0000    constr:    0.0000
     atom:   33    charge:    1.9195    magn:    0.0000    constr:    0.0000
     atom:   34    charge:    3.1239    magn:   -0.0000    constr:    0.0000
     atom:   35    charge:    1.9420    magn:   -0.0000    constr:    0.0000
     atom:   36    charge:    1.9482    magn:    0.0000    constr:    0.0000
     atom:   37    charge:    1.9482    magn:    0.0000    constr:    0.0000
     atom:   38    charge:    3.1196    magn:    0.0000    constr:    0.0000
     atom:   39    charge:    1.9561    magn:   -0.0000    constr:    0.0000
     atom:   40    charge:    1.9394    magn:   -0.0000    constr:    0.0000
     atom:   41    charge:    1.9516    magn:   -0.0000    constr:    0.0000
     atom:   42    charge:    3.1141    magn:    0.0000    constr:    0.0000
     atom:   43    charge:    1.9424    magn:   -0.0000    constr:    0.0000
     atom:   44    charge:    1.9528    magn:   -0.0000    constr:    0.0000
     atom:   45    charge:    1.9479    magn:   -0.0000    constr:    0.0000
     atom:   46    charge:    3.1165    magn:    0.0000    constr:    0.0000
     atom:   47    charge:    1.9441    magn:   -0.0000    constr:    0.0000
     atom:   48    charge:    1.9456    magn:   -0.0000    constr:    0.0000
     atom:   49    charge:    0.6581    magn:   -0.0000    constr:    0.0000
     atom:   50    charge:    1.9656    magn:   -0.0000    constr:    0.0000
     atom:   51    charge:    0.4025    magn:    0.0000    constr:    0.0000
     atom:   52    charge:    0.4006    magn:    0.0000    constr:    0.0000
     atom:   53    charge:    0.4039    magn:    0.0000    constr:    0.0000
     atom:   54    charge:    0.4038    magn:    0.0000    constr:    0.0000

     total cpu time spent up to now is     2503.7 secs

     End of self-consistent calculation

 ------ SPIN UP ------------


          k = 0.0000 0.0000 0.0000 ( 34665 PWs)   bands (ev):

   -57.6989 -57.6639 -57.3178 -57.2815 -57.2328 -57.1099 -57.0735 -57.0726
   -57.0508 -57.0378 -56.9902 -56.9547 -56.7307 -56.6933 -56.1494 -56.1142
   -34.1350 -33.9811 -33.9526 -33.8999 -33.8701 -33.8056 -33.7451 -33.6535
   -33.6185 -33.6053 -33.5678 -33.5407 -33.5187 -33.5078 -33.4898 -33.4857
   -33.4649 -33.4544 -33.4311 -33.3989 -33.3243 -33.2921 -33.2719 -33.2626
   -33.2549 -33.2543 -33.2433 -33.2432 -33.2372 -33.2297 -33.2293 -33.2126
   -33.1804 -33.1801 -33.1748 -33.1409 -33.1184 -32.9968 -32.9786 -32.9578
   -32.9083 -32.8055 -32.5672 -32.5017 -32.4757 -32.3714 -32.2798 -32.1714
   -20.2962 -18.0127 -17.8415 -17.5571 -17.4620 -17.3728 -17.2520 -17.0777
   -17.0664 -16.9746 -16.9389 -16.8843 -16.7841 -16.7779 -16.7295 -16.7075
   -16.7036 -16.6627 -16.6112 -16.6047 -16.5361 -16.4157 -16.4030 -16.3982
   -16.3216 -16.2679 -16.1947 -16.1675 -16.1500 -15.9796 -15.9297 -14.7338
   -14.6501 -11.4629  -7.2371  -5.4730  -5.3956  -5.3157  -5.2061  -5.1975
    -5.1459  -5.1260  -4.8393  -4.8169  -4.4721  -4.4430  -4.3594  -4.3555
    -4.3219  -4.2327  -4.0900  -4.0612  -4.0553  -4.0179  -3.9994  -3.9913
    -3.9607  -3.9524  -3.9513  -3.8401  -3.7886  -3.7659  -3.7368  -3.7189
    -3.6326  -3.6171  -3.5872  -3.5779  -3.5200  -3.5080  -3.4087  -3.3940
    -3.3733  -3.2728  -3.2370  -3.1891  -3.0136  -2.9357  -2.8789  -2.8342
    -2.6951  -2.6075  -2.5901  -2.5802  -2.5751  -2.5689  -2.4318  -2.4145
    -2.3362  -2.2693  -2.2475  -2.2049  -2.2004  -2.1659  -2.1386  -2.0931
    -2.0482  -2.0278  -2.0203  -1.8888  -1.8652  -1.7601  -1.7356  -1.6243
    -1.5431  -1.5412  -1.4899  -1.4812  -1.4626  -1.4235  -1.3233  -1.3095
    -1.3025  -1.2800  -1.2429  -1.1359  -1.0867  -1.0829  -1.0674  -1.0195
    -0.9544  -0.9158  -0.8207  -0.7648  -0.6105  -0.5875  -0.5693  -0.4793
    -0.3765  -0.2422  -0.0848  -0.0266   0.1313   0.2482   0.2618   1.6426
     1.6750   1.9856   2.0020   2.0653   2.0952   2.2049   2.2438   2.2869
     2.4299   2.4972   2.5259   2.5307   2.5420   2.6310   2.6489   2.6572
     2.7152   2.7995   2.8270   2.8389   2.9109   2.9996   3.0333   3.0993
     3.1052   3.1140   3.1610   3.2021   3.2081   3.2265   3.2399   3.2514
     3.2606   3.2888   3.3968   3.4316   3.4567   3.4664   3.5284   3.5856
     3.6531   3.6949   3.8078   3.9812   4.0162   4.0917   4.1799   4.3200
     4.3386   4.3918   4.5861   4.5994   4.8104   4.8387   5.0870   5.1668
     5.2456   5.3307   5.4788   5.5175   5.5276   5.5931   5.6779   5.7117
     5.7998   5.8652   5.8766   5.8864   5.9546   6.0387   6.0480   6.0721
     6.1445   6.2291   6.2433   6.2970   6.3781   6.5818   6.6362   6.7557
     6.8411   7.0088   7.0392   7.1617   7.3024   7.5785   7.9090   8.2530
     8.3330   8.6767   8.7946   8.8721   8.9388   9.0080   9.1761   9.2568
     9.3521   9.3809   9.5310

          k = 0.0000 0.0280 0.0000 ( 34717 PWs)   bands (ev):

   -57.6965 -57.6663 -57.3154 -57.2840 -57.2324 -57.1076 -57.0756 -57.0705
   -57.0512 -57.0402 -56.9878 -56.9571 -56.7283 -56.6957 -56.1471 -56.1165
   -34.1096 -33.9791 -33.9544 -33.8937 -33.8442 -33.8121 -33.7721 -33.6308
   -33.6117 -33.5803 -33.5425 -33.5378 -33.5207 -33.5008 -33.4928 -33.4843
   -33.4717 -33.4621 -33.4291 -33.3920 -33.3181 -33.2904 -33.2857 -33.2642
   -33.2591 -33.2525 -33.2505 -33.2398 -33.2381 -33.2363 -33.2359 -33.2177
   -33.2027 -33.1853 -33.1772 -33.1449 -33.1417 -32.9929 -32.9772 -32.9591
   -32.9134 -32.8334 -32.5416 -32.5000 -32.4775 -32.3653 -32.2860 -32.1989
   -20.2960 -17.9509 -17.7838 -17.5041 -17.4098 -17.3292 -17.2253 -17.0915
   -17.0362 -16.9984 -16.9930 -16.8860 -16.8198 -16.7617 -16.7074 -16.6896
   -16.6760 -16.6657 -16.6563 -16.6419 -16.5951 -16.4395 -16.3844 -16.3683
   -16.3482 -16.2975 -16.2118 -16.1741 -16.1538 -16.0104 -15.9667 -14.7439
   -14.6735 -11.4626  -7.2367  -5.4381  -5.3146  -5.2548  -5.2012  -5.1306
    -5.0686  -5.0471  -4.7638  -4.7029  -4.4357  -4.4004  -4.3941  -4.3121
    -4.3014  -4.1600  -4.1242  -4.1140  -4.0917  -4.0707  -4.0329  -4.0303
    -3.9659  -3.9615  -3.9500  -3.8919  -3.8533  -3.8467  -3.8381  -3.7664
    -3.7217  -3.7065  -3.6659  -3.6161  -3.5755  -3.5569  -3.4304  -3.3582
    -3.3144  -3.2355  -3.2038  -3.1042  -2.9345  -2.8712  -2.7468  -2.7249
    -2.6139  -2.6009  -2.5253  -2.5099  -2.4782  -2.4404  -2.4123  -2.4079
    -2.3864  -2.3618  -2.2883  -2.2769  -2.1681  -2.1425  -2.1364  -2.0944
    -2.0221  -1.9981  -1.9536  -1.8781  -1.8111  -1.7650  -1.7073  -1.6821
    -1.6430  -1.6251  -1.5639  -1.5258  -1.4817  -1.4382  -1.4357  -1.3963
    -1.3546  -1.2715  -1.2184  -1.2140  -1.1593  -1.0905  -1.0708  -1.0222
    -1.0090  -0.9047  -0.8676  -0.7909  -0.7613  -0.7067  -0.6082  -0.5912
    -0.3948  -0.2703  -0.0916  -0.0808   0.1462   0.2018   0.2284   1.7289
     1.7749   1.9858   2.0649   2.1304   2.1515   2.2184   2.2741   2.3129
     2.4244   2.4612   2.4990   2.5353   2.5859   2.6030   2.6303   2.6915
     2.7326   2.7705   2.7969   2.9122   2.9224   2.9512   2.9760   3.0100
     3.1110   3.1166   3.1345   3.1749   3.1924   3.2053   3.2581   3.3041
     3.3354   3.3708   3.4069   3.4733   3.5066   3.5518   3.5616   3.6489
     3.6647   3.6856   3.7714   3.9597   4.0341   4.1142   4.1911   4.2862
     4.3232   4.3963   4.5409   4.6891   4.8640   4.9252   5.0908   5.2584
     5.3038   5.3352   5.5372   5.5674   5.6037   5.6244   5.6858   5.7201
     5.7843   5.7925   5.8515   5.8779   5.8989   5.9478   6.0691   6.1224
     6.1494   6.1571   6.1756   6.2068   6.2752   6.5583   6.6029   6.6947
     6.8461   6.9489   6.9809   7.0829   7.2311   7.5825   7.9192   8.0123
     8.0602   8.4559   8.5650   8.8400   8.9090   8.9978   9.0884   9.1341
     9.2725   9.4354   9.4966

          k = 0.0000 0.0560 0.0000 ( 34721 PWs)   bands (ev):

   -57.6902 -57.6727 -57.3089 -57.2906 -57.2316 -57.1015 -57.0817 -57.0641
   -57.0521 -57.0466 -56.9813 -56.9636 -56.7216 -56.7024 -56.1406 -56.1230
   -34.0398 -33.9738 -33.9595 -33.8766 -33.8451 -33.8295 -33.7731 -33.5961
   -33.5731 -33.5720 -33.5349 -33.5274 -33.5065 -33.5042 -33.4769 -33.4724
   -33.4564 -33.4262 -33.4189 -33.3726 -33.3161 -33.3131 -33.3129 -33.3017
   -33.2861 -33.2763 -33.2678 -33.2638 -33.2535 -33.2464 -33.2343 -33.2322
   -33.2102 -33.1983 -33.1707 -33.1652 -33.1265 -32.9879 -32.9736 -32.9625
   -32.9263 -32.9031 -32.4953 -32.4823 -32.4708 -32.3488 -32.3029 -32.2731
   -20.2957 -17.7798 -17.6252 -17.3728 -17.2761 -17.2603 -17.2192 -17.1670
   -17.1363 -16.9627 -16.9533 -16.9188 -16.8739 -16.8198 -16.7886 -16.7257
   -16.7161 -16.6842 -16.6254 -16.5970 -16.5401 -16.5050 -16.4230 -16.3781
   -16.3627 -16.3020 -16.2408 -16.1952 -16.1573 -16.1109 -16.0397 -14.7621
   -14.7241 -11.4618  -7.2358  -5.4056  -5.2129  -5.0765  -5.0380  -4.9245
    -4.8586  -4.8244  -4.5620  -4.5059  -4.4732  -4.4177  -4.4096  -4.3667
    -4.3316  -4.2600  -4.2351  -4.2120  -4.1963  -4.1868  -4.1564  -4.0756
    -4.0579  -4.0060  -3.9875  -3.9689  -3.9307  -3.8914  -3.8566  -3.8179
    -3.7973  -3.7313  -3.6358  -3.5860  -3.4338  -3.4275  -3.3386  -3.2679
    -3.2391  -3.2125  -3.1922  -3.0823  -2.8944  -2.8441  -2.8370  -2.7987
    -2.7220  -2.6685  -2.5480  -2.4732  -2.4443  -2.3224  -2.3161  -2.3112
    -2.3036  -2.2493  -2.2072  -2.1794  -2.1480  -2.1176  -2.0319  -2.0104
    -1.9610  -1.9477  -1.9176  -1.9052  -1.8836  -1.8494  -1.8166  -1.7830
    -1.7450  -1.6935  -1.6253  -1.5422  -1.5275  -1.5100  -1.4561  -1.4201
    -1.3806  -1.3648  -1.3504  -1.2906  -1.2391  -1.2173  -1.1563  -1.1031
    -1.0835  -1.0239  -0.9237  -0.8914  -0.8508  -0.7852  -0.7634  -0.6602
    -0.5872  -0.4635  -0.2423   0.0911   0.1433   0.1784   0.1851   1.8645
     2.0245   2.0974   2.1090   2.2094   2.2342   2.2692   2.3662   2.3889
     2.3957   2.4110   2.4340   2.4759   2.5030   2.5376   2.6740   2.6950
     2.7336   2.7750   2.8300   2.9034   2.9152   2.9379   2.9714   2.9730
     3.0149   3.0983   3.1371   3.1568   3.2499   3.2612   3.2859   3.3291
     3.3679   3.3860   3.4403   3.5370   3.5432   3.6361   3.6767   3.7268
     3.7600   3.8229   3.8577   3.8898   3.9314   4.1302   4.1415   4.1581
     4.3269   4.3753   4.5635   4.9061   5.0154   5.0618   5.1741   5.3781
     5.3816   5.4779   5.5177   5.5493   5.6477   5.7226   5.7238   5.7329
     5.7790   5.7873   5.7990   5.8559   5.8851   5.9465   5.9774   5.9906
     6.0010   6.0543   6.1550   6.1705   6.3073   6.3736   6.4100   6.6150
     6.6604   6.7807   6.8697   7.0420   7.2138   7.3343   7.4440   7.7287
     8.0826   8.2057   8.3417   8.6168   8.8877   8.9908   9.3112   9.3316
     9.4283   9.4415   9.5615

          k = 0.0000-0.0840 0.0000 ( 34678 PWs)   bands (ev):

   -57.6815 -57.6813 -57.3011 -57.2983 -57.2312 -57.0961 -57.0872 -57.0555
   -57.0552 -57.0525 -56.9731 -56.9718 -56.7146 -56.7095 -56.1319 -56.1318
   -33.9667 -33.9665 -33.9432 -33.9431 -33.8532 -33.8530 -33.6862 -33.6623
   -33.5662 -33.5627 -33.5289 -33.5179 -33.5141 -33.4772 -33.4535 -33.4240
   -33.4141 -33.4076 -33.3753 -33.3750 -33.3625 -33.3472 -33.3413 -33.3244
   -33.3228 -33.2850 -33.2782 -33.2760 -33.2692 -33.2672 -33.2328 -33.2310
   -33.2158 -33.2137 -33.1639 -33.1628 -33.0492 -33.0284 -32.9703 -32.9655
   -32.9402 -32.9372 -32.4887 -32.4887 -32.3729 -32.3729 -32.3258 -32.3258
   -20.2956 -17.5691 -17.5056 -17.4104 -17.3902 -17.2294 -17.1756 -17.0662
   -17.0622 -17.0162 -17.0032 -16.9896 -16.8723 -16.8397 -16.8397 -16.8011
   -16.7944 -16.5965 -16.5945 -16.5289 -16.5207 -16.4886 -16.4873 -16.4050
   -16.4027 -16.2631 -16.2609 -16.2013 -16.1973 -16.1322 -16.1019 -14.7608
   -14.7607 -11.4614  -7.2353  -5.3973  -5.2181  -4.7998  -4.7334  -4.7323
    -4.6561  -4.6423  -4.6379  -4.6021  -4.5737  -4.5116  -4.5007  -4.4008
    -4.3735  -4.3395  -4.3377  -4.3087  -4.2956  -4.2804  -4.2751  -4.0550
    -4.0332  -4.0237  -4.0108  -3.9927  -3.9428  -3.8101  -3.7936  -3.7880
    -3.7161  -3.6948  -3.6402  -3.5071  -3.4745  -3.3399  -3.3263  -3.2492
    -3.1388  -3.1166  -3.0441  -3.0195  -2.9631  -2.9270  -2.8044  -2.7886
    -2.6978  -2.6939  -2.5769  -2.5400  -2.5125  -2.4953  -2.4787  -2.4477
    -2.4387  -2.4186  -2.3303  -2.2457  -2.0282  -2.0074  -1.9678  -1.9416
    -1.9273  -1.8292  -1.8226  -1.8090  -1.7820  -1.7451  -1.7312  -1.7002
    -1.6649  -1.6410  -1.6140  -1.5586  -1.5157  -1.4879  -1.4815  -1.4540
    -1.4253  -1.4177  -1.4101  -1.3819  -1.3597  -1.3256  -1.2213  -1.1882
    -1.1013  -1.0732  -1.0108  -0.9781  -0.9707  -0.9602  -0.9443  -0.5240
    -0.5196  -0.4571  -0.4431   0.1434   0.1435   0.1861   0.1878   2.0390
     2.0421   2.2182   2.2198   2.2206   2.2366   2.2845   2.3396   2.3470
     2.3470   2.3722   2.3829   2.5274   2.5537   2.5547   2.6009   2.6641
     2.7149   2.7368   2.7498   2.8913   2.9224   2.9896   2.9972   3.0571
     3.0582   3.1018   3.1126   3.1799   3.2178   3.2331   3.2458   3.4035
     3.4260   3.4371   3.4396   3.4727   3.4835   3.7249   3.7655   3.8040
     3.8075   3.8319   3.9088   3.9311   3.9685   4.0733   4.0757   4.1257
     4.1263   4.4180   4.6715   4.9602   5.0004   5.2603   5.3303   5.4569
     5.4890   5.5082   5.5082   5.5705   5.6050   5.6465   5.6650   5.6710
     5.7988   5.8041   5.8261   5.8515   5.8617   5.8665   5.8829   5.9736
     6.0198   6.0593   6.0712   6.1587   6.1962   6.4051   6.4664   6.5644
     6.6041   6.7464   6.7736   6.9798   7.0313   7.1011   7.3273   7.7008
     7.8844   8.1685   8.4117   8.7812   8.8394   8.8594   9.1451   9.6916
     9.7027   9.7480   9.7942

          k = 0.0253 0.0000 0.0000 ( 34707 PWs)   bands (ev):

   -57.6989 -57.6639 -57.3178 -57.2815 -57.2328 -57.1098 -57.0735 -57.0727
   -57.0508 -57.0378 -56.9902 -56.9547 -56.7307 -56.6933 -56.1494 -56.1142
   -34.1353 -33.9811 -33.9526 -33.8992 -33.8702 -33.8056 -33.7452 -33.6542
   -33.6185 -33.6070 -33.5681 -33.5372 -33.5325 -33.5086 -33.4857 -33.4750
   -33.4637 -33.4544 -33.4311 -33.3920 -33.3241 -33.2923 -33.2716 -33.2627
   -33.2584 -33.2574 -33.2444 -33.2414 -33.2395 -33.2298 -33.2294 -33.2124
   -33.1803 -33.1801 -33.1752 -33.1410 -33.1185 -32.9968 -32.9810 -32.9569
   -32.9084 -32.8056 -32.5672 -32.5028 -32.4751 -32.3714 -32.2798 -32.1716
   -20.2960 -17.9829 -17.8015 -17.5148 -17.4331 -17.3562 -17.2585 -17.1445
   -17.0923 -16.9754 -16.9385 -16.8714 -16.8190 -16.8060 -16.7896 -16.7804
   -16.7299 -16.6928 -16.5566 -16.5342 -16.4541 -16.4526 -16.4039 -16.3702
   -16.3391 -16.3125 -16.1833 -16.1653 -16.1513 -15.9794 -15.9295 -14.7327
   -14.6500 -11.4617  -7.2344  -5.4677  -5.3063  -5.2643  -5.1966  -5.0976
    -5.0445  -5.0163  -4.8339  -4.8123  -4.6179  -4.4691  -4.4357  -4.3307
    -4.3114  -4.3015  -4.2479  -4.0990  -4.0366  -4.0329  -3.9966  -3.9449
    -3.9378  -3.9099  -3.8306  -3.8010  -3.7516  -3.7200  -3.6950  -3.6919
    -3.6208  -3.5981  -3.5702  -3.5627  -3.5166  -3.4474  -3.3342  -3.3099
    -3.2516  -3.2349  -3.1819  -3.1065  -3.0337  -2.9766  -2.9240  -2.8960
    -2.7517  -2.6740  -2.6323  -2.6002  -2.5793  -2.5299  -2.5197  -2.5037
    -2.4318  -2.3355  -2.3225  -2.2366  -2.2208  -2.1818  -2.1576  -2.0707
    -2.0099  -1.9998  -1.9630  -1.8844  -1.8476  -1.7529  -1.7396  -1.6509
    -1.5858  -1.5815  -1.5378  -1.4631  -1.4583  -1.3667  -1.3578  -1.3444
    -1.3372  -1.2902  -1.2737  -1.1901  -1.1272  -1.1172  -1.0800  -1.0468
    -0.9726  -0.9151  -0.8299  -0.7858  -0.7744  -0.6510  -0.6427  -0.5508
    -0.4211  -0.2366  -0.1158  -0.0539   0.1172   0.2054   0.2063   1.6619
     1.7250   2.0012   2.0715   2.1486   2.2232   2.2379   2.2698   2.3781
     2.3853   2.4577   2.5045   2.5222   2.5412   2.5783   2.5974   2.6362
     2.6558   2.7343   2.7576   2.8671   2.8840   2.9698   3.0307   3.1040
     3.1211   3.1438   3.1625   3.2034   3.2085   3.2539   3.2695   3.3397
     3.3773   3.4023   3.4509   3.4730   3.5356   3.5603   3.5918   3.5999
     3.6641   3.7300   3.7472   3.9139   4.0018   4.0964   4.1741   4.2763
     4.3744   4.3946   4.5531   4.6750   4.8634   4.9112   4.9262   5.0697
     5.1214   5.1460   5.1886   5.3507   5.5682   5.6215   5.6935   5.8663
     5.8828   5.9249   5.9592   6.0300   6.0799   6.1146   6.1605   6.2095
     6.2189   6.2519   6.2588   6.3080   6.4486   6.5232   6.6418   6.6662
     6.8204   6.8685   7.0342   7.1467   7.3022   7.7516   7.8534   8.0872
     8.3356   8.3511   8.4306   8.6835   8.8456   8.9685   9.1495   9.3449
     9.3628   9.4665   9.4924

          k = 0.0253 0.0280 0.0000 ( 34687 PWs)   bands (ev):

   -57.6965 -57.6663 -57.3154 -57.2840 -57.2324 -57.1075 -57.0756 -57.0706
   -57.0512 -57.0402 -56.9878 -56.9571 -56.7283 -56.6957 -56.1471 -56.1165
   -34.1099 -33.9791 -33.9544 -33.8930 -33.8443 -33.8120 -33.7721 -33.6315
   -33.6117 -33.5820 -33.5427 -33.5345 -33.5220 -33.5162 -33.4930 -33.4724
   -33.4660 -33.4609 -33.4291 -33.3853 -33.3180 -33.2905 -33.2834 -33.2641
   -33.2592 -33.2542 -33.2526 -33.2477 -33.2377 -33.2363 -33.2351 -33.2165
   -33.2029 -33.1853 -33.1772 -33.1449 -33.1417 -32.9930 -32.9793 -32.9583
   -32.9134 -32.8334 -32.5415 -32.5009 -32.4770 -32.3653 -32.2860 -32.1989
   -20.2958 -17.9226 -17.7448 -17.4636 -17.3834 -17.3092 -17.2321 -17.1282
   -17.0978 -17.0062 -16.9631 -16.8586 -16.8302 -16.8056 -16.7841 -16.7701
   -16.7128 -16.6999 -16.6002 -16.5798 -16.5064 -16.4751 -16.3814 -16.3651
   -16.3562 -16.3294 -16.2004 -16.1736 -16.1535 -16.0108 -15.9665 -14.7429
   -14.6736 -11.4613  -7.2339  -5.4413  -5.2433  -5.1999  -5.1812  -5.0212
    -4.9661  -4.9362  -4.7587  -4.6999  -4.5621  -4.4031  -4.3712  -4.3455
    -4.2595  -4.2529  -4.1866  -4.1184  -4.0866  -4.0647  -4.0337  -4.0201
    -3.9762  -3.9425  -3.9129  -3.8680  -3.8220  -3.8099  -3.7840  -3.7197
    -3.6966  -3.6648  -3.6152  -3.6052  -3.5408  -3.5260  -3.3536  -3.2980
    -3.2515  -3.2178  -3.1504  -3.0732  -2.9818  -2.9496  -2.7849  -2.7059
    -2.6815  -2.6356  -2.6107  -2.5345  -2.5039  -2.4541  -2.4480  -2.4210
    -2.4045  -2.3864  -2.3397  -2.3022  -2.2157  -2.1779  -2.1158  -2.1003
    -2.0666  -1.9947  -1.9486  -1.8917  -1.8644  -1.8263  -1.7626  -1.6742
    -1.6443  -1.6159  -1.5887  -1.5620  -1.5086  -1.4619  -1.4397  -1.4012
    -1.3446  -1.3278  -1.2694  -1.2552  -1.2081  -1.1077  -1.0973  -1.0608
    -1.0107  -0.8868  -0.8399  -0.8353  -0.7644  -0.7394  -0.6965  -0.6585
    -0.4320  -0.2813  -0.1341  -0.0857   0.1493   0.1787   0.1889   1.7210
     1.8451   2.0165   2.0990   2.1958   2.2446   2.2820   2.3164   2.3970
     2.4177   2.4671   2.4891   2.5246   2.5329   2.5525   2.5904   2.6742
     2.7053   2.7275   2.7873   2.8068   2.9304   2.9870   3.0099   3.0349
     3.1064   3.1344   3.1460   3.1727   3.2086   3.2422   3.3442   3.3736
     3.4062   3.4364   3.4628   3.5101   3.5525   3.5691   3.6364   3.6611
     3.6735   3.7082   3.7499   3.8947   3.9938   4.1384   4.1856   4.2528
     4.3067   4.4520   4.5095   4.7703   4.9292   4.9520   4.9935   5.0781
     5.1601   5.1755   5.2234   5.3867   5.6429   5.6819   5.7316   5.7776
     5.8544   5.8653   5.8716   6.0074   6.0711   6.0849   6.1195   6.1448
     6.1969   6.2087   6.2188   6.2349   6.4287   6.5285   6.6121   6.6602
     6.7865   6.8661   6.9633   7.1511   7.2263   7.5038   7.9328   8.0282
     8.0937   8.2463   8.4453   8.5772   8.6472   8.7795   8.9458   9.2669
     9.3580   9.4683   9.5031

          k = 0.0253 0.0560 0.0000 ( 34699 PWs)   bands (ev):

   -57.6902 -57.6727 -57.3088 -57.2906 -57.2316 -57.1015 -57.0816 -57.0642
   -57.0521 -57.0466 -56.9813 -56.9636 -56.7216 -56.7024 -56.1406 -56.1230
   -34.0401 -33.9738 -33.9595 -33.8761 -33.8452 -33.8293 -33.7732 -33.5961
   -33.5737 -33.5720 -33.5351 -33.5254 -33.5088 -33.5077 -33.4770 -33.4727
   -33.4555 -33.4263 -33.4136 -33.3672 -33.3166 -33.3138 -33.3086 -33.3015
   -33.2862 -33.2767 -33.2678 -33.2626 -33.2536 -33.2486 -33.2383 -33.2345
   -33.2104 -33.1990 -33.1707 -33.1650 -33.1263 -32.9879 -32.9750 -32.9624
   -32.9264 -32.9031 -32.4959 -32.4820 -32.4707 -32.3488 -32.3030 -32.2730
   -20.2955 -17.7563 -17.5894 -17.3434 -17.2643 -17.2447 -17.1936 -17.1678
   -17.1394 -16.9958 -16.9703 -16.8806 -16.8761 -16.8292 -16.7966 -16.7725
   -16.7479 -16.6705 -16.6234 -16.6046 -16.5794 -16.5303 -16.4268 -16.4122
   -16.3560 -16.2849 -16.2339 -16.1945 -16.1570 -16.1117 -16.0391 -14.7614
   -14.7243 -11.4605  -7.2329  -5.4129  -5.2122  -5.0316  -4.9487  -4.8129
    -4.7568  -4.7147  -4.5582  -4.4982  -4.4906  -4.4136  -4.3941  -4.3394
    -4.2707  -4.2313  -4.2157  -4.1920  -4.1478  -4.1412  -4.1062  -4.0616
    -4.0325  -4.0126  -3.9935  -3.9352  -3.9244  -3.8753  -3.8594  -3.8215
    -3.7743  -3.7156  -3.6548  -3.5717  -3.4733  -3.3973  -3.3250  -3.2825
    -3.2379  -3.2238  -3.1845  -3.0124  -2.9384  -2.8633  -2.8296  -2.7797
    -2.7579  -2.6456  -2.5928  -2.5095  -2.4887  -2.4368  -2.3931  -2.3656
    -2.3428  -2.3244  -2.2889  -2.2632  -2.1905  -2.1410  -2.1276  -2.0389
    -2.0117  -2.0099  -1.9467  -1.9381  -1.9026  -1.8616  -1.8338  -1.8123
    -1.7451  -1.7026  -1.6789  -1.6375  -1.5725  -1.5375  -1.4942  -1.4757
    -1.4311  -1.3731  -1.3388  -1.3019  -1.2236  -1.2053  -1.1307  -1.1056
    -1.0601  -1.0134  -0.9122  -0.8757  -0.8211  -0.7998  -0.7441  -0.6807
    -0.6068  -0.4651  -0.2560   0.0920   0.1286   0.1557   0.1883   1.8618
     2.0481   2.1323   2.1790   2.2314   2.2717   2.3059   2.3474   2.3848
     2.4261   2.4620   2.4809   2.5079   2.5204   2.5836   2.6937   2.7215
     2.7390   2.7764   2.8238   2.8399   2.9039   2.9525   2.9746   2.9860
     3.0274   3.0337   3.1562   3.2075   3.2865   3.3296   3.3403   3.3831
     3.4074   3.4390   3.4607   3.5406   3.5597   3.6307   3.6561   3.7344
     3.7929   3.8196   3.8615   3.9006   3.9047   4.0718   4.1168   4.1654
     4.3431   4.3847   4.6150   4.9650   5.0123   5.1272   5.1422   5.1581
     5.2621   5.2893   5.3133   5.4365   5.5099   5.5613   5.6370   5.7584
     5.8237   5.8501   5.8914   5.9339   5.9606   6.0020   6.0488   6.0611
     6.1362   6.1568   6.2224   6.3285   6.3793   6.4027   6.4807   6.6411
     6.6925   6.7964   6.8473   7.0355   7.1518   7.3637   7.4849   7.5874
     7.9804   8.1762   8.3507   8.5224   8.6405   8.8548   9.0530   9.1139
     9.1763   9.4941   9.6244

          k = 0.0253-0.0840 0.0000 ( 34722 PWs)   bands (ev):

   -57.6815 -57.6813 -57.3011 -57.2983 -57.2312 -57.0960 -57.0871 -57.0555
   -57.0553 -57.0525 -56.9731 -56.9718 -56.7146 -56.7095 -56.1319 -56.1318
   -33.9667 -33.9665 -33.9435 -33.9434 -33.8529 -33.8527 -33.6863 -33.6624
   -33.5662 -33.5628 -33.5295 -33.5176 -33.5140 -33.4772 -33.4527 -33.4242
   -33.4162 -33.4101 -33.3763 -33.3760 -33.3633 -33.3404 -33.3344 -33.3230
   -33.3213 -33.2847 -33.2780 -33.2763 -33.2694 -33.2658 -33.2363 -33.2348
   -33.2175 -33.2154 -33.1639 -33.1628 -33.0492 -33.0284 -32.9709 -32.9663
   -32.9402 -32.9372 -32.4890 -32.4889 -32.3729 -32.3729 -32.3259 -32.3258
   -20.2954 -17.5557 -17.4875 -17.3822 -17.3637 -17.2134 -17.1545 -17.0593
   -17.0500 -17.0043 -16.9801 -16.9750 -16.8890 -16.8793 -16.8692 -16.7858
[...]
    -1.2973  -1.2671  -1.2507  -1.1899  -1.1519  -1.0308  -1.0199  -1.0116
    -0.9889  -0.9485  -0.9056  -0.8380  -0.7564  -0.7013  -0.6468  -0.5939
    -0.5898  -0.5347  -0.5180   0.0662   0.0662   0.2109   0.2126   2.1535
     2.1544   2.2010   2.2028   2.2381   2.2395   2.2662   2.2980   2.4880
     2.4935   2.5254   2.5554   2.6090   2.6167   2.6795   2.6815   2.6910
     2.6919   2.8440   2.9098   2.9829   2.9979   3.0342   3.0417   3.0983
     3.2198   3.2493   3.2723   3.3329   3.3736   3.3904   3.4448   3.4926
     3.5002   3.5225   3.5491   3.5808   3.6036   3.6797   3.7003   3.7453
     3.8345   3.8909   3.9072   3.9529   3.9532   4.0962   4.1031   4.1118
     4.1123   4.6143   4.7832   4.7872   4.8018   4.8706   4.9204   4.9255
     4.9418   4.9844   5.0270   5.2489   5.3396   5.3589   5.3693   5.7300
     5.7999   5.9106   5.9265   5.9797   6.0424   6.1488   6.3033   6.3493
     6.3649   6.3745   6.4102   6.5751   6.6172   6.6651   6.6652   6.7034
     6.7627   6.8445   6.8453   6.8524   6.8534   7.3594   7.4077   7.5240
     7.6624   7.8255   8.0126   8.1708   8.2233   8.3181   8.3897   8.8243
     8.9135   9.0448   9.0814

          k =-0.0253 0.0280 0.0000 ( 34687 PWs)   bands (ev):

   -57.6966 -57.6663 -57.3154 -57.2839 -57.2323 -57.1075 -57.0756 -57.0705
   -57.0512 -57.0401 -56.9878 -56.9570 -56.7282 -56.6957 -56.1473 -56.1167
   -34.1100 -33.9792 -33.9545 -33.8930 -33.8442 -33.8120 -33.7722 -33.6314
   -33.6117 -33.5820 -33.5427 -33.5345 -33.5220 -33.5162 -33.4930 -33.4724
   -33.4659 -33.4608 -33.4291 -33.3853 -33.3180 -33.2905 -33.2834 -33.2641
   -33.2589 -33.2542 -33.2528 -33.2476 -33.2376 -33.2363 -33.2351 -33.2165
   -33.2028 -33.1853 -33.1772 -33.1448 -33.1416 -32.9929 -32.9793 -32.9583
   -32.9134 -32.8334 -32.5416 -32.5011 -32.4771 -32.3655 -32.2862 -32.1991
   -20.2958 -17.9226 -17.7448 -17.4636 -17.3834 -17.3092 -17.2321 -17.1282
   -17.0980 -17.0059 -16.9631 -16.8590 -16.8302 -16.8067 -16.7837 -16.7700
   -16.7128 -16.7001 -16.6000 -16.5793 -16.5064 -16.4751 -16.3814 -16.3652
   -16.3563 -16.3294 -16.2004 -16.1736 -16.1535 -16.0108 -15.9665 -14.7425
   -14.6732 -11.4613  -7.2339  -5.4412  -5.2432  -5.1999  -5.1812  -5.0216
    -4.9662  -4.9364  -4.7588  -4.7006  -4.5621  -4.4028  -4.3711  -4.3458
    -4.2610  -4.2497  -4.1879  -4.1169  -4.0910  -4.0641  -4.0362  -4.0207
    -3.9749  -3.9408  -3.9142  -3.8685  -3.8222  -3.8115  -3.7841  -3.7198
    -3.7012  -3.6623  -3.6150  -3.6041  -3.5394  -3.5249  -3.3584  -3.2910
    -3.2526  -3.2181  -3.1481  -3.0724  -2.9827  -2.9459  -2.7840  -2.7062
    -2.6795  -2.6366  -2.6106  -2.5321  -2.5038  -2.4515  -2.4470  -2.4219
    -2.4058  -2.3842  -2.3396  -2.3013  -2.2178  -2.1750  -2.1216  -2.1035
    -2.0625  -1.9916  -1.9507  -1.8962  -1.8626  -1.8255  -1.7427  -1.7058
    -1.6528  -1.5992  -1.5929  -1.5605  -1.5159  -1.4703  -1.4364  -1.3918
    -1.3446  -1.3324  -1.2808  -1.2422  -1.1961  -1.1115  -1.0988  -1.0588
    -1.0102  -0.8927  -0.8405  -0.8302  -0.7554  -0.7385  -0.7080  -0.6595
    -0.4332  -0.2813  -0.1346  -0.0855   0.1495   0.1789   0.1892   1.7209
     1.8451   2.0164   2.1004   2.1956   2.2460   2.2852   2.3192   2.4041
     2.4156   2.4502   2.4860   2.5300   2.5327   2.5475   2.6079   2.6687
     2.7055   2.7391   2.7758   2.8122   2.9390   2.9862   3.0043   3.0273
     3.1074   3.1359   3.1464   3.1743   3.2088   3.2396   3.3477   3.3726
     3.4039   3.4200   3.4644   3.5068   3.5616   3.5708   3.6372   3.6610
     3.6732   3.7093   3.7493   3.8936   3.9924   4.1401   4.1857   4.2533
     4.3067   4.4523   4.5097   4.7703   4.9373   4.9510   4.9841   5.0780
     5.1589   5.1751   5.2233   5.3857   5.6444   5.6755   5.7286   5.7875
     5.8526   5.8652   5.8725   6.0063   6.0736   6.0786   6.1239   6.1456
     6.1970   6.2076   6.2157   6.2437   6.4286   6.5264   6.6123   6.6668
     6.7895   6.8592   6.9632   7.1497   7.2259   7.5039   7.9288   8.0303
     8.0938   8.2538   8.4447   8.5803   8.6507   8.7722   8.9452   9.2695
     9.3562   9.4601   9.5142

          k =-0.0253 0.0560 0.0000 ( 34699 PWs)   bands (ev):

   -57.6902 -57.6728 -57.3088 -57.2905 -57.2315 -57.1015 -57.0816 -57.0641
   -57.0520 -57.0466 -56.9813 -56.9635 -56.7216 -56.7024 -56.1408 -56.1232
   -34.0401 -33.9738 -33.9596 -33.8762 -33.8452 -33.8293 -33.7731 -33.5960
   -33.5736 -33.5720 -33.5351 -33.5253 -33.5088 -33.5076 -33.4769 -33.4727
   -33.4554 -33.4262 -33.4135 -33.3672 -33.3165 -33.3138 -33.3086 -33.3015
   -33.2862 -33.2767 -33.2678 -33.2626 -33.2536 -33.2488 -33.2383 -33.2345
   -33.2102 -33.1990 -33.1707 -33.1650 -33.1262 -32.9879 -32.9749 -32.9624
   -32.9263 -32.9030 -32.4961 -32.4822 -32.4709 -32.3490 -32.3031 -32.2732
   -20.2956 -17.7563 -17.5894 -17.3434 -17.2643 -17.2449 -17.1938 -17.1678
   -17.1392 -16.9958 -16.9703 -16.8806 -16.8764 -16.8300 -16.7969 -16.7724
   -16.7477 -16.6702 -16.6236 -16.6037 -16.5793 -16.5306 -16.4268 -16.4124
   -16.3560 -16.2849 -16.2340 -16.1945 -16.1570 -16.1117 -16.0391 -14.7611
   -14.7239 -11.4605  -7.2329  -5.4128  -5.2121  -5.0312  -4.9487  -4.8135
    -4.7569  -4.7147  -4.5582  -4.4965  -4.4911  -4.4133  -4.3943  -4.3443
    -4.2711  -4.2325  -4.2152  -4.1921  -4.1476  -4.1406  -4.1078  -4.0617
    -4.0317  -4.0099  -3.9944  -3.9370  -3.9241  -3.8731  -3.8629  -3.8222
    -3.7739  -3.7138  -3.6557  -3.5717  -3.4729  -3.3976  -3.3326  -3.2820
    -3.2380  -3.2162  -3.1770  -3.0131  -2.9365  -2.8647  -2.8258  -2.7833
    -2.7552  -2.6454  -2.5922  -2.5096  -2.4877  -2.4396  -2.3937  -2.3626
    -2.3430  -2.3240  -2.2904  -2.2655  -2.1890  -2.1407  -2.1267  -2.0369
    -2.0200  -2.0018  -1.9455  -1.9427  -1.9043  -1.8615  -1.8290  -1.8069
    -1.7431  -1.7103  -1.6732  -1.6420  -1.5800  -1.5396  -1.5046  -1.4598
    -1.4308  -1.3722  -1.3472  -1.3011  -1.2230  -1.2058  -1.1302  -1.1039
    -1.0621  -1.0134  -0.9234  -0.8759  -0.8137  -0.7997  -0.7375  -0.6804
    -0.6067  -0.4671  -0.2576   0.0922   0.1289   0.1560   0.1885   1.8617
     2.0480   2.1350   2.1789   2.2283   2.2700   2.3066   2.3335   2.3839
     2.4444   2.4590   2.4857   2.5133   2.5208   2.5836   2.6930   2.7244
     2.7447   2.7759   2.8278   2.8410   2.8932   2.9499   2.9710   2.9868
     3.0240   3.0348   3.1704   3.2080   3.2904   3.3168   3.3341   3.3709
     3.4117   3.4367   3.4601   3.5432   3.5594   3.6350   3.6573   3.7349
     3.7931   3.8171   3.8624   3.8987   3.9069   4.0727   4.1168   4.1655
     4.3429   4.3846   4.6159   4.9659   5.0194   5.1238   5.1371   5.1563
     5.2595   5.2869   5.3152   5.4281   5.5117   5.5611   5.6402   5.7627
     5.8245   5.8484   5.8951   5.9364   5.9557   5.9967   6.0521   6.0636
     6.1358   6.1554   6.2295   6.3231   6.3797   6.4108   6.4785   6.6470
     6.6931   6.7963   6.8417   7.0358   7.1487   7.3638   7.4816   7.5892
     7.9755   8.1766   8.3516   8.5195   8.6537   8.8604   9.0465   9.1155
     9.1857   9.4936   9.6235

          k =-0.0506 0.0280 0.0000 ( 34685 PWs)   bands (ev):

   -57.6966 -57.6663 -57.3153 -57.2839 -57.2323 -57.1074 -57.0755 -57.0707
   -57.0511 -57.0402 -56.9878 -56.9570 -56.7283 -56.6957 -56.1473 -56.1167
   -34.1106 -33.9792 -33.9545 -33.8917 -33.8445 -33.8120 -33.7722 -33.6329
   -33.6117 -33.5853 -33.5433 -33.5354 -33.5276 -33.5197 -33.4929 -33.4720
   -33.4585 -33.4487 -33.4291 -33.3691 -33.3177 -33.2907 -33.2791 -33.2654
   -33.2641 -33.2613 -33.2586 -33.2534 -33.2377 -33.2363 -33.2340 -33.2141
   -33.2033 -33.1855 -33.1771 -33.1447 -33.1416 -32.9930 -32.9836 -32.9569
   -32.9134 -32.8334 -32.5415 -32.5029 -32.4762 -32.3655 -32.2862 -32.1991
   -20.2955 -17.8604 -17.6511 -17.3688 -17.3414 -17.2497 -17.2244 -17.2144
   -17.1223 -17.0432 -16.9634 -16.9206 -16.8710 -16.8575 -16.8548 -16.8327
   -16.7634 -16.7448 -16.5592 -16.5280 -16.5039 -16.4380 -16.4154 -16.3762
   -16.3687 -16.3116 -16.1913 -16.1720 -16.1523 -16.0121 -15.9663 -14.7406
   -14.6732 -11.4588  -7.2282  -5.4544  -5.2282  -5.1976  -4.8922  -4.8340
    -4.7202  -4.7046  -4.6752  -4.6552  -4.6301  -4.5093  -4.4278  -4.3454
    -4.3187  -4.3014  -4.1593  -4.1269  -4.0606  -4.0267  -4.0085  -3.9931
    -3.9826  -3.9095  -3.8597  -3.8157  -3.7732  -3.7609  -3.7188  -3.6908
    -3.6560  -3.6333  -3.5829  -3.5510  -3.4459  -3.3179  -3.2836  -3.2615
    -3.2214  -3.1705  -3.1001  -3.0594  -2.9536  -2.9376  -2.8737  -2.8400
    -2.7430  -2.6935  -2.6594  -2.6503  -2.6036  -2.5897  -2.5356  -2.4948
    -2.4368  -2.3871  -2.3806  -2.3354  -2.3089  -2.2535  -2.1789  -2.1346
    -2.1126  -2.0622  -2.0272  -1.9743  -1.9398  -1.9056  -1.8592  -1.8304
    -1.7542  -1.7396  -1.7115  -1.6406  -1.5404  -1.5065  -1.4849  -1.4172
    -1.3668  -1.3474  -1.2786  -1.2601  -1.2372  -1.1472  -1.1129  -1.0130
    -0.9768  -0.8803  -0.8555  -0.8131  -0.7777  -0.7638  -0.7049  -0.6896
    -0.5128  -0.3117  -0.2594  -0.0728   0.1102   0.1395   0.1629   1.7043
     1.9052   2.0606   2.1229   2.1277   2.1728   2.2412   2.3616   2.3724
     2.4064   2.4384   2.5181   2.5678   2.5748   2.6030   2.6841   2.6968
     2.7434   2.8030   2.8333   2.9031   2.9561   2.9819   3.0418   3.0606
     3.0914   3.1608   3.1714   3.2008   3.3027   3.3567   3.3764   3.4106
     3.4462   3.4584   3.5472   3.5865   3.6045   3.6537   3.6763   3.6851
     3.7173   3.7712   3.8187   3.8697   3.9326   4.0591   4.1690   4.2823
     4.2934   4.4230   4.6220   4.6899   4.7646   4.8114   4.8557   4.9850
     5.0127   5.1267   5.2239   5.4700   5.5948   5.6412   5.7220   5.8054
     5.8620   5.8730   5.9255   5.9469   5.9809   6.0931   6.1172   6.1392
     6.2309   6.4323   6.4821   6.5406   6.5780   6.6076   6.6857   6.7410
     6.7972   6.8176   6.9741   7.1155   7.1675   7.3945   7.5716   7.7044
     8.1311   8.1635   8.2423   8.3906   8.7670   8.9679   9.0154   9.0437
     9.3745   9.4373   9.6055

          k =-0.0506 0.0560 0.0000 ( 34596 PWs)   bands (ev):

   -57.6902 -57.6727 -57.3088 -57.2905 -57.2315 -57.1014 -57.0816 -57.0643
   -57.0520 -57.0466 -56.9813 -56.9635 -56.7216 -56.7024 -56.1408 -56.1232
   -34.0407 -33.9738 -33.9595 -33.8750 -33.8454 -33.8289 -33.7733 -33.5960
   -33.5748 -33.5721 -33.5354 -33.5212 -33.5154 -33.5109 -33.4770 -33.4735
   -33.4534 -33.4262 -33.4039 -33.3536 -33.3180 -33.3174 -33.3011 -33.2989
   -33.2865 -33.2766 -33.2677 -33.2603 -33.2537 -33.2533 -33.2476 -33.2396
   -33.2104 -33.2005 -33.1706 -33.1647 -33.1258 -32.9879 -32.9777 -32.9621
   -32.9263 -32.9029 -32.4972 -32.4818 -32.4708 -32.3490 -32.3031 -32.2731
   -20.2952 -17.7059 -17.5004 -17.2911 -17.2396 -17.1976 -17.1736 -17.1618
   -17.0897 -17.0369 -17.0059 -16.9134 -16.8565 -16.8490 -16.8446 -16.8061
   -16.7762 -16.7219 -16.6625 -16.6219 -16.6129 -16.5507 -16.5125 -16.3989
   -16.3433 -16.2635 -16.2261 -16.1930 -16.1563 -16.1134 -16.0382 -14.7599
   -14.7243 -11.4579  -7.2270  -5.4279  -5.2111  -5.0217  -4.6591  -4.6171
    -4.5153  -4.4992  -4.4838  -4.4564  -4.4322  -4.3674  -4.3247  -4.3016
    -4.2259  -4.2058  -4.1463  -4.1319  -4.0826  -4.0672  -4.0460  -4.0362
    -4.0147  -3.9962  -3.9687  -3.9146  -3.8941  -3.8882  -3.8227  -3.7870
    -3.7307  -3.6599  -3.6301  -3.5228  -3.4877  -3.3766  -3.3280  -3.2622
    -3.2551  -3.2448  -3.1377  -3.0139  -2.9332  -2.9047  -2.8504  -2.8313
    -2.7563  -2.7265  -2.6847  -2.6094  -2.5911  -2.5678  -2.5287  -2.4899
    -2.4281  -2.4053  -2.3660  -2.3296  -2.3163  -2.3000  -2.2555  -2.1782
    -2.1515  -2.1210  -2.1135  -2.0769  -2.0473  -2.0024  -1.9850  -1.9017
    -1.8912  -1.8513  -1.8327  -1.7246  -1.6381  -1.6060  -1.5728  -1.4785
    -1.4083  -1.3748  -1.3073  -1.2489  -1.2061  -1.1116  -1.0736  -1.0168
    -1.0022  -0.9367  -0.8523  -0.8197  -0.7699  -0.7560  -0.6922  -0.6569
    -0.6516  -0.5179  -0.3245   0.0782   0.1123   0.1303   0.1939   1.8670
     2.0769   2.1655   2.1998   2.2213   2.2439   2.2986   2.3483   2.3934
     2.4039   2.5377   2.5704   2.5795   2.6077   2.6286   2.6837   2.7549
     2.7823   2.8045   2.8390   2.8813   2.9637   3.0046   3.0286   3.0624
     3.0974   3.1365   3.1679   3.2571   3.3358   3.3676   3.3973   3.4412
     3.4791   3.5001   3.5221   3.5429   3.6152   3.6477   3.7117   3.7445
     3.7801   3.8516   3.8804   3.9196   3.9255   3.9545   4.1119   4.1751
     4.2897   4.4736   4.7250   4.8071   4.8168   4.8965   4.9424   5.0921
     5.1656   5.2322   5.2722   5.3258   5.3723   5.4351   5.4957   5.6263
     5.7809   5.8304   5.8819   5.9524   6.0414   6.1243   6.2168   6.2592
     6.2873   6.3476   6.4165   6.4509   6.5045   6.5782   6.6499   6.7166
     6.7309   6.8249   6.8510   6.9846   7.0520   7.4107   7.4293   7.5707
     7.7474   7.9409   8.0693   8.3923   8.5732   8.6145   8.7398   9.0116
     9.2249   9.3225   9.4529

     the Fermi energy is     0.9972 ev

!    total energy              =   -3021.41994119 Ry
     Harris-Foulkes estimate   =   -3021.41993750 Ry
     estimated scf accuracy    <       0.00000059 Ry

     The total energy is the sum of the following terms:

     one-electron contribution =  -41241.37915040 Ry
     hartree contribution      =   20694.93436839 Ry
     xc contribution           =    -553.69026097 Ry
     ewald contribution        =   18078.71531298 Ry
     smearing contrib. (-TS)   =      -0.00021118 Ry

     total magnetization       =     0.00 Bohr mag/cell
     absolute magnetization    =     0.00 Bohr mag/cell

     convergence has been achieved in   9 iterations

     Forces acting on atoms (Ry/au):


     negative rho (up, down):  1.209E-02 1.209E-02
     atom    1 type  1   force =     0.00002088   -0.00038972   -0.13381292
     atom    2 type  2   force =     0.00001344    0.00002046    0.07210042
     atom    3 type  1   force =    -0.00136427    0.00027370   -0.06097619
     atom    4 type  2   force =     0.00289062    0.00043887    0.00633951
     atom    5 type  1   force =     0.00027931    0.00180960    0.00350514
     atom    6 type  2   force =     0.00012708   -0.00000497   -0.00296672
     atom    7 type  1   force =    -0.00036936   -0.00148338    0.00447766
     atom    8 type  2   force =     0.00066387   -0.00031339   -0.00107616
     atom    9 type  1   force =    -0.00003490   -0.00003802   -0.13354466
     atom   10 type  2   force =    -0.00004885   -0.00001817    0.07130687
     atom   11 type  1   force =    -0.00131533   -0.00027583   -0.05586563
     atom   12 type  2   force =     0.00301237   -0.00015269    0.00612360
     atom   13 type  1   force =     0.00028890   -0.00151639    0.00345772
     atom   14 type  2   force =    -0.00120999   -0.00048499   -0.00287335
     atom   15 type  1   force =    -0.00052470    0.00096223    0.00447250
     atom   16 type  2   force =     0.00069049   -0.00052826    0.00025279
     atom   17 type  2   force =    -0.00007319   -0.00009952    0.07938566
     atom   18 type  1   force =     0.00012677   -0.00021180    0.11911913
     atom   19 type  2   force =    -0.00010710   -0.00024400   -0.06670281
     atom   20 type  2   force =    -0.06322372    0.00012054   -0.03223605
     atom   21 type  2   force =     0.06320700   -0.00007182   -0.03245196
     atom   22 type  1   force =     0.00071336    0.00106385    0.05970784
     atom   23 type  2   force =    -0.00019888    0.00000640   -0.00176611
     atom   24 type  2   force =    -0.00141327   -0.00006021   -0.02329188
     atom   25 type  2   force =    -0.00314705    0.00058728    0.00785318
     atom   26 type  1   force =     0.00063791    0.00024402    0.00460463
     atom   27 type  2   force =     0.00051043    0.00060224   -0.00386447
     atom   28 type  2   force =     0.00015494   -0.00005032   -0.00117245
     atom   29 type  2   force =     0.00019307   -0.00037044   -0.00059507
     atom   30 type  1   force =     0.00021243   -0.00069916    0.00398082
     atom   31 type  2   force =     0.00003124    0.00020760   -0.00255383
     atom   32 type  2   force =     0.00031316   -0.00026651   -0.00189848
     atom   33 type  2   force =    -0.00011266    0.00000408    0.07899824
     atom   34 type  1   force =     0.00006868   -0.00026522    0.11904456
     atom   35 type  2   force =    -0.00030767   -0.00014880   -0.06638110
     atom   36 type  2   force =    -0.06317477   -0.00004294   -0.03236045
     atom   37 type  2   force =     0.06332199   -0.00028021   -0.03247927
     atom   38 type  1   force =     0.00066627   -0.00098461    0.05997463
     atom   39 type  2   force =    -0.00045107    0.00004946   -0.00248663
     atom   40 type  2   force =    -0.00119693    0.00024124   -0.02220025
     atom   41 type  2   force =    -0.00316858   -0.00019405    0.00789701
     atom   42 type  1   force =     0.00051609   -0.00000353    0.00374764
     atom   43 type  2   force =     0.00067696    0.00008878   -0.00300477
     atom   44 type  2   force =     0.00023902    0.00008215   -0.00111445
     atom   45 type  2   force =     0.00022162    0.00026259   -0.00063628
     atom   46 type  1   force =     0.00064736    0.00027934    0.00392656
     atom   47 type  2   force =     0.00023003   -0.00050005   -0.00136633
     atom   48 type  2   force =    -0.00013515   -0.00041275   -0.00021977
     atom   49 type  3   force =    -0.00124507   -0.00614799    0.00289145
     atom   50 type  2   force =     0.00161300    0.00674120   -0.00280461
     atom   51 type  4   force =     0.00009525    0.00013640   -0.00005122
     atom   52 type  4   force =     0.00000118   -0.00001913    0.00065325
     atom   53 type  4   force =    -0.00177235    0.00185344    0.00169372
     atom   54 type  4   force =     0.00221013    0.00020337   -0.00276064

     Total force =     0.362764     Total SCF correction =     0.001776
 !ASE

     Writing output data file calc.save
 
     init_run     :     56.39s CPU     72.22s WALL (       1 calls)
     electrons    :   1943.88s CPU   2431.28s WALL (       1 calls)
     forces       :     40.33s CPU     41.59s WALL (       1 calls)

     Called by init_run:
     wfcinit      :     47.81s CPU     62.31s WALL (       1 calls)
     potinit      :      1.39s CPU      1.68s WALL (       1 calls)

     Called by electrons:
     c_bands      :   1693.19s CPU   2119.01s WALL (       9 calls)
     sum_band     :    210.77s CPU    266.66s WALL (       9 calls)
     v_of_rho     :      9.85s CPU     12.35s WALL (      10 calls)
     newd         :     34.17s CPU     37.53s WALL (      10 calls)
     mix_rho      :      0.34s CPU      0.49s WALL (       9 calls)
     vdW_energy   :      1.87s CPU      2.29s WALL (      11 calls)
     vdW_ffts     :      2.63s CPU      3.45s WALL (      22 calls)
     vdW_v        :      1.02s CPU      1.17s WALL (      11 calls)

     Called by c_bands:
     init_us_2    :      5.45s CPU      5.90s WALL (     800 calls)
     cegterg      :   1660.58s CPU   2084.68s WALL (     360 calls)

     Called by *egterg:
     h_psi        :    672.22s CPU   1028.63s WALL (    1957 calls)
     s_psi        :     83.76s CPU     87.61s WALL (    1957 calls)
     g_psi        :      4.61s CPU      4.67s WALL (    1557 calls)
     cdiaghg      :    588.11s CPU    601.33s WALL (    1917 calls)

     Called by h_psi:
     add_vuspsi   :     84.27s CPU     88.21s WALL (    1957 calls)

     General routines
     calbec       :    129.04s CPU    131.54s WALL (    2357 calls)
     fft          :      5.88s CPU      7.56s WALL (     867 calls)
     ffts         :      0.04s CPU      0.06s WALL (      38 calls)
     fftw         :    445.55s CPU    833.46s WALL (  667938 calls)
     interpolate  :      0.29s CPU      0.47s WALL (      38 calls)
     davcio       :      0.04s CPU      1.81s WALL (      40 calls)
 
     Parallel routines
     fft_scatter  :    246.58s CPU    444.30s WALL (  668843 calls)
 
     PWSCF        : 34m 1.66s CPU    42m28.77s WALL

 
   This run was terminated on:  15:37:54  12Feb2018            

=------------------------------------------------------------------------------=
   JOB DONE.
=------------------------------------------------------------------------------=
