  python dir          : /home/vossj/suncat/lib/python2.7/site-packages/espresso
  espresso dir        : /home/vossj/suncat/esdld/espresso-dynpy-beef/bin
  pseudo dir          : /home/alatimer/bin/psp/esp_psp_w_gbrvRu/
  ase-espresso py git : ffa2778-git



     Program PWSCF v.5.1rc2 (svn rev. ) starts on 26Feb2018 at  1:24:37 

     This program is part of the open-source Quantum ESPRESSO suite
     for quantum simulation of materials; please cite
         "P. Giannozzi et al., J. Phys.:Condens. Matter 21 395502 (2009);
          URL http://www.quantum-espresso.org", 
     in publications or presentations arising from this work. More details at
     http://www.quantum-espresso.org/quote

     Parallel version (MPI), running on    16 processors
     R & G space division:  proc/nbgrp/npool/nimage =      16
     Reading input from pw.inp
     Message from routine read_cards :
     DEPRECATED: no units specified in CELL_PARAMETERS card

     Current dimensions of program PWSCF are:
     Max number of different atomic species (ntypx) = 10
     Max number of k-points (npk) =  40000
     Max angular momentum in pseudopotentials (lmaxx) =  3

     **************************************************************************
     Initializing libbeef V0.1.1 with the BEEF-vdW functional.
     Citation: Wellendorff et al., PRB 85, 235149 (2012).
     **************************************************************************


     IMPORTANT: XC functional enforced from input :
     Exchange-correlation      = BEEF ( 1  4 27 13 2)
     Any further DFT definition will be discarded
     Please, verify this is what you really want


     Subspace diagonalization in iterative solution of the eigenvalue problem:
     a serial algorithm will be used

 
     Parallelization info
     --------------------
     sticks:   dense  smooth     PW     G-vecs:    dense   smooth      PW
     Min         281     112     31                68535    17318    2565
     Max         282     113     32                68545    17369    2582
     Sum        4501    1795    503              1096637   277353   41113
 
     Generating pointlists ...
     new r_m :   0.4125 (alat units)  0.7795 (a.u.) for type    1
     new r_m :   0.4125 (alat units)  0.7795 (a.u.) for type    2
     new r_m :   0.4125 (alat units)  0.7795 (a.u.) for type    3
     new r_m :   0.4125 (alat units)  0.7795 (a.u.) for type    4


     bravais-lattice index     =            0
     lattice parameter (alat)  =       1.8897  a.u.
     unit-cell volume          =    7990.9933 (a.u.)^3
     number of atoms/cell      =           54
     number of atomic types    =            4
     number of electrons       =       398.00
     number of Kohn-Sham states=          299
     kinetic-energy cutoff     =      40.4243  Ry
     charge density cutoff     =     404.2426  Ry
     convergence threshold     =      7.3E-07
     mixing beta               =       0.1000
     number of iterations used =           10  plain     mixing
     Exchange-correlation      = BEEF ( 1  4 27 13 2)
     nstep                     =           50


     celldm(1)=   1.889726  celldm(2)=   0.000000  celldm(3)=   0.000000
     celldm(4)=   0.000000  celldm(5)=   0.000000  celldm(6)=   0.000000

     crystal axes: (cart. coord. in units of alat)
               a(1) = (   6.590708   0.000000   0.000000 )  
               a(2) = (   0.000000   5.950229   0.000000 )  
               a(3) = (   0.000000   0.000000  30.195235 )  

     reciprocal axes: (cart. coord. in units 2 pi/alat)
               b(1) = (  0.151729  0.000000  0.000000 )  
               b(2) = (  0.000000  0.168061  0.000000 )  
               b(3) = (  0.000000  0.000000  0.033118 )  


     PseudoPot. # 1 for Ti read from file:
     /home/alatimer/bin/psp/esp_psp_w_gbrvRu/Ti.UPF
     MD5 check sum: 8e4df49b7f0d34bbd5052bf3f5ea0213
     Pseudo is Ultrasoft, Zval = 12.0
     Generated by new atomic code, or converted to UPF format
     Using radial grid of  851 points,  6 beta functions with: 
                l(1) =   0
                l(2) =   0
                l(3) =   1
                l(4) =   1
                l(5) =   2
                l(6) =   2
     Q(r) pseudized with  8 coefficients,  rinner =    1.000   1.000   1.000
                                                       1.000   1.000

     PseudoPot. # 2 for  O read from file:
     /home/alatimer/bin/psp/esp_psp_w_gbrvRu/O.UPF
     MD5 check sum: e057bbcf3229fb5d8c36c0c92f9568b4
     Pseudo is Ultrasoft + core correction, Zval =  6.0
     Generated using "atomic" code by A. Dal Corso  v.5.0.2 svn rev. 9415
     Using radial grid of 1095 points,  4 beta functions with: 
                l(1) =   0
                l(2) =   0
                l(3) =   1
                l(4) =   1
     Q(r) pseudized with 0 coefficients 


     PseudoPot. # 3 for  C read from file:
     /home/alatimer/bin/psp/esp_psp_w_gbrvRu/C.UPF
     MD5 check sum: ab446d787031eba755f1d5ee46644bb0
     Pseudo is Ultrasoft + core correction, Zval =  4.0
     Generated using "atomic" code by A. Dal Corso  v.5.0.2 svn rev. 9415
     Using radial grid of 1073 points,  4 beta functions with: 
                l(1) =   0
                l(2) =   0
                l(3) =   1
                l(4) =   1
     Q(r) pseudized with 0 coefficients 


     PseudoPot. # 4 for  H read from file:
     /home/alatimer/bin/psp/esp_psp_w_gbrvRu/H.UPF
     MD5 check sum: bd57da0722753ddfd9833a65b40bb853
     Pseudo is Ultrasoft, Zval =  1.0
     Generated using "atomic" code by A. Dal Corso  v.5.0.2 svn rev. 9415
     Using radial grid of  929 points,  2 beta functions with: 
                l(1) =   0
                l(2) =   0
     Q(r) pseudized with 0 coefficients 


     vdW kernel table read from file vdW_kernel_table
     MD5 check sum: 095c7af220d748ca6e76c0b4c6cfb241

     atomic species   valence    mass     pseudopotential
        Ti1           12.00    47.88000     Ti( 1.00)
        O1             6.00    15.99940      O( 1.00)
        C1             4.00    12.01100      C( 1.00)
        H1             1.00     1.00794      H( 1.00)

     Starting magnetic structure 
     atomic species   magnetization
        Ti1          0.250
        O1           0.500
        C1           0.750
        H1           0.000

     No symmetry found



   Cartesian axes

     site n.     atom                  positions (alat units)
         1           Ti1 tau(   1) = (   1.6476770   0.7437786   2.6545865  )
         2           O1  tau(   2) = (   1.6476770   2.2313359   3.9361215  )
         3           Ti1 tau(   3) = (   1.6476770   2.2313359   5.9499405  )
         4           O1  tau(   4) = (   0.3661420   0.7437786   5.9499405  )
         5           Ti1 tau(   5) = (   1.6407309   0.9134410   9.3139491  )
         6           O1  tau(   6) = (   1.6648823   2.2608486  10.4895904  )
         7           Ti1 tau(   7) = (   1.7578240   2.2899216  13.0472362  )
         8           O1  tau(   8) = (   0.4801583   0.7600008  12.7739736  )
         9           Ti1 tau(   9) = (   1.6476770   3.7188931   2.6545865  )
        10           O1  tau(  10) = (   1.6476770   5.2064503   3.9361215  )
        11           Ti1 tau(  11) = (   1.6476770   5.2064503   5.9499405  )
        12           O1  tau(  12) = (   0.3661420   3.7188931   5.9499405  )
        13           Ti1 tau(  13) = (   1.6336050   3.7786827   9.1566831  )
        14           O1  tau(  14) = (   1.6678212   5.2513959  10.5409436  )
        15           Ti1 tau(  15) = (   1.7144009   5.2558216  12.3462911  )
        16           O1  tau(  16) = (   0.4635505   3.7986228  12.7318280  )
        17           O1  tau(  17) = (   1.6476770   2.2313359   1.3730516  )
        18           Ti1 tau(  18) = (   4.9430310   2.2313359   2.6545865  )
        19           O1  tau(  19) = (   4.9430310   2.2313359   4.6684056  )
        20           O1  tau(  20) = (   6.2245660   0.7437786   2.6545865  )
        21           O1  tau(  21) = (   3.6614961   0.7437786   2.6545865  )
        22           Ti1 tau(  22) = (   4.9430310   0.7437786   5.9499405  )
        23           O1  tau(  23) = (   1.6683653   2.2752577   7.9427336  )
        24           O1  tau(  24) = (   4.9430310   2.2313359   7.2314755  )
        25           O1  tau(  25) = (   2.9292120   0.7437786   5.9499405  )
        26           Ti1 tau(  26) = (   4.9404121   2.2664794   9.4552217  )
        27           O1  tau(  27) = (   5.0099888   2.2616732  11.2946145  )
        28           O1  tau(  28) = (   6.2612001   0.7714827   9.2659748  )
        29           O1  tau(  29) = (   3.6791272   0.7744986   9.2965846  )
        30           Ti1 tau(  30) = (   5.0117873   0.7976728  12.8161605  )
        31           O1  tau(  31) = (   4.9963122   2.2836652  13.8750618  )
        32           O1  tau(  32) = (   2.9819382   0.7448324  12.7109220  )
        33           O1  tau(  33) = (   1.6476770   5.2064503   1.3730516  )
        34           Ti1 tau(  34) = (   4.9430310   5.2064503   2.6545865  )
        35           O1  tau(  35) = (   4.9430310   5.2064503   4.6684056  )
        36           O1  tau(  36) = (   6.2245660   3.7188931   2.6545865  )
        37           O1  tau(  37) = (   3.6614961   3.7188931   2.6545865  )
        38           Ti1 tau(  38) = (   4.9430310   3.7188931   5.9499405  )
        39           O1  tau(  39) = (   1.6664207   5.2035600   7.9365221  )
        40           O1  tau(  40) = (   4.9430310   5.2064503   7.2314755  )
        41           O1  tau(  41) = (   2.9292120   3.7188931   5.9499405  )
        42           Ti1 tau(  42) = (   4.9524353   5.2460635   9.4426343  )
        43           O1  tau(  43) = (   5.0107556   5.2394944  11.2927493  )
        44           O1  tau(  44) = (   6.2663940   3.7551737   9.2646230  )
        45           O1  tau(  45) = (   3.6780957   3.7542261   9.2971476  )
        46           Ti1 tau(  46) = (   5.0587989   3.7766986  12.8010349  )
        47           O1  tau(  47) = (   5.0196089   5.2502198  13.8813978  )
        48           O1  tau(  48) = (   2.9624133   3.7943242  12.7299881  )
        49           O1  tau(  49) = (   1.7427453   2.2533568  14.8370015  )
        50           C1  tau(  50) = (   2.7496098   4.2826273  16.2318421  )
        51           H1  tau(  51) = (   3.3037454   4.9255546  15.5827400  )
        52           H1  tau(  52) = (   3.3286606   3.7870117  16.9822022  )
        53           H1  tau(  53) = (   2.3125587   3.4026405  15.5729816  )
        54           H1  tau(  54) = (   1.8391288   4.7650601  16.6448379  )

     number of k points=    40  Fermi-Dirac smearing, width (Ry)=  0.0073
                       cart. coord. in units 2pi/alat
        k(    1) = (   0.0000000   0.0000000   0.0000000), wk =   0.0277778
        k(    2) = (   0.0000000   0.0280101   0.0000000), wk =   0.0555556
        k(    3) = (   0.0000000   0.0560203   0.0000000), wk =   0.0555556
        k(    4) = (   0.0000000  -0.0840304   0.0000000), wk =   0.0277778
        k(    5) = (   0.0252881   0.0000000   0.0000000), wk =   0.0555556
        k(    6) = (   0.0252881   0.0280101   0.0000000), wk =   0.0555556
        k(    7) = (   0.0252881   0.0560203   0.0000000), wk =   0.0555556
        k(    8) = (   0.0252881  -0.0840304   0.0000000), wk =   0.0555556
        k(    9) = (   0.0505763   0.0000000   0.0000000), wk =   0.0555556
        k(   10) = (   0.0505763   0.0280101   0.0000000), wk =   0.0555556
        k(   11) = (   0.0505763   0.0560203   0.0000000), wk =   0.0555556
        k(   12) = (   0.0505763  -0.0840304   0.0000000), wk =   0.0555556
        k(   13) = (  -0.0758644   0.0000000   0.0000000), wk =   0.0277778
        k(   14) = (  -0.0758644   0.0280101   0.0000000), wk =   0.0555556
        k(   15) = (  -0.0758644   0.0560203   0.0000000), wk =   0.0555556
        k(   16) = (  -0.0758644  -0.0840304   0.0000000), wk =   0.0277778
        k(   17) = (  -0.0252881   0.0280101   0.0000000), wk =   0.0555556
        k(   18) = (  -0.0252881   0.0560203   0.0000000), wk =   0.0555556
        k(   19) = (  -0.0505763   0.0280101   0.0000000), wk =   0.0555556
        k(   20) = (  -0.0505763   0.0560203   0.0000000), wk =   0.0555556
        k(   21) = (   0.0000000   0.0000000   0.0000000), wk =   0.0277778
        k(   22) = (   0.0000000   0.0280101   0.0000000), wk =   0.0555556
        k(   23) = (   0.0000000   0.0560203   0.0000000), wk =   0.0555556
        k(   24) = (   0.0000000  -0.0840304   0.0000000), wk =   0.0277778
        k(   25) = (   0.0252881   0.0000000   0.0000000), wk =   0.0555556
        k(   26) = (   0.0252881   0.0280101   0.0000000), wk =   0.0555556
        k(   27) = (   0.0252881   0.0560203   0.0000000), wk =   0.0555556
        k(   28) = (   0.0252881  -0.0840304   0.0000000), wk =   0.0555556
        k(   29) = (   0.0505763   0.0000000   0.0000000), wk =   0.0555556
        k(   30) = (   0.0505763   0.0280101   0.0000000), wk =   0.0555556
        k(   31) = (   0.0505763   0.0560203   0.0000000), wk =   0.0555556
        k(   32) = (   0.0505763  -0.0840304   0.0000000), wk =   0.0555556
        k(   33) = (  -0.0758644   0.0000000   0.0000000), wk =   0.0277778
        k(   34) = (  -0.0758644   0.0280101   0.0000000), wk =   0.0555556
        k(   35) = (  -0.0758644   0.0560203   0.0000000), wk =   0.0555556
        k(   36) = (  -0.0758644  -0.0840304   0.0000000), wk =   0.0277778
        k(   37) = (  -0.0252881   0.0280101   0.0000000), wk =   0.0555556
        k(   38) = (  -0.0252881   0.0560203   0.0000000), wk =   0.0555556
        k(   39) = (  -0.0505763   0.0280101   0.0000000), wk =   0.0555556
        k(   40) = (  -0.0505763   0.0560203   0.0000000), wk =   0.0555556

     Dense  grid:  1096637 G-vectors     FFT dimensions: (  80,  72, 375)

     Smooth grid:   277353 G-vectors     FFT dimensions: (  54,  45, 240)

     Largest allocated arrays     est. size (Mb)     dimensions
        Kohn-Sham Wavefunctions         9.95 Mb     (    2180,  299)
        NL pseudopotentials            18.89 Mb     (    2180,  568)
        Each V/rho on FFT grid          4.22 Mb     (  138240,   2)
        Each G-vector array             0.52 Mb     (   68538)
        G-vector shells                 0.25 Mb     (   33046)
     Largest temporary arrays     est. size (Mb)     dimensions
        Auxiliary wavefunctions        39.78 Mb     (    2180, 1196)
        Each subspace H/S matrix       21.83 Mb     (    1196, 1196)
        Each <psi_i|beta_j> matrix      2.59 Mb     (     568,  299)
        Arrays for rho mixing          21.09 Mb     (  138240,   10)

     Check: negative/imaginary core charge=   -0.000049    0.000000

     The initial density is read from file :
     ./calc.save/charge-density.dat


     negative rho (up, down):  1.189E-02 1.196E-02


     ************************************************************************
     *
     * You are using vdW-DF for exchange-correlation in this calculation.
     * Please cite the following three references that made this development
     * possible:
     *
     *   M. Dion, H. Rydberg, E. Schroder, D. C. Langreth, and
     *   B. I. Lundqvist, Phys. Rev. Lett. 92, 246401 (2004).
     *
     *   T. Thonhauser, V. R. Cooper, S. Li, A. Puzder, P. Hyldgaard, and
     *   D. C. Langreth, Phys. Rev. B 76, 125112 (2007).
     *
     *   G. Roman-Perez and J. M. Soler, Phys. Rev. Lett. 103, 096102 (2009).
     *
     *
     * If you are using vdW-DF2, please also cite:
     *
     *   K. Lee, E. D. Murray, L. Kong, B. I. Lundqvist, and
     *   D. C. Langreth, Phys. Rev. B 82, 081101(R) (2010).
     *
     *
     * If you are calculating the stress with vdW-DF, please also cite:
     *
     *   R. Sabatini, E. Kucukbenli, B. Kolb, T. Thonhauser, and
     *   S. de Gironcoli, J. Phys.: Condens. Matter 24, 424209 (2012).
     *
     ************************************************************************

     Carrying out vdW-DF run using the following parameters:

     Nqs =      20    Nr_points =    1024   r_max =   100.000
     q_mesh =
               0.00001000     0.04494208     0.09755937     0.15916263
               0.23128650     0.31572767     0.41458969     0.53033537
               0.66584808     0.82450364     1.01025438     1.22772762
               1.48234092     1.78043706     2.12944203     2.53805004
               3.01644009     3.57652955     4.23227104     5.00000000

     Gradients computed in reciprocal space

     ************************************************************************


     Starting wfc are  300 randomized atomic wfcs

     total cpu time spent up to now is       78.6 secs

     Self-consistent Calculation

     iteration #  1     ecut=    40.42 Ry     beta=0.10
     Davidson diagonalization with overlap
     ethr =  1.00E-05,  avg # of iterations = 14.9

     negative rho (up, down):  1.189E-02 1.196E-02
 
     Magnetic moment per site:
     atom:    1    charge:    3.1244    magn:   -0.0003    constr:    0.0000
     atom:    2    charge:    2.0897    magn:    0.0003    constr:    0.0000
     atom:    3    charge:    3.1198    magn:   -0.0000    constr:    0.0000
     atom:    4    charge:    2.0867    magn:   -0.0001    constr:    0.0000
     atom:    5    charge:    3.1161    magn:   -0.0002    constr:    0.0000
     atom:    6    charge:    2.0795    magn:    0.0020    constr:    0.0000
     atom:    7    charge:    3.1168    magn:   -0.0052    constr:    0.0000
     atom:    8    charge:    2.0794    magn:    0.0248    constr:    0.0000
     atom:    9    charge:    3.1244    magn:   -0.0003    constr:    0.0000
     atom:   10    charge:    2.0898    magn:    0.0003    constr:    0.0000
     atom:   11    charge:    3.1198    magn:   -0.0000    constr:    0.0000
     atom:   12    charge:    2.0871    magn:   -0.0000    constr:    0.0000
     atom:   13    charge:    3.1150    magn:   -0.0002    constr:    0.0000
     atom:   14    charge:    2.0939    magn:    0.0022    constr:    0.0000
     atom:   15    charge:    3.1183    magn:   -0.0008    constr:    0.0000
     atom:   16    charge:    2.0827    magn:    0.0047    constr:    0.0000
     atom:   17    charge:    2.0624    magn:    0.0018    constr:    0.0000
     atom:   18    charge:    3.1239    magn:   -0.0001    constr:    0.0000
     atom:   19    charge:    2.0876    magn:    0.0001    constr:    0.0000
     atom:   20    charge:    2.0847    magn:    0.0002    constr:    0.0000
     atom:   21    charge:    2.0847    magn:    0.0002    constr:    0.0000
     atom:   22    charge:    3.1199    magn:    0.0000    constr:    0.0000
     atom:   23    charge:    2.0908    magn:    0.0002    constr:    0.0000
     atom:   24    charge:    2.0754    magn:   -0.0002    constr:    0.0000
     atom:   25    charge:    2.0868    magn:    0.0000    constr:    0.0000
     atom:   26    charge:    3.1126    magn:   -0.0002    constr:    0.0000
     atom:   27    charge:    2.0803    magn:    0.0025    constr:    0.0000
     atom:   28    charge:    2.0839    magn:    0.0006    constr:    0.0000
     atom:   29    charge:    2.0861    magn:    0.0008    constr:    0.0000
     atom:   30    charge:    3.1170    magn:   -0.0008    constr:    0.0000
     atom:   31    charge:    2.0827    magn:    0.0006    constr:    0.0000
     atom:   32    charge:    2.0830    magn:    0.0065    constr:    0.0000
     atom:   33    charge:    2.0624    magn:    0.0018    constr:    0.0000
     atom:   34    charge:    3.1239    magn:   -0.0001    constr:    0.0000
     atom:   35    charge:    2.0876    magn:    0.0001    constr:    0.0000
     atom:   36    charge:    2.0847    magn:    0.0002    constr:    0.0000
     atom:   37    charge:    2.0847    magn:    0.0002    constr:    0.0000
     atom:   38    charge:    3.1200    magn:    0.0000    constr:    0.0000
     atom:   39    charge:    2.0839    magn:    0.0002    constr:    0.0000
     atom:   40    charge:    2.0757    magn:   -0.0003    constr:    0.0000
     atom:   41    charge:    2.0870    magn:   -0.0000    constr:    0.0000
     atom:   42    charge:    3.1151    magn:   -0.0002    constr:    0.0000
     atom:   43    charge:    2.0803    magn:    0.0030    constr:    0.0000
     atom:   44    charge:    2.0851    magn:    0.0008    constr:    0.0000
     atom:   45    charge:    2.0859    magn:    0.0004    constr:    0.0000
     atom:   46    charge:    3.1147    magn:   -0.0007    constr:    0.0000
     atom:   47    charge:    2.0810    magn:    0.0046    constr:    0.0000
     atom:   48    charge:    2.0839    magn:    0.0135    constr:    0.0000
     atom:   49    charge:    2.0513    magn:    0.2396    constr:    0.0000
     atom:   50    charge:    0.6714    magn:    0.0540    constr:    0.0000
     atom:   51    charge:    0.4238    magn:    0.0009    constr:    0.0000
     atom:   52    charge:    0.4245    magn:    0.0008    constr:    0.0000
     atom:   53    charge:    0.3663    magn:    0.0233    constr:    0.0000
     atom:   54    charge:    0.4204    magn:    0.0006    constr:    0.0000

     total cpu time spent up to now is     1050.0 secs

     total energy              =   -3021.15381053 Ry
     Harris-Foulkes estimate   =   -3021.15660774 Ry
     estimated scf accuracy    <       0.01895964 Ry

     total magnetization       =     1.07 Bohr mag/cell
     absolute magnetization    =     1.24 Bohr mag/cell

     iteration #  2     ecut=    40.42 Ry     beta=0.10
     Davidson diagonalization with overlap
     ethr =  4.76E-06,  avg # of iterations =  1.6

     negative rho (up, down):  1.189E-02 1.196E-02
 
     Magnetic moment per site:
     atom:    1    charge:    3.1244    magn:   -0.0003    constr:    0.0000
     atom:    2    charge:    2.0897    magn:    0.0003    constr:    0.0000
     atom:    3    charge:    3.1198    magn:   -0.0000    constr:    0.0000
     atom:    4    charge:    2.0867    magn:   -0.0001    constr:    0.0000
     atom:    5    charge:    3.1161    magn:   -0.0002    constr:    0.0000
     atom:    6    charge:    2.0794    magn:    0.0021    constr:    0.0000
     atom:    7    charge:    3.1167    magn:   -0.0052    constr:    0.0000
     atom:    8    charge:    2.0794    magn:    0.0246    constr:    0.0000
     atom:    9    charge:    3.1244    magn:   -0.0003    constr:    0.0000
     atom:   10    charge:    2.0899    magn:    0.0003    constr:    0.0000
     atom:   11    charge:    3.1198    magn:   -0.0000    constr:    0.0000
     atom:   12    charge:    2.0870    magn:   -0.0000    constr:    0.0000
     atom:   13    charge:    3.1150    magn:   -0.0002    constr:    0.0000
     atom:   14    charge:    2.0939    magn:    0.0022    constr:    0.0000
     atom:   15    charge:    3.1183    magn:   -0.0008    constr:    0.0000
     atom:   16    charge:    2.0827    magn:    0.0047    constr:    0.0000
     atom:   17    charge:    2.0630    magn:    0.0016    constr:    0.0000
     atom:   18    charge:    3.1240    magn:   -0.0001    constr:    0.0000
     atom:   19    charge:    2.0875    magn:    0.0001    constr:    0.0000
     atom:   20    charge:    2.0847    magn:    0.0001    constr:    0.0000
     atom:   21    charge:    2.0847    magn:    0.0001    constr:    0.0000
     atom:   22    charge:    3.1199    magn:    0.0000    constr:    0.0000
     atom:   23    charge:    2.0907    magn:    0.0002    constr:    0.0000
     atom:   24    charge:    2.0752    magn:   -0.0002    constr:    0.0000
     atom:   25    charge:    2.0867    magn:    0.0000    constr:    0.0000
     atom:   26    charge:    3.1126    magn:   -0.0002    constr:    0.0000
     atom:   27    charge:    2.0801    magn:    0.0025    constr:    0.0000
     atom:   28    charge:    2.0837    magn:    0.0006    constr:    0.0000
     atom:   29    charge:    2.0859    magn:    0.0008    constr:    0.0000
     atom:   30    charge:    3.1170    magn:   -0.0008    constr:    0.0000
     atom:   31    charge:    2.0830    magn:    0.0006    constr:    0.0000
     atom:   32    charge:    2.0830    magn:    0.0065    constr:    0.0000
     atom:   33    charge:    2.0630    magn:    0.0016    constr:    0.0000
     atom:   34    charge:    3.1240    magn:   -0.0001    constr:    0.0000
     atom:   35    charge:    2.0875    magn:    0.0001    constr:    0.0000
     atom:   36    charge:    2.0847    magn:    0.0001    constr:    0.0000
     atom:   37    charge:    2.0847    magn:    0.0001    constr:    0.0000
     atom:   38    charge:    3.1200    magn:    0.0000    constr:    0.0000
     atom:   39    charge:    2.0839    magn:    0.0002    constr:    0.0000
     atom:   40    charge:    2.0755    magn:   -0.0002    constr:    0.0000
     atom:   41    charge:    2.0870    magn:   -0.0000    constr:    0.0000
     atom:   42    charge:    3.1151    magn:   -0.0002    constr:    0.0000
     atom:   43    charge:    2.0802    magn:    0.0030    constr:    0.0000
     atom:   44    charge:    2.0850    magn:    0.0009    constr:    0.0000
     atom:   45    charge:    2.0857    magn:    0.0004    constr:    0.0000
     atom:   46    charge:    3.1148    magn:   -0.0007    constr:    0.0000
     atom:   47    charge:    2.0814    magn:    0.0046    constr:    0.0000
     atom:   48    charge:    2.0840    magn:    0.0133    constr:    0.0000
     atom:   49    charge:    2.0514    magn:    0.2389    constr:    0.0000
     atom:   50    charge:    0.6717    magn:    0.0547    constr:    0.0000
     atom:   51    charge:    0.4287    magn:    0.0009    constr:    0.0000
     atom:   52    charge:    0.4296    magn:    0.0008    constr:    0.0000
     atom:   53    charge:    0.3631    magn:    0.0235    constr:    0.0000
     atom:   54    charge:    0.4128    magn:    0.0005    constr:    0.0000

     total cpu time spent up to now is     1262.0 secs

     total energy              =   -3021.14825571 Ry
     Harris-Foulkes estimate   =   -3021.15395591 Ry
     estimated scf accuracy    <       0.01322580 Ry

     total magnetization       =     1.06 Bohr mag/cell
     absolute magnetization    =     1.23 Bohr mag/cell

     iteration #  3     ecut=    40.42 Ry     beta=0.10
     Davidson diagonalization with overlap
     ethr =  3.32E-06,  avg # of iterations =  4.4

     negative rho (up, down):  1.189E-02 1.196E-02
 
     Magnetic moment per site:
     atom:    1    charge:    3.1244    magn:   -0.0003    constr:    0.0000
     atom:    2    charge:    2.0896    magn:    0.0003    constr:    0.0000
     atom:    3    charge:    3.1198    magn:   -0.0000    constr:    0.0000
     atom:    4    charge:    2.0867    magn:   -0.0001    constr:    0.0000
     atom:    5    charge:    3.1161    magn:   -0.0002    constr:    0.0000
     atom:    6    charge:    2.0795    magn:    0.0021    constr:    0.0000
     atom:    7    charge:    3.1166    magn:   -0.0051    constr:    0.0000
     atom:    8    charge:    2.0794    magn:    0.0245    constr:    0.0000
     atom:    9    charge:    3.1244    magn:   -0.0003    constr:    0.0000
     atom:   10    charge:    2.0898    magn:    0.0003    constr:    0.0000
     atom:   11    charge:    3.1198    magn:   -0.0000    constr:    0.0000
     atom:   12    charge:    2.0870    magn:   -0.0000    constr:    0.0000
     atom:   13    charge:    3.1150    magn:   -0.0002    constr:    0.0000
     atom:   14    charge:    2.0939    magn:    0.0022    constr:    0.0000
     atom:   15    charge:    3.1184    magn:   -0.0008    constr:    0.0000
     atom:   16    charge:    2.0828    magn:    0.0047    constr:    0.0000
     atom:   17    charge:    2.0624    magn:    0.0015    constr:    0.0000
     atom:   18    charge:    3.1240    magn:   -0.0001    constr:    0.0000
     atom:   19    charge:    2.0875    magn:    0.0001    constr:    0.0000
     atom:   20    charge:    2.0847    magn:    0.0001    constr:    0.0000
     atom:   21    charge:    2.0847    magn:    0.0001    constr:    0.0000
     atom:   22    charge:    3.1199    magn:    0.0000    constr:    0.0000
     atom:   23    charge:    2.0908    magn:    0.0002    constr:    0.0000
     atom:   24    charge:    2.0753    magn:   -0.0001    constr:    0.0000
     atom:   25    charge:    2.0867    magn:    0.0000    constr:    0.0000
     atom:   26    charge:    3.1126    magn:   -0.0002    constr:    0.0000
     atom:   27    charge:    2.0803    magn:    0.0025    constr:    0.0000
     atom:   28    charge:    2.0839    magn:    0.0006    constr:    0.0000
     atom:   29    charge:    2.0860    magn:    0.0008    constr:    0.0000
     atom:   30    charge:    3.1170    magn:   -0.0008    constr:    0.0000
     atom:   31    charge:    2.0830    magn:    0.0006    constr:    0.0000
     atom:   32    charge:    2.0831    magn:    0.0064    constr:    0.0000
     atom:   33    charge:    2.0624    magn:    0.0016    constr:    0.0000
     atom:   34    charge:    3.1240    magn:   -0.0001    constr:    0.0000
     atom:   35    charge:    2.0875    magn:    0.0001    constr:    0.0000
     atom:   36    charge:    2.0847    magn:    0.0001    constr:    0.0000
     atom:   37    charge:    2.0847    magn:    0.0001    constr:    0.0000
     atom:   38    charge:    3.1200    magn:    0.0000    constr:    0.0000
     atom:   39    charge:    2.0839    magn:    0.0002    constr:    0.0000
     atom:   40    charge:    2.0756    magn:   -0.0002    constr:    0.0000
     atom:   41    charge:    2.0870    magn:   -0.0000    constr:    0.0000
     atom:   42    charge:    3.1151    magn:   -0.0002    constr:    0.0000
     atom:   43    charge:    2.0803    magn:    0.0030    constr:    0.0000
     atom:   44    charge:    2.0851    magn:    0.0009    constr:    0.0000
     atom:   45    charge:    2.0858    magn:    0.0004    constr:    0.0000
     atom:   46    charge:    3.1148    magn:   -0.0007    constr:    0.0000
     atom:   47    charge:    2.0815    magn:    0.0045    constr:    0.0000
     atom:   48    charge:    2.0841    magn:    0.0132    constr:    0.0000
     atom:   49    charge:    2.0517    magn:    0.2385    constr:    0.0000
     atom:   50    charge:    0.6718    magn:    0.0551    constr:    0.0000
     atom:   51    charge:    0.4309    magn:    0.0009    constr:    0.0000
     atom:   52    charge:    0.4319    magn:    0.0008    constr:    0.0000
     atom:   53    charge:    0.3618    magn:    0.0235    constr:    0.0000
     atom:   54    charge:    0.4095    magn:    0.0005    constr:    0.0000

     total cpu time spent up to now is     1536.4 secs

     total energy              =   -3021.14761778 Ry
     Harris-Foulkes estimate   =   -3021.14975005 Ry
     estimated scf accuracy    <       0.02066364 Ry

     total magnetization       =     1.05 Bohr mag/cell
     absolute magnetization    =     1.22 Bohr mag/cell

     iteration #  4     ecut=    40.42 Ry     beta=0.10
     Davidson diagonalization with overlap
     ethr =  3.32E-06,  avg # of iterations =  3.6

     negative rho (up, down):  1.189E-02 1.196E-02
 
     Magnetic moment per site:
     atom:    1    charge:    3.1244    magn:   -0.0003    constr:    0.0000
     atom:    2    charge:    2.0897    magn:    0.0003    constr:    0.0000
     atom:    3    charge:    3.1198    magn:   -0.0000    constr:    0.0000
     atom:    4    charge:    2.0868    magn:   -0.0001    constr:    0.0000
     atom:    5    charge:    3.1161    magn:   -0.0002    constr:    0.0000
     atom:    6    charge:    2.0795    magn:    0.0021    constr:    0.0000
     atom:    7    charge:    3.1166    magn:   -0.0051    constr:    0.0000
     atom:    8    charge:    2.0793    magn:    0.0245    constr:    0.0000
     atom:    9    charge:    3.1244    magn:   -0.0003    constr:    0.0000
     atom:   10    charge:    2.0898    magn:    0.0003    constr:    0.0000
     atom:   11    charge:    3.1198    magn:   -0.0000    constr:    0.0000
     atom:   12    charge:    2.0871    magn:   -0.0000    constr:    0.0000
     atom:   13    charge:    3.1150    magn:   -0.0002    constr:    0.0000
     atom:   14    charge:    2.0939    magn:    0.0022    constr:    0.0000
     atom:   15    charge:    3.1184    magn:   -0.0008    constr:    0.0000
     atom:   16    charge:    2.0829    magn:    0.0047    constr:    0.0000
     atom:   17    charge:    2.0624    magn:    0.0015    constr:    0.0000
     atom:   18    charge:    3.1240    magn:   -0.0001    constr:    0.0000
     atom:   19    charge:    2.0876    magn:    0.0001    constr:    0.0000
     atom:   20    charge:    2.0847    magn:    0.0001    constr:    0.0000
     atom:   21    charge:    2.0847    magn:    0.0001    constr:    0.0000
     atom:   22    charge:    3.1199    magn:    0.0000    constr:    0.0000
     atom:   23    charge:    2.0908    magn:    0.0002    constr:    0.0000
     atom:   24    charge:    2.0754    magn:   -0.0001    constr:    0.0000
     atom:   25    charge:    2.0868    magn:    0.0000    constr:    0.0000
     atom:   26    charge:    3.1127    magn:   -0.0002    constr:    0.0000
     atom:   27    charge:    2.0802    magn:    0.0025    constr:    0.0000
     atom:   28    charge:    2.0839    magn:    0.0006    constr:    0.0000
     atom:   29    charge:    2.0860    magn:    0.0008    constr:    0.0000
     atom:   30    charge:    3.1171    magn:   -0.0008    constr:    0.0000
     atom:   31    charge:    2.0828    magn:    0.0006    constr:    0.0000
     atom:   32    charge:    2.0829    magn:    0.0064    constr:    0.0000
     atom:   33    charge:    2.0624    magn:    0.0015    constr:    0.0000
     atom:   34    charge:    3.1239    magn:   -0.0001    constr:    0.0000
     atom:   35    charge:    2.0876    magn:    0.0001    constr:    0.0000
     atom:   36    charge:    2.0847    magn:    0.0001    constr:    0.0000
     atom:   37    charge:    2.0847    magn:    0.0001    constr:    0.0000
     atom:   38    charge:    3.1200    magn:    0.0000    constr:    0.0000
     atom:   39    charge:    2.0839    magn:    0.0002    constr:    0.0000
     atom:   40    charge:    2.0757    magn:   -0.0002    constr:    0.0000
     atom:   41    charge:    2.0871    magn:   -0.0000    constr:    0.0000
     atom:   42    charge:    3.1151    magn:   -0.0002    constr:    0.0000
     atom:   43    charge:    2.0802    magn:    0.0030    constr:    0.0000
     atom:   44    charge:    2.0851    magn:    0.0009    constr:    0.0000
     atom:   45    charge:    2.0858    magn:    0.0004    constr:    0.0000
     atom:   46    charge:    3.1148    magn:   -0.0007    constr:    0.0000
     atom:   47    charge:    2.0809    magn:    0.0045    constr:    0.0000
     atom:   48    charge:    2.0838    magn:    0.0132    constr:    0.0000
     atom:   49    charge:    2.0520    magn:    0.2383    constr:    0.0000
     atom:   50    charge:    0.6719    magn:    0.0552    constr:    0.0000
     atom:   51    charge:    0.4317    magn:    0.0009    constr:    0.0000
     atom:   52    charge:    0.4327    magn:    0.0007    constr:    0.0000
     atom:   53    charge:    0.3614    magn:    0.0235    constr:    0.0000
     atom:   54    charge:    0.4084    magn:    0.0005    constr:    0.0000

     total cpu time spent up to now is     1781.8 secs

     total energy              =   -3021.14822627 Ry
     Harris-Foulkes estimate   =   -3021.14849570 Ry
     estimated scf accuracy    <       0.00188981 Ry

     total magnetization       =     1.06 Bohr mag/cell
     absolute magnetization    =     1.23 Bohr mag/cell

     iteration #  5     ecut=    40.42 Ry     beta=0.10
     Davidson diagonalization with overlap
     ethr =  4.75E-07,  avg # of iterations =  3.0

     negative rho (up, down):  1.189E-02 1.196E-02
 
     Magnetic moment per site:
     atom:    1    charge:    3.1244    magn:   -0.0002    constr:    0.0000
     atom:    2    charge:    2.0897    magn:    0.0002    constr:    0.0000
     atom:    3    charge:    3.1198    magn:   -0.0000    constr:    0.0000
     atom:    4    charge:    2.0867    magn:   -0.0001    constr:    0.0000
     atom:    5    charge:    3.1161    magn:   -0.0002    constr:    0.0000
     atom:    6    charge:    2.0795    magn:    0.0021    constr:    0.0000
     atom:    7    charge:    3.1166    magn:   -0.0051    constr:    0.0000
     atom:    8    charge:    2.0792    magn:    0.0246    constr:    0.0000
     atom:    9    charge:    3.1244    magn:   -0.0003    constr:    0.0000
     atom:   10    charge:    2.0898    magn:    0.0003    constr:    0.0000
     atom:   11    charge:    3.1198    magn:   -0.0000    constr:    0.0000
     atom:   12    charge:    2.0871    magn:   -0.0000    constr:    0.0000
     atom:   13    charge:    3.1150    magn:   -0.0002    constr:    0.0000
     atom:   14    charge:    2.0938    magn:    0.0022    constr:    0.0000
     atom:   15    charge:    3.1185    magn:   -0.0008    constr:    0.0000
     atom:   16    charge:    2.0830    magn:    0.0046    constr:    0.0000
     atom:   17    charge:    2.0624    magn:    0.0014    constr:    0.0000
     atom:   18    charge:    3.1240    magn:   -0.0001    constr:    0.0000
     atom:   19    charge:    2.0875    magn:    0.0001    constr:    0.0000
     atom:   20    charge:    2.0847    magn:    0.0001    constr:    0.0000
     atom:   21    charge:    2.0847    magn:    0.0001    constr:    0.0000
     atom:   22    charge:    3.1199    magn:    0.0000    constr:    0.0000
     atom:   23    charge:    2.0908    magn:    0.0002    constr:    0.0000
     atom:   24    charge:    2.0754    magn:   -0.0001    constr:    0.0000
     atom:   25    charge:    2.0867    magn:    0.0000    constr:    0.0000
     atom:   26    charge:    3.1127    magn:   -0.0002    constr:    0.0000
     atom:   27    charge:    2.0802    magn:    0.0025    constr:    0.0000
     atom:   28    charge:    2.0839    magn:    0.0007    constr:    0.0000
     atom:   29    charge:    2.0860    magn:    0.0008    constr:    0.0000
     atom:   30    charge:    3.1172    magn:   -0.0008    constr:    0.0000
     atom:   31    charge:    2.0825    magn:    0.0006    constr:    0.0000
     atom:   32    charge:    2.0828    magn:    0.0064    constr:    0.0000
     atom:   33    charge:    2.0624    magn:    0.0014    constr:    0.0000
     atom:   34    charge:    3.1239    magn:   -0.0001    constr:    0.0000
     atom:   35    charge:    2.0876    magn:    0.0001    constr:    0.0000
     atom:   36    charge:    2.0847    magn:    0.0001    constr:    0.0000
     atom:   37    charge:    2.0847    magn:    0.0001    constr:    0.0000
     atom:   38    charge:    3.1200    magn:    0.0000    constr:    0.0000
     atom:   39    charge:    2.0839    magn:    0.0002    constr:    0.0000
     atom:   40    charge:    2.0756    magn:   -0.0002    constr:    0.0000
     atom:   41    charge:    2.0870    magn:   -0.0000    constr:    0.0000
     atom:   42    charge:    3.1151    magn:   -0.0002    constr:    0.0000
     atom:   43    charge:    2.0802    magn:    0.0030    constr:    0.0000
     atom:   44    charge:    2.0851    magn:    0.0009    constr:    0.0000
     atom:   45    charge:    2.0858    magn:    0.0004    constr:    0.0000
     atom:   46    charge:    3.1148    magn:   -0.0007    constr:    0.0000
     atom:   47    charge:    2.0805    magn:    0.0046    constr:    0.0000
     atom:   48    charge:    2.0836    magn:    0.0132    constr:    0.0000
     atom:   49    charge:    2.0523    magn:    0.2381    constr:    0.0000
     atom:   50    charge:    0.6721    magn:    0.0553    constr:    0.0000
     atom:   51    charge:    0.4318    magn:    0.0008    constr:    0.0000
     atom:   52    charge:    0.4329    magn:    0.0007    constr:    0.0000
     atom:   53    charge:    0.3616    magn:    0.0234    constr:    0.0000
     atom:   54    charge:    0.4082    magn:    0.0005    constr:    0.0000

     total cpu time spent up to now is     2018.8 secs

     total energy              =   -3021.14826191 Ry
     Harris-Foulkes estimate   =   -3021.14831999 Ry
     estimated scf accuracy    <       0.00029364 Ry

     total magnetization       =     1.06 Bohr mag/cell
     absolute magnetization    =     1.23 Bohr mag/cell

     iteration #  6     ecut=    40.42 Ry     beta=0.10
     Davidson diagonalization with overlap
     ethr =  7.38E-08,  avg # of iterations =  2.5

     negative rho (up, down):  1.189E-02 1.196E-02
 
     Magnetic moment per site:
     atom:    1    charge:    3.1244    magn:   -0.0002    constr:    0.0000
     atom:    2    charge:    2.0897    magn:    0.0002    constr:    0.0000
     atom:    3    charge:    3.1198    magn:   -0.0000    constr:    0.0000
     atom:    4    charge:    2.0867    magn:   -0.0001    constr:    0.0000
     atom:    5    charge:    3.1161    magn:   -0.0002    constr:    0.0000
     atom:    6    charge:    2.0795    magn:    0.0021    constr:    0.0000
     atom:    7    charge:    3.1166    magn:   -0.0052    constr:    0.0000
     atom:    8    charge:    2.0793    magn:    0.0246    constr:    0.0000
     atom:    9    charge:    3.1244    magn:   -0.0002    constr:    0.0000
     atom:   10    charge:    2.0898    magn:    0.0002    constr:    0.0000
     atom:   11    charge:    3.1198    magn:   -0.0000    constr:    0.0000
     atom:   12    charge:    2.0870    magn:   -0.0000    constr:    0.0000
     atom:   13    charge:    3.1150    magn:   -0.0002    constr:    0.0000
     atom:   14    charge:    2.0939    magn:    0.0022    constr:    0.0000
     atom:   15    charge:    3.1185    magn:   -0.0008    constr:    0.0000
     atom:   16    charge:    2.0829    magn:    0.0046    constr:    0.0000
     atom:   17    charge:    2.0624    magn:    0.0013    constr:    0.0000
     atom:   18    charge:    3.1239    magn:   -0.0001    constr:    0.0000
     atom:   19    charge:    2.0875    magn:    0.0001    constr:    0.0000
     atom:   20    charge:    2.0847    magn:    0.0001    constr:    0.0000
     atom:   21    charge:    2.0847    magn:    0.0001    constr:    0.0000
     atom:   22    charge:    3.1199    magn:    0.0000    constr:    0.0000
     atom:   23    charge:    2.0908    magn:    0.0002    constr:    0.0000
     atom:   24    charge:    2.0754    magn:   -0.0001    constr:    0.0000
     atom:   25    charge:    2.0867    magn:    0.0000    constr:    0.0000
     atom:   26    charge:    3.1127    magn:   -0.0002    constr:    0.0000
     atom:   27    charge:    2.0803    magn:    0.0026    constr:    0.0000
     atom:   28    charge:    2.0839    magn:    0.0007    constr:    0.0000
     atom:   29    charge:    2.0860    magn:    0.0008    constr:    0.0000
     atom:   30    charge:    3.1172    magn:   -0.0008    constr:    0.0000
     atom:   31    charge:    2.0824    magn:    0.0006    constr:    0.0000
     atom:   32    charge:    2.0829    magn:    0.0064    constr:    0.0000
     atom:   33    charge:    2.0624    magn:    0.0014    constr:    0.0000
     atom:   34    charge:    3.1239    magn:   -0.0001    constr:    0.0000
     atom:   35    charge:    2.0876    magn:    0.0000    constr:    0.0000
     atom:   36    charge:    2.0847    magn:    0.0001    constr:    0.0000
     atom:   37    charge:    2.0847    magn:    0.0001    constr:    0.0000
     atom:   38    charge:    3.1200    magn:    0.0000    constr:    0.0000
     atom:   39    charge:    2.0839    magn:    0.0002    constr:    0.0000
     atom:   40    charge:    2.0756    magn:   -0.0002    constr:    0.0000
     atom:   41    charge:    2.0870    magn:   -0.0000    constr:    0.0000
     atom:   42    charge:    3.1151    magn:   -0.0002    constr:    0.0000
     atom:   43    charge:    2.0803    magn:    0.0031    constr:    0.0000
     atom:   44    charge:    2.0851    magn:    0.0009    constr:    0.0000
     atom:   45    charge:    2.0858    magn:    0.0005    constr:    0.0000
     atom:   46    charge:    3.1147    magn:   -0.0007    constr:    0.0000
     atom:   47    charge:    2.0804    magn:    0.0046    constr:    0.0000
     atom:   48    charge:    2.0836    magn:    0.0132    constr:    0.0000
     atom:   49    charge:    2.0521    magn:    0.2379    constr:    0.0000
     atom:   50    charge:    0.6721    magn:    0.0553    constr:    0.0000
     atom:   51    charge:    0.4319    magn:    0.0008    constr:    0.0000
     atom:   52    charge:    0.4330    magn:    0.0007    constr:    0.0000
     atom:   53    charge:    0.3618    magn:    0.0233    constr:    0.0000
     atom:   54    charge:    0.4082    magn:    0.0005    constr:    0.0000

     total cpu time spent up to now is     2247.1 secs

     total energy              =   -3021.14826177 Ry
     Harris-Foulkes estimate   =   -3021.14827798 Ry
     estimated scf accuracy    <       0.00008555 Ry

     total magnetization       =     1.06 Bohr mag/cell
     absolute magnetization    =     1.23 Bohr mag/cell

     iteration #  7     ecut=    40.42 Ry     beta=0.10
     Davidson diagonalization with overlap
     ethr =  2.15E-08,  avg # of iterations =  3.0

     negative rho (up, down):  1.189E-02 1.196E-02
 
     Magnetic moment per site:
     atom:    1    charge:    3.1244    magn:   -0.0002    constr:    0.0000
     atom:    2    charge:    2.0897    magn:    0.0002    constr:    0.0000
     atom:    3    charge:    3.1198    magn:   -0.0000    constr:    0.0000
     atom:    4    charge:    2.0867    magn:   -0.0001    constr:    0.0000
     atom:    5    charge:    3.1161    magn:   -0.0003    constr:    0.0000
     atom:    6    charge:    2.0795    magn:    0.0021    constr:    0.0000
     atom:    7    charge:    3.1167    magn:   -0.0052    constr:    0.0000
     atom:    8    charge:    2.0793    magn:    0.0246    constr:    0.0000
     atom:    9    charge:    3.1244    magn:   -0.0002    constr:    0.0000
     atom:   10    charge:    2.0898    magn:    0.0002    constr:    0.0000
     atom:   11    charge:    3.1198    magn:   -0.0000    constr:    0.0000
     atom:   12    charge:    2.0870    magn:   -0.0000    constr:    0.0000
     atom:   13    charge:    3.1150    magn:   -0.0002    constr:    0.0000
     atom:   14    charge:    2.0939    magn:    0.0022    constr:    0.0000
     atom:   15    charge:    3.1184    magn:   -0.0008    constr:    0.0000
     atom:   16    charge:    2.0828    magn:    0.0046    constr:    0.0000
     atom:   17    charge:    2.0624    magn:    0.0012    constr:    0.0000
     atom:   18    charge:    3.1239    magn:   -0.0000    constr:    0.0000
     atom:   19    charge:    2.0876    magn:    0.0000    constr:    0.0000
     atom:   20    charge:    2.0847    magn:    0.0001    constr:    0.0000
     atom:   21    charge:    2.0847    magn:    0.0001    constr:    0.0000
     atom:   22    charge:    3.1199    magn:    0.0000    constr:    0.0000
     atom:   23    charge:    2.0908    magn:    0.0002    constr:    0.0000
     atom:   24    charge:    2.0754    magn:   -0.0001    constr:    0.0000
     atom:   25    charge:    2.0867    magn:    0.0000    constr:    0.0000
     atom:   26    charge:    3.1127    magn:   -0.0002    constr:    0.0000
     atom:   27    charge:    2.0803    magn:    0.0026    constr:    0.0000
     atom:   28    charge:    2.0839    magn:    0.0007    constr:    0.0000
     atom:   29    charge:    2.0860    magn:    0.0008    constr:    0.0000
     atom:   30    charge:    3.1171    magn:   -0.0008    constr:    0.0000
     atom:   31    charge:    2.0824    magn:    0.0006    constr:    0.0000
     atom:   32    charge:    2.0829    magn:    0.0064    constr:    0.0000
     atom:   33    charge:    2.0624    magn:    0.0012    constr:    0.0000
     atom:   34    charge:    3.1239    magn:   -0.0000    constr:    0.0000
     atom:   35    charge:    2.0876    magn:    0.0000    constr:    0.0000
     atom:   36    charge:    2.0847    magn:    0.0001    constr:    0.0000
     atom:   37    charge:    2.0847    magn:    0.0001    constr:    0.0000
     atom:   38    charge:    3.1200    magn:    0.0000    constr:    0.0000
     atom:   39    charge:    2.0839    magn:    0.0002    constr:    0.0000
     atom:   40    charge:    2.0756    magn:   -0.0002    constr:    0.0000
     atom:   41    charge:    2.0870    magn:   -0.0000    constr:    0.0000
     atom:   42    charge:    3.1151    magn:   -0.0002    constr:    0.0000
     atom:   43    charge:    2.0803    magn:    0.0031    constr:    0.0000
     atom:   44    charge:    2.0851    magn:    0.0009    constr:    0.0000
     atom:   45    charge:    2.0858    magn:    0.0005    constr:    0.0000
     atom:   46    charge:    3.1147    magn:   -0.0007    constr:    0.0000
     atom:   47    charge:    2.0805    magn:    0.0046    constr:    0.0000
     atom:   48    charge:    2.0837    magn:    0.0132    constr:    0.0000
     atom:   49    charge:    2.0518    magn:    0.2378    constr:    0.0000
     atom:   50    charge:    0.6721    magn:    0.0554    constr:    0.0000
     atom:   51    charge:    0.4314    magn:    0.0008    constr:    0.0000
     atom:   52    charge:    0.4325    magn:    0.0007    constr:    0.0000
     atom:   53    charge:    0.3624    magn:    0.0231    constr:    0.0000
     atom:   54    charge:    0.4090    magn:    0.0006    constr:    0.0000

     total cpu time spent up to now is     2488.5 secs

     total energy              =   -3021.14825849 Ry
     Harris-Foulkes estimate   =   -3021.14826719 Ry
     estimated scf accuracy    <       0.00003784 Ry

     total magnetization       =     1.06 Bohr mag/cell
     absolute magnetization    =     1.23 Bohr mag/cell

     iteration #  8     ecut=    40.42 Ry     beta=0.10
     Davidson diagonalization with overlap
     ethr =  9.51E-09,  avg # of iterations =  3.1

     negative rho (up, down):  1.189E-02 1.196E-02
 
     Magnetic moment per site:
     atom:    1    charge:    3.1244    magn:   -0.0002    constr:    0.0000
     atom:    2    charge:    2.0897    magn:    0.0002    constr:    0.0000
     atom:    3    charge:    3.1198    magn:   -0.0000    constr:    0.0000
     atom:    4    charge:    2.0867    magn:   -0.0001    constr:    0.0000
     atom:    5    charge:    3.1161    magn:   -0.0003    constr:    0.0000
     atom:    6    charge:    2.0795    magn:    0.0021    constr:    0.0000
     atom:    7    charge:    3.1166    magn:   -0.0051    constr:    0.0000
     atom:    8    charge:    2.0793    magn:    0.0247    constr:    0.0000
     atom:    9    charge:    3.1244    magn:   -0.0002    constr:    0.0000
     atom:   10    charge:    2.0898    magn:    0.0002    constr:    0.0000
     atom:   11    charge:    3.1198    magn:   -0.0000    constr:    0.0000
     atom:   12    charge:    2.0870    magn:   -0.0000    constr:    0.0000
     atom:   13    charge:    3.1150    magn:   -0.0002    constr:    0.0000
     atom:   14    charge:    2.0939    magn:    0.0022    constr:    0.0000
     atom:   15    charge:    3.1184    magn:   -0.0008    constr:    0.0000
     atom:   16    charge:    2.0828    magn:    0.0046    constr:    0.0000
     atom:   17    charge:    2.0624    magn:    0.0011    constr:    0.0000
     atom:   18    charge:    3.1239    magn:   -0.0000    constr:    0.0000
     atom:   19    charge:    2.0875    magn:    0.0000    constr:    0.0000
     atom:   20    charge:    2.0847    magn:    0.0001    constr:    0.0000
     atom:   21    charge:    2.0847    magn:    0.0001    constr:    0.0000
     atom:   22    charge:    3.1199    magn:    0.0000    constr:    0.0000
     atom:   23    charge:    2.0908    magn:    0.0002    constr:    0.0000
     atom:   24    charge:    2.0754    magn:   -0.0001    constr:    0.0000
     atom:   25    charge:    2.0867    magn:    0.0000    constr:    0.0000
     atom:   26    charge:    3.1127    magn:   -0.0003    constr:    0.0000
     atom:   27    charge:    2.0803    magn:    0.0026    constr:    0.0000
     atom:   28    charge:    2.0839    magn:    0.0007    constr:    0.0000
     atom:   29    charge:    2.0860    magn:    0.0009    constr:    0.0000
     atom:   30    charge:    3.1171    magn:   -0.0008    constr:    0.0000
     atom:   31    charge:    2.0825    magn:    0.0006    constr:    0.0000
     atom:   32    charge:    2.0829    magn:    0.0063    constr:    0.0000
     atom:   33    charge:    2.0624    magn:    0.0011    constr:    0.0000
     atom:   34    charge:    3.1239    magn:   -0.0000    constr:    0.0000
     atom:   35    charge:    2.0875    magn:    0.0000    constr:    0.0000
     atom:   36    charge:    2.0847    magn:    0.0001    constr:    0.0000
     atom:   37    charge:    2.0847    magn:    0.0001    constr:    0.0000
     atom:   38    charge:    3.1200    magn:    0.0000    constr:    0.0000
     atom:   39    charge:    2.0839    magn:    0.0002    constr:    0.0000
     atom:   40    charge:    2.0756    magn:   -0.0001    constr:    0.0000
     atom:   41    charge:    2.0870    magn:   -0.0000    constr:    0.0000
     atom:   42    charge:    3.1151    magn:   -0.0002    constr:    0.0000
     atom:   43    charge:    2.0803    magn:    0.0031    constr:    0.0000
     atom:   44    charge:    2.0851    magn:    0.0010    constr:    0.0000
     atom:   45    charge:    2.0858    magn:    0.0005    constr:    0.0000
     atom:   46    charge:    3.1148    magn:   -0.0007    constr:    0.0000
     atom:   47    charge:    2.0807    magn:    0.0046    constr:    0.0000
     atom:   48    charge:    2.0838    magn:    0.0132    constr:    0.0000
     atom:   49    charge:    2.0517    magn:    0.2376    constr:    0.0000
     atom:   50    charge:    0.6720    magn:    0.0555    constr:    0.0000
     atom:   51    charge:    0.4314    magn:    0.0008    constr:    0.0000
     atom:   52    charge:    0.4325    magn:    0.0007    constr:    0.0000
     atom:   53    charge:    0.3625    magn:    0.0231    constr:    0.0000
     atom:   54    charge:    0.4092    magn:    0.0006    constr:    0.0000

     total cpu time spent up to now is     2733.2 secs

     total energy              =   -3021.14826129 Ry
     Harris-Foulkes estimate   =   -3021.14826204 Ry
     estimated scf accuracy    <       0.00001096 Ry

     total magnetization       =     1.06 Bohr mag/cell
     absolute magnetization    =     1.23 Bohr mag/cell

     iteration #  9     ecut=    40.42 Ry     beta=0.10
     Davidson diagonalization with overlap
     ethr =  2.75E-09,  avg # of iterations =  3.5

     negative rho (up, down):  1.189E-02 1.196E-02
 
     Magnetic moment per site:
     atom:    1    charge:    3.1244    magn:   -0.0002    constr:    0.0000
     atom:    2    charge:    2.0897    magn:    0.0002    constr:    0.0000
     atom:    3    charge:    3.1198    magn:   -0.0000    constr:    0.0000
     atom:    4    charge:    2.0867    magn:   -0.0001    constr:    0.0000
     atom:    5    charge:    3.1161    magn:   -0.0003    constr:    0.0000
     atom:    6    charge:    2.0795    magn:    0.0021    constr:    0.0000
     atom:    7    charge:    3.1166    magn:   -0.0051    constr:    0.0000
     atom:    8    charge:    2.0793    magn:    0.0247    constr:    0.0000
     atom:    9    charge:    3.1244    magn:   -0.0002    constr:    0.0000
     atom:   10    charge:    2.0898    magn:    0.0002    constr:    0.0000
     atom:   11    charge:    3.1198    magn:   -0.0000    constr:    0.0000
     atom:   12    charge:    2.0870    magn:   -0.0000    constr:    0.0000
     atom:   13    charge:    3.1150    magn:   -0.0002    constr:    0.0000
     atom:   14    charge:    2.0939    magn:    0.0022    constr:    0.0000
     atom:   15    charge:    3.1184    magn:   -0.0008    constr:    0.0000
     atom:   16    charge:    2.0828    magn:    0.0046    constr:    0.0000
     atom:   17    charge:    2.0624    magn:    0.0010    constr:    0.0000
     atom:   18    charge:    3.1239    magn:   -0.0000    constr:    0.0000
     atom:   19    charge:    2.0875    magn:    0.0000    constr:    0.0000
     atom:   20    charge:    2.0847    magn:    0.0001    constr:    0.0000
     atom:   21    charge:    2.0847    magn:    0.0001    constr:    0.0000
     atom:   22    charge:    3.1199    magn:    0.0000    constr:    0.0000
     atom:   23    charge:    2.0908    magn:    0.0003    constr:    0.0000
     atom:   24    charge:    2.0754    magn:   -0.0000    constr:    0.0000
     atom:   25    charge:    2.0867    magn:    0.0000    constr:    0.0000
     atom:   26    charge:    3.1127    magn:   -0.0003    constr:    0.0000
     atom:   27    charge:    2.0802    magn:    0.0026    constr:    0.0000
     atom:   28    charge:    2.0839    magn:    0.0007    constr:    0.0000
     atom:   29    charge:    2.0860    magn:    0.0009    constr:    0.0000
     atom:   30    charge:    3.1171    magn:   -0.0008    constr:    0.0000
     atom:   31    charge:    2.0826    magn:    0.0006    constr:    0.0000
     atom:   32    charge:    2.0829    magn:    0.0063    constr:    0.0000
     atom:   33    charge:    2.0624    magn:    0.0010    constr:    0.0000
     atom:   34    charge:    3.1239    magn:   -0.0000    constr:    0.0000
     atom:   35    charge:    2.0875    magn:    0.0000    constr:    0.0000
     atom:   36    charge:    2.0847    magn:    0.0001    constr:    0.0000
     atom:   37    charge:    2.0847    magn:    0.0001    constr:    0.0000
     atom:   38    charge:    3.1200    magn:    0.0000    constr:    0.0000
     atom:   39    charge:    2.0839    magn:    0.0002    constr:    0.0000
     atom:   40    charge:    2.0756    magn:   -0.0001    constr:    0.0000
     atom:   41    charge:    2.0870    magn:   -0.0000    constr:    0.0000
     atom:   42    charge:    3.1151    magn:   -0.0002    constr:    0.0000
     atom:   43    charge:    2.0803    magn:    0.0031    constr:    0.0000
     atom:   44    charge:    2.0851    magn:    0.0010    constr:    0.0000
     atom:   45    charge:    2.0858    magn:    0.0005    constr:    0.0000
     atom:   46    charge:    3.1148    magn:   -0.0007    constr:    0.0000
     atom:   47    charge:    2.0807    magn:    0.0046    constr:    0.0000
     atom:   48    charge:    2.0837    magn:    0.0132    constr:    0.0000
     atom:   49    charge:    2.0516    magn:    0.2375    constr:    0.0000
     atom:   50    charge:    0.6720    magn:    0.0555    constr:    0.0000
     atom:   51    charge:    0.4312    magn:    0.0008    constr:    0.0000
     atom:   52    charge:    0.4322    magn:    0.0007    constr:    0.0000
     atom:   53    charge:    0.3626    magn:    0.0231    constr:    0.0000
     atom:   54    charge:    0.4096    magn:    0.0006    constr:    0.0000

     total cpu time spent up to now is     2988.7 secs

     total energy              =   -3021.14826125 Ry
     Harris-Foulkes estimate   =   -3021.14826287 Ry
     estimated scf accuracy    <       0.00000469 Ry

     total magnetization       =     1.06 Bohr mag/cell
     absolute magnetization    =     1.23 Bohr mag/cell

     iteration # 10     ecut=    40.42 Ry     beta=0.10
     Davidson diagonalization with overlap
     ethr =  1.18E-09,  avg # of iterations =  3.5

     negative rho (up, down):  1.189E-02 1.196E-02
 
     Magnetic moment per site:
     atom:    1    charge:    3.1244    magn:   -0.0001    constr:    0.0000
     atom:    2    charge:    2.0897    magn:    0.0001    constr:    0.0000
     atom:    3    charge:    3.1198    magn:   -0.0000    constr:    0.0000
     atom:    4    charge:    2.0867    magn:   -0.0001    constr:    0.0000
     atom:    5    charge:    3.1161    magn:   -0.0003    constr:    0.0000
     atom:    6    charge:    2.0795    magn:    0.0021    constr:    0.0000
     atom:    7    charge:    3.1167    magn:   -0.0051    constr:    0.0000
     atom:    8    charge:    2.0793    magn:    0.0247    constr:    0.0000
     atom:    9    charge:    3.1244    magn:   -0.0001    constr:    0.0000
     atom:   10    charge:    2.0898    magn:    0.0001    constr:    0.0000
     atom:   11    charge:    3.1198    magn:   -0.0000    constr:    0.0000
     atom:   12    charge:    2.0870    magn:   -0.0000    constr:    0.0000
     atom:   13    charge:    3.1150    magn:   -0.0002    constr:    0.0000
     atom:   14    charge:    2.0939    magn:    0.0022    constr:    0.0000
     atom:   15    charge:    3.1184    magn:   -0.0008    constr:    0.0000
     atom:   16    charge:    2.0829    magn:    0.0046    constr:    0.0000
     atom:   17    charge:    2.0624    magn:    0.0008    constr:    0.0000
     atom:   18    charge:    3.1239    magn:   -0.0000    constr:    0.0000
     atom:   19    charge:    2.0875    magn:    0.0000    constr:    0.0000
     atom:   20    charge:    2.0847    magn:    0.0001    constr:    0.0000
     atom:   21    charge:    2.0847    magn:    0.0001    constr:    0.0000
     atom:   22    charge:    3.1199    magn:    0.0000    constr:    0.0000
     atom:   23    charge:    2.0908    magn:    0.0003    constr:    0.0000
     atom:   24    charge:    2.0754    magn:   -0.0000    constr:    0.0000
     atom:   25    charge:    2.0867    magn:    0.0000    constr:    0.0000
     atom:   26    charge:    3.1127    magn:   -0.0003    constr:    0.0000
     atom:   27    charge:    2.0802    magn:    0.0027    constr:    0.0000
     atom:   28    charge:    2.0839    magn:    0.0008    constr:    0.0000
     atom:   29    charge:    2.0860    magn:    0.0009    constr:    0.0000
     atom:   30    charge:    3.1171    magn:   -0.0008    constr:    0.0000
     atom:   31    charge:    2.0826    magn:    0.0006    constr:    0.0000
     atom:   32    charge:    2.0829    magn:    0.0063    constr:    0.0000
     atom:   33    charge:    2.0624    magn:    0.0008    constr:    0.0000
     atom:   34    charge:    3.1239    magn:   -0.0000    constr:    0.0000
     atom:   35    charge:    2.0876    magn:    0.0000    constr:    0.0000
     atom:   36    charge:    2.0847    magn:    0.0001    constr:    0.0000
     atom:   37    charge:    2.0847    magn:    0.0001    constr:    0.0000
     atom:   38    charge:    3.1200    magn:    0.0000    constr:    0.0000
     atom:   39    charge:    2.0839    magn:    0.0002    constr:    0.0000
     atom:   40    charge:    2.0756    magn:   -0.0001    constr:    0.0000
     atom:   41    charge:    2.0870    magn:   -0.0000    constr:    0.0000
     atom:   42    charge:    3.1151    magn:   -0.0003    constr:    0.0000
     atom:   43    charge:    2.0803    magn:    0.0032    constr:    0.0000
     atom:   44    charge:    2.0851    magn:    0.0010    constr:    0.0000
     atom:   45    charge:    2.0858    magn:    0.0005    constr:    0.0000
     atom:   46    charge:    3.1147    magn:   -0.0007    constr:    0.0000
     atom:   47    charge:    2.0807    magn:    0.0046    constr:    0.0000
     atom:   48    charge:    2.0837    magn:    0.0132    constr:    0.0000
     atom:   49    charge:    2.0517    magn:    0.2373    constr:    0.0000
     atom:   50    charge:    0.6720    magn:    0.0557    constr:    0.0000
     atom:   51    charge:    0.4311    magn:    0.0008    constr:    0.0000
     atom:   52    charge:    0.4321    magn:    0.0006    constr:    0.0000
     atom:   53    charge:    0.3625    magn:    0.0230    constr:    0.0000
     atom:   54    charge:    0.4097    magn:    0.0007    constr:    0.0000

     total cpu time spent up to now is     3244.2 secs

     End of self-consistent calculation

 ------ SPIN UP ------------


          k = 0.0000 0.0000 0.0000 ( 34665 PWs)   bands (ev):

   -58.2980 -58.2630 -57.3797 -57.3740 -57.3410 -57.3032 -57.2517 -57.0825
   -57.0563 -57.0509 -57.0125 -56.9140 -56.8886 -56.8788 -56.7940 -56.7556
   -34.7432 -34.5666 -34.5378 -34.5046 -34.4096 -34.3528 -33.8747 -33.8623
   -33.7441 -33.6712 -33.6293 -33.5863 -33.5541 -33.5472 -33.5413 -33.5347
   -33.5230 -33.5083 -33.4829 -33.4813 -33.4668 -33.4646 -33.4626 -33.4433
   -33.3334 -33.3289 -33.3236 -33.3209 -33.3078 -33.2799 -33.2746 -33.2548
   -33.2342 -33.2292 -33.2286 -33.2193 -33.1897 -33.1687 -33.1338 -33.1326
   -33.0935 -33.0720 -33.0427 -33.0217 -33.0085 -32.9829 -32.9410 -32.8752
   -18.4633 -18.0301 -17.8056 -17.7058 -17.5446 -17.5238 -17.4788 -17.3779
   -17.3508 -17.2513 -17.0386 -17.0181 -17.0101 -16.9738 -16.9126 -16.8481
   -16.8286 -16.7915 -16.7337 -16.7007 -16.6824 -16.6497 -16.5867 -16.5823
   -16.4595 -16.4117 -16.3929 -16.3544 -16.3190 -16.1408 -16.0803 -15.5934
   -15.5326 -11.2257  -6.0419  -5.4903  -5.2762  -5.1962  -5.0872  -4.9846
    -4.9754  -4.9017  -4.8725  -4.7259  -4.6437  -4.5935  -4.5793  -4.5039
    -4.4224  -4.4074  -4.3461  -4.3100  -4.2336  -4.2123  -4.1969  -4.1356
    -4.0251  -4.0198  -3.9809  -3.9023  -3.8880  -3.8820  -3.8792  -3.8706
    -3.7758  -3.7702  -3.7401  -3.6344  -3.6168  -3.5772  -3.5344  -3.5218
    -3.5018  -3.4133  -3.4019  -3.3550  -3.2665  -3.2261  -3.1817  -3.0807
    -2.9140  -2.8902  -2.8437  -2.7952  -2.7392  -2.6873  -2.6656  -2.6547
    -2.6266  -2.5304  -2.4796  -2.4321  -2.3712  -2.3255  -2.2409  -2.2229
    -2.2180  -2.1534  -2.0627  -2.0347  -1.9918  -1.9525  -1.9233  -1.8921
    -1.8466  -1.7303  -1.6852  -1.6600  -1.6335  -1.6237  -1.5780  -1.4957
    -1.4137  -1.3599  -1.3458  -1.3300  -1.3079  -1.2626  -1.2152  -1.1639
    -1.1530  -1.1042  -1.1008  -1.0826  -1.0556  -0.9726  -0.8664  -0.8229
    -0.8016  -0.6866  -0.6802  -0.6175  -0.5457  -0.5038  -0.4761  -0.1795
     1.0328   1.1296   1.4244   1.7031   1.8111   1.9290   1.9768   2.0231
     2.0531   2.1408   2.2175   2.2381   2.2844   2.4031   2.4783   2.4919
     2.4994   2.5265   2.6288   2.6740   2.6790   2.6952   2.7179   2.8346
     2.8497   2.8942   2.9086   2.9608   2.9762   3.0292   3.0382   3.0593
     3.1134   3.1681   3.2067   3.2077   3.2553   3.2635   3.4190   3.4529
     3.4859   3.5282   3.6054   3.6340   3.6784   3.7221   3.8364   3.9635
     4.1112   4.1418   4.3341   4.4795   4.6018   4.7140   4.7919   4.8414
     5.0918   5.1404   5.2141   5.3603   5.4039   5.4108   5.4262   5.4405
     5.4480   5.5304   5.5621   5.6697   5.7263   5.7396   5.9138   5.9176
     5.9619   6.0821   6.1019   6.1441   6.2222   6.3037   6.4297   6.4971
     6.5494   6.5614   6.7887   6.8204   7.2073   7.9075   8.1468   8.1827
     8.3121   8.3938   8.6484   8.7137   8.7579   8.9740   9.1422   9.2338
     9.2842   9.4481   9.6213

          k = 0.0000 0.0280 0.0000 ( 34717 PWs)   bands (ev):

   -58.2957 -58.2653 -57.3780 -57.3723 -57.3433 -57.3043 -57.2513 -57.0823
   -57.0563 -57.0492 -57.0145 -56.9117 -56.8888 -56.8811 -56.7915 -56.7581
   -34.7178 -34.5646 -34.5398 -34.4984 -34.4161 -34.3798 -33.8493 -33.8369
   -33.7233 -33.6649 -33.6231 -33.5838 -33.5610 -33.5436 -33.5356 -33.5274
   -33.5222 -33.5102 -33.5069 -33.4897 -33.4818 -33.4652 -33.4566 -33.4368
   -33.3273 -33.3216 -33.3084 -33.3058 -33.3024 -33.2965 -33.2722 -33.2531
   -33.2389 -33.2310 -33.2293 -33.2186 -33.1949 -33.1917 -33.1399 -33.1266
   -33.1054 -33.0686 -33.0489 -33.0216 -33.0082 -32.9877 -32.9684 -32.9039
   -18.4050 -17.9704 -17.7557 -17.6756 -17.6001 -17.4999 -17.4298 -17.3659
   -17.3196 -17.2820 -17.0896 -16.9962 -16.9890 -16.9624 -16.9174 -16.8685
   -16.7897 -16.7671 -16.7544 -16.7291 -16.7002 -16.6745 -16.6115 -16.5601
   -16.4736 -16.4369 -16.3997 -16.3777 -16.3512 -16.1596 -16.1220 -15.6075
   -15.5580 -11.2266  -5.9564  -5.4061  -5.1968  -5.1257  -5.0170  -4.9463
    -4.9185  -4.8832  -4.8015  -4.7232  -4.6622  -4.6473  -4.5204  -4.5093
    -4.4100  -4.3703  -4.3566  -4.3169  -4.2511  -4.2139  -4.1944  -4.1721
    -4.0931  -4.0644  -4.0175  -4.0040  -3.9720  -3.9649  -3.9175  -3.8862
    -3.8178  -3.8056  -3.7473  -3.7165  -3.7039  -3.5997  -3.5490  -3.4329
    -3.3977  -3.3151  -3.2976  -3.2941  -3.2615  -3.1181  -3.0981  -2.9385
    -2.8975  -2.8759  -2.7943  -2.7419  -2.7375  -2.7147  -2.6819  -2.6449
    -2.5907  -2.5107  -2.4515  -2.4365  -2.4095  -2.2728  -2.2486  -2.2159
    -2.2053  -2.1463  -2.1376  -2.0212  -1.9779  -1.9504  -1.9188  -1.9068
    -1.8659  -1.7607  -1.7509  -1.7116  -1.6712  -1.6028  -1.5756  -1.5649
    -1.4946  -1.4541  -1.3829  -1.3718  -1.3682  -1.3520  -1.2776  -1.2640
    -1.2277  -1.1678  -1.1328  -1.0632  -0.9866  -0.9464  -0.9191  -0.8900
    -0.8694  -0.8314  -0.7226  -0.5924  -0.5664  -0.5526  -0.5321  -0.2205
     1.1654   1.1706   1.4257   1.8392   1.8836   1.9009   1.9336   2.0099
     2.0687   2.0867   2.3078   2.3159   2.3488   2.4658   2.5017   2.5222
     2.5298   2.5518   2.5567   2.6051   2.7221   2.7397   2.8098   2.8215
     2.8433   2.9080   2.9442   2.9726   2.9891   3.0020   3.0230   3.0740
     3.0942   3.1304   3.1841   3.2426   3.2550   3.3353   3.4437   3.4847
     3.5206   3.5513   3.5726   3.5961   3.6514   3.6750   3.7947   3.9156
     4.0657   4.2089   4.2903   4.5331   4.7125   4.7153   4.8220   4.9165
     5.1189   5.1808   5.2620   5.3103   5.3806   5.4196   5.4425   5.4845
     5.5148   5.5273   5.5563   5.6691   5.7114   5.7214   5.8297   5.8912
     5.9511   5.9996   6.0355   6.0587   6.1886   6.2573   6.3960   6.4409
     6.4586   6.5555   6.7253   6.8227   7.3117   7.4590   7.9869   8.0387
     8.3427   8.5010   8.5127   8.7046   8.7726   8.9883   9.1144   9.3063
     9.3580   9.4505   9.5220

          k = 0.0000 0.0560 0.0000 ( 34721 PWs)   bands (ev):

   -58.2893 -58.2717 -57.3745 -57.3672 -57.3497 -57.3065 -57.2506 -57.0819
   -57.0568 -57.0447 -57.0195 -56.9052 -56.8893 -56.8876 -56.7848 -56.7648
   -34.6479 -34.5594 -34.5449 -34.4812 -34.4529 -34.4337 -33.7795 -33.7674
   -33.6726 -33.6480 -33.6064 -33.5842 -33.5834 -33.5775 -33.5628 -33.5595
   -33.5315 -33.5223 -33.5051 -33.4865 -33.4632 -33.4586 -33.4550 -33.4025
   -33.3619 -33.3173 -33.3148 -33.2997 -33.2736 -33.2637 -33.2484 -33.2483
   -33.2471 -33.2387 -33.2357 -33.2172 -33.2105 -33.2012 -33.1569 -33.1251
   -33.1104 -33.0657 -33.0655 -33.0423 -33.0211 -33.0081 -32.9997 -32.9744
   -18.2439 -17.8057 -17.7838 -17.6258 -17.5929 -17.4025 -17.3834 -17.3656
   -17.2987 -17.2572 -17.2228 -17.0357 -16.9744 -16.9123 -16.9093 -16.8913
   -16.8303 -16.8086 -16.7202 -16.6968 -16.6913 -16.6657 -16.6144 -16.5528
   -16.5062 -16.5008 -16.4444 -16.4327 -16.4065 -16.2256 -16.2023 -15.6360
   -15.6117 -11.2283  -5.7170  -5.1733  -5.0379  -4.9807  -4.9441  -4.9003
    -4.8406  -4.8241  -4.8072  -4.7620  -4.7252  -4.5456  -4.4999  -4.4573
    -4.3857  -4.3845  -4.3430  -4.3120  -4.2979  -4.2793  -4.2412  -4.2052
    -4.2007  -4.1854  -4.1232  -4.0586  -4.0182  -3.9934  -3.9578  -3.9119
    -3.8931  -3.8252  -3.8000  -3.6853  -3.5932  -3.5398  -3.4048  -3.3980
    -3.3569  -3.2788  -3.2391  -3.1293  -3.0818  -3.0630  -3.0319  -3.0030
    -2.9588  -2.9494  -2.8195  -2.7890  -2.7327  -2.6883  -2.6432  -2.5486
    -2.4752  -2.4670  -2.4320  -2.3464  -2.2939  -2.2884  -2.2132  -2.1797
    -2.1445  -2.1303  -2.1111  -2.0785  -2.0457  -2.0017  -1.9866  -1.9613
    -1.9249  -1.8828  -1.8720  -1.8526  -1.8035  -1.7425  -1.6474  -1.5994
    -1.5872  -1.5694  -1.5037  -1.4647  -1.4438  -1.4375  -1.4227  -1.3683
    -1.2826  -1.2619  -1.2061  -1.1813  -1.0807  -0.9918  -0.9686  -0.9357
    -0.8512  -0.8276  -0.7293  -0.7078  -0.6127  -0.5738  -0.5564  -0.3239
     1.2944   1.4361   1.5087   1.7300   1.8067   1.8997   1.9703   2.0684
     2.1490   2.2846   2.2895   2.3415   2.4255   2.4949   2.5141   2.5400
     2.5810   2.6204   2.6708   2.7174   2.7612   2.7786   2.8096   2.8579
     2.8736   2.8923   2.9022   2.9718   3.0183   3.0365   3.0455   3.0721
     3.1333   3.1665   3.1899   3.2684   3.3165   3.3480   3.3948   3.4428
     3.4804   3.4959   3.5717   3.6200   3.6827   3.6942   3.7336   3.8098
     3.9325   4.1676   4.3313   4.6607   4.7510   4.8515   4.9430   5.0804
     5.0869   5.1838   5.2905   5.3421   5.4104   5.4460   5.4793   5.5081
     5.5087   5.5701   5.5895   5.6561   5.6614   5.7617   5.7807   5.8158
     5.8415   5.8758   5.8965   5.9398   6.1257   6.1645   6.3017   6.3694
     6.4312   6.4488   6.7259   6.7548   6.9888   7.1997   7.6032   7.7400
     8.1822   8.3669   8.6887   8.8268   8.8412   8.8899   9.1755   9.3460
     9.4248   9.5981   9.6970

          k = 0.0000-0.0840 0.0000 ( 34678 PWs)   bands (ev):

   -58.2812 -58.2798 -57.3729 -57.3609 -57.3565 -57.3077 -57.2502 -57.0817
   -57.0571 -57.0414 -57.0229 -56.8968 -56.8961 -56.8895 -56.7780 -56.7717
   -34.5530 -34.5520 -34.5511 -34.5505 -34.4581 -34.4569 -33.6956 -33.6825
   -33.6789 -33.6400 -33.6387 -33.6330 -33.6013 -33.5853 -33.5812 -33.5704
   -33.5299 -33.5241 -33.5046 -33.4957 -33.4602 -33.4537 -33.3919 -33.3766
   -33.3723 -33.3563 -33.3187 -33.3141 -33.2965 -33.2658 -33.2527 -33.2438
   -33.2422 -33.2417 -33.2171 -33.2144 -33.1658 -33.1420 -33.1411 -33.1332
   -33.1199 -33.1175 -33.0884 -33.0877 -33.0216 -33.0134 -33.0106 -33.0045
   -18.0188 -18.0181 -17.5858 -17.5767 -17.5028 -17.4796 -17.4793 -17.3886
   -17.2516 -17.2095 -17.1214 -17.0971 -17.0657 -17.0300 -16.8777 -16.8383
   -16.8013 -16.8009 -16.7995 -16.6681 -16.6062 -16.6028 -16.5965 -16.5726
   -16.5402 -16.5176 -16.5005 -16.4685 -16.4594 -16.2680 -16.2439 -15.6452
   -15.6452 -11.2292  -5.3775  -5.3773  -4.8954  -4.8812  -4.8802  -4.8670
    -4.8450  -4.7635  -4.7520  -4.7126  -4.6519  -4.5975  -4.5601  -4.5535
    -4.4844  -4.4625  -4.4394  -4.3853  -4.3693  -4.2591  -4.2470  -4.2392
    -4.1519  -4.1110  -4.0608  -4.0443  -3.9862  -3.9602  -3.8905  -3.8768
    -3.7938  -3.7624  -3.6750  -3.6647  -3.6426  -3.6177  -3.6117  -3.4064
    -3.3554  -3.3404  -3.1455  -3.0706  -3.0648  -3.0278  -2.9223  -2.9204
    -2.9111  -2.8431  -2.8200  -2.7834  -2.7675  -2.6883  -2.6626  -2.6392
    -2.5158  -2.4959  -2.4133  -2.3974  -2.3890  -2.3671  -2.3024  -2.2375
    -2.2197  -2.1586  -2.1112  -2.0496  -1.9974  -1.9730  -1.9689  -1.9639
    -1.9592  -1.9351  -1.8291  -1.7913  -1.7712  -1.7209  -1.6850  -1.6488
    -1.6331  -1.6027  -1.5843  -1.5093  -1.5005  -1.4581  -1.4386  -1.4145
    -1.3750  -1.3242  -1.2670  -1.1711  -1.1307  -1.1090  -1.0830  -1.0477
    -0.8306  -0.8076  -0.6105  -0.6015  -0.5962  -0.5882  -0.5390  -0.4902
     1.4906   1.4933   1.6428   1.6435   1.7225   1.7234   2.0935   2.0943
     2.1578   2.2127   2.3834   2.4181   2.4547   2.5008   2.5485   2.5559
     2.6631   2.6750   2.6844   2.6981   2.7499   2.7607   2.8178   2.8210
     2.9206   2.9557   2.9994   3.0271   3.0320   3.0351   3.0414   3.0449
     3.0522   3.2333   3.2428   3.2737   3.3060   3.3480   3.3742   3.4044
     3.4417   3.4567   3.5115   3.6339   3.7035   3.7430   3.7576   3.7992
     3.8543   4.0446   4.3837   4.7653   4.8408   4.8742   4.8749   5.0607
     5.1524   5.2322   5.3227   5.3387   5.3735   5.4165   5.4768   5.5520
     5.5733   5.6048   5.6080   5.6952   5.7078   5.7270   5.7378   5.7514
     5.7758   5.8164   5.8501   5.9504   6.0314   6.1657   6.2747   6.3852
     6.4664   6.4827   6.5876   6.6067   6.9258   6.9797   7.4400   7.6091
     8.0226   8.2236   8.7061   8.9392   9.1335   9.1913   9.3520   9.3535
     9.4501   9.6217   9.7063

          k = 0.0253 0.0000 0.0000 ( 34707 PWs)   bands (ev):

   -58.2980 -58.2630 -57.3793 -57.3744 -57.3410 -57.3032 -57.2517 -57.0825
   -57.0561 -57.0511 -57.0125 -56.9140 -56.8886 -56.8788 -56.7940 -56.7556
   -34.7436 -34.5666 -34.5378 -34.5038 -34.4097 -34.3528 -33.8749 -33.8642
   -33.7443 -33.6634 -33.6292 -33.5864 -33.5575 -33.5475 -33.5435 -33.5350
   -33.5231 -33.5116 -33.4825 -33.4814 -33.4656 -33.4631 -33.4609 -33.4435
   -33.3333 -33.3298 -33.3214 -33.3201 -33.3048 -33.2799 -33.2747 -33.2559
   -33.2395 -33.2287 -33.2286 -33.2191 -33.1898 -33.1688 -33.1326 -33.1323
   -33.0930 -33.0721 -33.0427 -33.0257 -33.0074 -32.9829 -32.9411 -32.8754
   -18.4187 -17.9922 -17.7844 -17.7778 -17.5545 -17.4496 -17.4429 -17.3772
   -17.3554 -17.3150 -17.1000 -17.0315 -17.0050 -16.9701 -16.9156 -16.8854
   -16.8499 -16.7872 -16.7579 -16.7359 -16.6320 -16.5899 -16.5799 -16.5722
   -16.4577 -16.4368 -16.3935 -16.3763 -16.3165 -16.1391 -16.0804 -15.5923
   -15.5324 -11.2257  -5.9170  -5.3838  -5.2081  -5.1926  -5.0678  -5.0175
    -4.9632  -4.9067  -4.8717  -4.7278  -4.6915  -4.5774  -4.5734  -4.5059
    -4.4780  -4.4022  -4.3214  -4.2600  -4.2520  -4.1999  -4.1899  -4.0988
    -4.0232  -3.9905  -3.9835  -3.9115  -3.8933  -3.8799  -3.8513  -3.8401
    -3.7728  -3.7158  -3.6256  -3.5906  -3.5596  -3.5475  -3.5162  -3.4951
    -3.4375  -3.4095  -3.3116  -3.3097  -3.2672  -3.2513  -3.2312  -3.1449
    -3.0058  -2.8951  -2.8317  -2.8111  -2.7639  -2.7364  -2.6939  -2.6632
    -2.6050  -2.5514  -2.5335  -2.4915  -2.4277  -2.3749  -2.3259  -2.2597
    -2.2403  -2.1919  -2.0836  -2.0387  -1.9973  -1.9473  -1.8762  -1.8435
    -1.8203  -1.7905  -1.7052  -1.6173  -1.5710  -1.5639  -1.5371  -1.5015
    -1.4698  -1.4256  -1.4212  -1.3848  -1.3264  -1.2974  -1.2846  -1.2135
    -1.1787  -1.1482  -1.0992  -1.0721  -1.0340  -1.0142  -0.9490  -0.9039
    -0.8275  -0.8178  -0.6638  -0.6369  -0.5993  -0.5821  -0.5504  -0.2390
     1.1154   1.1300   1.4236   1.7905   1.8266   1.9120   1.9381   2.0573
     2.0935   2.1254   2.2118   2.2526   2.3459   2.3915   2.4496   2.5136
     2.5358   2.6043   2.6363   2.6558   2.6857   2.7107   2.8201   2.8339
     2.8539   2.8574   2.8991   2.9083   2.9533   3.0353   3.0833   3.1421
     3.1986   3.2104   3.2237   3.2253   3.2499   3.3171   3.4147   3.4500
     3.4964   3.5521   3.6005   3.6423   3.7074   3.7725   3.7935   3.9168
     4.0599   4.1976   4.2721   4.4333   4.5886   4.6315   4.8174   4.8361
     4.9664   4.9921   5.0952   5.1777   5.3088   5.3244   5.4351   5.5219
     5.5655   5.7172   5.7477   5.9132   5.9211   5.9461   5.9639   5.9908
     6.0314   6.0402   6.0774   6.1764   6.2348   6.2690   6.4479   6.5036
     6.5509   6.6123   6.7465   6.8174   7.2523   7.6626   7.7545   8.0133
     8.2328   8.3025   8.3711   8.6945   8.7643   8.9444   9.1048   9.2082
     9.3887   9.4984   9.7743

          k = 0.0253 0.0280 0.0000 ( 34687 PWs)   bands (ev):

   -58.2957 -58.2653 -57.3776 -57.3727 -57.3433 -57.3043 -57.2513 -57.0823
   -57.0562 -57.0494 -57.0145 -56.9117 -56.8888 -56.8811 -56.7915 -56.7581
   -34.7181 -34.5646 -34.5397 -34.4976 -34.4160 -34.3798 -33.8495 -33.8389
   -33.7234 -33.6573 -33.6231 -33.5839 -33.5582 -33.5440 -33.5406 -33.5308
   -33.5227 -33.5110 -33.5094 -33.4893 -33.4819 -33.4591 -33.4569 -33.4374
   -33.3275 -33.3175 -33.3083 -33.3077 -33.2983 -33.2963 -33.2722 -33.2541
   -33.2432 -33.2304 -33.2294 -33.2202 -33.1945 -33.1916 -33.1380 -33.1267
   -33.1058 -33.0686 -33.0489 -33.0237 -33.0084 -32.9877 -32.9684 -32.9039
   -18.3614 -17.9338 -17.7668 -17.7302 -17.5142 -17.5117 -17.4030 -17.3591
   -17.3422 -17.3103 -17.1043 -17.0611 -16.9873 -16.9561 -16.9063 -16.8681
   -16.8209 -16.7954 -16.7860 -16.7243 -16.6613 -16.6575 -16.6038 -16.5409
   -16.4791 -16.4566 -16.4015 -16.3963 -16.3481 -16.1579 -16.1226 -15.6065
   -15.5581 -11.2265  -5.8320  -5.3004  -5.1350  -5.1188  -4.9846  -4.9464
    -4.9138  -4.8944  -4.8109  -4.6891  -4.6680  -4.6267  -4.5246  -4.4892
    -4.4304  -4.3925  -4.3043  -4.2856  -4.2359  -4.2083  -4.1753  -4.1472
    -4.1180  -4.0865  -4.0235  -3.9946  -3.9524  -3.9380  -3.8934  -3.8711
    -3.8061  -3.7749  -3.7154  -3.6822  -3.6167  -3.5884  -3.5219  -3.3961
    -3.3362  -3.3167  -3.3068  -3.2580  -3.2277  -3.1834  -3.1087  -3.0876
    -2.9214  -2.8859  -2.8317  -2.7705  -2.7408  -2.7025  -2.6704  -2.6310
    -2.6015  -2.5154  -2.4920  -2.4618  -2.4423  -2.3742  -2.3209  -2.2965
    -2.2197  -2.1798  -2.1201  -2.0554  -2.0055  -1.9451  -1.9284  -1.8995
    -1.8348  -1.8238  -1.7652  -1.7398  -1.6863  -1.6030  -1.5899  -1.5451
    -1.5350  -1.4792  -1.4347  -1.4024  -1.3664  -1.3489  -1.3395  -1.3035
    -1.2368  -1.2173  -1.1540  -1.0905  -1.0029  -0.9598  -0.9315  -0.9126
[...]
    -1.7215  -1.4981  -1.4579  -1.4465  -1.4270  -1.3899  -1.3112  -1.1469
    -1.1363  -1.0794  -1.0623  -1.0467  -0.9623  -0.9032  -0.8631  -0.7791
    -0.7257  -0.7188  -0.6898  -0.6622  -0.5871  -0.5656  -0.5513   0.3113
     1.6095   1.6130   1.6256   1.6309   1.9734   1.9742   2.1031   2.1041
     2.2871   2.3077   2.3210   2.4028   2.4258   2.4959   2.5819   2.6419
     2.6638   2.7085   2.7919   2.8252   2.8824   2.9339   2.9561   2.9840
     2.9985   3.0070   3.0480   3.1060   3.1206   3.2173   3.2430   3.2521
     3.2679   3.2916   3.3491   3.3951   3.4086   3.4139   3.4699   3.4814
     3.4916   3.5196   3.5338   3.5888   3.6458   3.6617   3.7846   3.8854
     3.9199   3.9317   4.1483   4.1487   4.5981   4.6282   4.6506   4.7360
     4.8911   4.9072   4.9401   5.0900   5.1690   5.1739   5.1931   5.4537
     5.6817   5.6906   5.7018   5.9343   5.9397   5.9736   6.0237   6.0269
     6.1018   6.1139   6.1824   6.2731   6.2786   6.2856   6.3913   6.4686
     6.5073   6.6141   7.0411   7.2312   7.3267   7.3892   7.5528   7.5887
     7.7148   7.7675   7.9160   8.1072   8.2882   8.3323   8.4518   8.8655
     9.0150   9.0435   9.2136

          k =-0.0253 0.0280 0.0000 ( 34687 PWs)   bands (ev):

   -58.2959 -58.2655 -57.3776 -57.3727 -57.3433 -57.3044 -57.2522 -57.0863
   -57.0574 -57.0506 -57.0157 -56.9125 -56.9124 -56.8819 -56.7950 -56.7617
   -34.7183 -34.5649 -34.5400 -34.4977 -34.4162 -34.3800 -33.8495 -33.8389
   -33.7242 -33.6573 -33.6230 -33.5841 -33.5581 -33.5441 -33.5406 -33.5316
   -33.5235 -33.5111 -33.5094 -33.4894 -33.4828 -33.4597 -33.4585 -33.4397
   -33.3283 -33.3191 -33.3115 -33.3091 -33.3034 -33.2976 -33.2737 -33.2548
   -33.2438 -33.2311 -33.2308 -33.2219 -33.2038 -33.1952 -33.1574 -33.1274
   -33.1239 -33.0719 -33.0496 -33.0313 -33.0124 -32.9910 -32.9692 -32.9066
   -18.3611 -17.9316 -17.7666 -17.7240 -17.5136 -17.5069 -17.3658 -17.3589
   -17.3356 -17.3056 -17.1019 -17.0590 -16.9744 -16.9293 -16.8633 -16.8210
   -16.7826 -16.7405 -16.7231 -16.6595 -16.6530 -16.5730 -16.5342 -16.4756
   -16.4514 -16.3959 -16.3560 -16.3382 -16.1476 -16.1134 -15.8726 -15.6027
   -15.5540 -10.8202  -5.8319  -5.3001  -5.1341  -5.1157  -4.9844  -4.9430
    -4.9043  -4.8149  -4.6891  -4.6681  -4.6269  -4.5267  -4.4888  -4.4322
    -4.3986  -4.3040  -4.2807  -4.2413  -4.1963  -4.1746  -4.1333  -4.1177
    -4.0841  -4.0374  -3.9966  -3.9815  -3.9480  -3.9040  -3.8803  -3.8041
    -3.7814  -3.7566  -3.7145  -3.6488  -3.6094  -3.5228  -3.4889  -3.3848
    -3.3362  -3.3110  -3.2821  -3.2536  -3.2147  -3.1729  -3.1040  -3.0870
    -2.9109  -2.8731  -2.8137  -2.7685  -2.7126  -2.6775  -2.6652  -2.6081
    -2.5770  -2.4999  -2.4905  -2.4328  -2.4021  -2.3491  -2.2787  -2.2563
    -2.2053  -2.1834  -2.0953  -2.0333  -1.9504  -1.9317  -1.9070  -1.8409
    -1.8301  -1.7819  -1.7365  -1.6759  -1.6261  -1.5859  -1.5528  -1.5022
    -1.4675  -1.4267  -1.3977  -1.3715  -1.3531  -1.3369  -1.3054  -1.2808
    -1.1962  -1.1163  -1.0533  -1.0015  -0.9781  -0.9442  -0.9202  -0.8758
    -0.8339  -0.8112  -0.6229  -0.6009  -0.5768  -0.5134  -0.2563   0.3357
     1.1614   1.2550   1.4390   1.8283   1.8678   1.9349   1.9714   2.0391
     2.0501   2.1994   2.3101   2.3559   2.3973   2.4406   2.4639   2.5136
     2.5338   2.5580   2.5988   2.6592   2.7072   2.7313   2.7872   2.8416
     2.8863   2.9235   2.9400   2.9835   3.0005   3.0243   3.0503   3.1033
     3.1802   3.2008   3.2432   3.2681   3.3042   3.3456   3.4394   3.4747
     3.5047   3.5671   3.6211   3.6519   3.6737   3.7537   3.8292   3.8748
     4.0219   4.2178   4.2936   4.4453   4.6338   4.7322   4.8534   4.8707
     5.0107   5.0346   5.1224   5.2072   5.2498   5.3639   5.4696   5.5577
     5.6571   5.7040   5.7200   5.8124   5.8588   5.8927   5.9185   5.9411
     5.9755   5.9990   6.0724   6.1252   6.1846   6.2900   6.4075   6.4578
     6.4713   6.5871   6.7545   6.8124   7.3697   7.4915   7.7853   7.8823
     8.0915   8.2159   8.4896   8.5290   8.7766   8.8790   9.0718   9.3110
     9.3697   9.5424   9.6101

          k =-0.0253 0.0560 0.0000 ( 34699 PWs)   bands (ev):

   -58.2895 -58.2719 -57.3744 -57.3673 -57.3497 -57.3066 -57.2514 -57.0859
   -57.0579 -57.0460 -57.0206 -56.9129 -56.9061 -56.8884 -56.7883 -56.7684
   -34.6484 -34.5596 -34.5452 -34.4808 -34.4532 -34.4336 -33.7797 -33.7697
   -33.6735 -33.6420 -33.6063 -33.5827 -33.5787 -33.5776 -33.5663 -33.5595
   -33.5331 -33.5231 -33.5098 -33.4878 -33.4749 -33.4573 -33.4468 -33.4056
   -33.3632 -33.3162 -33.3128 -33.3037 -33.2755 -33.2660 -33.2498 -33.2495
   -33.2486 -33.2395 -33.2361 -33.2225 -33.2133 -33.2055 -33.1725 -33.1533
   -33.1112 -33.0690 -33.0663 -33.0431 -33.0283 -33.0148 -33.0030 -32.9771
   -18.2034 -17.7935 -17.7713 -17.6025 -17.5917 -17.4474 -17.3848 -17.3610
   -17.2397 -17.2325 -17.1950 -17.0490 -16.9394 -16.9105 -16.8723 -16.8315
   -16.7886 -16.7349 -16.7242 -16.7089 -16.6749 -16.5889 -16.5391 -16.5224
   -16.4911 -16.4323 -16.4024 -16.3976 -16.2101 -16.1941 -15.8714 -15.6314
   -15.6078 -10.8220  -5.5968  -5.0728  -5.0156  -4.9472  -4.9147  -4.8087
    -4.7866  -4.7490  -4.6790  -4.6642  -4.5171  -4.5003  -4.4372  -4.3867
    -4.3688  -4.3604  -4.3125  -4.2681  -4.2414  -4.2312  -4.1958  -4.1642
    -4.1241  -4.1123  -4.0518  -4.0120  -3.9913  -3.9448  -3.9208  -3.8816
    -3.8414  -3.8131  -3.7602  -3.6261  -3.5376  -3.4979  -3.4531  -3.3759
    -3.3556  -3.2818  -3.1791  -3.1528  -3.1128  -3.1035  -3.0512  -3.0154
    -2.9747  -2.9181  -2.8356  -2.7844  -2.7537  -2.6953  -2.6014  -2.5835
    -2.5166  -2.5019  -2.4483  -2.3829  -2.3671  -2.3090  -2.2914  -2.2500
    -2.1787  -2.1270  -2.1123  -2.0806  -2.0399  -1.9979  -1.9764  -1.9397
    -1.9222  -1.8971  -1.8842  -1.8376  -1.7588  -1.6933  -1.6809  -1.5849
    -1.5636  -1.5355  -1.5100  -1.4758  -1.4363  -1.4038  -1.3745  -1.3151
    -1.2800  -1.2134  -1.1468  -1.0252  -0.9951  -0.9599  -0.9286  -0.8484
    -0.7544  -0.7278  -0.6961  -0.6313  -0.6006  -0.5468  -0.3536   0.3162
     1.2957   1.4777   1.5730   1.7670   1.7823   1.9206   1.9874   2.0673
     2.2740   2.2850   2.3515   2.3878   2.4244   2.4965   2.5316   2.5573
     2.5819   2.6053   2.6630   2.7151   2.7302   2.7737   2.8163   2.8662
     2.8916   2.9266   2.9710   3.0161   3.0420   3.0553   3.0653   3.1189
     3.1681   3.2079   3.2272   3.2981   3.3267   3.3552   3.3867   3.4668
     3.5185   3.5434   3.6221   3.6437   3.6758   3.7359   3.7546   3.8082
     3.9045   4.1085   4.4005   4.5098   4.7249   4.8681   4.9190   4.9700
     5.0047   5.0990   5.1962   5.2166   5.3442   5.3965   5.4430   5.5373
     5.5732   5.6082   5.6606   5.7186   5.7480   5.8129   5.8294   5.8694
     5.9358   5.9504   5.9909   6.0991   6.1418   6.2191   6.3359   6.4383
     6.4594   6.4814   6.7253   6.7762   7.0649   7.2837   7.6638   7.8236
     8.0948   8.2226   8.3117   8.4799   8.7625   8.8928   9.0114   9.1906
     9.3724   9.5533   9.6482

          k =-0.0506 0.0280 0.0000 ( 34685 PWs)   bands (ev):

   -58.2959 -58.2655 -57.3767 -57.3735 -57.3433 -57.3044 -57.2522 -57.0863
   -57.0571 -57.0510 -57.0157 -56.9125 -56.9124 -56.8819 -56.7951 -56.7617
   -34.7191 -34.5648 -34.5400 -34.4962 -34.4162 -34.3801 -33.8499 -33.8429
   -33.7245 -33.6377 -33.6228 -33.5842 -33.5633 -33.5459 -33.5446 -33.5369
   -33.5237 -33.5185 -33.5083 -33.4892 -33.4830 -33.4597 -33.4474 -33.4408
   -33.3285 -33.3126 -33.3110 -33.3090 -33.2988 -33.2972 -33.2738 -33.2568
   -33.2538 -33.2309 -33.2302 -33.2248 -33.2039 -33.1946 -33.1533 -33.1274
   -33.1242 -33.0720 -33.0496 -33.0383 -33.0108 -32.9909 -32.9692 -32.9066
   -18.2527 -17.8547 -17.8419 -17.6913 -17.5781 -17.4462 -17.4284 -17.3350
   -17.3075 -17.2409 -17.1705 -17.0764 -16.9870 -16.9419 -16.9131 -16.8861
   -16.8005 -16.7577 -16.7465 -16.6866 -16.6237 -16.5399 -16.5131 -16.4798
   -16.4514 -16.3968 -16.3800 -16.3430 -16.1441 -16.1138 -15.8734 -15.6008
   -15.5541 -10.8200  -5.5306  -5.1777  -5.1447  -5.1110  -4.9396  -4.8602
    -4.7580  -4.7000  -4.6730  -4.6430  -4.5919  -4.5776  -4.5235  -4.3978
    -4.3541  -4.3145  -4.2336  -4.2058  -4.1745  -4.1565  -4.1393  -4.0472
    -4.0190  -4.0000  -3.9632  -3.9187  -3.8903  -3.8372  -3.8268  -3.7953
    -3.7253  -3.6981  -3.6589  -3.5992  -3.5413  -3.4982  -3.4794  -3.4497
    -3.3747  -3.3608  -3.2918  -3.2558  -3.1949  -3.1414  -3.1093  -3.0487
    -3.0002  -2.9712  -2.8929  -2.8275  -2.7494  -2.6893  -2.6800  -2.6578
    -2.6076  -2.5850  -2.5715  -2.5163  -2.5073  -2.3855  -2.3318  -2.3229
    -2.2616  -2.1926  -2.1764  -2.1498  -2.0713  -2.0011  -1.9949  -1.9340
    -1.9146  -1.8848  -1.8005  -1.7125  -1.6999  -1.6755  -1.6059  -1.5760
    -1.5152  -1.4661  -1.4435  -1.3855  -1.3695  -1.3188  -1.3028  -1.2515
    -1.2354  -1.1115  -1.0487  -1.0256  -1.0016  -0.9480  -0.9144  -0.8677
    -0.8190  -0.7877  -0.7120  -0.6725  -0.6512  -0.5270  -0.3822   0.3207
     1.1483   1.3483   1.4734   1.5742   1.9423   1.9524   1.9747   2.0665
     2.1330   2.2078   2.2627   2.3385   2.4142   2.4485   2.5368   2.5546
     2.6011   2.6596   2.6962   2.7096   2.7635   2.8370   2.8598   2.8905
     2.9488   2.9549   2.9887   2.9932   3.0000   3.1105   3.1177   3.1464
     3.1941   3.2232   3.2977   3.3183   3.3643   3.3907   3.4151   3.4636
     3.4780   3.5556   3.6104   3.6755   3.7514   3.7875   3.8074   3.9084
     3.9657   4.0698   4.1176   4.4146   4.5189   4.6646   4.7565   4.8175
     4.8499   4.9223   4.9746   5.2967   5.3371   5.4191   5.5348   5.5676
     5.6486   5.7753   5.7952   5.8621   5.9055   5.9215   5.9610   6.0623
     6.1022   6.1732   6.2585   6.3413   6.3932   6.4016   6.4508   6.4983
     6.5497   6.5598   6.7182   6.9110   7.0650   7.2184   7.5572   7.6027
     7.7213   8.2177   8.4049   8.4580   8.8617   8.9425   9.0568   9.2069
     9.4263   9.6115   9.6784

          k =-0.0506 0.0560 0.0000 ( 34596 PWs)   bands (ev):

   -58.2895 -58.2719 -57.3740 -57.3677 -57.3497 -57.3067 -57.2514 -57.0859
   -57.0577 -57.0462 -57.0207 -56.9129 -56.9061 -56.8884 -56.7883 -56.7684
   -34.6490 -34.5596 -34.5451 -34.4794 -34.4534 -34.4332 -33.7800 -33.7742
   -33.6736 -33.6262 -33.6061 -33.5819 -33.5803 -33.5775 -33.5607 -33.5595
   -33.5364 -33.5233 -33.5219 -33.4880 -33.4841 -33.4574 -33.4352 -33.4072
   -33.3635 -33.3160 -33.3014 -33.2991 -33.2780 -33.2682 -33.2511 -33.2494
   -33.2482 -33.2393 -33.2356 -33.2325 -33.2139 -33.2059 -33.1718 -33.1490
   -33.1112 -33.0690 -33.0663 -33.0430 -33.0326 -33.0155 -33.0030 -32.9770
   -18.1002 -17.8112 -17.6933 -17.6057 -17.5896 -17.5495 -17.3723 -17.3611
   -17.2106 -17.1983 -17.1093 -17.0870 -16.9695 -16.9040 -16.8595 -16.8345
   -16.8156 -16.7995 -16.7538 -16.7277 -16.7129 -16.6194 -16.5886 -16.4984
   -16.4880 -16.4298 -16.4128 -16.4029 -16.2095 -16.1906 -15.8713 -15.6301
   -15.6082 -10.8218  -5.2941  -4.9839  -4.9333  -4.9252  -4.7754  -4.7678
    -4.7085  -4.6318  -4.5184  -4.4983  -4.4926  -4.4098  -4.3955  -4.3728
    -4.3532  -4.3196  -4.3018  -4.2400  -4.1924  -4.1681  -4.1582  -4.1087
    -4.0966  -4.0495  -4.0370  -3.9851  -3.9714  -3.8982  -3.8780  -3.8539
    -3.7955  -3.7632  -3.6863  -3.6056  -3.5843  -3.5142  -3.4949  -3.4246
    -3.3903  -3.3122  -3.2522  -3.2231  -3.1266  -3.1230  -3.0725  -3.0460
    -2.9877  -2.9699  -2.9503  -2.8971  -2.7938  -2.7565  -2.7416  -2.6981
    -2.6219  -2.5801  -2.5383  -2.4956  -2.4701  -2.4062  -2.3817  -2.3620
    -2.3428  -2.2817  -2.1872  -2.1644  -2.1390  -2.1205  -2.0945  -2.0400
    -2.0051  -1.9634  -1.9367  -1.8627  -1.8402  -1.7736  -1.7222  -1.6471
    -1.5576  -1.5408  -1.5310  -1.4883  -1.4365  -1.3769  -1.3446  -1.2980
    -1.2355  -1.1674  -1.0687  -1.0138  -0.9806  -0.8943  -0.8444  -0.8369
    -0.7855  -0.6985  -0.6839  -0.6629  -0.6477  -0.5450  -0.4673   0.3188
     1.3163   1.5059   1.6547   1.6764   1.8611   2.0121   2.0407   2.0762
     2.2519   2.2648   2.3688   2.3853   2.4415   2.4702   2.5569   2.5938
     2.6591   2.7043   2.7383   2.7530   2.8202   2.8513   2.8797   2.9120
     2.9427   2.9596   3.0154   3.0503   3.0810   3.1222   3.1537   3.1992
     3.2042   3.2589   3.2933   3.3333   3.3423   3.3857   3.4246   3.4756
     3.4896   3.5577   3.5873   3.6499   3.6763   3.7526   3.8123   3.8487
     3.8907   3.9681   4.1610   4.5113   4.6053   4.6245   4.7632   4.8308
     4.8971   4.9736   5.0187   5.1953   5.3104   5.3847   5.4199   5.4521
     5.6029   5.6236   5.6766   5.7251   5.8876   5.9053   5.9958   6.0145
     6.0765   6.1171   6.1777   6.2130   6.3135   6.3439   6.4160   6.4318
     6.5481   6.6208   6.7601   6.8146   7.1703   7.3523   7.5021   7.6133
     7.9270   8.0099   8.0958   8.3655   8.6012   8.7120   8.8028   9.0342
     9.1925   9.3318   9.4374

     the Fermi energy is    -0.2825 ev

!    total energy              =   -3021.14826208 Ry
     Harris-Foulkes estimate   =   -3021.14826195 Ry
     estimated scf accuracy    <       0.00000069 Ry

     The total energy is the sum of the following terms:

     one-electron contribution =  -40438.67191554 Ry
     hartree contribution      =   20290.80711615 Ry
     xc contribution           =    -553.20923388 Ry
     ewald contribution        =   17679.94556682 Ry
     smearing contrib. (-TS)   =      -0.01979563 Ry

     total magnetization       =     1.06 Bohr mag/cell
     absolute magnetization    =     1.23 Bohr mag/cell

     convergence has been achieved in  10 iterations

     Forces acting on atoms (Ry/au):


     negative rho (up, down):  1.189E-02 1.196E-02
     atom    1 type  1   force =     0.00018499   -0.00089815   -0.10468081
     atom    2 type  2   force =     0.00014327    0.00068364    0.04003901
     atom    3 type  1   force =     0.00074793   -0.00174994   -0.02052668
     atom    4 type  2   force =    -0.00326980    0.00312480   -0.00323250
     atom    5 type  1   force =     0.00034537    0.00006885    0.00034229
     atom    6 type  2   force =    -0.00012867   -0.00009638    0.00019738
     atom    7 type  1   force =    -0.00031880   -0.00008723    0.00035654
     atom    8 type  2   force =    -0.00019738   -0.00020660   -0.00023039
     atom    9 type  1   force =    -0.00003688    0.00056604   -0.10481308
     atom   10 type  2   force =     0.00034857   -0.00021327    0.03601394
     atom   11 type  1   force =     0.00068029    0.00183868    0.00263118
     atom   12 type  2   force =    -0.00519541   -0.00266677   -0.00519233
     atom   13 type  1   force =     0.00041185    0.00008815   -0.00023540
     atom   14 type  2   force =     0.00012953   -0.00007539   -0.00011136
     atom   15 type  1   force =    -0.00013835   -0.00005729   -0.00014069
     atom   16 type  2   force =    -0.00029058    0.00010255   -0.00037223
     atom   17 type  2   force =     0.00000909   -0.00001340    0.06654937
     atom   18 type  1   force =     0.00005589    0.00003200    0.13150473
     atom   19 type  2   force =     0.00017742   -0.00052697   -0.08521990
     atom   20 type  2   force =    -0.05793121    0.00014154   -0.03607607
     atom   21 type  2   force =     0.05782064   -0.00004902   -0.03603493
     atom   22 type  1   force =    -0.00042982    0.00074903    0.08018955
     atom   23 type  2   force =     0.00019492   -0.00004590    0.00002614
     atom   24 type  2   force =     0.00064246    0.00185912   -0.03468399
     atom   25 type  2   force =     0.00414100    0.00332671   -0.00509546
     atom   26 type  1   force =     0.00040536   -0.00004383    0.00006939
     atom   27 type  2   force =    -0.00009365   -0.00012702    0.00008013
     atom   28 type  2   force =     0.00004080   -0.00019029   -0.00003186
     atom   29 type  2   force =     0.00001766   -0.00007088    0.00006024
     atom   30 type  1   force =    -0.00014537   -0.00014706   -0.00010924
     atom   31 type  2   force =     0.00013380   -0.00007024    0.00003280
     atom   32 type  2   force =    -0.00002766   -0.00016451    0.00004381
     atom   33 type  2   force =    -0.00016542    0.00005015    0.06628048
     atom   34 type  1   force =     0.00007769   -0.00003314    0.13128427
     atom   35 type  2   force =     0.00018938   -0.00012928   -0.08482658
     atom   36 type  2   force =    -0.05782640    0.00006638   -0.03569118
     atom   37 type  2   force =     0.05799451   -0.00017389   -0.03608603
     atom   38 type  1   force =    -0.00037292   -0.00020617    0.07986231
     atom   39 type  2   force =     0.00007502   -0.00026334   -0.00010136
     atom   40 type  2   force =     0.00048913    0.00124241   -0.03528784
     atom   41 type  2   force =     0.00588815   -0.00243545   -0.00722363
     atom   42 type  1   force =     0.00024334   -0.00006985    0.00001732
     atom   43 type  2   force =    -0.00019817   -0.00010176    0.00005990
     atom   44 type  2   force =    -0.00001018   -0.00016260   -0.00003654
     atom   45 type  2   force =     0.00001845   -0.00017026    0.00004625
     atom   46 type  1   force =    -0.00009901   -0.00009714   -0.00018129
     atom   47 type  2   force =    -0.00004885   -0.00012115    0.00010914
     atom   48 type  2   force =    -0.00009650    0.00014334    0.00028192
     atom   49 type  2   force =     0.00056303    0.00172812    0.00092753
     atom   50 type  3   force =    -0.05856861    0.00474832    0.00508883
     atom   51 type  4   force =     0.01372171    0.00958794   -0.01075552
     atom   52 type  4   force =     0.01455745   -0.00837597    0.01259962
     atom   53 type  4   force =     0.00256001    0.00100432    0.00180776
     atom   54 type  4   force =     0.02258093   -0.01131194   -0.00952493

     Total force =     0.349624     Total SCF correction =     0.002105
 !ASE

     Writing output data file calc.save
 
     init_run     :     66.07s CPU     78.05s WALL (       1 calls)
     electrons    :   2745.99s CPU   3165.92s WALL (       1 calls)
     forces       :     49.64s CPU     50.74s WALL (       1 calls)

     Called by init_run:
     wfcinit      :     58.07s CPU     69.23s WALL (       1 calls)
     potinit      :      1.42s CPU      1.63s WALL (       1 calls)

     Called by electrons:
     c_bands      :   2434.38s CPU   2797.80s WALL (      10 calls)
     sum_band     :    267.24s CPU    318.42s WALL (      10 calls)
     v_of_rho     :     11.31s CPU     13.54s WALL (      11 calls)
     newd         :     36.71s CPU     40.07s WALL (      11 calls)
     mix_rho      :      0.39s CPU      0.56s WALL (      10 calls)
     vdW_energy   :      2.49s CPU      2.78s WALL (      12 calls)
     vdW_ffts     :      3.07s CPU      3.77s WALL (      24 calls)
     vdW_v        :      1.14s CPU      1.27s WALL (      12 calls)

     Called by c_bands:
     init_us_2    :      6.23s CPU      6.90s WALL (     880 calls)
     cegterg      :   2395.07s CPU   2755.97s WALL (     400 calls)

     Called by *egterg:
     h_psi        :    890.55s CPU   1162.80s WALL (    2173 calls)
     s_psi        :    154.55s CPU    159.71s WALL (    2173 calls)
     g_psi        :      4.55s CPU      4.69s WALL (    1733 calls)
     cdiaghg      :    826.98s CPU    849.79s WALL (    2133 calls)

     Called by h_psi:
     add_vuspsi   :    156.40s CPU    162.39s WALL (    2173 calls)

     General routines
     calbec       :    226.60s CPU    233.52s WALL (    2613 calls)
     fft          :      6.09s CPU      7.54s WALL (     948 calls)
     ffts         :      0.04s CPU      0.06s WALL (      42 calls)
     fftw         :    492.69s CPU    795.32s WALL (  725710 calls)
     interpolate  :      0.32s CPU      0.48s WALL (      42 calls)
     davcio       :      0.12s CPU      2.49s WALL (      40 calls)
 
     Parallel routines
     fft_scatter  :    244.47s CPU    410.12s WALL (  726700 calls)
 
     PWSCF        : 47m43.03s CPU    54m58.98s WALL

 
   This run was terminated on:   2:19:36  26Feb2018            

=------------------------------------------------------------------------------=
   JOB DONE.
=------------------------------------------------------------------------------=
