  python dir          : /home/vossj/suncat/lib/python2.7/site-packages/espresso
  espresso dir        : /home/vossj/suncat/esdld/espresso-dynpy-beef/bin
  pseudo dir          : /home/alatimer/bin/psp/esp_psp_w_gbrvRu/
  ase-espresso py git : ffa2778-git



     Program PWSCF v.5.1rc2 (svn rev. ) starts on 26Feb2018 at 20:39: 5 

     This program is part of the open-source Quantum ESPRESSO suite
     for quantum simulation of materials; please cite
         "P. Giannozzi et al., J. Phys.:Condens. Matter 21 395502 (2009);
          URL http://www.quantum-espresso.org", 
     in publications or presentations arising from this work. More details at
     http://www.quantum-espresso.org/quote

     Parallel version (MPI), running on    16 processors
     R & G space division:  proc/nbgrp/npool/nimage =      16
     Reading input from pw.inp
     Message from routine read_cards :
     DEPRECATED: no units specified in CELL_PARAMETERS card

     Current dimensions of program PWSCF are:
     Max number of different atomic species (ntypx) = 10
     Max number of k-points (npk) =  40000
     Max angular momentum in pseudopotentials (lmaxx) =  3

     **************************************************************************
     Initializing libbeef V0.1.1 with the BEEF-vdW functional.
     Citation: Wellendorff et al., PRB 85, 235149 (2012).
     **************************************************************************


     IMPORTANT: XC functional enforced from input :
     Exchange-correlation      = BEEF ( 1  4 27 13 2)
     Any further DFT definition will be discarded
     Please, verify this is what you really want


     Subspace diagonalization in iterative solution of the eigenvalue problem:
     a serial algorithm will be used

 
     Parallelization info
     --------------------
     sticks:   dense  smooth     PW     G-vecs:    dense   smooth      PW
     Min         281     112     31                68535    17318    2565
     Max         282     113     32                68545    17369    2582
     Sum        4501    1795    503              1096637   277353   41113
 
     Generating pointlists ...
     new r_m :   0.4125 (alat units)  0.7795 (a.u.) for type    1
     new r_m :   0.4125 (alat units)  0.7795 (a.u.) for type    2
     new r_m :   0.4125 (alat units)  0.7795 (a.u.) for type    3
     new r_m :   0.4125 (alat units)  0.7795 (a.u.) for type    4


     bravais-lattice index     =            0
     lattice parameter (alat)  =       1.8897  a.u.
     unit-cell volume          =    7990.9933 (a.u.)^3
     number of atoms/cell      =           54
     number of atomic types    =            4
     number of electrons       =       398.00
     number of Kohn-Sham states=          299
     kinetic-energy cutoff     =      40.4243  Ry
     charge density cutoff     =     404.2426  Ry
     convergence threshold     =      7.3E-07
     mixing beta               =       0.1000
     number of iterations used =           10  plain     mixing
     Exchange-correlation      = BEEF ( 1  4 27 13 2)
     nstep                     =           50


     celldm(1)=   1.889726  celldm(2)=   0.000000  celldm(3)=   0.000000
     celldm(4)=   0.000000  celldm(5)=   0.000000  celldm(6)=   0.000000

     crystal axes: (cart. coord. in units of alat)
               a(1) = (   6.590708   0.000000   0.000000 )  
               a(2) = (   0.000000   5.950229   0.000000 )  
               a(3) = (   0.000000   0.000000  30.195235 )  

     reciprocal axes: (cart. coord. in units 2 pi/alat)
               b(1) = (  0.151729  0.000000  0.000000 )  
               b(2) = (  0.000000  0.168061  0.000000 )  
               b(3) = (  0.000000  0.000000  0.033118 )  


     PseudoPot. # 1 for Ti read from file:
     /home/alatimer/bin/psp/esp_psp_w_gbrvRu/Ti.UPF
     MD5 check sum: 8e4df49b7f0d34bbd5052bf3f5ea0213
     Pseudo is Ultrasoft, Zval = 12.0
     Generated by new atomic code, or converted to UPF format
     Using radial grid of  851 points,  6 beta functions with: 
                l(1) =   0
                l(2) =   0
                l(3) =   1
                l(4) =   1
                l(5) =   2
                l(6) =   2
     Q(r) pseudized with  8 coefficients,  rinner =    1.000   1.000   1.000
                                                       1.000   1.000

     PseudoPot. # 2 for  O read from file:
     /home/alatimer/bin/psp/esp_psp_w_gbrvRu/O.UPF
     MD5 check sum: e057bbcf3229fb5d8c36c0c92f9568b4
     Pseudo is Ultrasoft + core correction, Zval =  6.0
     Generated using "atomic" code by A. Dal Corso  v.5.0.2 svn rev. 9415
     Using radial grid of 1095 points,  4 beta functions with: 
                l(1) =   0
                l(2) =   0
                l(3) =   1
                l(4) =   1
     Q(r) pseudized with 0 coefficients 


     PseudoPot. # 3 for  C read from file:
     /home/alatimer/bin/psp/esp_psp_w_gbrvRu/C.UPF
     MD5 check sum: ab446d787031eba755f1d5ee46644bb0
     Pseudo is Ultrasoft + core correction, Zval =  4.0
     Generated using "atomic" code by A. Dal Corso  v.5.0.2 svn rev. 9415
     Using radial grid of 1073 points,  4 beta functions with: 
                l(1) =   0
                l(2) =   0
                l(3) =   1
                l(4) =   1
     Q(r) pseudized with 0 coefficients 


     PseudoPot. # 4 for  H read from file:
     /home/alatimer/bin/psp/esp_psp_w_gbrvRu/H.UPF
     MD5 check sum: bd57da0722753ddfd9833a65b40bb853
     Pseudo is Ultrasoft, Zval =  1.0
     Generated using "atomic" code by A. Dal Corso  v.5.0.2 svn rev. 9415
     Using radial grid of  929 points,  2 beta functions with: 
                l(1) =   0
                l(2) =   0
     Q(r) pseudized with 0 coefficients 


     vdW kernel table read from file vdW_kernel_table
     MD5 check sum: 095c7af220d748ca6e76c0b4c6cfb241

     atomic species   valence    mass     pseudopotential
        Ti1           12.00    47.88000     Ti( 1.00)
        O1             6.00    15.99940      O( 1.00)
        C1             4.00    12.01100      C( 1.00)
        H1             1.00     1.00794      H( 1.00)

     Starting magnetic structure 
     atomic species   magnetization
        Ti1          0.250
        O1           0.500
        C1           0.750
        H1           0.000

     No symmetry found



   Cartesian axes

     site n.     atom                  positions (alat units)
         1           Ti1 tau(   1) = (   1.6476770   0.7437786   2.6545865  )
         2           O1  tau(   2) = (   1.6476770   2.2313359   3.9361215  )
         3           Ti1 tau(   3) = (   1.6476770   2.2313359   5.9499405  )
         4           O1  tau(   4) = (   0.3661420   0.7437786   5.9499405  )
         5           Ti1 tau(   5) = (   1.6407309   0.9134410   9.3139491  )
         6           O1  tau(   6) = (   1.6648823   2.2608486  10.4895904  )
         7           Ti1 tau(   7) = (   1.7578240   2.2899216  13.0472362  )
         8           O1  tau(   8) = (   0.4801583   0.7600008  12.7739736  )
         9           Ti1 tau(   9) = (   1.6476770   3.7188931   2.6545865  )
        10           O1  tau(  10) = (   1.6476770   5.2064503   3.9361215  )
        11           Ti1 tau(  11) = (   1.6476770   5.2064503   5.9499405  )
        12           O1  tau(  12) = (   0.3661420   3.7188931   5.9499405  )
        13           Ti1 tau(  13) = (   1.6336050   3.7786827   9.1566831  )
        14           O1  tau(  14) = (   1.6678212   5.2513959  10.5409436  )
        15           Ti1 tau(  15) = (   1.7144009   5.2558216  12.3462911  )
        16           O1  tau(  16) = (   0.4635505   3.7986228  12.7318280  )
        17           O1  tau(  17) = (   1.6476770   2.2313359   1.3730516  )
        18           Ti1 tau(  18) = (   4.9430310   2.2313359   2.6545865  )
        19           O1  tau(  19) = (   4.9430310   2.2313359   4.6684056  )
        20           O1  tau(  20) = (   6.2245660   0.7437786   2.6545865  )
        21           O1  tau(  21) = (   3.6614961   0.7437786   2.6545865  )
        22           Ti1 tau(  22) = (   4.9430310   0.7437786   5.9499405  )
        23           O1  tau(  23) = (   1.6683653   2.2752577   7.9427336  )
        24           O1  tau(  24) = (   4.9430310   2.2313359   7.2314755  )
        25           O1  tau(  25) = (   2.9292120   0.7437786   5.9499405  )
        26           Ti1 tau(  26) = (   4.9404121   2.2664794   9.4552217  )
        27           O1  tau(  27) = (   5.0099888   2.2616732  11.2946145  )
        28           O1  tau(  28) = (   6.2612001   0.7714827   9.2659748  )
        29           O1  tau(  29) = (   3.6791272   0.7744986   9.2965846  )
        30           Ti1 tau(  30) = (   5.0117873   0.7976728  12.8161605  )
        31           O1  tau(  31) = (   4.9963122   2.2836652  13.8750618  )
        32           O1  tau(  32) = (   2.9819382   0.7448324  12.7109220  )
        33           O1  tau(  33) = (   1.6476770   5.2064503   1.3730516  )
        34           Ti1 tau(  34) = (   4.9430310   5.2064503   2.6545865  )
        35           O1  tau(  35) = (   4.9430310   5.2064503   4.6684056  )
        36           O1  tau(  36) = (   6.2245660   3.7188931   2.6545865  )
        37           O1  tau(  37) = (   3.6614961   3.7188931   2.6545865  )
        38           Ti1 tau(  38) = (   4.9430310   3.7188931   5.9499405  )
        39           O1  tau(  39) = (   1.6664207   5.2035600   7.9365221  )
        40           O1  tau(  40) = (   4.9430310   5.2064503   7.2314755  )
        41           O1  tau(  41) = (   2.9292120   3.7188931   5.9499405  )
        42           Ti1 tau(  42) = (   4.9524353   5.2460635   9.4426343  )
        43           O1  tau(  43) = (   5.0107556   5.2394944  11.2927493  )
        44           O1  tau(  44) = (   6.2663940   3.7551737   9.2646230  )
        45           O1  tau(  45) = (   3.6780957   3.7542261   9.2971476  )
        46           Ti1 tau(  46) = (   5.0587989   3.7766986  12.8010349  )
        47           O1  tau(  47) = (   5.0196089   5.2502198  13.8813978  )
        48           O1  tau(  48) = (   2.9624133   3.7943242  12.7299881  )
        49           O1  tau(  49) = (   1.7427453   2.2533568  14.8370015  )
        50           C1  tau(  50) = (   2.7196098   4.2826273  16.2318421  )
        51           H1  tau(  51) = (   3.3037454   4.9255546  15.5827400  )
        52           H1  tau(  52) = (   3.3286606   3.7870117  16.9822022  )
        53           H1  tau(  53) = (   2.3125587   3.4326405  15.5729816  )
        54           H1  tau(  54) = (   1.8391288   4.7650601  16.6448379  )

     number of k points=    40  Fermi-Dirac smearing, width (Ry)=  0.0073
                       cart. coord. in units 2pi/alat
        k(    1) = (   0.0000000   0.0000000   0.0000000), wk =   0.0277778
        k(    2) = (   0.0000000   0.0280101   0.0000000), wk =   0.0555556
        k(    3) = (   0.0000000   0.0560203   0.0000000), wk =   0.0555556
        k(    4) = (   0.0000000  -0.0840304   0.0000000), wk =   0.0277778
        k(    5) = (   0.0252881   0.0000000   0.0000000), wk =   0.0555556
        k(    6) = (   0.0252881   0.0280101   0.0000000), wk =   0.0555556
        k(    7) = (   0.0252881   0.0560203   0.0000000), wk =   0.0555556
        k(    8) = (   0.0252881  -0.0840304   0.0000000), wk =   0.0555556
        k(    9) = (   0.0505763   0.0000000   0.0000000), wk =   0.0555556
        k(   10) = (   0.0505763   0.0280101   0.0000000), wk =   0.0555556
        k(   11) = (   0.0505763   0.0560203   0.0000000), wk =   0.0555556
        k(   12) = (   0.0505763  -0.0840304   0.0000000), wk =   0.0555556
        k(   13) = (  -0.0758644   0.0000000   0.0000000), wk =   0.0277778
        k(   14) = (  -0.0758644   0.0280101   0.0000000), wk =   0.0555556
        k(   15) = (  -0.0758644   0.0560203   0.0000000), wk =   0.0555556
        k(   16) = (  -0.0758644  -0.0840304   0.0000000), wk =   0.0277778
        k(   17) = (  -0.0252881   0.0280101   0.0000000), wk =   0.0555556
        k(   18) = (  -0.0252881   0.0560203   0.0000000), wk =   0.0555556
        k(   19) = (  -0.0505763   0.0280101   0.0000000), wk =   0.0555556
        k(   20) = (  -0.0505763   0.0560203   0.0000000), wk =   0.0555556
        k(   21) = (   0.0000000   0.0000000   0.0000000), wk =   0.0277778
        k(   22) = (   0.0000000   0.0280101   0.0000000), wk =   0.0555556
        k(   23) = (   0.0000000   0.0560203   0.0000000), wk =   0.0555556
        k(   24) = (   0.0000000  -0.0840304   0.0000000), wk =   0.0277778
        k(   25) = (   0.0252881   0.0000000   0.0000000), wk =   0.0555556
        k(   26) = (   0.0252881   0.0280101   0.0000000), wk =   0.0555556
        k(   27) = (   0.0252881   0.0560203   0.0000000), wk =   0.0555556
        k(   28) = (   0.0252881  -0.0840304   0.0000000), wk =   0.0555556
        k(   29) = (   0.0505763   0.0000000   0.0000000), wk =   0.0555556
        k(   30) = (   0.0505763   0.0280101   0.0000000), wk =   0.0555556
        k(   31) = (   0.0505763   0.0560203   0.0000000), wk =   0.0555556
        k(   32) = (   0.0505763  -0.0840304   0.0000000), wk =   0.0555556
        k(   33) = (  -0.0758644   0.0000000   0.0000000), wk =   0.0277778
        k(   34) = (  -0.0758644   0.0280101   0.0000000), wk =   0.0555556
        k(   35) = (  -0.0758644   0.0560203   0.0000000), wk =   0.0555556
        k(   36) = (  -0.0758644  -0.0840304   0.0000000), wk =   0.0277778
        k(   37) = (  -0.0252881   0.0280101   0.0000000), wk =   0.0555556
        k(   38) = (  -0.0252881   0.0560203   0.0000000), wk =   0.0555556
        k(   39) = (  -0.0505763   0.0280101   0.0000000), wk =   0.0555556
        k(   40) = (  -0.0505763   0.0560203   0.0000000), wk =   0.0555556

     Dense  grid:  1096637 G-vectors     FFT dimensions: (  80,  72, 375)

     Smooth grid:   277353 G-vectors     FFT dimensions: (  54,  45, 240)

     Largest allocated arrays     est. size (Mb)     dimensions
        Kohn-Sham Wavefunctions         9.95 Mb     (    2180,  299)
        NL pseudopotentials            18.89 Mb     (    2180,  568)
        Each V/rho on FFT grid          4.22 Mb     (  138240,   2)
        Each G-vector array             0.52 Mb     (   68538)
        G-vector shells                 0.25 Mb     (   33046)
     Largest temporary arrays     est. size (Mb)     dimensions
        Auxiliary wavefunctions        39.78 Mb     (    2180, 1196)
        Each subspace H/S matrix       21.83 Mb     (    1196, 1196)
        Each <psi_i|beta_j> matrix      2.59 Mb     (     568,  299)
        Arrays for rho mixing          21.09 Mb     (  138240,   10)

     Check: negative/imaginary core charge=   -0.000049    0.000000

     The initial density is read from file :
     ./calc.save/charge-density.dat


     negative rho (up, down):  1.189E-02 1.196E-02


     ************************************************************************
     *
     * You are using vdW-DF for exchange-correlation in this calculation.
     * Please cite the following three references that made this development
     * possible:
     *
     *   M. Dion, H. Rydberg, E. Schroder, D. C. Langreth, and
     *   B. I. Lundqvist, Phys. Rev. Lett. 92, 246401 (2004).
     *
     *   T. Thonhauser, V. R. Cooper, S. Li, A. Puzder, P. Hyldgaard, and
     *   D. C. Langreth, Phys. Rev. B 76, 125112 (2007).
     *
     *   G. Roman-Perez and J. M. Soler, Phys. Rev. Lett. 103, 096102 (2009).
     *
     *
     * If you are using vdW-DF2, please also cite:
     *
     *   K. Lee, E. D. Murray, L. Kong, B. I. Lundqvist, and
     *   D. C. Langreth, Phys. Rev. B 82, 081101(R) (2010).
     *
     *
     * If you are calculating the stress with vdW-DF, please also cite:
     *
     *   R. Sabatini, E. Kucukbenli, B. Kolb, T. Thonhauser, and
     *   S. de Gironcoli, J. Phys.: Condens. Matter 24, 424209 (2012).
     *
     ************************************************************************

     Carrying out vdW-DF run using the following parameters:

     Nqs =      20    Nr_points =    1024   r_max =   100.000
     q_mesh =
               0.00001000     0.04494208     0.09755937     0.15916263
               0.23128650     0.31572767     0.41458969     0.53033537
               0.66584808     0.82450364     1.01025438     1.22772762
               1.48234092     1.78043706     2.12944203     2.53805004
               3.01644009     3.57652955     4.23227104     5.00000000

     Gradients computed in reciprocal space

     ************************************************************************


     Starting wfc are  300 randomized atomic wfcs

     total cpu time spent up to now is       81.6 secs

     Self-consistent Calculation

     iteration #  1     ecut=    40.42 Ry     beta=0.10
     Davidson diagonalization with overlap
     ethr =  1.00E-05,  avg # of iterations = 14.9

     negative rho (up, down):  1.189E-02 1.196E-02
 
     Magnetic moment per site:
     atom:    1    charge:    3.1244    magn:   -0.0003    constr:    0.0000
     atom:    2    charge:    2.0897    magn:    0.0003    constr:    0.0000
     atom:    3    charge:    3.1198    magn:   -0.0000    constr:    0.0000
     atom:    4    charge:    2.0867    magn:   -0.0001    constr:    0.0000
     atom:    5    charge:    3.1161    magn:   -0.0002    constr:    0.0000
     atom:    6    charge:    2.0795    magn:    0.0021    constr:    0.0000
     atom:    7    charge:    3.1170    magn:   -0.0054    constr:    0.0000
     atom:    8    charge:    2.0791    magn:    0.0251    constr:    0.0000
     atom:    9    charge:    3.1244    magn:   -0.0003    constr:    0.0000
     atom:   10    charge:    2.0898    magn:    0.0003    constr:    0.0000
     atom:   11    charge:    3.1198    magn:   -0.0000    constr:    0.0000
     atom:   12    charge:    2.0871    magn:   -0.0000    constr:    0.0000
     atom:   13    charge:    3.1150    magn:   -0.0002    constr:    0.0000
     atom:   14    charge:    2.0939    magn:    0.0023    constr:    0.0000
     atom:   15    charge:    3.1184    magn:   -0.0008    constr:    0.0000
     atom:   16    charge:    2.0828    magn:    0.0047    constr:    0.0000
     atom:   17    charge:    2.0624    magn:    0.0018    constr:    0.0000
     atom:   18    charge:    3.1239    magn:   -0.0001    constr:    0.0000
     atom:   19    charge:    2.0876    magn:    0.0001    constr:    0.0000
     atom:   20    charge:    2.0847    magn:    0.0002    constr:    0.0000
     atom:   21    charge:    2.0847    magn:    0.0002    constr:    0.0000
     atom:   22    charge:    3.1199    magn:    0.0000    constr:    0.0000
     atom:   23    charge:    2.0908    magn:    0.0002    constr:    0.0000
     atom:   24    charge:    2.0754    magn:   -0.0002    constr:    0.0000
     atom:   25    charge:    2.0868    magn:    0.0000    constr:    0.0000
     atom:   26    charge:    3.1127    magn:   -0.0002    constr:    0.0000
     atom:   27    charge:    2.0803    magn:    0.0025    constr:    0.0000
     atom:   28    charge:    2.0839    magn:    0.0006    constr:    0.0000
     atom:   29    charge:    2.0861    magn:    0.0008    constr:    0.0000
     atom:   30    charge:    3.1171    magn:   -0.0008    constr:    0.0000
     atom:   31    charge:    2.0825    magn:    0.0006    constr:    0.0000
     atom:   32    charge:    2.0828    magn:    0.0065    constr:    0.0000
     atom:   33    charge:    2.0624    magn:    0.0018    constr:    0.0000
     atom:   34    charge:    3.1239    magn:   -0.0001    constr:    0.0000
     atom:   35    charge:    2.0876    magn:    0.0001    constr:    0.0000
     atom:   36    charge:    2.0847    magn:    0.0002    constr:    0.0000
     atom:   37    charge:    2.0847    magn:    0.0002    constr:    0.0000
     atom:   38    charge:    3.1200    magn:    0.0000    constr:    0.0000
     atom:   39    charge:    2.0839    magn:    0.0002    constr:    0.0000
     atom:   40    charge:    2.0757    magn:   -0.0003    constr:    0.0000
     atom:   41    charge:    2.0870    magn:   -0.0000    constr:    0.0000
     atom:   42    charge:    3.1151    magn:   -0.0002    constr:    0.0000
     atom:   43    charge:    2.0803    magn:    0.0030    constr:    0.0000
     atom:   44    charge:    2.0851    magn:    0.0008    constr:    0.0000
     atom:   45    charge:    2.0859    magn:    0.0004    constr:    0.0000
     atom:   46    charge:    3.1148    magn:   -0.0007    constr:    0.0000
     atom:   47    charge:    2.0807    magn:    0.0047    constr:    0.0000
     atom:   48    charge:    2.0836    magn:    0.0138    constr:    0.0000
     atom:   49    charge:    2.0496    magn:    0.2409    constr:    0.0000
     atom:   50    charge:    0.6726    magn:    0.0542    constr:    0.0000
     atom:   51    charge:    0.4220    magn:    0.0009    constr:    0.0000
     atom:   52    charge:    0.4226    magn:    0.0007    constr:    0.0000
     atom:   53    charge:    0.3748    magn:    0.0251    constr:    0.0000
     atom:   54    charge:    0.4231    magn:    0.0006    constr:    0.0000

     total cpu time spent up to now is     1048.1 secs

     total energy              =   -3021.14990981 Ry
     Harris-Foulkes estimate   =   -3021.15066535 Ry
     estimated scf accuracy    <       0.00556952 Ry

     total magnetization       =     1.07 Bohr mag/cell
     absolute magnetization    =     1.24 Bohr mag/cell

     iteration #  2     ecut=    40.42 Ry     beta=0.10
     Davidson diagonalization with overlap
     ethr =  1.40E-06,  avg # of iterations =  1.4

     negative rho (up, down):  1.190E-02 1.196E-02
 
     Magnetic moment per site:
     atom:    1    charge:    3.1244    magn:   -0.0003    constr:    0.0000
     atom:    2    charge:    2.0896    magn:    0.0003    constr:    0.0000
     atom:    3    charge:    3.1198    magn:   -0.0000    constr:    0.0000
     atom:    4    charge:    2.0867    magn:   -0.0001    constr:    0.0000
     atom:    5    charge:    3.1161    magn:   -0.0002    constr:    0.0000
     atom:    6    charge:    2.0796    magn:    0.0021    constr:    0.0000
     atom:    7    charge:    3.1170    magn:   -0.0055    constr:    0.0000
     atom:    8    charge:    2.0791    magn:    0.0253    constr:    0.0000
     atom:    9    charge:    3.1244    magn:   -0.0003    constr:    0.0000
     atom:   10    charge:    2.0898    magn:    0.0003    constr:    0.0000
     atom:   11    charge:    3.1198    magn:   -0.0000    constr:    0.0000
     atom:   12    charge:    2.0870    magn:   -0.0000    constr:    0.0000
     atom:   13    charge:    3.1150    magn:   -0.0002    constr:    0.0000
     atom:   14    charge:    2.0939    magn:    0.0023    constr:    0.0000
     atom:   15    charge:    3.1184    magn:   -0.0008    constr:    0.0000
     atom:   16    charge:    2.0829    magn:    0.0047    constr:    0.0000
     atom:   17    charge:    2.0623    magn:    0.0017    constr:    0.0000
     atom:   18    charge:    3.1239    magn:   -0.0001    constr:    0.0000
     atom:   19    charge:    2.0875    magn:    0.0001    constr:    0.0000
     atom:   20    charge:    2.0847    magn:    0.0002    constr:    0.0000
     atom:   21    charge:    2.0847    magn:    0.0002    constr:    0.0000
     atom:   22    charge:    3.1199    magn:    0.0000    constr:    0.0000
     atom:   23    charge:    2.0908    magn:    0.0002    constr:    0.0000
     atom:   24    charge:    2.0753    magn:   -0.0002    constr:    0.0000
     atom:   25    charge:    2.0867    magn:    0.0000    constr:    0.0000
     atom:   26    charge:    3.1126    magn:   -0.0002    constr:    0.0000
     atom:   27    charge:    2.0803    magn:    0.0025    constr:    0.0000
     atom:   28    charge:    2.0839    magn:    0.0006    constr:    0.0000
     atom:   29    charge:    2.0860    magn:    0.0008    constr:    0.0000
     atom:   30    charge:    3.1171    magn:   -0.0008    constr:    0.0000
     atom:   31    charge:    2.0825    magn:    0.0006    constr:    0.0000
     atom:   32    charge:    2.0829    magn:    0.0065    constr:    0.0000
     atom:   33    charge:    2.0623    magn:    0.0017    constr:    0.0000
     atom:   34    charge:    3.1239    magn:   -0.0001    constr:    0.0000
     atom:   35    charge:    2.0875    magn:    0.0001    constr:    0.0000
     atom:   36    charge:    2.0847    magn:    0.0002    constr:    0.0000
     atom:   37    charge:    2.0847    magn:    0.0002    constr:    0.0000
     atom:   38    charge:    3.1200    magn:    0.0000    constr:    0.0000
     atom:   39    charge:    2.0839    magn:    0.0002    constr:    0.0000
     atom:   40    charge:    2.0756    magn:   -0.0003    constr:    0.0000
     atom:   41    charge:    2.0870    magn:   -0.0000    constr:    0.0000
     atom:   42    charge:    3.1151    magn:   -0.0002    constr:    0.0000
     atom:   43    charge:    2.0803    magn:    0.0030    constr:    0.0000
     atom:   44    charge:    2.0851    magn:    0.0008    constr:    0.0000
     atom:   45    charge:    2.0859    magn:    0.0004    constr:    0.0000
     atom:   46    charge:    3.1148    magn:   -0.0007    constr:    0.0000
     atom:   47    charge:    2.0808    magn:    0.0047    constr:    0.0000
     atom:   48    charge:    2.0836    magn:    0.0140    constr:    0.0000
     atom:   49    charge:    2.0489    magn:    0.2419    constr:    0.0000
     atom:   50    charge:    0.6739    magn:    0.0537    constr:    0.0000
     atom:   51    charge:    0.4220    magn:    0.0009    constr:    0.0000
     atom:   52    charge:    0.4225    magn:    0.0006    constr:    0.0000
     atom:   53    charge:    0.3755    magn:    0.0246    constr:    0.0000
     atom:   54    charge:    0.4230    magn:    0.0006    constr:    0.0000

     total cpu time spent up to now is     1255.5 secs

     total energy              =   -3021.14967837 Ry
     Harris-Foulkes estimate   =   -3021.15008904 Ry
     estimated scf accuracy    <       0.00242949 Ry

     total magnetization       =     1.06 Bohr mag/cell
     absolute magnetization    =     1.23 Bohr mag/cell

     iteration #  3     ecut=    40.42 Ry     beta=0.10
     Davidson diagonalization with overlap
     ethr =  6.10E-07,  avg # of iterations =  4.1

     negative rho (up, down):  1.190E-02 1.196E-02
 
     Magnetic moment per site:
     atom:    1    charge:    3.1244    magn:   -0.0003    constr:    0.0000
     atom:    2    charge:    2.0897    magn:    0.0003    constr:    0.0000
     atom:    3    charge:    3.1198    magn:   -0.0000    constr:    0.0000
     atom:    4    charge:    2.0867    magn:   -0.0001    constr:    0.0000
     atom:    5    charge:    3.1161    magn:   -0.0002    constr:    0.0000
     atom:    6    charge:    2.0795    magn:    0.0021    constr:    0.0000
     atom:    7    charge:    3.1169    magn:   -0.0055    constr:    0.0000
     atom:    8    charge:    2.0790    magn:    0.0254    constr:    0.0000
     atom:    9    charge:    3.1244    magn:   -0.0003    constr:    0.0000
     atom:   10    charge:    2.0898    magn:    0.0003    constr:    0.0000
     atom:   11    charge:    3.1198    magn:   -0.0000    constr:    0.0000
     atom:   12    charge:    2.0870    magn:   -0.0000    constr:    0.0000
     atom:   13    charge:    3.1150    magn:   -0.0002    constr:    0.0000
     atom:   14    charge:    2.0938    magn:    0.0023    constr:    0.0000
     atom:   15    charge:    3.1184    magn:   -0.0008    constr:    0.0000
     atom:   16    charge:    2.0828    magn:    0.0047    constr:    0.0000
     atom:   17    charge:    2.0625    magn:    0.0017    constr:    0.0000
     atom:   18    charge:    3.1239    magn:   -0.0001    constr:    0.0000
     atom:   19    charge:    2.0875    magn:    0.0001    constr:    0.0000
     atom:   20    charge:    2.0847    magn:    0.0002    constr:    0.0000
     atom:   21    charge:    2.0847    magn:    0.0002    constr:    0.0000
     atom:   22    charge:    3.1199    magn:    0.0000    constr:    0.0000
     atom:   23    charge:    2.0908    magn:    0.0002    constr:    0.0000
     atom:   24    charge:    2.0753    magn:   -0.0002    constr:    0.0000
     atom:   25    charge:    2.0867    magn:    0.0000    constr:    0.0000
     atom:   26    charge:    3.1127    magn:   -0.0002    constr:    0.0000
     atom:   27    charge:    2.0802    magn:    0.0025    constr:    0.0000
     atom:   28    charge:    2.0839    magn:    0.0006    constr:    0.0000
     atom:   29    charge:    2.0860    magn:    0.0008    constr:    0.0000
     atom:   30    charge:    3.1171    magn:   -0.0008    constr:    0.0000
     atom:   31    charge:    2.0824    magn:    0.0006    constr:    0.0000
     atom:   32    charge:    2.0829    magn:    0.0066    constr:    0.0000
     atom:   33    charge:    2.0625    magn:    0.0017    constr:    0.0000
     atom:   34    charge:    3.1239    magn:   -0.0001    constr:    0.0000
     atom:   35    charge:    2.0876    magn:    0.0001    constr:    0.0000
     atom:   36    charge:    2.0847    magn:    0.0002    constr:    0.0000
     atom:   37    charge:    2.0847    magn:    0.0002    constr:    0.0000
     atom:   38    charge:    3.1200    magn:    0.0000    constr:    0.0000
     atom:   39    charge:    2.0839    magn:    0.0002    constr:    0.0000
     atom:   40    charge:    2.0756    magn:   -0.0003    constr:    0.0000
     atom:   41    charge:    2.0870    magn:   -0.0000    constr:    0.0000
     atom:   42    charge:    3.1151    magn:   -0.0002    constr:    0.0000
     atom:   43    charge:    2.0803    magn:    0.0031    constr:    0.0000
     atom:   44    charge:    2.0850    magn:    0.0008    constr:    0.0000
     atom:   45    charge:    2.0858    magn:    0.0004    constr:    0.0000
     atom:   46    charge:    3.1148    magn:   -0.0007    constr:    0.0000
     atom:   47    charge:    2.0807    magn:    0.0047    constr:    0.0000
     atom:   48    charge:    2.0835    magn:    0.0141    constr:    0.0000
     atom:   49    charge:    2.0488    magn:    0.2424    constr:    0.0000
     atom:   50    charge:    0.6743    magn:    0.0534    constr:    0.0000
     atom:   51    charge:    0.4220    magn:    0.0009    constr:    0.0000
     atom:   52    charge:    0.4224    magn:    0.0006    constr:    0.0000
     atom:   53    charge:    0.3759    magn:    0.0243    constr:    0.0000
     atom:   54    charge:    0.4230    magn:    0.0005    constr:    0.0000

     total cpu time spent up to now is     1511.1 secs

     total energy              =   -3021.14964318 Ry
     Harris-Foulkes estimate   =   -3021.14986412 Ry
     estimated scf accuracy    <       0.00256183 Ry

     total magnetization       =     1.07 Bohr mag/cell
     absolute magnetization    =     1.24 Bohr mag/cell

     iteration #  4     ecut=    40.42 Ry     beta=0.10
     Davidson diagonalization with overlap
     ethr =  6.10E-07,  avg # of iterations =  1.0

     negative rho (up, down):  1.190E-02 1.196E-02
 
     Magnetic moment per site:
     atom:    1    charge:    3.1244    magn:   -0.0003    constr:    0.0000
     atom:    2    charge:    2.0897    magn:    0.0003    constr:    0.0000
     atom:    3    charge:    3.1198    magn:   -0.0000    constr:    0.0000
     atom:    4    charge:    2.0867    magn:   -0.0001    constr:    0.0000
     atom:    5    charge:    3.1161    magn:   -0.0002    constr:    0.0000
     atom:    6    charge:    2.0795    magn:    0.0021    constr:    0.0000
     atom:    7    charge:    3.1168    magn:   -0.0056    constr:    0.0000
     atom:    8    charge:    2.0791    magn:    0.0256    constr:    0.0000
     atom:    9    charge:    3.1244    magn:   -0.0003    constr:    0.0000
     atom:   10    charge:    2.0898    magn:    0.0003    constr:    0.0000
     atom:   11    charge:    3.1198    magn:   -0.0000    constr:    0.0000
     atom:   12    charge:    2.0871    magn:   -0.0000    constr:    0.0000
     atom:   13    charge:    3.1150    magn:   -0.0002    constr:    0.0000
     atom:   14    charge:    2.0939    magn:    0.0023    constr:    0.0000
     atom:   15    charge:    3.1184    magn:   -0.0008    constr:    0.0000
     atom:   16    charge:    2.0828    magn:    0.0048    constr:    0.0000
     atom:   17    charge:    2.0623    magn:    0.0016    constr:    0.0000
     atom:   18    charge:    3.1239    magn:   -0.0001    constr:    0.0000
     atom:   19    charge:    2.0876    magn:    0.0001    constr:    0.0000
     atom:   20    charge:    2.0847    magn:    0.0001    constr:    0.0000
     atom:   21    charge:    2.0847    magn:    0.0001    constr:    0.0000
     atom:   22    charge:    3.1199    magn:    0.0000    constr:    0.0000
     atom:   23    charge:    2.0908    magn:    0.0002    constr:    0.0000
     atom:   24    charge:    2.0754    magn:   -0.0002    constr:    0.0000
     atom:   25    charge:    2.0868    magn:    0.0000    constr:    0.0000
     atom:   26    charge:    3.1127    magn:   -0.0002    constr:    0.0000
     atom:   27    charge:    2.0802    magn:    0.0025    constr:    0.0000
     atom:   28    charge:    2.0839    magn:    0.0006    constr:    0.0000
     atom:   29    charge:    2.0860    magn:    0.0008    constr:    0.0000
     atom:   30    charge:    3.1171    magn:   -0.0008    constr:    0.0000
     atom:   31    charge:    2.0824    magn:    0.0006    constr:    0.0000
     atom:   32    charge:    2.0829    magn:    0.0066    constr:    0.0000
     atom:   33    charge:    2.0623    magn:    0.0016    constr:    0.0000
     atom:   34    charge:    3.1239    magn:   -0.0001    constr:    0.0000
     atom:   35    charge:    2.0876    magn:    0.0001    constr:    0.0000
     atom:   36    charge:    2.0847    magn:    0.0001    constr:    0.0000
     atom:   37    charge:    2.0847    magn:    0.0001    constr:    0.0000
     atom:   38    charge:    3.1200    magn:    0.0000    constr:    0.0000
     atom:   39    charge:    2.0839    magn:    0.0002    constr:    0.0000
     atom:   40    charge:    2.0757    magn:   -0.0002    constr:    0.0000
     atom:   41    charge:    2.0870    magn:   -0.0000    constr:    0.0000
     atom:   42    charge:    3.1151    magn:   -0.0002    constr:    0.0000
     atom:   43    charge:    2.0802    magn:    0.0031    constr:    0.0000
     atom:   44    charge:    2.0851    magn:    0.0009    constr:    0.0000
     atom:   45    charge:    2.0858    magn:    0.0004    constr:    0.0000
     atom:   46    charge:    3.1148    magn:   -0.0007    constr:    0.0000
     atom:   47    charge:    2.0806    magn:    0.0048    constr:    0.0000
     atom:   48    charge:    2.0835    magn:    0.0142    constr:    0.0000
     atom:   49    charge:    2.0489    magn:    0.2430    constr:    0.0000
     atom:   50    charge:    0.6747    magn:    0.0531    constr:    0.0000
     atom:   51    charge:    0.4220    magn:    0.0009    constr:    0.0000
     atom:   52    charge:    0.4224    magn:    0.0005    constr:    0.0000
     atom:   53    charge:    0.3763    magn:    0.0241    constr:    0.0000
     atom:   54    charge:    0.4230    magn:    0.0005    constr:    0.0000

     total cpu time spent up to now is     1711.6 secs

     total energy              =   -3021.14967722 Ry
     Harris-Foulkes estimate   =   -3021.14977398 Ry
     estimated scf accuracy    <       0.00127919 Ry

     total magnetization       =     1.06 Bohr mag/cell
     absolute magnetization    =     1.23 Bohr mag/cell

     iteration #  5     ecut=    40.42 Ry     beta=0.10
     Davidson diagonalization with overlap
     ethr =  3.21E-07,  avg # of iterations =  2.0

     negative rho (up, down):  1.190E-02 1.196E-02
 
     Magnetic moment per site:
     atom:    1    charge:    3.1244    magn:   -0.0003    constr:    0.0000
     atom:    2    charge:    2.0897    magn:    0.0003    constr:    0.0000
     atom:    3    charge:    3.1198    magn:   -0.0000    constr:    0.0000
     atom:    4    charge:    2.0867    magn:   -0.0001    constr:    0.0000
     atom:    5    charge:    3.1161    magn:   -0.0002    constr:    0.0000
     atom:    6    charge:    2.0795    magn:    0.0021    constr:    0.0000
     atom:    7    charge:    3.1167    magn:   -0.0057    constr:    0.0000
     atom:    8    charge:    2.0792    magn:    0.0257    constr:    0.0000
     atom:    9    charge:    3.1244    magn:   -0.0003    constr:    0.0000
     atom:   10    charge:    2.0898    magn:    0.0003    constr:    0.0000
     atom:   11    charge:    3.1198    magn:   -0.0000    constr:    0.0000
     atom:   12    charge:    2.0871    magn:   -0.0000    constr:    0.0000
     atom:   13    charge:    3.1150    magn:   -0.0002    constr:    0.0000
     atom:   14    charge:    2.0939    magn:    0.0023    constr:    0.0000
     atom:   15    charge:    3.1184    magn:   -0.0008    constr:    0.0000
     atom:   16    charge:    2.0828    magn:    0.0048    constr:    0.0000
     atom:   17    charge:    2.0624    magn:    0.0015    constr:    0.0000
     atom:   18    charge:    3.1239    magn:   -0.0001    constr:    0.0000
     atom:   19    charge:    2.0876    magn:    0.0001    constr:    0.0000
     atom:   20    charge:    2.0847    magn:    0.0001    constr:    0.0000
     atom:   21    charge:    2.0847    magn:    0.0001    constr:    0.0000
     atom:   22    charge:    3.1199    magn:    0.0000    constr:    0.0000
     atom:   23    charge:    2.0908    magn:    0.0002    constr:    0.0000
     atom:   24    charge:    2.0754    magn:   -0.0001    constr:    0.0000
     atom:   25    charge:    2.0867    magn:    0.0000    constr:    0.0000
     atom:   26    charge:    3.1127    magn:   -0.0002    constr:    0.0000
     atom:   27    charge:    2.0803    magn:    0.0026    constr:    0.0000
     atom:   28    charge:    2.0839    magn:    0.0006    constr:    0.0000
     atom:   29    charge:    2.0860    magn:    0.0008    constr:    0.0000
     atom:   30    charge:    3.1172    magn:   -0.0008    constr:    0.0000
     atom:   31    charge:    2.0823    magn:    0.0006    constr:    0.0000
     atom:   32    charge:    2.0829    magn:    0.0066    constr:    0.0000
     atom:   33    charge:    2.0624    magn:    0.0015    constr:    0.0000
     atom:   34    charge:    3.1239    magn:   -0.0001    constr:    0.0000
     atom:   35    charge:    2.0876    magn:    0.0001    constr:    0.0000
     atom:   36    charge:    2.0847    magn:    0.0001    constr:    0.0000
     atom:   37    charge:    2.0847    magn:    0.0001    constr:    0.0000
     atom:   38    charge:    3.1200    magn:    0.0000    constr:    0.0000
     atom:   39    charge:    2.0839    magn:    0.0002    constr:    0.0000
     atom:   40    charge:    2.0756    magn:   -0.0002    constr:    0.0000
     atom:   41    charge:    2.0870    magn:   -0.0000    constr:    0.0000
     atom:   42    charge:    3.1151    magn:   -0.0002    constr:    0.0000
     atom:   43    charge:    2.0803    magn:    0.0031    constr:    0.0000
     atom:   44    charge:    2.0851    magn:    0.0009    constr:    0.0000
     atom:   45    charge:    2.0858    magn:    0.0004    constr:    0.0000
     atom:   46    charge:    3.1148    magn:   -0.0007    constr:    0.0000
     atom:   47    charge:    2.0804    magn:    0.0048    constr:    0.0000
     atom:   48    charge:    2.0836    magn:    0.0143    constr:    0.0000
     atom:   49    charge:    2.0497    magn:    0.2437    constr:    0.0000
     atom:   50    charge:    0.6748    magn:    0.0527    constr:    0.0000
     atom:   51    charge:    0.4220    magn:    0.0009    constr:    0.0000
     atom:   52    charge:    0.4224    magn:    0.0005    constr:    0.0000
     atom:   53    charge:    0.3768    magn:    0.0240    constr:    0.0000
     atom:   54    charge:    0.4230    magn:    0.0006    constr:    0.0000

     total cpu time spent up to now is     1931.5 secs

     total energy              =   -3021.14969681 Ry
     Harris-Foulkes estimate   =   -3021.14972192 Ry
     estimated scf accuracy    <       0.00032361 Ry

     total magnetization       =     1.06 Bohr mag/cell
     absolute magnetization    =     1.23 Bohr mag/cell

     iteration #  6     ecut=    40.42 Ry     beta=0.10
     Davidson diagonalization with overlap
     ethr =  8.13E-08,  avg # of iterations =  2.4

     negative rho (up, down):  1.190E-02 1.196E-02
 
     Magnetic moment per site:
     atom:    1    charge:    3.1244    magn:   -0.0002    constr:    0.0000
     atom:    2    charge:    2.0897    magn:    0.0002    constr:    0.0000
     atom:    3    charge:    3.1198    magn:   -0.0000    constr:    0.0000
     atom:    4    charge:    2.0867    magn:   -0.0001    constr:    0.0000
     atom:    5    charge:    3.1161    magn:   -0.0003    constr:    0.0000
     atom:    6    charge:    2.0795    magn:    0.0021    constr:    0.0000
     atom:    7    charge:    3.1167    magn:   -0.0058    constr:    0.0000
     atom:    8    charge:    2.0793    magn:    0.0259    constr:    0.0000
     atom:    9    charge:    3.1244    magn:   -0.0002    constr:    0.0000
     atom:   10    charge:    2.0898    magn:    0.0002    constr:    0.0000
     atom:   11    charge:    3.1198    magn:   -0.0000    constr:    0.0000
     atom:   12    charge:    2.0870    magn:   -0.0000    constr:    0.0000
     atom:   13    charge:    3.1150    magn:   -0.0002    constr:    0.0000
     atom:   14    charge:    2.0939    magn:    0.0023    constr:    0.0000
     atom:   15    charge:    3.1183    magn:   -0.0008    constr:    0.0000
     atom:   16    charge:    2.0828    magn:    0.0048    constr:    0.0000
     atom:   17    charge:    2.0624    magn:    0.0013    constr:    0.0000
     atom:   18    charge:    3.1239    magn:   -0.0001    constr:    0.0000
     atom:   19    charge:    2.0875    magn:    0.0001    constr:    0.0000
     atom:   20    charge:    2.0847    magn:    0.0001    constr:    0.0000
     atom:   21    charge:    2.0847    magn:    0.0001    constr:    0.0000
     atom:   22    charge:    3.1199    magn:    0.0000    constr:    0.0000
     atom:   23    charge:    2.0908    magn:    0.0002    constr:    0.0000
     atom:   24    charge:    2.0754    magn:   -0.0001    constr:    0.0000
     atom:   25    charge:    2.0867    magn:    0.0000    constr:    0.0000
     atom:   26    charge:    3.1127    magn:   -0.0002    constr:    0.0000
     atom:   27    charge:    2.0803    magn:    0.0026    constr:    0.0000
     atom:   28    charge:    2.0839    magn:    0.0007    constr:    0.0000
     atom:   29    charge:    2.0860    magn:    0.0008    constr:    0.0000
     atom:   30    charge:    3.1171    magn:   -0.0008    constr:    0.0000
     atom:   31    charge:    2.0824    magn:    0.0006    constr:    0.0000
     atom:   32    charge:    2.0829    magn:    0.0067    constr:    0.0000
     atom:   33    charge:    2.0624    magn:    0.0014    constr:    0.0000
     atom:   34    charge:    3.1239    magn:   -0.0001    constr:    0.0000
     atom:   35    charge:    2.0876    magn:    0.0000    constr:    0.0000
     atom:   36    charge:    2.0847    magn:    0.0001    constr:    0.0000
     atom:   37    charge:    2.0847    magn:    0.0001    constr:    0.0000
     atom:   38    charge:    3.1200    magn:    0.0000    constr:    0.0000
     atom:   39    charge:    2.0839    magn:    0.0002    constr:    0.0000
     atom:   40    charge:    2.0756    magn:   -0.0002    constr:    0.0000
     atom:   41    charge:    2.0870    magn:   -0.0000    constr:    0.0000
     atom:   42    charge:    3.1151    magn:   -0.0002    constr:    0.0000
     atom:   43    charge:    2.0803    magn:    0.0032    constr:    0.0000
     atom:   44    charge:    2.0851    magn:    0.0009    constr:    0.0000
     atom:   45    charge:    2.0858    magn:    0.0005    constr:    0.0000
     atom:   46    charge:    3.1147    magn:   -0.0007    constr:    0.0000
     atom:   47    charge:    2.0804    magn:    0.0049    constr:    0.0000
     atom:   48    charge:    2.0837    magn:    0.0145    constr:    0.0000
     atom:   49    charge:    2.0509    magn:    0.2449    constr:    0.0000
     atom:   50    charge:    0.6742    magn:    0.0520    constr:    0.0000
     atom:   51    charge:    0.4221    magn:    0.0010    constr:    0.0000
     atom:   52    charge:    0.4226    magn:    0.0004    constr:    0.0000
     atom:   53    charge:    0.3775    magn:    0.0239    constr:    0.0000
     atom:   54    charge:    0.4231    magn:    0.0006    constr:    0.0000

     total cpu time spent up to now is     2156.7 secs

     total energy              =   -3021.14969610 Ry
     Harris-Foulkes estimate   =   -3021.14970479 Ry
     estimated scf accuracy    <       0.00014839 Ry

     total magnetization       =     1.06 Bohr mag/cell
     absolute magnetization    =     1.23 Bohr mag/cell

     iteration #  7     ecut=    40.42 Ry     beta=0.10
     Davidson diagonalization with overlap
     ethr =  3.73E-08,  avg # of iterations =  3.0

     negative rho (up, down):  1.190E-02 1.196E-02
 
     Magnetic moment per site:
     atom:    1    charge:    3.1244    magn:   -0.0002    constr:    0.0000
     atom:    2    charge:    2.0897    magn:    0.0002    constr:    0.0000
     atom:    3    charge:    3.1198    magn:   -0.0000    constr:    0.0000
     atom:    4    charge:    2.0867    magn:   -0.0001    constr:    0.0000
     atom:    5    charge:    3.1161    magn:   -0.0003    constr:    0.0000
     atom:    6    charge:    2.0795    magn:    0.0022    constr:    0.0000
     atom:    7    charge:    3.1168    magn:   -0.0059    constr:    0.0000
     atom:    8    charge:    2.0793    magn:    0.0260    constr:    0.0000
     atom:    9    charge:    3.1244    magn:   -0.0002    constr:    0.0000
     atom:   10    charge:    2.0898    magn:    0.0002    constr:    0.0000
     atom:   11    charge:    3.1198    magn:   -0.0000    constr:    0.0000
     atom:   12    charge:    2.0870    magn:   -0.0000    constr:    0.0000
     atom:   13    charge:    3.1150    magn:   -0.0002    constr:    0.0000
     atom:   14    charge:    2.0939    magn:    0.0023    constr:    0.0000
     atom:   15    charge:    3.1184    magn:   -0.0008    constr:    0.0000
     atom:   16    charge:    2.0828    magn:    0.0048    constr:    0.0000
     atom:   17    charge:    2.0624    magn:    0.0012    constr:    0.0000
     atom:   18    charge:    3.1240    magn:   -0.0001    constr:    0.0000
     atom:   19    charge:    2.0875    magn:    0.0000    constr:    0.0000
     atom:   20    charge:    2.0847    magn:    0.0001    constr:    0.0000
     atom:   21    charge:    2.0847    magn:    0.0001    constr:    0.0000
     atom:   22    charge:    3.1199    magn:    0.0000    constr:    0.0000
     atom:   23    charge:    2.0908    magn:    0.0003    constr:    0.0000
     atom:   24    charge:    2.0754    magn:   -0.0001    constr:    0.0000
     atom:   25    charge:    2.0867    magn:    0.0000    constr:    0.0000
     atom:   26    charge:    3.1127    magn:   -0.0003    constr:    0.0000
     atom:   27    charge:    2.0803    magn:    0.0027    constr:    0.0000
     atom:   28    charge:    2.0839    magn:    0.0007    constr:    0.0000
     atom:   29    charge:    2.0860    magn:    0.0009    constr:    0.0000
     atom:   30    charge:    3.1171    magn:   -0.0008    constr:    0.0000
     atom:   31    charge:    2.0825    magn:    0.0006    constr:    0.0000
     atom:   32    charge:    2.0829    magn:    0.0067    constr:    0.0000
     atom:   33    charge:    2.0624    magn:    0.0012    constr:    0.0000
     atom:   34    charge:    3.1239    magn:   -0.0000    constr:    0.0000
     atom:   35    charge:    2.0875    magn:    0.0000    constr:    0.0000
     atom:   36    charge:    2.0847    magn:    0.0001    constr:    0.0000
     atom:   37    charge:    2.0847    magn:    0.0001    constr:    0.0000
     atom:   38    charge:    3.1200    magn:    0.0000    constr:    0.0000
     atom:   39    charge:    2.0839    magn:    0.0002    constr:    0.0000
     atom:   40    charge:    2.0756    magn:   -0.0002    constr:    0.0000
     atom:   41    charge:    2.0870    magn:   -0.0000    constr:    0.0000
     atom:   42    charge:    3.1151    magn:   -0.0002    constr:    0.0000
     atom:   43    charge:    2.0803    magn:    0.0033    constr:    0.0000
     atom:   44    charge:    2.0851    magn:    0.0010    constr:    0.0000
     atom:   45    charge:    2.0858    magn:    0.0005    constr:    0.0000
     atom:   46    charge:    3.1147    magn:   -0.0007    constr:    0.0000
     atom:   47    charge:    2.0806    magn:    0.0049    constr:    0.0000
     atom:   48    charge:    2.0837    magn:    0.0146    constr:    0.0000
     atom:   49    charge:    2.0512    magn:    0.2455    constr:    0.0000
     atom:   50    charge:    0.6737    magn:    0.0517    constr:    0.0000
     atom:   51    charge:    0.4222    magn:    0.0011    constr:    0.0000
     atom:   52    charge:    0.4227    magn:    0.0004    constr:    0.0000
     atom:   53    charge:    0.3776    magn:    0.0239    constr:    0.0000
     atom:   54    charge:    0.4232    magn:    0.0007    constr:    0.0000

     total cpu time spent up to now is     2395.8 secs

     total energy              =   -3021.14970323 Ry
     Harris-Foulkes estimate   =   -3021.14970441 Ry
     estimated scf accuracy    <       0.00003315 Ry

     total magnetization       =     1.06 Bohr mag/cell
     absolute magnetization    =     1.23 Bohr mag/cell

     iteration #  8     ecut=    40.42 Ry     beta=0.10
     Davidson diagonalization with overlap
     ethr =  8.33E-09,  avg # of iterations =  3.0

     negative rho (up, down):  1.190E-02 1.196E-02
 
     Magnetic moment per site:
     atom:    1    charge:    3.1244    magn:   -0.0002    constr:    0.0000
     atom:    2    charge:    2.0897    magn:    0.0002    constr:    0.0000
     atom:    3    charge:    3.1198    magn:   -0.0000    constr:    0.0000
     atom:    4    charge:    2.0867    magn:   -0.0001    constr:    0.0000
     atom:    5    charge:    3.1161    magn:   -0.0003    constr:    0.0000
     atom:    6    charge:    2.0795    magn:    0.0022    constr:    0.0000
     atom:    7    charge:    3.1167    magn:   -0.0060    constr:    0.0000
     atom:    8    charge:    2.0793    magn:    0.0261    constr:    0.0000
     atom:    9    charge:    3.1244    magn:   -0.0002    constr:    0.0000
     atom:   10    charge:    2.0898    magn:    0.0002    constr:    0.0000
     atom:   11    charge:    3.1198    magn:   -0.0000    constr:    0.0000
     atom:   12    charge:    2.0870    magn:   -0.0000    constr:    0.0000
     atom:   13    charge:    3.1150    magn:   -0.0002    constr:    0.0000
     atom:   14    charge:    2.0939    magn:    0.0024    constr:    0.0000
     atom:   15    charge:    3.1184    magn:   -0.0008    constr:    0.0000
     atom:   16    charge:    2.0828    magn:    0.0049    constr:    0.0000
     atom:   17    charge:    2.0624    magn:    0.0011    constr:    0.0000
     atom:   18    charge:    3.1239    magn:   -0.0000    constr:    0.0000
     atom:   19    charge:    2.0875    magn:    0.0000    constr:    0.0000
     atom:   20    charge:    2.0847    magn:    0.0001    constr:    0.0000
     atom:   21    charge:    2.0847    magn:    0.0001    constr:    0.0000
     atom:   22    charge:    3.1199    magn:    0.0000    constr:    0.0000
     atom:   23    charge:    2.0908    magn:    0.0003    constr:    0.0000
     atom:   24    charge:    2.0754    magn:   -0.0001    constr:    0.0000
     atom:   25    charge:    2.0867    magn:    0.0000    constr:    0.0000
     atom:   26    charge:    3.1127    magn:   -0.0003    constr:    0.0000
     atom:   27    charge:    2.0802    magn:    0.0027    constr:    0.0000
     atom:   28    charge:    2.0839    magn:    0.0007    constr:    0.0000
     atom:   29    charge:    2.0860    magn:    0.0009    constr:    0.0000
     atom:   30    charge:    3.1171    magn:   -0.0008    constr:    0.0000
     atom:   31    charge:    2.0825    magn:    0.0006    constr:    0.0000
     atom:   32    charge:    2.0829    magn:    0.0067    constr:    0.0000
     atom:   33    charge:    2.0624    magn:    0.0012    constr:    0.0000
     atom:   34    charge:    3.1239    magn:   -0.0000    constr:    0.0000
     atom:   35    charge:    2.0875    magn:    0.0000    constr:    0.0000
     atom:   36    charge:    2.0847    magn:    0.0001    constr:    0.0000
     atom:   37    charge:    2.0847    magn:    0.0001    constr:    0.0000
     atom:   38    charge:    3.1200    magn:    0.0000    constr:    0.0000
     atom:   39    charge:    2.0839    magn:    0.0002    constr:    0.0000
     atom:   40    charge:    2.0756    magn:   -0.0001    constr:    0.0000
     atom:   41    charge:    2.0870    magn:   -0.0000    constr:    0.0000
     atom:   42    charge:    3.1151    magn:   -0.0002    constr:    0.0000
     atom:   43    charge:    2.0803    magn:    0.0033    constr:    0.0000
     atom:   44    charge:    2.0851    magn:    0.0010    constr:    0.0000
     atom:   45    charge:    2.0858    magn:    0.0005    constr:    0.0000
     atom:   46    charge:    3.1148    magn:   -0.0007    constr:    0.0000
     atom:   47    charge:    2.0806    magn:    0.0049    constr:    0.0000
     atom:   48    charge:    2.0837    magn:    0.0147    constr:    0.0000
     atom:   49    charge:    2.0513    magn:    0.2458    constr:    0.0000
     atom:   50    charge:    0.6735    magn:    0.0516    constr:    0.0000
     atom:   51    charge:    0.4222    magn:    0.0011    constr:    0.0000
     atom:   52    charge:    0.4228    magn:    0.0004    constr:    0.0000
     atom:   53    charge:    0.3778    magn:    0.0239    constr:    0.0000
     atom:   54    charge:    0.4232    magn:    0.0007    constr:    0.0000

     total cpu time spent up to now is     2633.0 secs

     total energy              =   -3021.14970707 Ry
     Harris-Foulkes estimate   =   -3021.14970587 Ry
     estimated scf accuracy    <       0.00000756 Ry

     total magnetization       =     1.06 Bohr mag/cell
     absolute magnetization    =     1.23 Bohr mag/cell

     iteration #  9     ecut=    40.42 Ry     beta=0.10
     Davidson diagonalization with overlap
     ethr =  1.90E-09,  avg # of iterations =  2.3

     negative rho (up, down):  1.190E-02 1.196E-02
 
     Magnetic moment per site:
     atom:    1    charge:    3.1244    magn:   -0.0002    constr:    0.0000
     atom:    2    charge:    2.0897    magn:    0.0002    constr:    0.0000
     atom:    3    charge:    3.1198    magn:   -0.0000    constr:    0.0000
     atom:    4    charge:    2.0867    magn:   -0.0001    constr:    0.0000
     atom:    5    charge:    3.1161    magn:   -0.0003    constr:    0.0000
     atom:    6    charge:    2.0795    magn:    0.0022    constr:    0.0000
     atom:    7    charge:    3.1167    magn:   -0.0061    constr:    0.0000
     atom:    8    charge:    2.0792    magn:    0.0262    constr:    0.0000
     atom:    9    charge:    3.1244    magn:   -0.0002    constr:    0.0000
     atom:   10    charge:    2.0898    magn:    0.0002    constr:    0.0000
     atom:   11    charge:    3.1198    magn:   -0.0000    constr:    0.0000
     atom:   12    charge:    2.0870    magn:   -0.0000    constr:    0.0000
     atom:   13    charge:    3.1150    magn:   -0.0002    constr:    0.0000
     atom:   14    charge:    2.0939    magn:    0.0024    constr:    0.0000
     atom:   15    charge:    3.1184    magn:   -0.0008    constr:    0.0000
     atom:   16    charge:    2.0828    magn:    0.0049    constr:    0.0000
     atom:   17    charge:    2.0624    magn:    0.0010    constr:    0.0000
     atom:   18    charge:    3.1239    magn:   -0.0000    constr:    0.0000
     atom:   19    charge:    2.0875    magn:    0.0000    constr:    0.0000
     atom:   20    charge:    2.0847    magn:    0.0001    constr:    0.0000
     atom:   21    charge:    2.0847    magn:    0.0001    constr:    0.0000
     atom:   22    charge:    3.1199    magn:    0.0000    constr:    0.0000
     atom:   23    charge:    2.0908    magn:    0.0003    constr:    0.0000
     atom:   24    charge:    2.0754    magn:   -0.0000    constr:    0.0000
     atom:   25    charge:    2.0867    magn:    0.0000    constr:    0.0000
     atom:   26    charge:    3.1127    magn:   -0.0003    constr:    0.0000
     atom:   27    charge:    2.0802    magn:    0.0028    constr:    0.0000
     atom:   28    charge:    2.0839    magn:    0.0008    constr:    0.0000
     atom:   29    charge:    2.0860    magn:    0.0009    constr:    0.0000
     atom:   30    charge:    3.1171    magn:   -0.0008    constr:    0.0000
     atom:   31    charge:    2.0825    magn:    0.0006    constr:    0.0000
     atom:   32    charge:    2.0829    magn:    0.0067    constr:    0.0000
     atom:   33    charge:    2.0624    magn:    0.0010    constr:    0.0000
     atom:   34    charge:    3.1239    magn:   -0.0000    constr:    0.0000
     atom:   35    charge:    2.0876    magn:    0.0000    constr:    0.0000
     atom:   36    charge:    2.0847    magn:    0.0001    constr:    0.0000
     atom:   37    charge:    2.0847    magn:    0.0001    constr:    0.0000
     atom:   38    charge:    3.1200    magn:    0.0000    constr:    0.0000
     atom:   39    charge:    2.0839    magn:    0.0002    constr:    0.0000
     atom:   40    charge:    2.0756    magn:   -0.0001    constr:    0.0000
     atom:   41    charge:    2.0870    magn:   -0.0000    constr:    0.0000
     atom:   42    charge:    3.1151    magn:   -0.0002    constr:    0.0000
     atom:   43    charge:    2.0803    magn:    0.0033    constr:    0.0000
     atom:   44    charge:    2.0851    magn:    0.0010    constr:    0.0000
     atom:   45    charge:    2.0858    magn:    0.0005    constr:    0.0000
     atom:   46    charge:    3.1148    magn:   -0.0007    constr:    0.0000
     atom:   47    charge:    2.0806    magn:    0.0049    constr:    0.0000
     atom:   48    charge:    2.0837    magn:    0.0148    constr:    0.0000
     atom:   49    charge:    2.0511    magn:    0.2461    constr:    0.0000
     atom:   50    charge:    0.6734    magn:    0.0514    constr:    0.0000
     atom:   51    charge:    0.4223    magn:    0.0011    constr:    0.0000
     atom:   52    charge:    0.4228    magn:    0.0005    constr:    0.0000
     atom:   53    charge:    0.3778    magn:    0.0240    constr:    0.0000
     atom:   54    charge:    0.4232    magn:    0.0007    constr:    0.0000

     total cpu time spent up to now is     2856.2 secs

     total energy              =   -3021.14970745 Ry
     Harris-Foulkes estimate   =   -3021.14970738 Ry
     estimated scf accuracy    <       0.00000355 Ry

     total magnetization       =     1.06 Bohr mag/cell
     absolute magnetization    =     1.24 Bohr mag/cell

     iteration # 10     ecut=    40.42 Ry     beta=0.10
     Davidson diagonalization with overlap
     ethr =  8.92E-10,  avg # of iterations =  3.1

     negative rho (up, down):  1.190E-02 1.196E-02
 
     Magnetic moment per site:
     atom:    1    charge:    3.1244    magn:   -0.0002    constr:    0.0000
     atom:    2    charge:    2.0897    magn:    0.0001    constr:    0.0000
     atom:    3    charge:    3.1198    magn:   -0.0000    constr:    0.0000
     atom:    4    charge:    2.0867    magn:   -0.0001    constr:    0.0000
     atom:    5    charge:    3.1161    magn:   -0.0003    constr:    0.0000
     atom:    6    charge:    2.0795    magn:    0.0022    constr:    0.0000
     atom:    7    charge:    3.1167    magn:   -0.0061    constr:    0.0000
     atom:    8    charge:    2.0792    magn:    0.0262    constr:    0.0000
     atom:    9    charge:    3.1244    magn:   -0.0002    constr:    0.0000
     atom:   10    charge:    2.0898    magn:    0.0002    constr:    0.0000
     atom:   11    charge:    3.1198    magn:   -0.0000    constr:    0.0000
     atom:   12    charge:    2.0870    magn:   -0.0000    constr:    0.0000
     atom:   13    charge:    3.1150    magn:   -0.0002    constr:    0.0000
     atom:   14    charge:    2.0939    magn:    0.0024    constr:    0.0000
     atom:   15    charge:    3.1184    magn:   -0.0008    constr:    0.0000
     atom:   16    charge:    2.0828    magn:    0.0049    constr:    0.0000
     atom:   17    charge:    2.0624    magn:    0.0009    constr:    0.0000
     atom:   18    charge:    3.1239    magn:   -0.0000    constr:    0.0000
     atom:   19    charge:    2.0875    magn:    0.0000    constr:    0.0000
     atom:   20    charge:    2.0847    magn:    0.0001    constr:    0.0000
     atom:   21    charge:    2.0847    magn:    0.0001    constr:    0.0000
     atom:   22    charge:    3.1199    magn:    0.0000    constr:    0.0000
     atom:   23    charge:    2.0908    magn:    0.0003    constr:    0.0000
     atom:   24    charge:    2.0754    magn:   -0.0000    constr:    0.0000
     atom:   25    charge:    2.0867    magn:    0.0000    constr:    0.0000
     atom:   26    charge:    3.1127    magn:   -0.0003    constr:    0.0000
     atom:   27    charge:    2.0803    magn:    0.0028    constr:    0.0000
     atom:   28    charge:    2.0839    magn:    0.0008    constr:    0.0000
     atom:   29    charge:    2.0860    magn:    0.0009    constr:    0.0000
     atom:   30    charge:    3.1171    magn:   -0.0008    constr:    0.0000
     atom:   31    charge:    2.0825    magn:    0.0006    constr:    0.0000
     atom:   32    charge:    2.0829    magn:    0.0068    constr:    0.0000
     atom:   33    charge:    2.0624    magn:    0.0010    constr:    0.0000
     atom:   34    charge:    3.1239    magn:   -0.0000    constr:    0.0000
     atom:   35    charge:    2.0876    magn:    0.0000    constr:    0.0000
     atom:   36    charge:    2.0847    magn:    0.0001    constr:    0.0000
     atom:   37    charge:    2.0847    magn:    0.0001    constr:    0.0000
     atom:   38    charge:    3.1200    magn:    0.0000    constr:    0.0000
     atom:   39    charge:    2.0839    magn:    0.0002    constr:    0.0000
     atom:   40    charge:    2.0756    magn:   -0.0001    constr:    0.0000
     atom:   41    charge:    2.0870    magn:   -0.0000    constr:    0.0000
     atom:   42    charge:    3.1151    magn:   -0.0003    constr:    0.0000
     atom:   43    charge:    2.0803    magn:    0.0034    constr:    0.0000
     atom:   44    charge:    2.0851    magn:    0.0010    constr:    0.0000
     atom:   45    charge:    2.0858    magn:    0.0006    constr:    0.0000
     atom:   46    charge:    3.1148    magn:   -0.0008    constr:    0.0000
     atom:   47    charge:    2.0806    magn:    0.0050    constr:    0.0000
     atom:   48    charge:    2.0837    magn:    0.0148    constr:    0.0000
     atom:   49    charge:    2.0511    magn:    0.2464    constr:    0.0000
     atom:   50    charge:    0.6733    magn:    0.0513    constr:    0.0000
     atom:   51    charge:    0.4223    magn:    0.0011    constr:    0.0000
     atom:   52    charge:    0.4229    magn:    0.0005    constr:    0.0000
     atom:   53    charge:    0.3778    magn:    0.0240    constr:    0.0000
     atom:   54    charge:    0.4232    magn:    0.0007    constr:    0.0000

     total cpu time spent up to now is     3101.6 secs

     total energy              =   -3021.14970814 Ry
     Harris-Foulkes estimate   =   -3021.14970789 Ry
     estimated scf accuracy    <       0.00000120 Ry

     total magnetization       =     1.06 Bohr mag/cell
     absolute magnetization    =     1.23 Bohr mag/cell

     iteration # 11     ecut=    40.42 Ry     beta=0.10
     Davidson diagonalization with overlap
     ethr =  3.02E-10,  avg # of iterations =  3.0

     negative rho (up, down):  1.190E-02 1.196E-02
 
     Magnetic moment per site:
     atom:    1    charge:    3.1244    magn:   -0.0001    constr:    0.0000
     atom:    2    charge:    2.0897    magn:    0.0001    constr:    0.0000
     atom:    3    charge:    3.1198    magn:   -0.0000    constr:    0.0000
     atom:    4    charge:    2.0867    magn:   -0.0001    constr:    0.0000
     atom:    5    charge:    3.1161    magn:   -0.0003    constr:    0.0000
     atom:    6    charge:    2.0795    magn:    0.0022    constr:    0.0000
     atom:    7    charge:    3.1168    magn:   -0.0063    constr:    0.0000
     atom:    8    charge:    2.0793    magn:    0.0263    constr:    0.0000
     atom:    9    charge:    3.1244    magn:   -0.0001    constr:    0.0000
     atom:   10    charge:    2.0898    magn:    0.0001    constr:    0.0000
     atom:   11    charge:    3.1198    magn:   -0.0000    constr:    0.0000
     atom:   12    charge:    2.0870    magn:   -0.0000    constr:    0.0000
     atom:   13    charge:    3.1150    magn:   -0.0002    constr:    0.0000
     atom:   14    charge:    2.0939    magn:    0.0024    constr:    0.0000
     atom:   15    charge:    3.1184    magn:   -0.0009    constr:    0.0000
     atom:   16    charge:    2.0828    magn:    0.0050    constr:    0.0000
     atom:   17    charge:    2.0625    magn:    0.0007    constr:    0.0000
     atom:   18    charge:    3.1239    magn:   -0.0000    constr:    0.0000
     atom:   19    charge:    2.0875    magn:    0.0000    constr:    0.0000
     atom:   20    charge:    2.0847    magn:    0.0000    constr:    0.0000
     atom:   21    charge:    2.0847    magn:    0.0000    constr:    0.0000
     atom:   22    charge:    3.1199    magn:    0.0000    constr:    0.0000
     atom:   23    charge:    2.0908    magn:    0.0003    constr:    0.0000
     atom:   24    charge:    2.0754    magn:   -0.0000    constr:    0.0000
     atom:   25    charge:    2.0867    magn:    0.0000    constr:    0.0000
     atom:   26    charge:    3.1127    magn:   -0.0003    constr:    0.0000
     atom:   27    charge:    2.0803    magn:    0.0029    constr:    0.0000
     atom:   28    charge:    2.0839    magn:    0.0008    constr:    0.0000
     atom:   29    charge:    2.0860    magn:    0.0010    constr:    0.0000
     atom:   30    charge:    3.1171    magn:   -0.0009    constr:    0.0000
     atom:   31    charge:    2.0824    magn:    0.0007    constr:    0.0000
     atom:   32    charge:    2.0829    magn:    0.0068    constr:    0.0000
     atom:   33    charge:    2.0624    magn:    0.0007    constr:    0.0000
     atom:   34    charge:    3.1239    magn:   -0.0000    constr:    0.0000
     atom:   35    charge:    2.0875    magn:    0.0000    constr:    0.0000
     atom:   36    charge:    2.0847    magn:    0.0000    constr:    0.0000
     atom:   37    charge:    2.0847    magn:    0.0000    constr:    0.0000
     atom:   38    charge:    3.1200    magn:    0.0000    constr:    0.0000
     atom:   39    charge:    2.0839    magn:    0.0002    constr:    0.0000
     atom:   40    charge:    2.0756    magn:   -0.0001    constr:    0.0000
     atom:   41    charge:    2.0870    magn:   -0.0000    constr:    0.0000
     atom:   42    charge:    3.1151    magn:   -0.0003    constr:    0.0000
     atom:   43    charge:    2.0803    magn:    0.0035    constr:    0.0000
     atom:   44    charge:    2.0851    magn:    0.0011    constr:    0.0000
     atom:   45    charge:    2.0858    magn:    0.0006    constr:    0.0000
     atom:   46    charge:    3.1147    magn:   -0.0008    constr:    0.0000
     atom:   47    charge:    2.0806    magn:    0.0050    constr:    0.0000
     atom:   48    charge:    2.0837    magn:    0.0149    constr:    0.0000
     atom:   49    charge:    2.0511    magn:    0.2468    constr:    0.0000
     atom:   50    charge:    0.6734    magn:    0.0511    constr:    0.0000
     atom:   51    charge:    0.4223    magn:    0.0012    constr:    0.0000
     atom:   52    charge:    0.4228    magn:    0.0005    constr:    0.0000
     atom:   53    charge:    0.3778    magn:    0.0241    constr:    0.0000
     atom:   54    charge:    0.4232    magn:    0.0008    constr:    0.0000

     total cpu time spent up to now is     3339.0 secs

     End of self-consistent calculation

 ------ SPIN UP ------------


          k = 0.0000 0.0000 0.0000 ( 34665 PWs)   bands (ev):

   -58.3249 -58.2899 -57.4072 -57.4015 -57.3683 -57.3309 -57.2798 -57.1136
   -57.0843 -57.0783 -57.0399 -56.9412 -56.9115 -56.9060 -56.8180 -56.7796
   -34.7701 -34.5935 -34.5647 -34.5315 -34.4365 -34.3797 -33.9021 -33.8900
   -33.7723 -33.6988 -33.6566 -33.6141 -33.5815 -33.5746 -33.5688 -33.5621
   -33.5513 -33.5359 -33.5103 -33.5097 -33.4948 -33.4943 -33.4902 -33.4731
   -33.3607 -33.3528 -33.3513 -33.3492 -33.3380 -33.3080 -33.3018 -33.2820
   -33.2621 -33.2564 -33.2558 -33.2467 -33.2125 -33.1961 -33.1598 -33.1584
   -33.1195 -33.0960 -33.0699 -33.0463 -33.0331 -33.0068 -32.9682 -32.8989
   -18.4901 -18.0580 -17.8343 -17.7325 -17.5737 -17.5505 -17.5089 -17.4050
   -17.3793 -17.2780 -17.0670 -17.0458 -17.0380 -17.0046 -16.9440 -16.8758
   -16.8562 -16.8194 -16.7615 -16.7341 -16.7125 -16.6811 -16.6137 -16.6099
   -16.4869 -16.4400 -16.4198 -16.3873 -16.3472 -16.1649 -16.1030 -15.6207
   -15.5598 -11.1635  -6.0686  -5.5180  -5.3039  -5.2238  -5.1151  -5.0128
    -5.0029  -4.8995  -4.8819  -4.7511  -4.6709  -4.6203  -4.6065  -4.5304
    -4.4491  -4.4349  -4.3738  -4.3377  -4.2518  -4.2396  -4.2120  -4.1631
    -4.0525  -4.0457  -3.9997  -3.9309  -3.9133  -3.9073  -3.9046  -3.8404
    -3.7978  -3.7729  -3.6695  -3.6470  -3.6144  -3.5941  -3.5620  -3.5485
    -3.5271  -3.4382  -3.4276  -3.3814  -3.2939  -3.2523  -3.2089  -3.1073
    -2.9406  -2.9178  -2.8731  -2.8223  -2.7668  -2.7145  -2.6925  -2.6801
    -2.6548  -2.5572  -2.5080  -2.4601  -2.3987  -2.3569  -2.2704  -2.2498
    -2.2470  -2.1814  -2.0879  -2.0622  -2.0254  -1.9805  -1.9510  -1.9204
    -1.8751  -1.7589  -1.7168  -1.6911  -1.6629  -1.6516  -1.6093  -1.5297
    -1.4426  -1.3897  -1.3741  -1.3599  -1.3355  -1.2877  -1.2481  -1.1914
    -1.1809  -1.1338  -1.1310  -1.1234  -1.0865  -1.0024  -0.8941  -0.8614
    -0.8292  -0.7140  -0.7087  -0.6448  -0.5728  -0.5324  -0.5046  -0.2082
     1.0059   1.1027   1.3976   1.6757   1.7841   1.9022   1.9491   1.9961
     2.0264   2.1130   2.1898   2.2107   2.2564   2.3756   2.4506   2.4648
     2.4715   2.4985   2.6022   2.6475   2.6521   2.6695   2.6907   2.8077
     2.8222   2.8669   2.8810   2.9350   2.9489   3.0016   3.0103   3.0318
     3.0854   3.1415   3.1794   3.1820   3.2282   3.2361   3.3917   3.4293
     3.4597   3.5011   3.5782   3.6074   3.6514   3.6949   3.8094   3.9370
     4.0849   4.1159   4.3073   4.4534   4.5757   4.6872   4.7662   4.8177
     5.0678   5.1134   5.1992   5.3354   5.3794   5.3839   5.4133   5.4155
     5.4604   5.5027   5.5358   5.6432   5.6991   5.7221   5.8867   5.9225
     5.9377   6.0568   6.0743   6.1166   6.2031   6.2746   6.4037   6.4703
     6.5233   6.5689   6.7655   6.7973   7.2164   7.9160   8.1472   8.1604
     8.3689   8.3809   8.6800   8.7246   8.7387   8.9703   9.1544   9.2662
     9.3219   9.4607   9.6332

          k = 0.0000 0.0280 0.0000 ( 34717 PWs)   bands (ev):

   -58.3226 -58.2923 -57.4055 -57.3998 -57.3707 -57.3320 -57.2795 -57.1134
   -57.0844 -57.0766 -57.0419 -56.9389 -56.9118 -56.9083 -56.8155 -56.7821
   -34.7447 -34.5915 -34.5667 -34.5253 -34.4431 -34.4067 -33.8767 -33.8645
   -33.7515 -33.6925 -33.6505 -33.6115 -33.5885 -33.5709 -33.5630 -33.5550
   -33.5504 -33.5375 -33.5345 -33.5174 -33.5104 -33.4932 -33.4861 -33.4667
   -33.3557 -33.3493 -33.3357 -33.3357 -33.3269 -33.3246 -33.2992 -33.2803
   -33.2667 -33.2582 -33.2564 -33.2462 -33.2223 -33.2146 -33.1646 -33.1538
   -33.1310 -33.0925 -33.0761 -33.0463 -33.0327 -33.0116 -32.9956 -32.9276
   -18.4318 -17.9983 -17.7844 -17.7023 -17.6268 -17.5289 -17.4601 -17.3930
   -17.3481 -17.3087 -17.1181 -17.0245 -17.0166 -16.9935 -16.9474 -16.8969
   -16.8170 -16.7951 -16.7830 -16.7582 -16.7317 -16.7074 -16.6392 -16.5873
   -16.5010 -16.4652 -16.4267 -16.4105 -16.3794 -16.1837 -16.1445 -15.6347
   -15.5853 -11.1644  -5.9832  -5.4338  -5.2245  -5.1531  -5.0446  -4.9695
    -4.9451  -4.8680  -4.8277  -4.7501  -4.6893  -4.6743  -4.5475  -4.5361
    -4.4371  -4.3981  -4.3841  -4.3445  -4.2788  -4.2314  -4.2186  -4.1970
    -4.1213  -4.0884  -4.0377  -4.0196  -4.0003  -3.9924  -3.9433  -3.8736
    -3.8359  -3.7749  -3.7624  -3.7348  -3.6396  -3.6198  -3.5724  -3.4579
    -3.4226  -3.3402  -3.3214  -3.3177  -3.2883  -3.1442  -3.1249  -2.9652
    -2.9236  -2.9030  -2.8213  -2.7697  -2.7653  -2.7421  -2.7085  -2.6726
    -2.6205  -2.5382  -2.4786  -2.4640  -2.4365  -2.3014  -2.2765  -2.2459
    -2.2343  -2.1745  -2.1669  -2.0508  -2.0038  -1.9803  -1.9465  -1.9347
    -1.8972  -1.7882  -1.7807  -1.7409  -1.7044  -1.6337  -1.6034  -1.5937
    -1.5230  -1.4805  -1.4147  -1.3984  -1.3949  -1.3782  -1.3065  -1.2948
    -1.2569  -1.1966  -1.1864  -1.0908  -1.0144  -0.9753  -0.9554  -0.9179
    -0.8974  -0.8630  -0.7512  -0.6207  -0.5935  -0.5798  -0.5608  -0.2494
     1.1386   1.1437   1.3989   1.8122   1.8563   1.8741   1.9066   1.9831
     2.0410   2.0590   2.2801   2.2885   2.3209   2.4380   2.4742   2.4947
     2.5029   2.5246   2.5293   2.5781   2.6955   2.7134   2.7839   2.7940
     2.8164   2.8803   2.9169   2.9452   2.9619   2.9747   2.9958   3.0466
     3.0667   3.1035   3.1564   3.2152   3.2278   3.3092   3.4165   3.4577
     3.4942   3.5240   3.5480   3.5701   3.6253   3.6481   3.7677   3.8892
     4.0392   4.1827   4.2636   4.5066   4.6863   4.6884   4.7963   4.8926
     5.0950   5.1540   5.2413   5.2834   5.3533   5.3930   5.4154   5.4629
     5.4871   5.5289   5.5605   5.6421   5.6876   5.6949   5.8050   5.8653
     5.9313   5.9720   6.0302   6.0410   6.1598   6.2347   6.3693   6.4153
     6.4325   6.5475   6.7203   6.8018   7.3234   7.4383   8.0096   8.0876
     8.3378   8.4867   8.5442   8.7264   8.7986   8.9960   9.1178   9.3128
     9.3812   9.4542   9.5319

          k = 0.0000 0.0560 0.0000 ( 34721 PWs)   bands (ev):

   -58.3162 -58.2987 -57.4021 -57.3946 -57.3771 -57.3342 -57.2787 -57.1130
   -57.0850 -57.0720 -57.0469 -56.9325 -56.9148 -56.9122 -56.8088 -56.7888
   -34.6748 -34.5863 -34.5718 -34.5081 -34.4798 -34.4606 -33.8069 -33.7951
   -33.7008 -33.6756 -33.6338 -33.6117 -33.6108 -33.6052 -33.5905 -33.5869
   -33.5589 -33.5506 -33.5327 -33.5153 -33.4911 -33.4865 -33.4838 -33.4329
   -33.3903 -33.3451 -33.3430 -33.3302 -33.3008 -33.2909 -33.2757 -33.2756
   -33.2741 -33.2660 -33.2628 -33.2450 -33.2350 -33.2247 -33.1814 -33.1496
   -33.1376 -33.0927 -33.0896 -33.0695 -33.0459 -33.0325 -33.0237 -32.9981
   -18.2706 -17.8337 -17.8106 -17.6547 -17.6195 -17.4304 -17.4111 -17.3923
   -17.3299 -17.2859 -17.2508 -17.0643 -17.0072 -16.9405 -16.9370 -16.9196
   -16.8628 -16.8368 -16.7478 -16.7246 -16.7190 -16.6936 -16.6475 -16.5805
   -16.5343 -16.5283 -16.4765 -16.4619 -16.4340 -16.2483 -16.2252 -15.6632
   -15.6390 -11.1662  -5.7438  -5.2009  -5.0646  -5.0081  -4.9701  -4.8843
    -4.8674  -4.8512  -4.8342  -4.7854  -4.7521  -4.5732  -4.5277  -4.4850
    -4.4130  -4.4122  -4.3706  -4.3395  -4.3249  -4.3069  -4.2709  -4.2327
    -4.2285  -4.2108  -4.1493  -4.0781  -4.0329  -3.9926  -3.9839  -3.9269
    -3.8873  -3.8344  -3.7435  -3.6501  -3.6247  -3.5580  -3.4308  -3.4232
    -3.3831  -3.3051  -3.2653  -3.1508  -3.1080  -3.0883  -3.0570  -3.0299
    -2.9870  -2.9762  -2.8457  -2.8157  -2.7593  -2.7152  -2.6698  -2.5763
    -2.5024  -2.4938  -2.4595  -2.3750  -2.3216  -2.3157  -2.2421  -2.2089
    -2.1724  -2.1591  -2.1383  -2.1065  -2.0734  -2.0300  -2.0155  -1.9887
    -1.9541  -1.9125  -1.9026  -1.8800  -1.8357  -1.7736  -1.6788  -1.6273
    -1.6133  -1.5975  -1.5328  -1.4938  -1.4692  -1.4644  -1.4516  -1.3964
    -1.3120  -1.2914  -1.2376  -1.2289  -1.1105  -1.0363  -0.9997  -0.9645
    -0.8792  -0.8563  -0.7581  -0.7349  -0.6397  -0.6022  -0.5835  -0.3527
     1.2675   1.4093   1.4819   1.7031   1.7799   1.8728   1.9437   2.0408
     2.1214   2.2572   2.2627   2.3141   2.3980   2.4671   2.4864   2.5128
     2.5537   2.5925   2.6433   2.6911   2.7340   2.7510   2.7826   2.8310
     2.8462   2.8653   2.8747   2.9448   2.9911   3.0091   3.0179   3.0451
     3.1059   3.1392   3.1627   3.2403   3.2892   3.3207   3.3675   3.4163
     3.4535   3.4693   3.5448   3.5947   3.6562   3.6687   3.7091   3.7840
     3.9060   4.1408   4.3045   4.6336   4.7241   4.8244   4.9175   5.0554
     5.0600   5.1597   5.2639   5.3159   5.3837   5.4186   5.4520   5.4809
     5.4812   5.5441   5.5644   5.6298   5.6347   5.7355   5.7531   5.7984
     5.8471   5.8695   5.8731   5.9116   6.0991   6.1440   6.2841   6.3710
     6.4081   6.4283   6.7070   6.7337   7.0049   7.2422   7.6207   7.7563
     8.2136   8.3877   8.7201   8.8107   8.8397   8.9013   9.1891   9.3598
     9.4316   9.6128   9.7174

          k = 0.0000-0.0840 0.0000 ( 34678 PWs)   bands (ev):

   -58.3082 -58.3068 -57.4006 -57.3882 -57.3839 -57.3354 -57.2783 -57.1127
   -57.0853 -57.0686 -57.0503 -56.9240 -56.9233 -56.9124 -56.8020 -56.7956
   -34.5799 -34.5790 -34.5780 -34.5774 -34.4850 -34.4839 -33.7232 -33.7099
   -33.7062 -33.6679 -33.6666 -33.6606 -33.6288 -33.6126 -33.6085 -33.5981
   -33.5574 -33.5527 -33.5322 -33.5244 -33.4882 -33.4827 -33.4204 -33.4075
   -33.3996 -33.3837 -33.3470 -33.3419 -33.3272 -33.2930 -33.2802 -33.2712
   -33.2694 -33.2689 -33.2449 -33.2382 -33.1898 -33.1692 -33.1683 -33.1571
   -33.1437 -33.1412 -33.1156 -33.1149 -33.0462 -33.0374 -33.0346 -33.0289
   -18.0456 -18.0448 -17.6140 -17.6048 -17.5314 -17.5063 -17.5060 -17.4162
   -17.2793 -17.2396 -17.1518 -17.1295 -17.0939 -17.0584 -16.9117 -16.8660
   -16.8288 -16.8286 -16.8272 -16.6961 -16.6341 -16.6305 -16.6244 -16.6007
   -16.5731 -16.5512 -16.5288 -16.4960 -16.4865 -16.2909 -16.2660 -15.6725
   -15.6725 -11.1671  -5.4043  -5.4040  -4.9081  -4.9071  -4.8960  -4.8734
    -4.8687  -4.7906  -4.7791  -4.7399  -4.6801  -4.6254  -4.5898  -4.5817
    -4.5140  -4.4901  -4.4669  -4.4125  -4.3972  -4.2872  -4.2750  -4.2668
    -4.1797  -4.1369  -4.0876  -4.0522  -4.0142  -3.9203  -3.9036  -3.8702
    -3.7995  -3.7243  -3.6930  -3.6705  -3.6637  -3.6433  -3.6348  -3.4295
    -3.3800  -3.3669  -3.1700  -3.0980  -3.0922  -3.0495  -2.9473  -2.9463
    -2.9372  -2.8707  -2.8473  -2.8123  -2.7941  -2.7149  -2.6899  -2.6654
    -2.5432  -2.5215  -2.4408  -2.4240  -2.4165  -2.3941  -2.3325  -2.2617
    -2.2490  -2.1863  -2.1407  -2.0788  -2.0278  -2.0003  -1.9961  -1.9901
    -1.9859  -1.9622  -1.8658  -1.8201  -1.7993  -1.7495  -1.7132  -1.6799
    -1.6636  -1.6322  -1.6122  -1.5393  -1.5286  -1.4864  -1.4667  -1.4460
    -1.4016  -1.3508  -1.3031  -1.1984  -1.1584  -1.1396  -1.1177  -1.1043
    -0.8601  -0.8355  -0.6375  -0.6287  -0.6242  -0.6158  -0.5675  -0.5191
     1.4637   1.4664   1.6161   1.6168   1.6956   1.6965   2.0669   2.0677
     2.1302   2.1852   2.3558   2.3906   2.4271   2.4733   2.5210   2.5295
     2.6352   2.6474   2.6571   2.6705   2.7232   2.7318   2.7911   2.7935
     2.8932   2.9285   2.9720   2.9999   3.0050   3.0077   3.0146   3.0178
     3.0251   3.2059   3.2158   3.2454   3.2784   3.3210   3.3472   3.3774
     3.4152   3.4300   3.4842   3.6077   3.6790   3.7172   3.7317   3.7747
     3.8282   4.0174   4.3566   4.7378   4.8135   4.8473   4.8480   5.0355
     5.1257   5.2073   5.2965   5.3120   5.3459   5.3892   5.4498   5.5256
     5.5457   5.5787   5.5804   5.6681   5.6808   5.6999   5.7096   5.7225
     5.7513   5.7925   5.8243   5.9268   6.0103   6.1406   6.2947   6.3826
     6.4468   6.4639   6.5905   6.6179   6.9424   6.9946   7.4608   7.6243
     8.0428   8.2523   8.7290   8.9633   9.1501   9.2345   9.3347   9.3362
     9.4631   9.5991   9.6921

[...]
    -1.7484  -1.5236  -1.4816  -1.4707  -1.4547  -1.4167  -1.3358  -1.1761
    -1.1630  -1.1069  -1.0886  -1.0734  -0.9927  -0.9295  -0.8910  -0.8067
    -0.7529  -0.7461  -0.7175  -0.6896  -0.6122  -0.5928  -0.5781   0.2521
     1.5827   1.5861   1.5987   1.6041   1.9466   1.9475   2.0764   2.0774
     2.2592   2.2804   2.2936   2.3753   2.3983   2.4681   2.5559   2.6143
     2.6364   2.6810   2.7642   2.7978   2.8544   2.9062   2.9285   2.9565
     2.9707   2.9800   3.0212   3.0786   3.0920   3.1903   3.2161   3.2247
     3.2405   3.2646   3.3219   3.3680   3.3820   3.3869   3.4448   3.4549
     3.4652   3.4928   3.5077   3.5627   3.6197   3.6377   3.7571   3.8603
     3.8969   3.9061   4.1214   4.1218   4.5722   4.6006   4.6231   4.7083
     4.8626   4.8799   4.9126   5.0626   5.1420   5.1470   5.1656   5.4307
     5.6551   5.6641   5.6744   5.9076   5.9129   5.9468   5.9990   6.0017
     6.0766   6.0868   6.1585   6.2502   6.2527   6.2628   6.3639   6.4412
     6.4824   6.5879   7.0915   7.2657   7.3654   7.4221   7.5571   7.5939
     7.7293   7.7812   7.9325   8.1216   8.3082   8.3548   8.4637   8.8787
     9.0219   9.0809   9.2244

          k =-0.0253 0.0280 0.0000 ( 34687 PWs)   bands (ev):

   -58.3228 -58.2924 -57.4052 -57.4001 -57.3706 -57.3320 -57.2803 -57.1176
   -57.0856 -57.0781 -57.0432 -56.9400 -56.9396 -56.9091 -56.8192 -56.7859
   -34.7452 -34.5917 -34.5668 -34.5247 -34.4431 -34.4069 -33.8768 -33.8665
   -33.7525 -33.6849 -33.6504 -33.6118 -33.5856 -33.5714 -33.5681 -33.5590
   -33.5519 -33.5386 -33.5368 -33.5170 -33.5115 -33.4887 -33.4874 -33.4701
   -33.3568 -33.3469 -33.3413 -33.3363 -33.3286 -33.3258 -33.3008 -33.2819
   -33.2717 -33.2583 -33.2579 -33.2495 -33.2321 -33.2226 -33.1853 -33.1546
   -33.1524 -33.0960 -33.0768 -33.0564 -33.0374 -33.0151 -32.9964 -32.9304
   -18.3879 -17.9594 -17.7933 -17.7522 -17.5404 -17.5343 -17.3937 -17.3860
   -17.3630 -17.3336 -17.1298 -17.0870 -17.0020 -16.9570 -16.8908 -16.8474
   -16.8097 -16.7701 -16.7506 -16.6872 -16.6805 -16.6023 -16.5611 -16.5030
   -16.4790 -16.4224 -16.3851 -16.3668 -16.1705 -16.1350 -15.8618 -15.6302
   -15.5816 -10.7875  -5.8587  -5.3278  -5.1615  -5.1440  -5.0112  -4.9708
    -4.9314  -4.8445  -4.7160  -4.6955  -4.6544  -4.5541  -4.5161  -4.4598
    -4.4257  -4.3314  -4.3082  -4.2664  -4.2148  -4.1976  -4.1590  -4.1445
    -4.1096  -4.0583  -4.0144  -3.9957  -3.9694  -3.9303  -3.8804  -3.8172
    -3.7990  -3.7420  -3.6941  -3.6390  -3.5915  -3.5381  -3.5009  -3.4076
    -3.3599  -3.3382  -3.3003  -3.2803  -3.2416  -3.1994  -3.1303  -3.1139
    -2.9368  -2.8996  -2.8399  -2.7953  -2.7397  -2.7023  -2.6922  -2.6353
    -2.6054  -2.5267  -2.5173  -2.4604  -2.4251  -2.3768  -2.3063  -2.2839
    -2.2306  -2.2095  -2.1221  -2.0608  -1.9761  -1.9582  -1.9335  -1.8682
    -1.8572  -1.8095  -1.7640  -1.7022  -1.6548  -1.6136  -1.5809  -1.5287
    -1.4945  -1.4536  -1.4250  -1.3997  -1.3778  -1.3643  -1.3329  -1.3097
    -1.2236  -1.1410  -1.0776  -1.0289  -1.0058  -0.9721  -0.9476  -0.9024
    -0.8614  -0.8388  -0.6490  -0.6282  -0.6031  -0.5400  -0.2839   0.2760
     1.1346   1.2282   1.4122   1.8015   1.8411   1.9081   1.9444   2.0116
     2.0225   2.1716   2.2823   2.3282   2.3698   2.4121   2.4360   2.4863
     2.5066   2.5307   2.5717   2.6321   2.6804   2.7048   2.7609   2.8141
     2.8593   2.8961   2.9127   2.9554   2.9732   2.9967   3.0232   3.0756
     3.1531   3.1736   3.2159   3.2417   3.2772   3.3208   3.4122   3.4475
     3.4777   3.5425   3.5950   3.6262   3.6473   3.7268   3.8075   3.8485
     3.9958   4.1916   4.2675   4.4184   4.6072   4.7060   4.8267   4.8436
     4.9849   5.0087   5.0948   5.1816   5.2264   5.3443   5.4440   5.5316
     5.6651   5.6785   5.7175   5.7860   5.8334   5.8655   5.8922   5.9137
     5.9504   5.9723   6.0498   6.1272   6.1576   6.2678   6.3807   6.4317
     6.4452   6.5709   6.7452   6.8040   7.3815   7.4706   7.8069   7.9019
     8.1076   8.2522   8.4839   8.5410   8.7985   8.9030   9.0971   9.3077
     9.3810   9.5384   9.6186

          k =-0.0253 0.0560 0.0000 ( 34699 PWs)   bands (ev):

   -58.3164 -58.2989 -57.4020 -57.3947 -57.3770 -57.3343 -57.2796 -57.1171
   -57.0862 -57.0733 -57.0481 -56.9405 -56.9332 -56.9156 -56.8125 -56.7926
   -34.6753 -34.5865 -34.5721 -34.5077 -34.4801 -34.4606 -33.8071 -33.7973
   -33.7017 -33.6696 -33.6336 -33.6101 -33.6062 -33.6053 -33.5939 -33.5869
   -33.5606 -33.5515 -33.5374 -33.5166 -33.5026 -33.4864 -33.4746 -33.4364
   -33.3917 -33.3446 -33.3407 -33.3345 -33.3028 -33.2933 -33.2769 -33.2769
   -33.2756 -33.2666 -33.2632 -33.2503 -33.2380 -33.2338 -33.2013 -33.1804
   -33.1383 -33.0934 -33.0930 -33.0703 -33.0534 -33.0398 -33.0272 -33.0010
   -18.2301 -17.8202 -17.7991 -17.6308 -17.6184 -17.4745 -17.4120 -17.3883
   -17.2678 -17.2607 -17.2231 -17.0768 -16.9671 -16.9382 -16.9000 -16.8597
   -16.8168 -16.7625 -16.7516 -16.7364 -16.7017 -16.6184 -16.5666 -16.5497
   -16.5187 -16.4605 -16.4299 -16.4262 -16.2313 -16.2167 -15.8606 -15.6589
   -15.6354 -10.7894  -5.6235  -5.1004  -5.0424  -4.9746  -4.9428  -4.8356
    -4.8136  -4.7768  -4.7063  -4.6933  -4.5447  -4.5282  -4.4649  -4.4139
    -4.3961  -4.3879  -4.3392  -4.2956  -4.2686  -4.2587  -4.2217  -4.1893
    -4.1506  -4.1372  -4.0684  -4.0298  -4.0083  -3.9600  -3.9305  -3.9078
    -3.8437  -3.8074  -3.6886  -3.5892  -3.5539  -3.5300  -3.4705  -3.4030
    -3.3814  -3.3074  -3.2062  -3.1781  -3.1338  -3.1273  -3.0768  -3.0423
    -3.0001  -2.9449  -2.8607  -2.8114  -2.7803  -2.7229  -2.6272  -2.6065
    -2.5421  -2.5277  -2.4741  -2.4093  -2.3940  -2.3362  -2.3187  -2.2776
    -2.2066  -2.1534  -2.1395  -2.1071  -2.0665  -2.0250  -2.0037  -1.9665
    -1.9490  -1.9239  -1.9115  -1.8641  -1.7860  -1.7213  -1.7082  -1.6131
    -1.5911  -1.5626  -1.5363  -1.5033  -1.4588  -1.4324  -1.4038  -1.3439
    -1.3087  -1.2410  -1.1718  -1.0511  -1.0215  -0.9884  -0.9556  -0.8758
    -0.7797  -0.7536  -0.7233  -0.6586  -0.6274  -0.5741  -0.3811   0.2568
     1.2689   1.4509   1.5461   1.7401   1.7555   1.8938   1.9608   2.0397
     2.2474   2.2574   2.3240   2.3603   2.3967   2.4688   2.5042   2.5294
     2.5545   2.5779   2.6348   2.6883   2.7027   2.7465   2.7890   2.8383
     2.8646   2.8994   2.9433   2.9890   3.0145   3.0281   3.0380   3.0913
     3.1412   3.1808   3.2001   3.2702   3.2996   3.3280   3.3602   3.4397
     3.4914   3.5171   3.5959   3.6192   3.6541   3.7104   3.7295   3.7831
     3.8784   4.0821   4.3743   4.4829   4.6979   4.8409   4.8922   4.9437
     4.9775   5.0720   5.1688   5.1905   5.3208   5.3715   5.4159   5.5110
     5.5470   5.5821   5.6347   5.6918   5.7209   5.7860   5.8022   5.8431
     5.9102   5.9278   6.0165   6.0725   6.1154   6.1982   6.3141   6.4184
     6.4496   6.4712   6.7074   6.7551   7.0836   7.3225   7.6800   7.8400
     8.1158   8.2428   8.3317   8.5013   8.7920   8.9065   8.9977   9.1993
     9.3811   9.5554   9.6563

          k =-0.0506 0.0280 0.0000 ( 34685 PWs)   bands (ev):

   -58.3228 -58.2924 -57.4043 -57.4010 -57.3706 -57.3321 -57.2803 -57.1176
   -57.0853 -57.0784 -57.0432 -56.9400 -56.9396 -56.9091 -56.8192 -56.7859
   -34.7460 -34.5917 -34.5668 -34.5231 -34.4431 -34.4070 -33.8773 -33.8706
   -33.7528 -33.6653 -33.6502 -33.6119 -33.5908 -33.5733 -33.5720 -33.5643
   -33.5521 -33.5461 -33.5356 -33.5169 -33.5116 -33.4895 -33.4755 -33.4711
   -33.3569 -33.3408 -33.3386 -33.3362 -33.3259 -33.3253 -33.3010 -33.2839
   -33.2818 -33.2580 -33.2573 -33.2523 -33.2323 -33.2221 -33.1813 -33.1545
   -33.1525 -33.0961 -33.0768 -33.0633 -33.0358 -33.0150 -32.9964 -32.9304
   -18.2795 -17.8814 -17.8699 -17.7191 -17.6056 -17.4730 -17.4557 -17.3619
   -17.3351 -17.2695 -17.1982 -17.1045 -17.0147 -16.9694 -16.9406 -16.9125
   -16.8303 -16.7853 -16.7742 -16.7142 -16.6508 -16.5673 -16.5420 -16.5068
   -16.4792 -16.4234 -16.4095 -16.3709 -16.1670 -16.1355 -15.8625 -15.6284
   -15.5817 -10.7873  -5.5574  -5.2050  -5.1715  -5.1394  -4.9672  -4.8872
    -4.7856  -4.7277  -4.7006  -4.6699  -4.6193  -4.6057  -4.5517  -4.4252
    -4.3799  -4.3409  -4.2585  -4.2324  -4.1959  -4.1815  -4.1657  -4.0735
    -4.0365  -4.0159  -3.9848  -3.9339  -3.8992  -3.8566  -3.8296  -3.7835
    -3.7395  -3.6869  -3.6380  -3.5955  -3.5487  -3.5330  -3.5010  -3.4706
    -3.3959  -3.3826  -3.3102  -3.2829  -3.2217  -3.1652  -3.1363  -3.0762
    -3.0277  -2.9985  -2.9184  -2.8534  -2.7750  -2.7166  -2.7071  -2.6836
    -2.6345  -2.6113  -2.5986  -2.5440  -2.5349  -2.4092  -2.3595  -2.3505
    -2.2872  -2.2180  -2.2035  -2.1766  -2.0987  -2.0281  -2.0222  -1.9597
    -1.9420  -1.9126  -1.8280  -1.7402  -1.7265  -1.7026  -1.6331  -1.6054
    -1.5419  -1.4956  -1.4722  -1.4099  -1.3969  -1.3431  -1.3283  -1.2785
    -1.2622  -1.1395  -1.0757  -1.0524  -1.0290  -0.9743  -0.9419  -0.8934
    -0.8464  -0.8143  -0.7366  -0.6998  -0.6784  -0.5543  -0.4098   0.2601
     1.1215   1.3215   1.4466   1.5474   1.9152   1.9252   1.9478   2.0396
     2.1053   2.1800   2.2348   2.3107   2.3874   2.4209   2.5100   2.5274
     2.5737   2.6315   2.6686   2.6827   2.7362   2.8097   2.8327   2.8629
     2.9218   2.9276   2.9605   2.9660   2.9726   3.0835   3.0904   3.1190
     3.1668   3.1958   3.2729   3.2928   3.3376   3.3642   3.3879   3.4363
     3.4516   3.5300   3.5842   3.6493   3.7250   3.7609   3.7807   3.8834
     3.9425   4.0437   4.0907   4.3884   4.4914   4.6373   4.7287   4.7909
     4.8231   4.8956   4.9477   5.2720   5.3126   5.3981   5.5102   5.5415
     5.6230   5.7482   5.7681   5.8349   5.8826   5.8945   5.9803   6.0469
     6.0753   6.1491   6.2319   6.3175   6.3691   6.4013   6.4287   6.4722
     6.5230   6.5345   6.6973   6.9238   7.0973   7.2228   7.5360   7.6208
     7.7338   8.2357   8.4205   8.5089   8.8615   8.9513   9.0734   9.2331
     9.4350   9.6141   9.6739

          k =-0.0506 0.0560 0.0000 ( 34596 PWs)   bands (ev):

   -58.3164 -58.2989 -57.4016 -57.3951 -57.3770 -57.3343 -57.2796 -57.1171
   -57.0860 -57.0735 -57.0482 -56.9405 -56.9332 -56.9156 -56.8125 -56.7926
   -34.6759 -34.5865 -34.5720 -34.5063 -34.4803 -34.4601 -33.8073 -33.8018
   -33.7019 -33.6538 -33.6335 -33.6094 -33.6078 -33.6052 -33.5882 -33.5869
   -33.5640 -33.5516 -33.5496 -33.5168 -33.5119 -33.4866 -33.4630 -33.4380
   -33.3920 -33.3444 -33.3319 -33.3272 -33.3054 -33.2954 -33.2782 -33.2766
   -33.2754 -33.2665 -33.2628 -33.2602 -33.2389 -33.2340 -33.2007 -33.1760
   -33.1383 -33.0934 -33.0930 -33.0702 -33.0576 -33.0404 -33.0271 -33.0009
   -18.1270 -17.8379 -17.7214 -17.6328 -17.6164 -17.5772 -17.4001 -17.3883
   -17.2385 -17.2260 -17.1375 -17.1150 -16.9972 -16.9316 -16.8871 -16.8619
   -16.8432 -16.8280 -16.7811 -16.7557 -16.7404 -16.6485 -16.6163 -16.5258
   -16.5158 -16.4583 -16.4409 -16.4299 -16.2307 -16.2132 -15.8605 -15.6577
   -15.6358 -10.7892  -5.3209  -5.0111  -4.9607  -4.9529  -4.8025  -4.7947
    -4.7360  -4.6588  -4.5463  -4.5262  -4.5203  -4.4373  -4.4237  -4.4004
    -4.3806  -4.3469  -4.3285  -4.2665  -4.2192  -4.1955  -4.1834  -4.1303
    -4.1205  -4.0682  -4.0555  -4.0071  -3.9927  -3.9192  -3.8888  -3.8427
    -3.7951  -3.7196  -3.6675  -3.6294  -3.5733  -3.5461  -3.5085  -3.4511
    -3.4124  -3.3392  -3.2795  -3.2503  -3.1526  -3.1422  -3.0979  -3.0706
    -3.0138  -2.9968  -2.9770  -2.9203  -2.8193  -2.7826  -2.7681  -2.7249
    -2.6489  -2.6059  -2.5646  -2.5197  -2.4976  -2.4335  -2.4087  -2.3885
    -2.3706  -2.3093  -2.2146  -2.1912  -2.1665  -2.1483  -2.1212  -2.0669
    -2.0320  -1.9901  -1.9625  -1.8879  -1.8665  -1.8011  -1.7511  -1.6770
    -1.5853  -1.5682  -1.5570  -1.5140  -1.4593  -1.4038  -1.3721  -1.3251
    -1.2645  -1.1951  -1.0968  -1.0400  -1.0066  -0.9226  -0.8710  -0.8634
    -0.8131  -0.7255  -0.7100  -0.6891  -0.6750  -0.5723  -0.4950   0.2593
     1.2894   1.4792   1.6278   1.6496   1.8342   1.9854   2.0140   2.0487
     2.2249   2.2372   2.3417   2.3576   2.4139   2.4427   2.5294   2.5666
     2.6319   2.6771   2.7109   2.7254   2.7926   2.8238   2.8522   2.8848
     2.9146   2.9321   2.9877   3.0234   3.0536   3.0946   3.1264   3.1721
     3.1771   3.2327   3.2662   3.3062   3.3156   3.3583   3.3985   3.4485
     3.4645   3.5307   3.5617   3.6232   3.6502   3.7284   3.7876   3.8226
     3.8662   3.9426   4.1341   4.4852   4.5778   4.5976   4.7356   4.8030
     4.8699   4.9466   4.9922   5.1680   5.2836   5.3574   5.3943   5.4272
     5.5770   5.6007   5.6495   5.6988   5.8616   5.8784   5.9689   5.9886
     6.0511   6.0904   6.1545   6.1962   6.3083   6.3258   6.4031   6.4119
     6.5247   6.6011   6.7697   6.7934   7.1990   7.3746   7.5267   7.6321
     7.9485   8.0264   8.1114   8.4021   8.6177   8.7283   8.8167   9.0486
     9.2045   9.3251   9.4356

     the Fermi energy is    -0.3102 ev

!    total energy              =   -3021.14970840 Ry
     Harris-Foulkes estimate   =   -3021.14970822 Ry
     estimated scf accuracy    <       0.00000038 Ry

     The total energy is the sum of the following terms:

     one-electron contribution =  -40437.94562635 Ry
     hartree contribution      =   20290.06979293 Ry
     xc contribution           =    -553.21868886 Ry
     ewald contribution        =   17679.96467368 Ry
     smearing contrib. (-TS)   =      -0.01985980 Ry

     total magnetization       =     1.06 Bohr mag/cell
     absolute magnetization    =     1.24 Bohr mag/cell

     convergence has been achieved in  11 iterations

     Forces acting on atoms (Ry/au):


     negative rho (up, down):  1.190E-02 1.196E-02
     atom    1 type  1   force =     0.00018389   -0.00090020   -0.10471949
     atom    2 type  2   force =     0.00014245    0.00067950    0.04004876
     atom    3 type  1   force =     0.00074681   -0.00175484   -0.02055715
     atom    4 type  2   force =    -0.00326190    0.00312086   -0.00323319
     atom    5 type  1   force =     0.00034507    0.00014764    0.00026370
     atom    6 type  2   force =    -0.00014371   -0.00012906    0.00017902
     atom    7 type  1   force =    -0.00012258   -0.00001817   -0.00091496
     atom    8 type  2   force =     0.00000652    0.00007248    0.00005847
     atom    9 type  1   force =    -0.00003529    0.00056447   -0.10485332
     atom   10 type  2   force =     0.00034726   -0.00021478    0.03602396
     atom   11 type  1   force =     0.00067810    0.00183598    0.00260114
     atom   12 type  2   force =    -0.00518922   -0.00267140   -0.00519441
     atom   13 type  1   force =     0.00041308    0.00001297   -0.00031622
     atom   14 type  2   force =     0.00012859   -0.00007426    0.00013649
     atom   15 type  1   force =    -0.00001217   -0.00011761    0.00004985
     atom   16 type  2   force =    -0.00010922    0.00007636   -0.00037631
     atom   17 type  2   force =     0.00000849   -0.00001568    0.06659109
     atom   18 type  1   force =     0.00005548    0.00002875    0.13138932
     atom   19 type  2   force =     0.00017640   -0.00053093   -0.08518938
     atom   20 type  2   force =    -0.05791451    0.00014035   -0.03606162
     atom   21 type  2   force =     0.05780344   -0.00005147   -0.03602198
     atom   22 type  1   force =    -0.00043013    0.00074869    0.08015998
     atom   23 type  2   force =     0.00019733   -0.00004688    0.00005803
     atom   24 type  2   force =     0.00063844    0.00185618   -0.03467535
     atom   25 type  2   force =     0.00413064    0.00332420   -0.00509990
     atom   26 type  1   force =     0.00040553   -0.00005140    0.00010949
     atom   27 type  2   force =    -0.00010052   -0.00012961   -0.00004574
     atom   28 type  2   force =     0.00007398   -0.00020494   -0.00001650
     atom   29 type  2   force =    -0.00001876   -0.00008362    0.00007421
     atom   30 type  1   force =    -0.00056017   -0.00013461    0.00051477
     atom   31 type  2   force =     0.00015934   -0.00012544   -0.00037014
     atom   32 type  2   force =    -0.00021698   -0.00005796    0.00005464
     atom   33 type  2   force =    -0.00016857    0.00004708    0.06632682
     atom   34 type  1   force =     0.00007642   -0.00003490    0.13117078
     atom   35 type  2   force =     0.00018703   -0.00013192   -0.08480082
     atom   36 type  2   force =    -0.05781054    0.00006261   -0.03567395
     atom   37 type  2   force =     0.05797702   -0.00017695   -0.03607336
     atom   38 type  1   force =    -0.00037791   -0.00020843    0.07983008
     atom   39 type  2   force =     0.00007488   -0.00027262   -0.00006968
     atom   40 type  2   force =     0.00048746    0.00123683   -0.03527982
     atom   41 type  2   force =     0.00587871   -0.00243626   -0.00722512
     atom   42 type  1   force =     0.00023782   -0.00006868    0.00001615
     atom   43 type  2   force =    -0.00019218   -0.00008972   -0.00002335
     atom   44 type  2   force =     0.00002767   -0.00015592   -0.00003141
     atom   45 type  2   force =    -0.00001443   -0.00016213    0.00005854
     atom   46 type  1   force =    -0.00005252   -0.00012003    0.00048985
     atom   47 type  2   force =     0.00006308   -0.00011316   -0.00031272
     atom   48 type  2   force =    -0.00023352   -0.00016716    0.00048025
     atom   49 type  2   force =    -0.00212507   -0.00328397   -0.00234868
     atom   50 type  3   force =     0.00147868    0.00724906    0.00396523
     atom   51 type  4   force =    -0.00020513    0.00098646    0.00121538
     atom   52 type  4   force =    -0.00092431    0.00026755   -0.00011748
     atom   53 type  4   force =    -0.00291054   -0.00882259   -0.00345413
     atom   54 type  4   force =     0.00000024    0.00109930    0.00119018

     Total force =     0.342510     Total SCF correction =     0.001028
 !ASE

     Writing output data file calc.save
 
     init_run     :     66.79s CPU     81.03s WALL (       1 calls)
     electrons    :   2805.16s CPU   3257.66s WALL (       1 calls)
     forces       :     48.77s CPU     51.00s WALL (       1 calls)

     Called by init_run:
     wfcinit      :     58.39s CPU     72.02s WALL (       1 calls)
     potinit      :      1.45s CPU      1.67s WALL (       1 calls)

     Called by electrons:
     c_bands      :   2461.80s CPU   2848.92s WALL (      11 calls)
     sum_band     :    294.72s CPU    354.08s WALL (      11 calls)
     v_of_rho     :     12.41s CPU     14.97s WALL (      12 calls)
     newd         :     40.09s CPU     43.75s WALL (      12 calls)
     mix_rho      :      0.46s CPU      0.61s WALL (      11 calls)
     vdW_energy   :      2.75s CPU      3.24s WALL (      13 calls)
     vdW_ffts     :      3.42s CPU      4.20s WALL (      26 calls)
     vdW_v        :      1.24s CPU      1.43s WALL (      13 calls)

     Called by c_bands:
     init_us_2    :      6.80s CPU      7.37s WALL (     960 calls)
     cegterg      :   2419.78s CPU   2804.57s WALL (     440 calls)

     Called by *egterg:
     h_psi        :    935.17s CPU   1236.07s WALL (    2096 calls)
     s_psi        :    163.65s CPU    168.98s WALL (    2096 calls)
     g_psi        :      4.79s CPU      4.92s WALL (    1616 calls)
     cdiaghg      :    777.68s CPU    797.17s WALL (    2056 calls)

     Called by h_psi:
     add_vuspsi   :    165.34s CPU    170.88s WALL (    2096 calls)

     General routines
     calbec       :    243.11s CPU    248.91s WALL (    2576 calls)
     fft          :      6.77s CPU      8.42s WALL (    1029 calls)
     ffts         :      0.04s CPU      0.06s WALL (      46 calls)
     fftw         :    510.94s CPU    851.12s WALL (  779772 calls)
     interpolate  :      0.34s CPU      0.53s WALL (      46 calls)
     davcio       :      0.10s CPU      2.27s WALL (      40 calls)
 
     Parallel routines
     fft_scatter  :    251.13s CPU    442.60s WALL (  780847 calls)
 
     PWSCF        : 48m41.83s CPU    56m33.69s WALL

 
   This run was terminated on:  21:35:39  26Feb2018            

=------------------------------------------------------------------------------=
   JOB DONE.
=------------------------------------------------------------------------------=
