  python dir          : /home/vossj/suncat/lib/python2.7/site-packages/espresso
  espresso dir        : /home/vossj/suncat/esdld/espresso-dynpy-beef/bin
  pseudo dir          : /home/alatimer/bin/psp/esp_psp_w_gbrvRu/
  ase-espresso py git : ffa2778-git



     Program PWSCF v.5.1rc2 (svn rev. ) starts on 26Feb2018 at 14: 0: 6 

     This program is part of the open-source Quantum ESPRESSO suite
     for quantum simulation of materials; please cite
         "P. Giannozzi et al., J. Phys.:Condens. Matter 21 395502 (2009);
          URL http://www.quantum-espresso.org", 
     in publications or presentations arising from this work. More details at
     http://www.quantum-espresso.org/quote

     Parallel version (MPI), running on    16 processors
     R & G space division:  proc/nbgrp/npool/nimage =      16
     Reading input from pw.inp
     Message from routine read_cards :
     DEPRECATED: no units specified in CELL_PARAMETERS card

     Current dimensions of program PWSCF are:
     Max number of different atomic species (ntypx) = 10
     Max number of k-points (npk) =  40000
     Max angular momentum in pseudopotentials (lmaxx) =  3

     **************************************************************************
     Initializing libbeef V0.1.1 with the BEEF-vdW functional.
     Citation: Wellendorff et al., PRB 85, 235149 (2012).
     **************************************************************************


     IMPORTANT: XC functional enforced from input :
     Exchange-correlation      = BEEF ( 1  4 27 13 2)
     Any further DFT definition will be discarded
     Please, verify this is what you really want


     Subspace diagonalization in iterative solution of the eigenvalue problem:
     a serial algorithm will be used

 
     Parallelization info
     --------------------
     sticks:   dense  smooth     PW     G-vecs:    dense   smooth      PW
     Min         281     112     31                68535    17318    2565
     Max         282     113     32                68545    17369    2582
     Sum        4501    1795    503              1096637   277353   41113
 
     Generating pointlists ...
     new r_m :   0.4125 (alat units)  0.7795 (a.u.) for type    1
     new r_m :   0.4125 (alat units)  0.7795 (a.u.) for type    2
     new r_m :   0.4125 (alat units)  0.7795 (a.u.) for type    3
     new r_m :   0.4125 (alat units)  0.7795 (a.u.) for type    4


     bravais-lattice index     =            0
     lattice parameter (alat)  =       1.8897  a.u.
     unit-cell volume          =    7990.9933 (a.u.)^3
     number of atoms/cell      =           54
     number of atomic types    =            4
     number of electrons       =       398.00
     number of Kohn-Sham states=          299
     kinetic-energy cutoff     =      40.4243  Ry
     charge density cutoff     =     404.2426  Ry
     convergence threshold     =      7.3E-07
     mixing beta               =       0.1000
     number of iterations used =           10  plain     mixing
     Exchange-correlation      = BEEF ( 1  4 27 13 2)
     nstep                     =           50


     celldm(1)=   1.889726  celldm(2)=   0.000000  celldm(3)=   0.000000
     celldm(4)=   0.000000  celldm(5)=   0.000000  celldm(6)=   0.000000

     crystal axes: (cart. coord. in units of alat)
               a(1) = (   6.590708   0.000000   0.000000 )  
               a(2) = (   0.000000   5.950229   0.000000 )  
               a(3) = (   0.000000   0.000000  30.195235 )  

     reciprocal axes: (cart. coord. in units 2 pi/alat)
               b(1) = (  0.151729  0.000000  0.000000 )  
               b(2) = (  0.000000  0.168061  0.000000 )  
               b(3) = (  0.000000  0.000000  0.033118 )  


     PseudoPot. # 1 for Ti read from file:
     /home/alatimer/bin/psp/esp_psp_w_gbrvRu/Ti.UPF
     MD5 check sum: 8e4df49b7f0d34bbd5052bf3f5ea0213
     Pseudo is Ultrasoft, Zval = 12.0
     Generated by new atomic code, or converted to UPF format
     Using radial grid of  851 points,  6 beta functions with: 
                l(1) =   0
                l(2) =   0
                l(3) =   1
                l(4) =   1
                l(5) =   2
                l(6) =   2
     Q(r) pseudized with  8 coefficients,  rinner =    1.000   1.000   1.000
                                                       1.000   1.000

     PseudoPot. # 2 for  O read from file:
     /home/alatimer/bin/psp/esp_psp_w_gbrvRu/O.UPF
     MD5 check sum: e057bbcf3229fb5d8c36c0c92f9568b4
     Pseudo is Ultrasoft + core correction, Zval =  6.0
     Generated using "atomic" code by A. Dal Corso  v.5.0.2 svn rev. 9415
     Using radial grid of 1095 points,  4 beta functions with: 
                l(1) =   0
                l(2) =   0
                l(3) =   1
                l(4) =   1
     Q(r) pseudized with 0 coefficients 


     PseudoPot. # 3 for  C read from file:
     /home/alatimer/bin/psp/esp_psp_w_gbrvRu/C.UPF
     MD5 check sum: ab446d787031eba755f1d5ee46644bb0
     Pseudo is Ultrasoft + core correction, Zval =  4.0
     Generated using "atomic" code by A. Dal Corso  v.5.0.2 svn rev. 9415
     Using radial grid of 1073 points,  4 beta functions with: 
                l(1) =   0
                l(2) =   0
                l(3) =   1
                l(4) =   1
     Q(r) pseudized with 0 coefficients 


     PseudoPot. # 4 for  H read from file:
     /home/alatimer/bin/psp/esp_psp_w_gbrvRu/H.UPF
     MD5 check sum: bd57da0722753ddfd9833a65b40bb853
     Pseudo is Ultrasoft, Zval =  1.0
     Generated using "atomic" code by A. Dal Corso  v.5.0.2 svn rev. 9415
     Using radial grid of  929 points,  2 beta functions with: 
                l(1) =   0
                l(2) =   0
     Q(r) pseudized with 0 coefficients 


     vdW kernel table read from file vdW_kernel_table
     MD5 check sum: 095c7af220d748ca6e76c0b4c6cfb241

     atomic species   valence    mass     pseudopotential
        Ti1           12.00    47.88000     Ti( 1.00)
        O1             6.00    15.99940      O( 1.00)
        C1             4.00    12.01100      C( 1.00)
        H1             1.00     1.00794      H( 1.00)

     Starting magnetic structure 
     atomic species   magnetization
        Ti1          0.250
        O1           0.500
        C1           0.750
        H1           0.000

     No symmetry found



   Cartesian axes

     site n.     atom                  positions (alat units)
         1           Ti1 tau(   1) = (   1.6476770   0.7437786   2.6545865  )
         2           O1  tau(   2) = (   1.6476770   2.2313359   3.9361215  )
         3           Ti1 tau(   3) = (   1.6476770   2.2313359   5.9499405  )
         4           O1  tau(   4) = (   0.3661420   0.7437786   5.9499405  )
         5           Ti1 tau(   5) = (   1.6407309   0.9134410   9.3139491  )
         6           O1  tau(   6) = (   1.6648823   2.2608486  10.4895904  )
         7           Ti1 tau(   7) = (   1.7578240   2.2899216  13.0472362  )
         8           O1  tau(   8) = (   0.4801583   0.7600008  12.7739736  )
         9           Ti1 tau(   9) = (   1.6476770   3.7188931   2.6545865  )
        10           O1  tau(  10) = (   1.6476770   5.2064503   3.9361215  )
        11           Ti1 tau(  11) = (   1.6476770   5.2064503   5.9499405  )
        12           O1  tau(  12) = (   0.3661420   3.7188931   5.9499405  )
        13           Ti1 tau(  13) = (   1.6336050   3.7786827   9.1566831  )
        14           O1  tau(  14) = (   1.6678212   5.2513959  10.5409436  )
        15           Ti1 tau(  15) = (   1.7144009   5.2558216  12.3462911  )
        16           O1  tau(  16) = (   0.4635505   3.7986228  12.7318280  )
        17           O1  tau(  17) = (   1.6476770   2.2313359   1.3730516  )
        18           Ti1 tau(  18) = (   4.9430310   2.2313359   2.6545865  )
        19           O1  tau(  19) = (   4.9430310   2.2313359   4.6684056  )
        20           O1  tau(  20) = (   6.2245660   0.7437786   2.6545865  )
        21           O1  tau(  21) = (   3.6614961   0.7437786   2.6545865  )
        22           Ti1 tau(  22) = (   4.9430310   0.7437786   5.9499405  )
        23           O1  tau(  23) = (   1.6683653   2.2752577   7.9427336  )
        24           O1  tau(  24) = (   4.9430310   2.2313359   7.2314755  )
        25           O1  tau(  25) = (   2.9292120   0.7437786   5.9499405  )
        26           Ti1 tau(  26) = (   4.9404121   2.2664794   9.4552217  )
        27           O1  tau(  27) = (   5.0099888   2.2616732  11.2946145  )
        28           O1  tau(  28) = (   6.2612001   0.7714827   9.2659748  )
        29           O1  tau(  29) = (   3.6791272   0.7744986   9.2965846  )
        30           Ti1 tau(  30) = (   5.0117873   0.7976728  12.8161605  )
        31           O1  tau(  31) = (   4.9963122   2.2836652  13.8750618  )
        32           O1  tau(  32) = (   2.9819382   0.7448324  12.7109220  )
        33           O1  tau(  33) = (   1.6476770   5.2064503   1.3730516  )
        34           Ti1 tau(  34) = (   4.9430310   5.2064503   2.6545865  )
        35           O1  tau(  35) = (   4.9430310   5.2064503   4.6684056  )
        36           O1  tau(  36) = (   6.2245660   3.7188931   2.6545865  )
        37           O1  tau(  37) = (   3.6614961   3.7188931   2.6545865  )
        38           Ti1 tau(  38) = (   4.9430310   3.7188931   5.9499405  )
        39           O1  tau(  39) = (   1.6664207   5.2035600   7.9365221  )
        40           O1  tau(  40) = (   4.9430310   5.2064503   7.2314755  )
        41           O1  tau(  41) = (   2.9292120   3.7188931   5.9499405  )
        42           Ti1 tau(  42) = (   4.9524353   5.2460635   9.4426343  )
        43           O1  tau(  43) = (   5.0107556   5.2394944  11.2927493  )
        44           O1  tau(  44) = (   6.2663940   3.7551737   9.2646230  )
        45           O1  tau(  45) = (   3.6780957   3.7542261   9.2971476  )
        46           Ti1 tau(  46) = (   5.0587989   3.7766986  12.8010349  )
        47           O1  tau(  47) = (   5.0196089   5.2502198  13.8813978  )
        48           O1  tau(  48) = (   2.9624133   3.7943242  12.7299881  )
        49           O1  tau(  49) = (   1.7427453   2.2533568  14.8370015  )
        50           C1  tau(  50) = (   2.7196098   4.2826273  16.2318421  )
        51           H1  tau(  51) = (   3.3037454   4.9255546  15.5827400  )
        52           H1  tau(  52) = (   3.3286606   3.7570117  16.9822022  )
        53           H1  tau(  53) = (   2.3125587   3.4026405  15.5729816  )
        54           H1  tau(  54) = (   1.8391288   4.7650601  16.6448379  )

     number of k points=    40  Fermi-Dirac smearing, width (Ry)=  0.0073
                       cart. coord. in units 2pi/alat
        k(    1) = (   0.0000000   0.0000000   0.0000000), wk =   0.0277778
        k(    2) = (   0.0000000   0.0280101   0.0000000), wk =   0.0555556
        k(    3) = (   0.0000000   0.0560203   0.0000000), wk =   0.0555556
        k(    4) = (   0.0000000  -0.0840304   0.0000000), wk =   0.0277778
        k(    5) = (   0.0252881   0.0000000   0.0000000), wk =   0.0555556
        k(    6) = (   0.0252881   0.0280101   0.0000000), wk =   0.0555556
        k(    7) = (   0.0252881   0.0560203   0.0000000), wk =   0.0555556
        k(    8) = (   0.0252881  -0.0840304   0.0000000), wk =   0.0555556
        k(    9) = (   0.0505763   0.0000000   0.0000000), wk =   0.0555556
        k(   10) = (   0.0505763   0.0280101   0.0000000), wk =   0.0555556
        k(   11) = (   0.0505763   0.0560203   0.0000000), wk =   0.0555556
        k(   12) = (   0.0505763  -0.0840304   0.0000000), wk =   0.0555556
        k(   13) = (  -0.0758644   0.0000000   0.0000000), wk =   0.0277778
        k(   14) = (  -0.0758644   0.0280101   0.0000000), wk =   0.0555556
        k(   15) = (  -0.0758644   0.0560203   0.0000000), wk =   0.0555556
        k(   16) = (  -0.0758644  -0.0840304   0.0000000), wk =   0.0277778
        k(   17) = (  -0.0252881   0.0280101   0.0000000), wk =   0.0555556
        k(   18) = (  -0.0252881   0.0560203   0.0000000), wk =   0.0555556
        k(   19) = (  -0.0505763   0.0280101   0.0000000), wk =   0.0555556
        k(   20) = (  -0.0505763   0.0560203   0.0000000), wk =   0.0555556
        k(   21) = (   0.0000000   0.0000000   0.0000000), wk =   0.0277778
        k(   22) = (   0.0000000   0.0280101   0.0000000), wk =   0.0555556
        k(   23) = (   0.0000000   0.0560203   0.0000000), wk =   0.0555556
        k(   24) = (   0.0000000  -0.0840304   0.0000000), wk =   0.0277778
        k(   25) = (   0.0252881   0.0000000   0.0000000), wk =   0.0555556
        k(   26) = (   0.0252881   0.0280101   0.0000000), wk =   0.0555556
        k(   27) = (   0.0252881   0.0560203   0.0000000), wk =   0.0555556
        k(   28) = (   0.0252881  -0.0840304   0.0000000), wk =   0.0555556
        k(   29) = (   0.0505763   0.0000000   0.0000000), wk =   0.0555556
        k(   30) = (   0.0505763   0.0280101   0.0000000), wk =   0.0555556
        k(   31) = (   0.0505763   0.0560203   0.0000000), wk =   0.0555556
        k(   32) = (   0.0505763  -0.0840304   0.0000000), wk =   0.0555556
        k(   33) = (  -0.0758644   0.0000000   0.0000000), wk =   0.0277778
        k(   34) = (  -0.0758644   0.0280101   0.0000000), wk =   0.0555556
        k(   35) = (  -0.0758644   0.0560203   0.0000000), wk =   0.0555556
        k(   36) = (  -0.0758644  -0.0840304   0.0000000), wk =   0.0277778
        k(   37) = (  -0.0252881   0.0280101   0.0000000), wk =   0.0555556
        k(   38) = (  -0.0252881   0.0560203   0.0000000), wk =   0.0555556
        k(   39) = (  -0.0505763   0.0280101   0.0000000), wk =   0.0555556
        k(   40) = (  -0.0505763   0.0560203   0.0000000), wk =   0.0555556

     Dense  grid:  1096637 G-vectors     FFT dimensions: (  80,  72, 375)

     Smooth grid:   277353 G-vectors     FFT dimensions: (  54,  45, 240)

     Largest allocated arrays     est. size (Mb)     dimensions
        Kohn-Sham Wavefunctions         9.95 Mb     (    2180,  299)
        NL pseudopotentials            18.89 Mb     (    2180,  568)
        Each V/rho on FFT grid          4.22 Mb     (  138240,   2)
        Each G-vector array             0.52 Mb     (   68538)
        G-vector shells                 0.25 Mb     (   33046)
     Largest temporary arrays     est. size (Mb)     dimensions
        Auxiliary wavefunctions        39.78 Mb     (    2180, 1196)
        Each subspace H/S matrix       21.83 Mb     (    1196, 1196)
        Each <psi_i|beta_j> matrix      2.59 Mb     (     568,  299)
        Arrays for rho mixing          21.09 Mb     (  138240,   10)

     Check: negative/imaginary core charge=   -0.000049    0.000000

     The initial density is read from file :
     ./calc.save/charge-density.dat


     negative rho (up, down):  1.189E-02 1.196E-02


     ************************************************************************
     *
     * You are using vdW-DF for exchange-correlation in this calculation.
     * Please cite the following three references that made this development
     * possible:
     *
     *   M. Dion, H. Rydberg, E. Schroder, D. C. Langreth, and
     *   B. I. Lundqvist, Phys. Rev. Lett. 92, 246401 (2004).
     *
     *   T. Thonhauser, V. R. Cooper, S. Li, A. Puzder, P. Hyldgaard, and
     *   D. C. Langreth, Phys. Rev. B 76, 125112 (2007).
     *
     *   G. Roman-Perez and J. M. Soler, Phys. Rev. Lett. 103, 096102 (2009).
     *
     *
     * If you are using vdW-DF2, please also cite:
     *
     *   K. Lee, E. D. Murray, L. Kong, B. I. Lundqvist, and
     *   D. C. Langreth, Phys. Rev. B 82, 081101(R) (2010).
     *
     *
     * If you are calculating the stress with vdW-DF, please also cite:
     *
     *   R. Sabatini, E. Kucukbenli, B. Kolb, T. Thonhauser, and
     *   S. de Gironcoli, J. Phys.: Condens. Matter 24, 424209 (2012).
     *
     ************************************************************************

     Carrying out vdW-DF run using the following parameters:

     Nqs =      20    Nr_points =    1024   r_max =   100.000
     q_mesh =
               0.00001000     0.04494208     0.09755937     0.15916263
               0.23128650     0.31572767     0.41458969     0.53033537
               0.66584808     0.82450364     1.01025438     1.22772762
               1.48234092     1.78043706     2.12944203     2.53805004
               3.01644009     3.57652955     4.23227104     5.00000000

     Gradients computed in reciprocal space

     ************************************************************************


     Starting wfc are  300 randomized atomic wfcs

     total cpu time spent up to now is       80.0 secs

     Self-consistent Calculation

     iteration #  1     ecut=    40.42 Ry     beta=0.10
     Davidson diagonalization with overlap
     ethr =  1.00E-05,  avg # of iterations = 14.9

     Threshold (ethr) on eigenvalues was too large:
     Diagonalizing with lowered threshold

     Davidson diagonalization with overlap
     ethr =  5.02E-07,  avg # of iterations =  1.0

     negative rho (up, down):  1.189E-02 1.196E-02
 
     Magnetic moment per site:
     atom:    1    charge:    3.1244    magn:   -0.0003    constr:    0.0000
     atom:    2    charge:    2.0897    magn:    0.0003    constr:    0.0000
     atom:    3    charge:    3.1198    magn:   -0.0000    constr:    0.0000
     atom:    4    charge:    2.0867    magn:   -0.0001    constr:    0.0000
     atom:    5    charge:    3.1161    magn:   -0.0002    constr:    0.0000
     atom:    6    charge:    2.0795    magn:    0.0020    constr:    0.0000
     atom:    7    charge:    3.1166    magn:   -0.0053    constr:    0.0000
     atom:    8    charge:    2.0794    magn:    0.0248    constr:    0.0000
     atom:    9    charge:    3.1244    magn:   -0.0003    constr:    0.0000
     atom:   10    charge:    2.0898    magn:    0.0003    constr:    0.0000
     atom:   11    charge:    3.1198    magn:   -0.0000    constr:    0.0000
     atom:   12    charge:    2.0870    magn:   -0.0000    constr:    0.0000
     atom:   13    charge:    3.1150    magn:   -0.0002    constr:    0.0000
     atom:   14    charge:    2.0939    magn:    0.0022    constr:    0.0000
     atom:   15    charge:    3.1184    magn:   -0.0008    constr:    0.0000
     atom:   16    charge:    2.0829    magn:    0.0046    constr:    0.0000
     atom:   17    charge:    2.0624    magn:    0.0018    constr:    0.0000
     atom:   18    charge:    3.1239    magn:   -0.0001    constr:    0.0000
     atom:   19    charge:    2.0875    magn:    0.0001    constr:    0.0000
     atom:   20    charge:    2.0847    magn:    0.0002    constr:    0.0000
     atom:   21    charge:    2.0847    magn:    0.0002    constr:    0.0000
     atom:   22    charge:    3.1199    magn:    0.0000    constr:    0.0000
     atom:   23    charge:    2.0908    magn:    0.0002    constr:    0.0000
     atom:   24    charge:    2.0754    magn:   -0.0002    constr:    0.0000
     atom:   25    charge:    2.0867    magn:    0.0000    constr:    0.0000
     atom:   26    charge:    3.1127    magn:   -0.0002    constr:    0.0000
     atom:   27    charge:    2.0803    magn:    0.0025    constr:    0.0000
     atom:   28    charge:    2.0839    magn:    0.0006    constr:    0.0000
     atom:   29    charge:    2.0860    magn:    0.0008    constr:    0.0000
     atom:   30    charge:    3.1171    magn:   -0.0008    constr:    0.0000
     atom:   31    charge:    2.0826    magn:    0.0006    constr:    0.0000
     atom:   32    charge:    2.0829    magn:    0.0064    constr:    0.0000
     atom:   33    charge:    2.0624    magn:    0.0018    constr:    0.0000
     atom:   34    charge:    3.1239    magn:   -0.0001    constr:    0.0000
     atom:   35    charge:    2.0876    magn:    0.0001    constr:    0.0000
     atom:   36    charge:    2.0847    magn:    0.0002    constr:    0.0000
     atom:   37    charge:    2.0847    magn:    0.0002    constr:    0.0000
     atom:   38    charge:    3.1200    magn:    0.0000    constr:    0.0000
     atom:   39    charge:    2.0839    magn:    0.0002    constr:    0.0000
     atom:   40    charge:    2.0756    magn:   -0.0003    constr:    0.0000
     atom:   41    charge:    2.0870    magn:   -0.0000    constr:    0.0000
     atom:   42    charge:    3.1151    magn:   -0.0002    constr:    0.0000
     atom:   43    charge:    2.0803    magn:    0.0030    constr:    0.0000
     atom:   44    charge:    2.0851    magn:    0.0008    constr:    0.0000
     atom:   45    charge:    2.0858    magn:    0.0004    constr:    0.0000
     atom:   46    charge:    3.1148    magn:   -0.0007    constr:    0.0000
     atom:   47    charge:    2.0806    magn:    0.0046    constr:    0.0000
     atom:   48    charge:    2.0838    magn:    0.0136    constr:    0.0000
     atom:   49    charge:    2.0521    magn:    0.2395    constr:    0.0000
     atom:   50    charge:    0.6704    magn:    0.0548    constr:    0.0000
     atom:   51    charge:    0.4220    magn:    0.0009    constr:    0.0000
     atom:   52    charge:    0.4138    magn:    0.0005    constr:    0.0000
     atom:   53    charge:    0.3675    magn:    0.0234    constr:    0.0000
     atom:   54    charge:    0.4231    magn:    0.0006    constr:    0.0000

     total cpu time spent up to now is     1241.9 secs

     total energy              =   -3021.14985526 Ry
     Harris-Foulkes estimate   =   -3021.15005744 Ry
     estimated scf accuracy    <       0.00199529 Ry

     total magnetization       =     1.06 Bohr mag/cell
     absolute magnetization    =     1.23 Bohr mag/cell

     iteration #  2     ecut=    40.42 Ry     beta=0.10
     Davidson diagonalization with overlap
     ethr =  5.01E-07,  avg # of iterations =  1.5

     negative rho (up, down):  1.189E-02 1.195E-02
 
     Magnetic moment per site:
     atom:    1    charge:    3.1244    magn:   -0.0003    constr:    0.0000
     atom:    2    charge:    2.0897    magn:    0.0003    constr:    0.0000
     atom:    3    charge:    3.1198    magn:   -0.0000    constr:    0.0000
     atom:    4    charge:    2.0867    magn:   -0.0001    constr:    0.0000
     atom:    5    charge:    3.1161    magn:   -0.0002    constr:    0.0000
     atom:    6    charge:    2.0795    magn:    0.0021    constr:    0.0000
     atom:    7    charge:    3.1167    magn:   -0.0053    constr:    0.0000
     atom:    8    charge:    2.0793    magn:    0.0248    constr:    0.0000
     atom:    9    charge:    3.1244    magn:   -0.0003    constr:    0.0000
     atom:   10    charge:    2.0899    magn:    0.0003    constr:    0.0000
     atom:   11    charge:    3.1198    magn:   -0.0000    constr:    0.0000
     atom:   12    charge:    2.0871    magn:   -0.0000    constr:    0.0000
     atom:   13    charge:    3.1150    magn:   -0.0002    constr:    0.0000
     atom:   14    charge:    2.0939    magn:    0.0022    constr:    0.0000
     atom:   15    charge:    3.1184    magn:   -0.0008    constr:    0.0000
     atom:   16    charge:    2.0828    magn:    0.0046    constr:    0.0000
     atom:   17    charge:    2.0625    magn:    0.0017    constr:    0.0000
     atom:   18    charge:    3.1239    magn:   -0.0001    constr:    0.0000
     atom:   19    charge:    2.0875    magn:    0.0001    constr:    0.0000
     atom:   20    charge:    2.0847    magn:    0.0002    constr:    0.0000
     atom:   21    charge:    2.0847    magn:    0.0002    constr:    0.0000
     atom:   22    charge:    3.1199    magn:    0.0000    constr:    0.0000
     atom:   23    charge:    2.0908    magn:    0.0002    constr:    0.0000
     atom:   24    charge:    2.0754    magn:   -0.0002    constr:    0.0000
     atom:   25    charge:    2.0867    magn:    0.0000    constr:    0.0000
     atom:   26    charge:    3.1127    magn:   -0.0002    constr:    0.0000
     atom:   27    charge:    2.0802    magn:    0.0025    constr:    0.0000
     atom:   28    charge:    2.0839    magn:    0.0006    constr:    0.0000
     atom:   29    charge:    2.0860    magn:    0.0008    constr:    0.0000
     atom:   30    charge:    3.1171    magn:   -0.0008    constr:    0.0000
     atom:   31    charge:    2.0826    magn:    0.0006    constr:    0.0000
     atom:   32    charge:    2.0829    magn:    0.0064    constr:    0.0000
     atom:   33    charge:    2.0625    magn:    0.0018    constr:    0.0000
     atom:   34    charge:    3.1239    magn:   -0.0001    constr:    0.0000
     atom:   35    charge:    2.0876    magn:    0.0001    constr:    0.0000
     atom:   36    charge:    2.0847    magn:    0.0002    constr:    0.0000
     atom:   37    charge:    2.0847    magn:    0.0002    constr:    0.0000
     atom:   38    charge:    3.1200    magn:    0.0000    constr:    0.0000
     atom:   39    charge:    2.0839    magn:    0.0002    constr:    0.0000
     atom:   40    charge:    2.0756    magn:   -0.0003    constr:    0.0000
     atom:   41    charge:    2.0870    magn:   -0.0000    constr:    0.0000
     atom:   42    charge:    3.1151    magn:   -0.0002    constr:    0.0000
     atom:   43    charge:    2.0802    magn:    0.0030    constr:    0.0000
     atom:   44    charge:    2.0851    magn:    0.0008    constr:    0.0000
     atom:   45    charge:    2.0858    magn:    0.0004    constr:    0.0000
     atom:   46    charge:    3.1148    magn:   -0.0007    constr:    0.0000
     atom:   47    charge:    2.0806    magn:    0.0046    constr:    0.0000
     atom:   48    charge:    2.0838    magn:    0.0136    constr:    0.0000
     atom:   49    charge:    2.0521    magn:    0.2394    constr:    0.0000
     atom:   50    charge:    0.6701    magn:    0.0548    constr:    0.0000
     atom:   51    charge:    0.4220    magn:    0.0009    constr:    0.0000
     atom:   52    charge:    0.4138    magn:    0.0005    constr:    0.0000
     atom:   53    charge:    0.3676    magn:    0.0235    constr:    0.0000
     atom:   54    charge:    0.4231    magn:    0.0006    constr:    0.0000

     total cpu time spent up to now is     1450.1 secs

     total energy              =   -3021.14978136 Ry
     Harris-Foulkes estimate   =   -3021.14990633 Ry
     estimated scf accuracy    <       0.00188488 Ry

     total magnetization       =     1.06 Bohr mag/cell
     absolute magnetization    =     1.23 Bohr mag/cell

     iteration #  3     ecut=    40.42 Ry     beta=0.10
     Davidson diagonalization with overlap
     ethr =  4.74E-07,  avg # of iterations =  1.0

     negative rho (up, down):  1.188E-02 1.195E-02
 
     Magnetic moment per site:
     atom:    1    charge:    3.1244    magn:   -0.0003    constr:    0.0000
     atom:    2    charge:    2.0897    magn:    0.0003    constr:    0.0000
     atom:    3    charge:    3.1198    magn:   -0.0000    constr:    0.0000
     atom:    4    charge:    2.0867    magn:   -0.0001    constr:    0.0000
     atom:    5    charge:    3.1161    magn:   -0.0002    constr:    0.0000
     atom:    6    charge:    2.0795    magn:    0.0021    constr:    0.0000
     atom:    7    charge:    3.1167    magn:   -0.0052    constr:    0.0000
     atom:    8    charge:    2.0794    magn:    0.0247    constr:    0.0000
     atom:    9    charge:    3.1244    magn:   -0.0003    constr:    0.0000
     atom:   10    charge:    2.0898    magn:    0.0003    constr:    0.0000
     atom:   11    charge:    3.1198    magn:   -0.0000    constr:    0.0000
     atom:   12    charge:    2.0871    magn:   -0.0000    constr:    0.0000
     atom:   13    charge:    3.1150    magn:   -0.0002    constr:    0.0000
     atom:   14    charge:    2.0939    magn:    0.0022    constr:    0.0000
     atom:   15    charge:    3.1184    magn:   -0.0008    constr:    0.0000
     atom:   16    charge:    2.0828    magn:    0.0046    constr:    0.0000
     atom:   17    charge:    2.0625    magn:    0.0016    constr:    0.0000
     atom:   18    charge:    3.1240    magn:   -0.0001    constr:    0.0000
     atom:   19    charge:    2.0875    magn:    0.0001    constr:    0.0000
     atom:   20    charge:    2.0847    magn:    0.0001    constr:    0.0000
     atom:   21    charge:    2.0847    magn:    0.0001    constr:    0.0000
     atom:   22    charge:    3.1199    magn:    0.0000    constr:    0.0000
     atom:   23    charge:    2.0908    magn:    0.0002    constr:    0.0000
     atom:   24    charge:    2.0754    magn:   -0.0001    constr:    0.0000
     atom:   25    charge:    2.0868    magn:    0.0000    constr:    0.0000
     atom:   26    charge:    3.1127    magn:   -0.0002    constr:    0.0000
     atom:   27    charge:    2.0802    magn:    0.0025    constr:    0.0000
     atom:   28    charge:    2.0839    magn:    0.0006    constr:    0.0000
     atom:   29    charge:    2.0860    magn:    0.0008    constr:    0.0000
     atom:   30    charge:    3.1171    magn:   -0.0008    constr:    0.0000
     atom:   31    charge:    2.0826    magn:    0.0006    constr:    0.0000
     atom:   32    charge:    2.0829    magn:    0.0064    constr:    0.0000
     atom:   33    charge:    2.0624    magn:    0.0016    constr:    0.0000
     atom:   34    charge:    3.1239    magn:   -0.0001    constr:    0.0000
     atom:   35    charge:    2.0875    magn:    0.0001    constr:    0.0000
     atom:   36    charge:    2.0847    magn:    0.0001    constr:    0.0000
     atom:   37    charge:    2.0847    magn:    0.0001    constr:    0.0000
     atom:   38    charge:    3.1200    magn:    0.0000    constr:    0.0000
     atom:   39    charge:    2.0839    magn:    0.0002    constr:    0.0000
     atom:   40    charge:    2.0756    magn:   -0.0002    constr:    0.0000
     atom:   41    charge:    2.0870    magn:   -0.0000    constr:    0.0000
     atom:   42    charge:    3.1151    magn:   -0.0002    constr:    0.0000
     atom:   43    charge:    2.0803    magn:    0.0030    constr:    0.0000
     atom:   44    charge:    2.0851    magn:    0.0009    constr:    0.0000
     atom:   45    charge:    2.0858    magn:    0.0004    constr:    0.0000
     atom:   46    charge:    3.1148    magn:   -0.0007    constr:    0.0000
     atom:   47    charge:    2.0807    magn:    0.0046    constr:    0.0000
     atom:   48    charge:    2.0838    magn:    0.0134    constr:    0.0000
     atom:   49    charge:    2.0522    magn:    0.2390    constr:    0.0000
     atom:   50    charge:    0.6683    magn:    0.0550    constr:    0.0000
     atom:   51    charge:    0.4220    magn:    0.0009    constr:    0.0000
     atom:   52    charge:    0.4139    magn:    0.0007    constr:    0.0000
     atom:   53    charge:    0.3678    magn:    0.0238    constr:    0.0000
     atom:   54    charge:    0.4231    magn:    0.0006    constr:    0.0000

     total cpu time spent up to now is     1651.1 secs

     total energy              =   -3021.14957012 Ry
     Harris-Foulkes estimate   =   -3021.14985234 Ry
     estimated scf accuracy    <       0.00161397 Ry

     total magnetization       =     1.06 Bohr mag/cell
     absolute magnetization    =     1.23 Bohr mag/cell

     iteration #  4     ecut=    40.42 Ry     beta=0.10
     Davidson diagonalization with overlap
     ethr =  4.06E-07,  avg # of iterations =  3.0

     negative rho (up, down):  1.188E-02 1.195E-02
 
     Magnetic moment per site:
     atom:    1    charge:    3.1244    magn:   -0.0003    constr:    0.0000
     atom:    2    charge:    2.0897    magn:    0.0003    constr:    0.0000
     atom:    3    charge:    3.1198    magn:   -0.0000    constr:    0.0000
     atom:    4    charge:    2.0867    magn:   -0.0001    constr:    0.0000
     atom:    5    charge:    3.1161    magn:   -0.0002    constr:    0.0000
     atom:    6    charge:    2.0795    magn:    0.0021    constr:    0.0000
     atom:    7    charge:    3.1167    magn:   -0.0052    constr:    0.0000
     atom:    8    charge:    2.0793    magn:    0.0247    constr:    0.0000
     atom:    9    charge:    3.1244    magn:   -0.0003    constr:    0.0000
     atom:   10    charge:    2.0898    magn:    0.0003    constr:    0.0000
     atom:   11    charge:    3.1198    magn:   -0.0000    constr:    0.0000
     atom:   12    charge:    2.0870    magn:   -0.0000    constr:    0.0000
     atom:   13    charge:    3.1150    magn:   -0.0002    constr:    0.0000
     atom:   14    charge:    2.0939    magn:    0.0022    constr:    0.0000
     atom:   15    charge:    3.1184    magn:   -0.0008    constr:    0.0000
     atom:   16    charge:    2.0828    magn:    0.0046    constr:    0.0000
     atom:   17    charge:    2.0625    magn:    0.0015    constr:    0.0000
     atom:   18    charge:    3.1240    magn:   -0.0001    constr:    0.0000
     atom:   19    charge:    2.0875    magn:    0.0001    constr:    0.0000
     atom:   20    charge:    2.0847    magn:    0.0001    constr:    0.0000
     atom:   21    charge:    2.0847    magn:    0.0001    constr:    0.0000
     atom:   22    charge:    3.1199    magn:    0.0000    constr:    0.0000
     atom:   23    charge:    2.0908    magn:    0.0002    constr:    0.0000
     atom:   24    charge:    2.0754    magn:   -0.0001    constr:    0.0000
     atom:   25    charge:    2.0867    magn:    0.0000    constr:    0.0000
     atom:   26    charge:    3.1127    magn:   -0.0002    constr:    0.0000
     atom:   27    charge:    2.0802    magn:    0.0025    constr:    0.0000
     atom:   28    charge:    2.0839    magn:    0.0006    constr:    0.0000
     atom:   29    charge:    2.0860    magn:    0.0008    constr:    0.0000
     atom:   30    charge:    3.1171    magn:   -0.0008    constr:    0.0000
     atom:   31    charge:    2.0826    magn:    0.0006    constr:    0.0000
     atom:   32    charge:    2.0829    magn:    0.0065    constr:    0.0000
     atom:   33    charge:    2.0625    magn:    0.0015    constr:    0.0000
     atom:   34    charge:    3.1239    magn:   -0.0001    constr:    0.0000
     atom:   35    charge:    2.0875    magn:    0.0001    constr:    0.0000
     atom:   36    charge:    2.0847    magn:    0.0001    constr:    0.0000
     atom:   37    charge:    2.0847    magn:    0.0001    constr:    0.0000
     atom:   38    charge:    3.1200    magn:    0.0000    constr:    0.0000
     atom:   39    charge:    2.0839    magn:    0.0002    constr:    0.0000
     atom:   40    charge:    2.0756    magn:   -0.0002    constr:    0.0000
     atom:   41    charge:    2.0870    magn:   -0.0000    constr:    0.0000
     atom:   42    charge:    3.1151    magn:   -0.0002    constr:    0.0000
     atom:   43    charge:    2.0803    magn:    0.0030    constr:    0.0000
     atom:   44    charge:    2.0851    magn:    0.0009    constr:    0.0000
     atom:   45    charge:    2.0858    magn:    0.0004    constr:    0.0000
     atom:   46    charge:    3.1147    magn:   -0.0007    constr:    0.0000
     atom:   47    charge:    2.0808    magn:    0.0046    constr:    0.0000
     atom:   48    charge:    2.0837    magn:    0.0134    constr:    0.0000
     atom:   49    charge:    2.0518    magn:    0.2391    constr:    0.0000
     atom:   50    charge:    0.6685    magn:    0.0550    constr:    0.0000
     atom:   51    charge:    0.4219    magn:    0.0009    constr:    0.0000
     atom:   52    charge:    0.4138    magn:    0.0008    constr:    0.0000
     atom:   53    charge:    0.3678    magn:    0.0237    constr:    0.0000
     atom:   54    charge:    0.4231    magn:    0.0006    constr:    0.0000

     total cpu time spent up to now is     1893.7 secs

     total energy              =   -3021.14964740 Ry
     Harris-Foulkes estimate   =   -3021.14967454 Ry
     estimated scf accuracy    <       0.00027030 Ry

     total magnetization       =     1.06 Bohr mag/cell
     absolute magnetization    =     1.23 Bohr mag/cell

     iteration #  5     ecut=    40.42 Ry     beta=0.10
     Davidson diagonalization with overlap
     ethr =  6.79E-08,  avg # of iterations =  2.0

     negative rho (up, down):  1.188E-02 1.195E-02
 
     Magnetic moment per site:
     atom:    1    charge:    3.1244    magn:   -0.0002    constr:    0.0000
     atom:    2    charge:    2.0897    magn:    0.0002    constr:    0.0000
     atom:    3    charge:    3.1198    magn:   -0.0000    constr:    0.0000
     atom:    4    charge:    2.0867    magn:   -0.0001    constr:    0.0000
     atom:    5    charge:    3.1161    magn:   -0.0002    constr:    0.0000
     atom:    6    charge:    2.0795    magn:    0.0021    constr:    0.0000
     atom:    7    charge:    3.1167    magn:   -0.0052    constr:    0.0000
     atom:    8    charge:    2.0792    magn:    0.0247    constr:    0.0000
     atom:    9    charge:    3.1244    magn:   -0.0002    constr:    0.0000
     atom:   10    charge:    2.0898    magn:    0.0002    constr:    0.0000
     atom:   11    charge:    3.1198    magn:   -0.0000    constr:    0.0000
     atom:   12    charge:    2.0870    magn:   -0.0000    constr:    0.0000
     atom:   13    charge:    3.1150    magn:   -0.0002    constr:    0.0000
     atom:   14    charge:    2.0939    magn:    0.0022    constr:    0.0000
     atom:   15    charge:    3.1184    magn:   -0.0008    constr:    0.0000
     atom:   16    charge:    2.0828    magn:    0.0046    constr:    0.0000
     atom:   17    charge:    2.0624    magn:    0.0014    constr:    0.0000
     atom:   18    charge:    3.1239    magn:   -0.0001    constr:    0.0000
     atom:   19    charge:    2.0875    magn:    0.0001    constr:    0.0000
     atom:   20    charge:    2.0847    magn:    0.0001    constr:    0.0000
     atom:   21    charge:    2.0847    magn:    0.0001    constr:    0.0000
     atom:   22    charge:    3.1199    magn:    0.0000    constr:    0.0000
     atom:   23    charge:    2.0908    magn:    0.0002    constr:    0.0000
     atom:   24    charge:    2.0754    magn:   -0.0001    constr:    0.0000
     atom:   25    charge:    2.0867    magn:    0.0000    constr:    0.0000
     atom:   26    charge:    3.1127    magn:   -0.0002    constr:    0.0000
     atom:   27    charge:    2.0802    magn:    0.0026    constr:    0.0000
     atom:   28    charge:    2.0839    magn:    0.0007    constr:    0.0000
     atom:   29    charge:    2.0860    magn:    0.0008    constr:    0.0000
     atom:   30    charge:    3.1171    magn:   -0.0008    constr:    0.0000
     atom:   31    charge:    2.0825    magn:    0.0006    constr:    0.0000
     atom:   32    charge:    2.0829    magn:    0.0065    constr:    0.0000
     atom:   33    charge:    2.0624    magn:    0.0014    constr:    0.0000
     atom:   34    charge:    3.1239    magn:   -0.0001    constr:    0.0000
     atom:   35    charge:    2.0876    magn:    0.0001    constr:    0.0000
     atom:   36    charge:    2.0847    magn:    0.0001    constr:    0.0000
     atom:   37    charge:    2.0847    magn:    0.0001    constr:    0.0000
     atom:   38    charge:    3.1200    magn:    0.0000    constr:    0.0000
     atom:   39    charge:    2.0839    magn:    0.0002    constr:    0.0000
     atom:   40    charge:    2.0756    magn:   -0.0002    constr:    0.0000
     atom:   41    charge:    2.0870    magn:   -0.0000    constr:    0.0000
     atom:   42    charge:    3.1151    magn:   -0.0002    constr:    0.0000
     atom:   43    charge:    2.0803    magn:    0.0031    constr:    0.0000
     atom:   44    charge:    2.0851    magn:    0.0009    constr:    0.0000
     atom:   45    charge:    2.0858    magn:    0.0005    constr:    0.0000
     atom:   46    charge:    3.1147    magn:   -0.0007    constr:    0.0000
     atom:   47    charge:    2.0808    magn:    0.0046    constr:    0.0000
     atom:   48    charge:    2.0837    magn:    0.0134    constr:    0.0000
     atom:   49    charge:    2.0515    magn:    0.2391    constr:    0.0000
     atom:   50    charge:    0.6686    magn:    0.0550    constr:    0.0000
     atom:   51    charge:    0.4219    magn:    0.0009    constr:    0.0000
     atom:   52    charge:    0.4138    magn:    0.0008    constr:    0.0000
     atom:   53    charge:    0.3678    magn:    0.0236    constr:    0.0000
     atom:   54    charge:    0.4231    magn:    0.0006    constr:    0.0000

     total cpu time spent up to now is     2113.7 secs

     total energy              =   -3021.14964306 Ry
     Harris-Foulkes estimate   =   -3021.14965376 Ry
     estimated scf accuracy    <       0.00012919 Ry

     total magnetization       =     1.06 Bohr mag/cell
     absolute magnetization    =     1.23 Bohr mag/cell

     iteration #  6     ecut=    40.42 Ry     beta=0.10
     Davidson diagonalization with overlap
     ethr =  3.25E-08,  avg # of iterations =  3.0

     negative rho (up, down):  1.188E-02 1.195E-02
 
     Magnetic moment per site:
     atom:    1    charge:    3.1244    magn:   -0.0002    constr:    0.0000
     atom:    2    charge:    2.0897    magn:    0.0002    constr:    0.0000
     atom:    3    charge:    3.1198    magn:   -0.0000    constr:    0.0000
     atom:    4    charge:    2.0867    magn:   -0.0001    constr:    0.0000
     atom:    5    charge:    3.1161    magn:   -0.0002    constr:    0.0000
     atom:    6    charge:    2.0795    magn:    0.0021    constr:    0.0000
     atom:    7    charge:    3.1166    magn:   -0.0052    constr:    0.0000
     atom:    8    charge:    2.0792    magn:    0.0247    constr:    0.0000
     atom:    9    charge:    3.1244    magn:   -0.0002    constr:    0.0000
     atom:   10    charge:    2.0898    magn:    0.0002    constr:    0.0000
     atom:   11    charge:    3.1198    magn:   -0.0000    constr:    0.0000
     atom:   12    charge:    2.0870    magn:   -0.0000    constr:    0.0000
     atom:   13    charge:    3.1150    magn:   -0.0002    constr:    0.0000
     atom:   14    charge:    2.0939    magn:    0.0022    constr:    0.0000
     atom:   15    charge:    3.1184    magn:   -0.0008    constr:    0.0000
     atom:   16    charge:    2.0828    magn:    0.0046    constr:    0.0000
     atom:   17    charge:    2.0624    magn:    0.0013    constr:    0.0000
     atom:   18    charge:    3.1239    magn:   -0.0001    constr:    0.0000
     atom:   19    charge:    2.0876    magn:    0.0000    constr:    0.0000
     atom:   20    charge:    2.0847    magn:    0.0001    constr:    0.0000
     atom:   21    charge:    2.0847    magn:    0.0001    constr:    0.0000
     atom:   22    charge:    3.1199    magn:    0.0000    constr:    0.0000
     atom:   23    charge:    2.0908    magn:    0.0002    constr:    0.0000
     atom:   24    charge:    2.0754    magn:   -0.0001    constr:    0.0000
     atom:   25    charge:    2.0867    magn:    0.0000    constr:    0.0000
     atom:   26    charge:    3.1127    magn:   -0.0002    constr:    0.0000
     atom:   27    charge:    2.0803    magn:    0.0026    constr:    0.0000
     atom:   28    charge:    2.0839    magn:    0.0007    constr:    0.0000
     atom:   29    charge:    2.0860    magn:    0.0008    constr:    0.0000
     atom:   30    charge:    3.1171    magn:   -0.0008    constr:    0.0000
     atom:   31    charge:    2.0825    magn:    0.0006    constr:    0.0000
     atom:   32    charge:    2.0829    magn:    0.0065    constr:    0.0000
     atom:   33    charge:    2.0624    magn:    0.0013    constr:    0.0000
     atom:   34    charge:    3.1239    magn:   -0.0001    constr:    0.0000
     atom:   35    charge:    2.0876    magn:    0.0000    constr:    0.0000
     atom:   36    charge:    2.0847    magn:    0.0001    constr:    0.0000
     atom:   37    charge:    2.0847    magn:    0.0001    constr:    0.0000
     atom:   38    charge:    3.1200    magn:    0.0000    constr:    0.0000
     atom:   39    charge:    2.0839    magn:    0.0002    constr:    0.0000
     atom:   40    charge:    2.0756    magn:   -0.0002    constr:    0.0000
     atom:   41    charge:    2.0870    magn:   -0.0000    constr:    0.0000
     atom:   42    charge:    3.1151    magn:   -0.0002    constr:    0.0000
     atom:   43    charge:    2.0803    magn:    0.0031    constr:    0.0000
     atom:   44    charge:    2.0851    magn:    0.0009    constr:    0.0000
     atom:   45    charge:    2.0858    magn:    0.0005    constr:    0.0000
     atom:   46    charge:    3.1148    magn:   -0.0007    constr:    0.0000
     atom:   47    charge:    2.0807    magn:    0.0046    constr:    0.0000
     atom:   48    charge:    2.0837    magn:    0.0134    constr:    0.0000
     atom:   49    charge:    2.0516    magn:    0.2391    constr:    0.0000
     atom:   50    charge:    0.6689    magn:    0.0550    constr:    0.0000
     atom:   51    charge:    0.4218    magn:    0.0008    constr:    0.0000
     atom:   52    charge:    0.4138    magn:    0.0009    constr:    0.0000
     atom:   53    charge:    0.3677    magn:    0.0235    constr:    0.0000
     atom:   54    charge:    0.4230    magn:    0.0005    constr:    0.0000

     total cpu time spent up to now is     2349.4 secs

     total energy              =   -3021.14964813 Ry
     Harris-Foulkes estimate   =   -3021.14964771 Ry
     estimated scf accuracy    <       0.00004439 Ry

     total magnetization       =     1.06 Bohr mag/cell
     absolute magnetization    =     1.23 Bohr mag/cell

     iteration #  7     ecut=    40.42 Ry     beta=0.10
     Davidson diagonalization with overlap
     ethr =  1.12E-08,  avg # of iterations =  3.0

     negative rho (up, down):  1.188E-02 1.195E-02
 
     Magnetic moment per site:
     atom:    1    charge:    3.1244    magn:   -0.0002    constr:    0.0000
     atom:    2    charge:    2.0897    magn:    0.0002    constr:    0.0000
     atom:    3    charge:    3.1198    magn:   -0.0000    constr:    0.0000
     atom:    4    charge:    2.0867    magn:   -0.0001    constr:    0.0000
     atom:    5    charge:    3.1161    magn:   -0.0003    constr:    0.0000
     atom:    6    charge:    2.0795    magn:    0.0021    constr:    0.0000
     atom:    7    charge:    3.1166    magn:   -0.0052    constr:    0.0000
     atom:    8    charge:    2.0793    magn:    0.0248    constr:    0.0000
     atom:    9    charge:    3.1244    magn:   -0.0002    constr:    0.0000
     atom:   10    charge:    2.0898    magn:    0.0002    constr:    0.0000
     atom:   11    charge:    3.1198    magn:   -0.0000    constr:    0.0000
     atom:   12    charge:    2.0870    magn:   -0.0000    constr:    0.0000
     atom:   13    charge:    3.1150    magn:   -0.0002    constr:    0.0000
     atom:   14    charge:    2.0939    magn:    0.0022    constr:    0.0000
     atom:   15    charge:    3.1184    magn:   -0.0008    constr:    0.0000
     atom:   16    charge:    2.0828    magn:    0.0047    constr:    0.0000
     atom:   17    charge:    2.0624    magn:    0.0012    constr:    0.0000
     atom:   18    charge:    3.1239    magn:   -0.0000    constr:    0.0000
     atom:   19    charge:    2.0875    magn:    0.0000    constr:    0.0000
     atom:   20    charge:    2.0847    magn:    0.0001    constr:    0.0000
     atom:   21    charge:    2.0847    magn:    0.0001    constr:    0.0000
     atom:   22    charge:    3.1199    magn:    0.0000    constr:    0.0000
     atom:   23    charge:    2.0908    magn:    0.0002    constr:    0.0000
     atom:   24    charge:    2.0754    magn:   -0.0001    constr:    0.0000
     atom:   25    charge:    2.0867    magn:    0.0000    constr:    0.0000
     atom:   26    charge:    3.1127    magn:   -0.0003    constr:    0.0000
     atom:   27    charge:    2.0803    magn:    0.0026    constr:    0.0000
     atom:   28    charge:    2.0839    magn:    0.0007    constr:    0.0000
     atom:   29    charge:    2.0860    magn:    0.0009    constr:    0.0000
     atom:   30    charge:    3.1171    magn:   -0.0008    constr:    0.0000
     atom:   31    charge:    2.0825    magn:    0.0006    constr:    0.0000
     atom:   32    charge:    2.0829    magn:    0.0065    constr:    0.0000
     atom:   33    charge:    2.0624    magn:    0.0012    constr:    0.0000
     atom:   34    charge:    3.1239    magn:   -0.0000    constr:    0.0000
     atom:   35    charge:    2.0876    magn:    0.0000    constr:    0.0000
     atom:   36    charge:    2.0847    magn:    0.0001    constr:    0.0000
     atom:   37    charge:    2.0847    magn:    0.0001    constr:    0.0000
     atom:   38    charge:    3.1200    magn:    0.0000    constr:    0.0000
     atom:   39    charge:    2.0839    magn:    0.0002    constr:    0.0000
     atom:   40    charge:    2.0756    magn:   -0.0001    constr:    0.0000
     atom:   41    charge:    2.0870    magn:   -0.0000    constr:    0.0000
     atom:   42    charge:    3.1151    magn:   -0.0002    constr:    0.0000
     atom:   43    charge:    2.0803    magn:    0.0031    constr:    0.0000
     atom:   44    charge:    2.0851    magn:    0.0009    constr:    0.0000
     atom:   45    charge:    2.0858    magn:    0.0005    constr:    0.0000
     atom:   46    charge:    3.1148    magn:   -0.0007    constr:    0.0000
     atom:   47    charge:    2.0806    magn:    0.0046    constr:    0.0000
     atom:   48    charge:    2.0837    magn:    0.0134    constr:    0.0000
     atom:   49    charge:    2.0516    magn:    0.2391    constr:    0.0000
     atom:   50    charge:    0.6692    magn:    0.0550    constr:    0.0000
     atom:   51    charge:    0.4218    magn:    0.0008    constr:    0.0000
     atom:   52    charge:    0.4138    magn:    0.0009    constr:    0.0000
     atom:   53    charge:    0.3675    magn:    0.0235    constr:    0.0000
     atom:   54    charge:    0.4230    magn:    0.0005    constr:    0.0000

     total cpu time spent up to now is     2586.1 secs

     total energy              =   -3021.14964711 Ry
     Harris-Foulkes estimate   =   -3021.14965013 Ry
     estimated scf accuracy    <       0.00001406 Ry

     total magnetization       =     1.06 Bohr mag/cell
     absolute magnetization    =     1.23 Bohr mag/cell

     iteration #  8     ecut=    40.42 Ry     beta=0.10
     Davidson diagonalization with overlap
     ethr =  3.53E-09,  avg # of iterations =  3.0

     negative rho (up, down):  1.188E-02 1.195E-02
 
     Magnetic moment per site:
     atom:    1    charge:    3.1244    magn:   -0.0002    constr:    0.0000
     atom:    2    charge:    2.0897    magn:    0.0002    constr:    0.0000
     atom:    3    charge:    3.1198    magn:   -0.0000    constr:    0.0000
     atom:    4    charge:    2.0867    magn:   -0.0001    constr:    0.0000
     atom:    5    charge:    3.1161    magn:   -0.0003    constr:    0.0000
     atom:    6    charge:    2.0795    magn:    0.0021    constr:    0.0000
     atom:    7    charge:    3.1167    magn:   -0.0052    constr:    0.0000
     atom:    8    charge:    2.0793    magn:    0.0247    constr:    0.0000
     atom:    9    charge:    3.1244    magn:   -0.0002    constr:    0.0000
     atom:   10    charge:    2.0898    magn:    0.0002    constr:    0.0000
     atom:   11    charge:    3.1198    magn:   -0.0000    constr:    0.0000
     atom:   12    charge:    2.0870    magn:   -0.0000    constr:    0.0000
     atom:   13    charge:    3.1150    magn:   -0.0002    constr:    0.0000
     atom:   14    charge:    2.0939    magn:    0.0022    constr:    0.0000
     atom:   15    charge:    3.1184    magn:   -0.0008    constr:    0.0000
     atom:   16    charge:    2.0828    magn:    0.0047    constr:    0.0000
     atom:   17    charge:    2.0624    magn:    0.0011    constr:    0.0000
     atom:   18    charge:    3.1239    magn:   -0.0000    constr:    0.0000
     atom:   19    charge:    2.0875    magn:    0.0000    constr:    0.0000
     atom:   20    charge:    2.0847    magn:    0.0001    constr:    0.0000
     atom:   21    charge:    2.0847    magn:    0.0001    constr:    0.0000
     atom:   22    charge:    3.1199    magn:    0.0000    constr:    0.0000
     atom:   23    charge:    2.0908    magn:    0.0003    constr:    0.0000
     atom:   24    charge:    2.0754    magn:   -0.0000    constr:    0.0000
     atom:   25    charge:    2.0867    magn:    0.0000    constr:    0.0000
     atom:   26    charge:    3.1127    magn:   -0.0003    constr:    0.0000
     atom:   27    charge:    2.0803    magn:    0.0026    constr:    0.0000
     atom:   28    charge:    2.0839    magn:    0.0007    constr:    0.0000
     atom:   29    charge:    2.0860    magn:    0.0009    constr:    0.0000
     atom:   30    charge:    3.1171    magn:   -0.0008    constr:    0.0000
     atom:   31    charge:    2.0825    magn:    0.0006    constr:    0.0000
     atom:   32    charge:    2.0829    magn:    0.0065    constr:    0.0000
     atom:   33    charge:    2.0624    magn:    0.0011    constr:    0.0000
     atom:   34    charge:    3.1239    magn:   -0.0000    constr:    0.0000
     atom:   35    charge:    2.0876    magn:    0.0000    constr:    0.0000
     atom:   36    charge:    2.0847    magn:    0.0001    constr:    0.0000
     atom:   37    charge:    2.0847    magn:    0.0001    constr:    0.0000
     atom:   38    charge:    3.1200    magn:    0.0000    constr:    0.0000
     atom:   39    charge:    2.0839    magn:    0.0002    constr:    0.0000
     atom:   40    charge:    2.0756    magn:   -0.0001    constr:    0.0000
     atom:   41    charge:    2.0870    magn:   -0.0000    constr:    0.0000
     atom:   42    charge:    3.1151    magn:   -0.0002    constr:    0.0000
     atom:   43    charge:    2.0803    magn:    0.0031    constr:    0.0000
     atom:   44    charge:    2.0851    magn:    0.0010    constr:    0.0000
     atom:   45    charge:    2.0858    magn:    0.0005    constr:    0.0000
     atom:   46    charge:    3.1147    magn:   -0.0007    constr:    0.0000
     atom:   47    charge:    2.0807    magn:    0.0046    constr:    0.0000
     atom:   48    charge:    2.0837    magn:    0.0134    constr:    0.0000
     atom:   49    charge:    2.0517    magn:    0.2390    constr:    0.0000
     atom:   50    charge:    0.6693    magn:    0.0551    constr:    0.0000
     atom:   51    charge:    0.4218    magn:    0.0008    constr:    0.0000
     atom:   52    charge:    0.4137    magn:    0.0009    constr:    0.0000
     atom:   53    charge:    0.3674    magn:    0.0235    constr:    0.0000
     atom:   54    charge:    0.4230    magn:    0.0005    constr:    0.0000

     total cpu time spent up to now is     2826.5 secs

     total energy              =   -3021.14964810 Ry
     Harris-Foulkes estimate   =   -3021.14964837 Ry
     estimated scf accuracy    <       0.00000468 Ry

     total magnetization       =     1.06 Bohr mag/cell
     absolute magnetization    =     1.23 Bohr mag/cell

     iteration #  9     ecut=    40.42 Ry     beta=0.10
     Davidson diagonalization with overlap
     ethr =  1.18E-09,  avg # of iterations =  2.7

     negative rho (up, down):  1.188E-02 1.195E-02
 
     Magnetic moment per site:
     atom:    1    charge:    3.1244    magn:   -0.0002    constr:    0.0000
     atom:    2    charge:    2.0897    magn:    0.0001    constr:    0.0000
     atom:    3    charge:    3.1198    magn:   -0.0000    constr:    0.0000
     atom:    4    charge:    2.0867    magn:   -0.0001    constr:    0.0000
     atom:    5    charge:    3.1161    magn:   -0.0003    constr:    0.0000
     atom:    6    charge:    2.0795    magn:    0.0021    constr:    0.0000
     atom:    7    charge:    3.1167    magn:   -0.0052    constr:    0.0000
     atom:    8    charge:    2.0793    magn:    0.0248    constr:    0.0000
     atom:    9    charge:    3.1244    magn:   -0.0002    constr:    0.0000
     atom:   10    charge:    2.0898    magn:    0.0002    constr:    0.0000
     atom:   11    charge:    3.1198    magn:   -0.0000    constr:    0.0000
     atom:   12    charge:    2.0870    magn:   -0.0000    constr:    0.0000
     atom:   13    charge:    3.1150    magn:   -0.0002    constr:    0.0000
     atom:   14    charge:    2.0939    magn:    0.0022    constr:    0.0000
     atom:   15    charge:    3.1184    magn:   -0.0008    constr:    0.0000
     atom:   16    charge:    2.0828    magn:    0.0047    constr:    0.0000
     atom:   17    charge:    2.0624    magn:    0.0010    constr:    0.0000
     atom:   18    charge:    3.1239    magn:   -0.0000    constr:    0.0000
     atom:   19    charge:    2.0875    magn:    0.0000    constr:    0.0000
     atom:   20    charge:    2.0847    magn:    0.0001    constr:    0.0000
     atom:   21    charge:    2.0847    magn:    0.0001    constr:    0.0000
     atom:   22    charge:    3.1199    magn:    0.0000    constr:    0.0000
     atom:   23    charge:    2.0908    magn:    0.0003    constr:    0.0000
     atom:   24    charge:    2.0754    magn:   -0.0000    constr:    0.0000
     atom:   25    charge:    2.0867    magn:    0.0000    constr:    0.0000
     atom:   26    charge:    3.1127    magn:   -0.0003    constr:    0.0000
     atom:   27    charge:    2.0802    magn:    0.0027    constr:    0.0000
     atom:   28    charge:    2.0839    magn:    0.0008    constr:    0.0000
     atom:   29    charge:    2.0860    magn:    0.0009    constr:    0.0000
     atom:   30    charge:    3.1171    magn:   -0.0008    constr:    0.0000
     atom:   31    charge:    2.0825    magn:    0.0006    constr:    0.0000
     atom:   32    charge:    2.0829    magn:    0.0065    constr:    0.0000
     atom:   33    charge:    2.0624    magn:    0.0010    constr:    0.0000
     atom:   34    charge:    3.1239    magn:   -0.0000    constr:    0.0000
     atom:   35    charge:    2.0875    magn:    0.0000    constr:    0.0000
     atom:   36    charge:    2.0847    magn:    0.0001    constr:    0.0000
     atom:   37    charge:    2.0847    magn:    0.0001    constr:    0.0000
     atom:   38    charge:    3.1200    magn:    0.0000    constr:    0.0000
     atom:   39    charge:    2.0839    magn:    0.0002    constr:    0.0000
     atom:   40    charge:    2.0756    magn:   -0.0001    constr:    0.0000
     atom:   41    charge:    2.0870    magn:   -0.0000    constr:    0.0000
     atom:   42    charge:    3.1151    magn:   -0.0002    constr:    0.0000
     atom:   43    charge:    2.0803    magn:    0.0032    constr:    0.0000
     atom:   44    charge:    2.0851    magn:    0.0010    constr:    0.0000
     atom:   45    charge:    2.0858    magn:    0.0005    constr:    0.0000
     atom:   46    charge:    3.1147    magn:   -0.0007    constr:    0.0000
     atom:   47    charge:    2.0807    magn:    0.0046    constr:    0.0000
     atom:   48    charge:    2.0837    magn:    0.0134    constr:    0.0000
     atom:   49    charge:    2.0518    magn:    0.2390    constr:    0.0000
     atom:   50    charge:    0.6694    magn:    0.0551    constr:    0.0000
     atom:   51    charge:    0.4218    magn:    0.0008    constr:    0.0000
     atom:   52    charge:    0.4137    magn:    0.0009    constr:    0.0000
     atom:   53    charge:    0.3673    magn:    0.0235    constr:    0.0000
     atom:   54    charge:    0.4230    magn:    0.0005    constr:    0.0000

     total cpu time spent up to now is     3058.0 secs

     total energy              =   -3021.14964832 Ry
     Harris-Foulkes estimate   =   -3021.14964838 Ry
     estimated scf accuracy    <       0.00000121 Ry

     total magnetization       =     1.06 Bohr mag/cell
     absolute magnetization    =     1.23 Bohr mag/cell

     iteration # 10     ecut=    40.42 Ry     beta=0.10
     Davidson diagonalization with overlap
     ethr =  3.04E-10,  avg # of iterations =  3.0

     negative rho (up, down):  1.188E-02 1.195E-02
 
     Magnetic moment per site:
     atom:    1    charge:    3.1244    magn:   -0.0001    constr:    0.0000
     atom:    2    charge:    2.0897    magn:    0.0001    constr:    0.0000
     atom:    3    charge:    3.1198    magn:   -0.0000    constr:    0.0000
     atom:    4    charge:    2.0867    magn:   -0.0001    constr:    0.0000
     atom:    5    charge:    3.1161    magn:   -0.0003    constr:    0.0000
     atom:    6    charge:    2.0795    magn:    0.0022    constr:    0.0000
     atom:    7    charge:    3.1166    magn:   -0.0052    constr:    0.0000
     atom:    8    charge:    2.0793    magn:    0.0247    constr:    0.0000
     atom:    9    charge:    3.1244    magn:   -0.0001    constr:    0.0000
     atom:   10    charge:    2.0898    magn:    0.0001    constr:    0.0000
     atom:   11    charge:    3.1198    magn:   -0.0000    constr:    0.0000
     atom:   12    charge:    2.0870    magn:   -0.0000    constr:    0.0000
     atom:   13    charge:    3.1150    magn:   -0.0002    constr:    0.0000
     atom:   14    charge:    2.0939    magn:    0.0022    constr:    0.0000
     atom:   15    charge:    3.1184    magn:   -0.0008    constr:    0.0000
     atom:   16    charge:    2.0828    magn:    0.0047    constr:    0.0000
     atom:   17    charge:    2.0624    magn:    0.0008    constr:    0.0000
     atom:   18    charge:    3.1239    magn:   -0.0000    constr:    0.0000
     atom:   19    charge:    2.0875    magn:    0.0000    constr:    0.0000
     atom:   20    charge:    2.0847    magn:    0.0001    constr:    0.0000
     atom:   21    charge:    2.0847    magn:    0.0001    constr:    0.0000
     atom:   22    charge:    3.1199    magn:    0.0000    constr:    0.0000
     atom:   23    charge:    2.0908    magn:    0.0003    constr:    0.0000
     atom:   24    charge:    2.0754    magn:   -0.0000    constr:    0.0000
     atom:   25    charge:    2.0867    magn:    0.0000    constr:    0.0000
     atom:   26    charge:    3.1127    magn:   -0.0003    constr:    0.0000
     atom:   27    charge:    2.0803    magn:    0.0027    constr:    0.0000
     atom:   28    charge:    2.0839    magn:    0.0008    constr:    0.0000
     atom:   29    charge:    2.0860    magn:    0.0009    constr:    0.0000
     atom:   30    charge:    3.1171    magn:   -0.0008    constr:    0.0000
     atom:   31    charge:    2.0826    magn:    0.0006    constr:    0.0000
     atom:   32    charge:    2.0829    magn:    0.0065    constr:    0.0000
     atom:   33    charge:    2.0624    magn:    0.0008    constr:    0.0000
     atom:   34    charge:    3.1239    magn:   -0.0000    constr:    0.0000
     atom:   35    charge:    2.0876    magn:    0.0000    constr:    0.0000
     atom:   36    charge:    2.0847    magn:    0.0001    constr:    0.0000
     atom:   37    charge:    2.0847    magn:    0.0001    constr:    0.0000
     atom:   38    charge:    3.1200    magn:    0.0000    constr:    0.0000
     atom:   39    charge:    2.0839    magn:    0.0002    constr:    0.0000
     atom:   40    charge:    2.0756    magn:   -0.0001    constr:    0.0000
     atom:   41    charge:    2.0870    magn:   -0.0000    constr:    0.0000
     atom:   42    charge:    3.1151    magn:   -0.0003    constr:    0.0000
     atom:   43    charge:    2.0803    magn:    0.0032    constr:    0.0000
     atom:   44    charge:    2.0851    magn:    0.0010    constr:    0.0000
     atom:   45    charge:    2.0858    magn:    0.0006    constr:    0.0000
     atom:   46    charge:    3.1148    magn:   -0.0007    constr:    0.0000
     atom:   47    charge:    2.0807    magn:    0.0046    constr:    0.0000
     atom:   48    charge:    2.0837    magn:    0.0134    constr:    0.0000
     atom:   49    charge:    2.0517    magn:    0.2390    constr:    0.0000
     atom:   50    charge:    0.6693    magn:    0.0551    constr:    0.0000
     atom:   51    charge:    0.4218    magn:    0.0008    constr:    0.0000
     atom:   52    charge:    0.4137    magn:    0.0009    constr:    0.0000
     atom:   53    charge:    0.3674    magn:    0.0235    constr:    0.0000
     atom:   54    charge:    0.4230    magn:    0.0005    constr:    0.0000

     total cpu time spent up to now is     3303.7 secs

     End of self-consistent calculation

 ------ SPIN UP ------------


          k = 0.0000 0.0000 0.0000 ( 34665 PWs)   bands (ev):

   -58.3023 -58.2672 -57.3842 -57.3785 -57.3455 -57.3077 -57.2564 -57.0871
   -57.0608 -57.0555 -57.0171 -56.9183 -56.8926 -56.8830 -56.7989 -56.7605
   -34.7475 -34.5709 -34.5421 -34.5088 -34.4138 -34.3570 -33.8792 -33.8668
   -33.7487 -33.6757 -33.6338 -33.5908 -33.5588 -33.5517 -33.5457 -33.5393
   -33.5275 -33.5127 -33.4874 -33.4858 -33.4714 -33.4693 -33.4670 -33.4479
   -33.3377 -33.3338 -33.3282 -33.3255 -33.3123 -33.2845 -33.2793 -33.2590
   -33.2387 -33.2334 -33.2333 -33.2239 -33.1939 -33.1733 -33.1375 -33.1369
   -33.0983 -33.0769 -33.0469 -33.0265 -33.0133 -32.9878 -32.9452 -32.8802
   -18.4676 -18.0346 -17.8103 -17.7100 -17.5493 -17.5280 -17.4837 -17.3823
   -17.3555 -17.2555 -17.0433 -17.0226 -17.0147 -16.9818 -16.9211 -16.8526
   -16.8338 -16.7962 -16.7382 -16.7057 -16.6872 -16.6546 -16.5913 -16.5868
   -16.4641 -16.4163 -16.3976 -16.3593 -16.3236 -16.1454 -16.0848 -15.5976
   -15.5367 -11.1828  -6.0461  -5.4948  -5.2807  -5.2008  -5.0919  -4.9892
    -4.9799  -4.9093  -4.8768  -4.7305  -4.6481  -4.5978  -4.5837  -4.5084
    -4.4272  -4.4118  -4.3505  -4.3144  -4.2320  -4.2170  -4.1955  -4.1404
    -4.0291  -4.0220  -3.9779  -3.9063  -3.8902  -3.8841  -3.8815  -3.8246
    -3.7747  -3.7501  -3.7030  -3.6611  -3.6296  -3.5792  -3.5398  -3.5260
    -3.5165  -3.4176  -3.4060  -3.3582  -3.2708  -3.2307  -3.1855  -3.0850
    -2.9196  -2.8947  -2.8487  -2.8011  -2.7438  -2.6918  -2.6703  -2.6600
    -2.6314  -2.5347  -2.4828  -2.4367  -2.3757  -2.3303  -2.2456  -2.2272
    -2.2228  -2.1579  -2.0677  -2.0391  -1.9957  -1.9572  -1.9277  -1.8965
    -1.8510  -1.7352  -1.6913  -1.6658  -1.6383  -1.6282  -1.5837  -1.5010
    -1.4184  -1.3647  -1.3504  -1.3353  -1.3116  -1.2671  -1.2213  -1.1683
    -1.1576  -1.1083  -1.1056  -1.0887  -1.0606  -0.9775  -0.8710  -0.8288
    -0.8062  -0.6909  -0.6847  -0.6218  -0.5499  -0.5086  -0.4809  -0.1842
     1.0286   1.1254   1.4202   1.6986   1.8067   1.9248   1.9721   2.0188
     2.0489   2.1363   2.2130   2.2336   2.2799   2.3986   2.4738   2.4877
     2.4949   2.5219   2.6245   2.6698   2.6744   2.6905   2.7136   2.8303
     2.8451   2.8897   2.9041   2.9560   2.9717   3.0247   3.0337   3.0547
     3.1087   3.1635   3.2021   3.2033   3.2508   3.2588   3.4147   3.4481
     3.4811   3.5237   3.6009   3.6294   3.6738   3.7177   3.8318   3.9590
     4.1067   4.1377   4.3294   4.4755   4.5970   4.7098   4.7876   4.8378
     5.0883   5.1360   5.2113   5.3562   5.4001   5.4066   5.4251   5.4362
     5.4454   5.5259   5.5575   5.6649   5.7216   5.7365   5.9094   5.9182
     5.9585   6.0780   6.0974   6.1395   6.2194   6.2993   6.4251   6.4929
     6.5457   6.5628   6.7850   6.8163   7.2126   7.9171   8.1527   8.1793
     8.3307   8.3917   8.6271   8.7108   8.7551   8.9574   9.1458   9.2381
     9.2815   9.4438   9.6192

          k = 0.0000 0.0280 0.0000 ( 34717 PWs)   bands (ev):

   -58.2999 -58.2696 -57.3824 -57.3768 -57.3478 -57.3088 -57.2560 -57.0869
   -57.0609 -57.0539 -57.0192 -56.9159 -56.8928 -56.8854 -56.7965 -56.7631
   -34.7221 -34.5689 -34.5440 -34.5026 -34.4204 -34.3841 -33.8538 -33.8413
   -33.7279 -33.6694 -33.6276 -33.5883 -33.5655 -33.5481 -33.5400 -33.5321
   -33.5268 -33.5146 -33.5114 -33.4942 -33.4864 -33.4698 -33.4612 -33.4414
   -33.3319 -33.3262 -33.3127 -33.3103 -33.3073 -33.3010 -33.2769 -33.2574
   -33.2435 -33.2352 -33.2340 -33.2232 -33.1996 -33.1958 -33.1437 -33.1309
   -33.1101 -33.0735 -33.0531 -33.0265 -33.0130 -32.9926 -32.9726 -32.9089
   -18.4093 -17.9749 -17.7603 -17.6798 -17.6043 -17.5047 -17.4347 -17.3702
   -17.3243 -17.2862 -17.0943 -17.0013 -16.9935 -16.9708 -16.9243 -16.8738
   -16.7946 -16.7718 -16.7591 -16.7337 -16.7051 -16.6796 -16.6161 -16.5648
   -16.4782 -16.4416 -16.4044 -16.3826 -16.3558 -16.1642 -16.1265 -15.6116
   -15.5622 -11.1837  -5.9607  -5.4107  -5.2014  -5.1302  -5.0218  -4.9513
    -4.9230  -4.8897  -4.8057  -4.7274  -4.6666  -4.6517  -4.5247  -4.5138
    -4.4147  -4.3749  -4.3610  -4.3212  -4.2558  -4.2117  -4.1975  -4.1758
    -4.0978  -4.0658  -4.0152  -3.9998  -3.9764  -3.9692  -3.9200  -3.8533
    -3.8124  -3.7632  -3.7518  -3.7140  -3.6796  -3.6561  -3.5526  -3.4364
    -3.4006  -3.3197  -3.3032  -3.2984  -3.2659  -3.1217  -3.1020  -2.9428
    -2.9019  -2.8804  -2.8001  -2.7461  -2.7421  -2.7188  -2.6863  -2.6495
    -2.5959  -2.5153  -2.4557  -2.4401  -2.4136  -2.2772  -2.2531  -2.2208
    -2.2102  -2.1510  -2.1424  -2.0253  -1.9822  -1.9555  -1.9234  -1.9111
    -1.8710  -1.7652  -1.7556  -1.7166  -1.6778  -1.6078  -1.5801  -1.5697
    -1.4993  -1.4582  -1.3887  -1.3762  -1.3729  -1.3563  -1.2824  -1.2691
    -1.2328  -1.1726  -1.1397  -1.0679  -0.9910  -0.9509  -0.9245  -0.8946
    -0.8741  -0.8364  -0.7272  -0.5971  -0.5706  -0.5568  -0.5369  -0.2253
     1.1612   1.1663   1.4214   1.8349   1.8792   1.8966   1.9293   2.0056
     2.0641   2.0822   2.3033   2.3114   2.3443   2.4613   2.4973   2.5178
     2.5255   2.5473   2.5522   2.6006   2.7178   2.7351   2.8053   2.8170
     2.8389   2.9035   2.9397   2.9682   2.9846   2.9975   3.0184   3.0694
     3.0897   3.1258   3.1795   3.2381   3.2504   3.3307   3.4394   3.4802
     3.5157   3.5469   3.5678   3.5916   3.6469   3.6705   3.7901   3.9111
     4.0610   4.2049   4.2857   4.5289   4.7078   4.7111   4.8177   4.9129
     5.1151   5.1764   5.2584   5.3060   5.3761   5.4153   5.4381   5.4814
     5.5103   5.5284   5.5518   5.6644   5.7073   5.7168   5.8256   5.8870
     5.9484   5.9951   6.0356   6.0542   6.1841   6.2538   6.3917   6.4366
     6.4544   6.5543   6.7248   6.8191   7.3173   7.4559   7.9829   8.0584
     8.3441   8.4994   8.5149   8.6945   8.7757   8.9871   9.1046   9.3076
     9.3664   9.4410   9.5126

          k = 0.0000 0.0560 0.0000 ( 34721 PWs)   bands (ev):

   -58.2935 -58.2760 -57.3790 -57.3717 -57.3542 -57.3110 -57.2552 -57.0865
   -57.0613 -57.0493 -57.0241 -56.9095 -56.8933 -56.8918 -56.7898 -56.7698
   -34.6522 -34.5636 -34.5492 -34.4854 -34.4571 -34.4380 -33.7840 -33.7719
   -33.6772 -33.6525 -33.6109 -33.5887 -33.5879 -33.5820 -33.5673 -33.5640
   -33.5359 -33.5268 -33.5096 -33.4910 -33.4679 -33.4632 -33.4596 -33.4072
   -33.3664 -33.3219 -33.3193 -33.3042 -33.2783 -33.2683 -33.2530 -33.2527
   -33.2518 -33.2430 -33.2399 -33.2218 -33.2154 -33.2053 -33.1610 -33.1295
   -33.1147 -33.0706 -33.0697 -33.0466 -33.0260 -33.0128 -33.0046 -32.9794
   -18.2481 -17.8103 -17.7881 -17.6304 -17.5971 -17.4070 -17.3879 -17.3698
   -17.3039 -17.2619 -17.2275 -17.0408 -16.9831 -16.9174 -16.9139 -16.8964
   -16.8371 -16.8132 -16.7248 -16.7014 -16.6958 -16.6704 -16.6194 -16.5575
   -16.5108 -16.5055 -16.4492 -16.4375 -16.4112 -16.2301 -16.2069 -15.6401
   -15.6159 -11.1856  -5.7213  -5.1778  -5.0421  -4.9852  -4.9487  -4.9058
    -4.8448  -4.8286  -4.8115  -4.7668  -4.7295  -4.5500  -4.5045  -4.4618
    -4.3901  -4.3890  -4.3474  -4.3164  -4.3020  -4.2838  -4.2460  -4.2097
    -4.2051  -4.1882  -4.1268  -4.0555  -4.0119  -3.9746  -3.9621  -3.9050
    -3.8738  -3.8127  -3.7527  -3.6988  -3.6416  -3.5402  -3.4084  -3.4014
    -3.3607  -3.2827  -3.2432  -3.1331  -3.0859  -3.0674  -3.0358  -3.0075
    -2.9642  -2.9539  -2.8222  -2.7932  -2.7351  -2.6916  -2.6461  -2.5533
    -2.4795  -2.4712  -2.4375  -2.3513  -2.2983  -2.2928  -2.2171  -2.1843
    -2.1495  -2.1353  -2.1154  -2.0829  -2.0501  -2.0060  -1.9914  -1.9656
    -1.9296  -1.8878  -1.8774  -1.8570  -1.8084  -1.7481  -1.6528  -1.6034
    -1.5917  -1.5741  -1.5085  -1.4698  -1.4481  -1.4423  -1.4275  -1.3728
    -1.2882  -1.2673  -1.2108  -1.1876  -1.0860  -0.9972  -0.9738  -0.9404
    -0.8558  -0.8324  -0.7340  -0.7120  -0.6168  -0.5784  -0.5606  -0.3287
     1.2901   1.4319   1.5045   1.7258   1.8024   1.8954   1.9660   2.0639
     2.1445   2.2801   2.2852   2.3369   2.4209   2.4903   2.5096   2.5355
     2.5764   2.6159   2.6664   2.7128   2.7567   2.7741   2.8052   2.8534
     2.8690   2.8878   2.8977   2.9672   3.0138   3.0320   3.0409   3.0677
     3.1288   3.1621   3.1855   3.2639   3.3121   3.3435   3.3904   3.4384
     3.4757   3.4917   3.5672   3.6155   3.6782   3.6896   3.7289   3.8051
     3.9278   4.1630   4.3274   4.6563   4.7467   4.8470   4.9386   5.0764
     5.0826   5.1798   5.2862   5.3377   5.4060   5.4415   5.4749   5.5037
     5.5042   5.5656   5.5854   5.6517   5.6569   5.7571   5.7762   5.8137
     5.8417   5.8712   5.8923   5.9353   6.1214   6.1609   6.2992   6.3693
     6.4268   6.4454   6.7225   6.7516   6.9933   7.1965   7.6090   7.7429
     8.1955   8.3732   8.6986   8.8198   8.8277   8.8787   9.1781   9.3361
     9.4123   9.5992   9.7058

          k = 0.0000-0.0840 0.0000 ( 34678 PWs)   bands (ev):

   -58.2855 -58.2841 -57.3774 -57.3653 -57.3610 -57.3122 -57.2548 -57.0863
   -57.0616 -57.0460 -57.0275 -56.9010 -56.9003 -56.8935 -56.7830 -56.7766
   -34.5572 -34.5563 -34.5553 -34.5548 -34.4624 -34.4612 -33.7001 -33.6870
   -33.6834 -33.6445 -33.6432 -33.6375 -33.6058 -33.5897 -33.5857 -33.5749
   -33.5344 -33.5287 -33.5091 -33.5003 -33.4648 -33.4583 -33.3965 -33.3813
   -33.3770 -33.3609 -33.3232 -33.3187 -33.3011 -33.2705 -33.2574 -33.2485
   -33.2465 -33.2460 -33.2217 -33.2185 -33.1701 -33.1462 -33.1454 -33.1374
   -33.1249 -33.1224 -33.0926 -33.0920 -33.0265 -33.0183 -33.0154 -33.0094
   -18.0230 -18.0223 -17.5904 -17.5812 -17.5074 -17.4838 -17.4835 -17.3931
   -17.2561 -17.2150 -17.1273 -17.1021 -17.0704 -17.0351 -16.8881 -16.8427
   -16.8057 -16.8054 -16.8040 -16.6726 -16.6108 -16.6076 -16.6012 -16.5772
   -16.5450 -16.5226 -16.5053 -16.4732 -16.4641 -16.2725 -16.2484 -15.6494
   -15.6494 -11.1865  -5.3817  -5.3815  -4.9000  -4.8855  -4.8845  -4.8716
    -4.8495  -4.7679  -4.7564  -4.7172  -4.6565  -4.6021  -4.5647  -4.5582
    -4.4893  -4.4671  -4.4439  -4.3897  -4.3738  -4.2637  -4.2514  -4.2437
    -4.1564  -4.1146  -4.0644  -4.0312  -3.9906  -3.9012  -3.8818  -3.8699
    -3.7783  -3.7304  -3.7014  -3.6716  -3.6619  -3.6466  -3.6211  -3.4095
    -3.3585  -3.3454  -3.1464  -3.0750  -3.0691  -3.0300  -2.9269  -2.9245
    -2.9155  -2.8475  -2.8246  -2.7894  -2.7714  -2.6904  -2.6673  -2.6404
    -2.5197  -2.5004  -2.4178  -2.4015  -2.3935  -2.3713  -2.3083  -2.2402
    -2.2250  -2.1629  -2.1167  -2.0532  -2.0026  -1.9774  -1.9733  -1.9681
    -1.9637  -1.9393  -1.8348  -1.7960  -1.7758  -1.7259  -1.6897  -1.6541
    -1.6384  -1.6076  -1.5890  -1.5139  -1.5051  -1.4628  -1.4432  -1.4191
    -1.3796  -1.3288  -1.2753  -1.1757  -1.1354  -1.1137  -1.0876  -1.0545
    -0.8355  -0.8121  -0.6147  -0.6057  -0.6007  -0.5926  -0.5437  -0.4950
     1.4863   1.4890   1.6386   1.6393   1.7183   1.7191   2.0892   2.0900
     2.1533   2.2082   2.3787   2.4137   2.4502   2.4962   2.5439   2.5512
     2.6586   2.6705   2.6799   2.6936   2.7454   2.7561   2.8132   2.8164
     2.9161   2.9512   2.9950   3.0226   3.0276   3.0306   3.0370   3.0405
     3.0477   3.2288   3.2385   3.2692   3.3015   3.3435   3.3699   3.4001
     3.4375   3.4522   3.5070   3.6295   3.6987   3.7383   3.7529   3.7944
     3.8498   4.0399   4.3798   4.7608   4.8363   4.8699   4.8706   5.0564
     5.1480   5.2279   5.3185   5.3344   5.3690   5.4120   5.4724   5.5475
     5.5688   5.6006   5.6035   5.6906   5.7031   5.7224   5.7331   5.7467
     5.7716   5.8123   5.8458   5.9461   6.0278   6.1616   6.2778   6.3816
     6.4634   6.4787   6.5843   6.6069   6.9301   6.9788   7.4460   7.6099
     8.0272   8.2330   8.7049   8.9293   9.1111   9.2189   9.3496   9.3511
     9.4417   9.6171   9.7037

          k = 0.0253 0.0000 0.0000 ( 34707 PWs)   bands (ev):

   -58.3023 -58.2672 -57.3838 -57.3789 -57.3455 -57.3077 -57.2563 -57.0871
   -57.0606 -57.0558 -57.0171 -56.9183 -56.8926 -56.8830 -56.7990 -56.7605
   -34.7478 -34.5709 -34.5421 -34.5080 -34.4139 -34.3571 -33.8794 -33.8687
   -33.7488 -33.6678 -33.6337 -33.5909 -33.5622 -33.5520 -33.5480 -33.5395
   -33.5276 -33.5160 -33.4870 -33.4859 -33.4702 -33.4676 -33.4655 -33.4481
   -33.3376 -33.3348 -33.3260 -33.3247 -33.3093 -33.2845 -33.2794 -33.2602
   -33.2441 -33.2334 -33.2329 -33.2238 -33.1939 -33.1735 -33.1369 -33.1360
   -33.0978 -33.0769 -33.0470 -33.0305 -33.0123 -32.9878 -32.9453 -32.8804
   -18.4230 -17.9967 -17.7886 -17.7825 -17.5591 -17.4547 -17.4471 -17.3816
   -17.3600 -17.3193 -17.1045 -17.0362 -17.0107 -16.9768 -16.9239 -16.8901
   -16.8555 -16.7922 -16.7624 -16.7403 -16.6365 -16.5946 -16.5848 -16.5770
   -16.4623 -16.4415 -16.3982 -16.3813 -16.3212 -16.1437 -16.0850 -15.5965
   -15.5366 -11.1827  -5.9212  -5.3883  -5.2126  -5.1972  -5.0720  -5.0222
    -4.9677  -4.9132  -4.8773  -4.7324  -4.6960  -4.5816  -4.5778  -4.5103
    -4.4825  -4.4069  -4.3255  -4.2615  -4.2561  -4.1971  -4.1924  -4.1032
    -4.0276  -3.9949  -3.9878  -3.9133  -3.8976  -3.8559  -3.8459  -3.7990
    -3.7357  -3.7021  -3.6753  -3.5991  -3.5617  -3.5517  -3.5213  -3.4991
    -3.4426  -3.4140  -3.3165  -3.3132  -3.2715  -3.2555  -3.2351  -3.1494
    -3.0104  -2.8999  -2.8360  -2.8158  -2.7695  -2.7409  -2.6988  -2.6680
    -2.6095  -2.5558  -2.5375  -2.4956  -2.4324  -2.3795  -2.3304  -2.2639
    -2.2450  -2.1962  -2.0881  -2.0432  -2.0020  -1.9537  -1.8808  -1.8480
    -1.8248  -1.7956  -1.7102  -1.6221  -1.5764  -1.5684  -1.5425  -1.5060
    -1.4750  -1.4304  -1.4260  -1.3904  -1.3316  -1.3013  -1.2892  -1.2184
    -1.1839  -1.1530  -1.1033  -1.0776  -1.0389  -1.0193  -0.9537  -0.9088
    -0.8320  -0.8233  -0.6681  -0.6412  -0.6042  -0.5864  -0.5550  -0.2437
     1.1111   1.1257   1.4193   1.7862   1.8223   1.9075   1.9338   2.0530
     2.0889   2.1209   2.2073   2.2481   2.3414   2.3870   2.4451   2.5091
     2.5312   2.6000   2.6320   2.6513   2.6815   2.7059   2.8155   2.8296
     2.8493   2.8530   2.8947   2.9039   2.9489   3.0308   3.0786   3.1374
     3.1940   3.2059   3.2191   3.2206   3.2453   3.3125   3.4105   3.4453
     3.4920   3.5477   3.5958   3.6379   3.7031   3.7677   3.7888   3.9123
     4.0552   4.1937   4.2675   4.4291   4.5844   4.6268   4.8130   4.8316
     4.9629   4.9874   5.0906   5.1743   5.3057   5.3201   5.4311   5.5231
     5.5610   5.7130   5.7438   5.9087   5.9167   5.9418   5.9635   5.9877
     6.0271   6.0360   6.0731   6.1724   6.2311   6.2645   6.4433   6.4994
     6.5466   6.6147   6.7431   6.8127   7.2582   7.6634   7.7562   8.0214
     8.2294   8.3019   8.3745   8.6818   8.7614   8.9623   9.0870   9.2108
     9.3919   9.4912   9.7693

          k = 0.0253 0.0280 0.0000 ( 34687 PWs)   bands (ev):

   -58.2999 -58.2696 -57.3821 -57.3772 -57.3478 -57.3088 -57.2560 -57.0869
   -57.0607 -57.0541 -57.0192 -56.9159 -56.8928 -56.8854 -56.7965 -56.7631
   -34.7224 -34.5689 -34.5440 -34.5018 -34.4203 -34.3841 -33.8540 -33.8433
   -33.7280 -33.6618 -33.6275 -33.5884 -33.5627 -33.5485 -33.5451 -33.5355
   -33.5273 -33.5155 -33.5139 -33.4938 -33.4864 -33.4638 -33.4616 -33.4420
   -33.3321 -33.3221 -33.3126 -33.3125 -33.3031 -33.3009 -33.2769 -33.2583
   -33.2478 -33.2347 -33.2341 -33.2248 -33.1992 -33.1957 -33.1418 -33.1309
   -33.1105 -33.0735 -33.0531 -33.0286 -33.0133 -32.9926 -32.9726 -32.9089
   -18.3656 -17.9384 -17.7711 -17.7349 -17.5185 -17.5162 -17.4081 -17.3635
   -17.3466 -17.3148 -17.1089 -17.0657 -16.9939 -16.9629 -16.9136 -16.8728
   -16.8260 -16.8003 -16.7908 -16.7287 -16.6659 -16.6620 -16.6089 -16.5456
   -16.4838 -16.4612 -16.4062 -16.4012 -16.3528 -16.1624 -16.1271 -15.6107
   -15.5623 -11.1836  -5.8362  -5.3049  -5.1395  -5.1234  -4.9888  -4.9513
    -4.9190  -4.8997  -4.8162  -4.6934  -4.6724  -4.6312  -4.5291  -4.4935
    -4.4349  -4.3971  -4.3087  -4.2896  -4.2397  -4.2044  -4.1790  -4.1511
    -4.1224  -4.0906  -4.0280  -3.9933  -3.9502  -3.9372  -3.8946  -3.8195
    -3.7860  -3.7510  -3.7199  -3.6859  -3.6442  -3.6090  -3.5211  -3.3987
    -3.3424  -3.3206  -3.3109  -3.2627  -3.2325  -3.1871  -3.1125  -3.0919
    -2.9257  -2.8902  -2.8360  -2.7750  -2.7456  -2.7067  -2.6744  -2.6355
    -2.6060  -2.5191  -2.4962  -2.4663  -2.4469  -2.3788  -2.3257  -2.3010
    -2.2241  -2.1842  -2.1250  -2.0606  -2.0109  -1.9500  -1.9331  -1.9043
[...]
    -1.7260  -1.5035  -1.4620  -1.4509  -1.4317  -1.3943  -1.3150  -1.1517
    -1.1409  -1.0840  -1.0669  -1.0508  -0.9667  -0.9077  -0.8683  -0.7836
    -0.7300  -0.7231  -0.6937  -0.6668  -0.5918  -0.5699  -0.5563   0.3064
     1.6053   1.6088   1.6213   1.6267   1.9691   1.9699   2.0988   2.0998
     2.2825   2.3032   2.3165   2.3982   2.4212   2.4914   2.5772   2.6374
     2.6593   2.7039   2.7874   2.8207   2.8779   2.9296   2.9516   2.9795
     2.9943   3.0026   3.0435   3.1016   3.1161   3.2130   3.2385   3.2477
     3.2634   3.2870   3.3446   3.3908   3.4041   3.4097   3.4658   3.4771
     3.4872   3.5152   3.5297   3.5835   3.6407   3.6569   3.7802   3.8810
     3.9171   3.9271   4.1441   4.1445   4.5941   4.6237   4.6461   4.7314
     4.8864   4.9026   4.9355   5.0856   5.1644   5.1693   5.1887   5.4502
     5.6771   5.6860   5.6973   5.9301   5.9355   5.9693   6.0192   6.0223
     6.0971   6.1095   6.1778   6.2697   6.2744   6.2820   6.3868   6.4641
     6.5026   6.6094   7.0479   7.2140   7.3314   7.3938   7.5543   7.5885
     7.7142   7.7694   7.9187   8.1073   8.2952   8.3400   8.4465   8.8664
     9.0079   9.0670   9.2111

          k =-0.0253 0.0280 0.0000 ( 34687 PWs)   bands (ev):

   -58.3001 -58.2698 -57.3821 -57.3771 -57.3478 -57.3089 -57.2568 -57.0909
   -57.0620 -57.0553 -57.0204 -56.9167 -56.9167 -56.8862 -56.8000 -56.7667
   -34.7226 -34.5691 -34.5442 -34.5020 -34.4205 -34.3843 -33.8540 -33.8434
   -33.7288 -33.6618 -33.6275 -33.5886 -33.5626 -33.5486 -33.5451 -33.5362
   -33.5281 -33.5156 -33.5139 -33.4938 -33.4873 -33.4643 -33.4631 -33.4443
   -33.3329 -33.3238 -33.3162 -33.3134 -33.3083 -33.3022 -33.2784 -33.2590
   -33.2484 -33.2355 -33.2354 -33.2266 -33.2083 -33.1998 -33.1617 -33.1316
   -33.1284 -33.0768 -33.0539 -33.0362 -33.0174 -32.9959 -32.9734 -32.9116
   -18.3654 -17.9361 -17.7708 -17.7286 -17.5179 -17.5114 -17.3702 -17.3633
   -17.3400 -17.3102 -17.1064 -17.0635 -16.9788 -16.9338 -16.8678 -16.8255
   -16.7871 -16.7450 -16.7275 -16.6641 -16.6576 -16.5775 -16.5388 -16.4801
   -16.4560 -16.4005 -16.3605 -16.3427 -16.1520 -16.1178 -15.8779 -15.6070
   -15.5583 -10.7790  -5.8362  -5.3046  -5.1386  -5.1203  -4.9886  -4.9476
    -4.9087  -4.8196  -4.6934  -4.6725  -4.6313  -4.5311  -4.4932  -4.4366
    -4.4031  -4.3085  -4.2850  -4.2451  -4.1960  -4.1780  -4.1368  -4.1219
    -4.0887  -4.0414  -4.0034  -3.9865  -3.9491  -3.9084  -3.8776  -3.7946
    -3.7787  -3.7191  -3.6929  -3.6207  -3.6019  -3.5764  -3.4898  -3.3874
    -3.3406  -3.3154  -3.2883  -3.2585  -3.2193  -3.1768  -3.1071  -3.0913
    -2.9154  -2.8776  -2.8175  -2.7730  -2.7168  -2.6814  -2.6694  -2.6125
    -2.5826  -2.5043  -2.4949  -2.4376  -2.4045  -2.3536  -2.2833  -2.2608
    -2.2085  -2.1877  -2.0996  -2.0378  -1.9550  -1.9361  -1.9116  -1.8459
    -1.8346  -1.7864  -1.7409  -1.6803  -1.6309  -1.5904  -1.5577  -1.5063
    -1.4720  -1.4311  -1.4023  -1.3766  -1.3574  -1.3414  -1.3100  -1.2860
    -1.2006  -1.1207  -1.0594  -1.0059  -0.9823  -0.9491  -0.9248  -0.8804
    -0.8384  -0.8157  -0.6271  -0.6052  -0.5810  -0.5175  -0.2604   0.3292
     1.1571   1.2508   1.4348   1.8241   1.8635   1.9307   1.9671   2.0346
     2.0456   2.1948   2.3056   2.3514   2.3928   2.4360   2.4593   2.5092
     2.5294   2.5535   2.5944   2.6548   2.7026   2.7270   2.7823   2.8371
     2.8818   2.9192   2.9357   2.9791   2.9960   3.0198   3.0457   3.0987
     3.1756   3.1962   3.2387   3.2638   3.2995   3.3417   3.4351   3.4701
     3.5001   3.5626   3.6166   3.6473   3.6689   3.7492   3.8267   3.8703
     4.0172   4.2134   4.2894   4.4411   4.6296   4.7275   4.8490   4.8662
     5.0066   5.0304   5.1178   5.2032   5.2461   5.3606   5.4655   5.5532
     5.6582   5.6998   5.7169   5.8079   5.8546   5.8883   5.9143   5.9367
     5.9716   5.9945   6.0690   6.1249   6.1801   6.2864   6.4033   6.4534
     6.4669   6.5842   6.7542   6.8101   7.3744   7.4884   7.7835   7.8879
     8.0828   8.2275   8.4900   8.5308   8.7818   8.8884   9.0757   9.3044
     9.3748   9.5258   9.6082

          k =-0.0253 0.0560 0.0000 ( 34699 PWs)   bands (ev):

   -58.2937 -58.2762 -57.3789 -57.3718 -57.3542 -57.3111 -57.2560 -57.0904
   -57.0625 -57.0507 -57.0253 -56.9172 -56.9103 -56.8926 -56.7933 -56.7734
   -34.6526 -34.5638 -34.5494 -34.4850 -34.4574 -34.4379 -33.7842 -33.7742
   -33.6781 -33.6465 -33.6108 -33.5872 -33.5831 -33.5821 -33.5707 -33.5640
   -33.5376 -33.5276 -33.5143 -33.4923 -33.4795 -33.4618 -33.4515 -33.4102
   -33.3677 -33.3208 -33.3174 -33.3083 -33.2802 -33.2707 -33.2542 -33.2541
   -33.2533 -33.2437 -33.2403 -33.2271 -33.2182 -33.2100 -33.1769 -33.1577
   -33.1154 -33.0739 -33.0705 -33.0473 -33.0332 -33.0197 -33.0079 -32.9822
   -18.2076 -17.7977 -17.7758 -17.6071 -17.5959 -17.4517 -17.3892 -17.3654
   -17.2443 -17.2371 -17.1995 -17.0536 -16.9439 -16.9150 -16.8768 -16.8360
   -16.7931 -16.7394 -16.7287 -16.7134 -16.6795 -16.5934 -16.5437 -16.5270
   -16.4957 -16.4368 -16.4070 -16.4022 -16.2145 -16.1986 -15.8767 -15.6357
   -15.6121 -10.7809  -5.6010  -5.0773  -5.0198  -4.9516  -4.9193  -4.8129
    -4.7909  -4.7536  -4.6834  -4.6688  -4.5216  -4.5047  -4.4417  -4.3911
    -4.3732  -4.3648  -4.3166  -4.2726  -4.2459  -4.2357  -4.2003  -4.1687
    -4.1270  -4.1175  -4.0518  -4.0157  -3.9886  -3.9498  -3.9233  -3.8855
    -3.8257  -3.7941  -3.6997  -3.5989  -3.5798  -3.5273  -3.4521  -3.3801
    -3.3591  -3.2865  -3.1835  -3.1560  -3.1184  -3.1075  -3.0548  -3.0200
    -2.9783  -2.9227  -2.8387  -2.7888  -2.7578  -2.6997  -2.6047  -2.5846
    -2.5204  -2.5063  -2.4527  -2.3873  -2.3717  -2.3135  -2.2957  -2.2546
    -2.1833  -2.1313  -2.1168  -2.0847  -2.0442  -2.0024  -1.9809  -1.9441
    -1.9268  -1.9016  -1.8886  -1.8417  -1.7634  -1.6980  -1.6858  -1.5894
    -1.5682  -1.5399  -1.5142  -1.4805  -1.4400  -1.4087  -1.3796  -1.3205
    -1.2849  -1.2179  -1.1515  -1.0293  -1.0003  -0.9658  -0.9332  -0.8529
    -0.7588  -0.7320  -0.7004  -0.6356  -0.6047  -0.5511  -0.3576   0.3108
     1.2915   1.4734   1.5687   1.7627   1.7781   1.9164   1.9831   2.0628
     2.2698   2.2805   2.3469   2.3832   2.4198   2.4920   2.5270   2.5528
     2.5774   2.6008   2.6585   2.7103   2.7257   2.7691   2.8118   2.8617
     2.8871   2.9221   2.9665   3.0115   3.0375   3.0509   3.0608   3.1144
     3.1636   3.2036   3.2227   3.2936   3.3223   3.3509   3.3825   3.4626
     3.5139   3.5393   3.6172   3.6387   3.6732   3.7313   3.7504   3.8037
     3.8999   4.1038   4.3965   4.5056   4.7206   4.8636   4.9148   4.9656
     5.0002   5.0945   5.1917   5.2124   5.3405   5.3924   5.4386   5.5330
     5.5687   5.6039   5.6565   5.7142   5.7436   5.8085   5.8249   5.8651
     5.9314   5.9470   5.9914   6.0945   6.1375   6.2153   6.3324   6.4348
     6.4591   6.4779   6.7218   6.7730   7.0696   7.2799   7.6681   7.8279
     8.0854   8.2331   8.3148   8.4896   8.7698   8.8946   9.0073   9.1816
     9.3717   9.5504   9.6428

          k =-0.0506 0.0280 0.0000 ( 34685 PWs)   bands (ev):

   -58.3001 -58.2698 -57.3812 -57.3780 -57.3478 -57.3089 -57.2568 -57.0909
   -57.0616 -57.0557 -57.0204 -56.9167 -56.9167 -56.8862 -56.8001 -56.7667
   -34.7233 -34.5691 -34.5442 -34.5004 -34.4204 -34.3843 -33.8544 -33.8474
   -33.7291 -33.6422 -33.6273 -33.5887 -33.5678 -33.5505 -33.5491 -33.5415
   -33.5283 -33.5229 -33.5128 -33.4937 -33.4875 -33.4642 -33.4521 -33.4454
   -33.3330 -33.3174 -33.3157 -33.3132 -33.3036 -33.3018 -33.2786 -33.2610
   -33.2583 -33.2356 -33.2344 -33.2294 -33.2084 -33.1993 -33.1576 -33.1316
   -33.1287 -33.0769 -33.0539 -33.0433 -33.0157 -32.9959 -32.9734 -32.9116
   -18.2570 -17.8589 -17.8464 -17.6958 -17.5825 -17.4505 -17.4328 -17.3393
   -17.3121 -17.2455 -17.1751 -17.0810 -16.9915 -16.9464 -16.9176 -16.8906
   -16.8050 -16.7622 -16.7510 -16.6911 -16.6283 -16.5444 -16.5177 -16.4844
   -16.4560 -16.4014 -16.3845 -16.3475 -16.1485 -16.1182 -15.8787 -15.6051
   -15.5584 -10.7788  -5.5348  -5.1821  -5.1489  -5.1156  -4.9441  -4.8645
    -4.7625  -4.7046  -4.6774  -4.6473  -4.5962  -4.5821  -4.5279  -4.4022
    -4.3582  -4.3182  -4.2369  -4.2104  -4.1759  -4.1601  -4.1435  -4.0509
    -4.0241  -4.0062  -3.9689  -3.9227  -3.8827  -3.8339  -3.8102  -3.7832
    -3.7173  -3.6663  -3.6450  -3.5894  -3.5720  -3.5290  -3.4810  -3.4488
    -3.3748  -3.3630  -3.2998  -3.2601  -3.1992  -3.1445  -3.1129  -3.0530
    -3.0046  -2.9755  -2.8977  -2.8305  -2.7532  -2.6936  -2.6844  -2.6617
    -2.6119  -2.5892  -2.5761  -2.5207  -2.5120  -2.3881  -2.3359  -2.3279
    -2.2652  -2.1966  -2.1809  -2.1541  -2.0759  -2.0057  -1.9994  -1.9385
    -1.9192  -1.8893  -1.8059  -1.7173  -1.7043  -1.6799  -1.6104  -1.5812
    -1.5196  -1.4716  -1.4493  -1.3898  -1.3743  -1.3231  -1.3073  -1.2560
    -1.2399  -1.1162  -1.0532  -1.0302  -1.0059  -0.9521  -0.9200  -0.8721
    -0.8235  -0.7922  -0.7157  -0.6768  -0.6555  -0.5312  -0.3865   0.3140
     1.1441   1.3440   1.4692   1.5700   1.9379   1.9480   1.9704   2.0622
     2.1285   2.2033   2.2581   2.3339   2.4096   2.4439   2.5326   2.5501
     2.5966   2.6552   2.6915   2.7052   2.7590   2.8325   2.8554   2.8860
     2.9443   2.9505   2.9842   2.9887   2.9954   3.1062   3.1131   3.1418
     3.1895   3.2186   3.2930   3.3139   3.3597   3.3870   3.4108   3.4592
     3.4736   3.5513   3.6058   3.6709   3.7465   3.7830   3.8029   3.9042
     3.9624   4.0652   4.1134   4.4107   4.5144   4.6600   4.7519   4.8129
     4.8456   4.9179   4.9703   5.2925   5.3332   5.4157   5.5308   5.5630
     5.6442   5.7708   5.7908   5.8577   5.9017   5.9171   5.9624   6.0583
     6.0980   6.1690   6.2541   6.3375   6.3899   6.4006   6.4468   6.4937
     6.5452   6.5553   6.7141   6.9144   7.0649   7.2172   7.5540   7.6094
     7.7180   8.2085   8.4090   8.4813   8.8665   8.9327   9.0637   9.2161
     9.4220   9.5976   9.6783

          k =-0.0506 0.0560 0.0000 ( 34596 PWs)   bands (ev):

   -58.2937 -58.2762 -57.3785 -57.3722 -57.3542 -57.3111 -57.2560 -57.0904
   -57.0623 -57.0509 -57.0253 -56.9172 -56.9103 -56.8926 -56.7933 -56.7734
   -34.6532 -34.5638 -34.5494 -34.4837 -34.4576 -34.4374 -33.7845 -33.7787
   -33.6783 -33.6307 -33.6106 -33.5864 -33.5848 -33.5819 -33.5651 -33.5640
   -33.5409 -33.5279 -33.5264 -33.4925 -33.4888 -33.4619 -33.4399 -33.4118
   -33.3680 -33.3206 -33.3060 -33.3037 -33.2827 -33.2729 -33.2553 -33.2541
   -33.2529 -33.2435 -33.2399 -33.2371 -33.2188 -33.2104 -33.1763 -33.1534
   -33.1154 -33.0739 -33.0705 -33.0472 -33.0375 -33.0204 -33.0079 -32.9820
   -18.1044 -17.8155 -17.6978 -17.6100 -17.5938 -17.5539 -17.3768 -17.3655
   -17.2152 -17.2029 -17.1138 -17.0915 -16.9740 -16.9085 -16.8639 -16.8391
   -16.8201 -16.8040 -16.7583 -16.7323 -16.7173 -16.6239 -16.5932 -16.5030
   -16.4926 -16.4343 -16.4174 -16.4075 -16.2139 -16.1951 -15.8766 -15.6345
   -15.6125 -10.7807  -5.2983  -4.9883  -4.9376  -4.9296  -4.7797  -4.7721
    -4.7130  -4.6361  -4.5229  -4.5028  -4.4971  -4.4143  -4.3999  -4.3773
    -4.3576  -4.3239  -4.3059  -4.2442  -4.1967  -4.1725  -4.1626  -4.1096
    -4.0995  -4.0533  -4.0410  -3.9885  -3.9748  -3.9000  -3.8807  -3.8270
    -3.7784  -3.7122  -3.6791  -3.6123  -3.5958  -3.5548  -3.4936  -3.4285
    -3.3916  -3.3164  -3.2572  -3.2274  -3.1312  -3.1282  -3.0768  -3.0480
    -2.9923  -2.9742  -2.9544  -2.8989  -2.7964  -2.7600  -2.7454  -2.7026
    -2.6261  -2.5841  -2.5418  -2.5001  -2.4747  -2.4108  -2.3856  -2.3660
    -2.3474  -2.2863  -2.1914  -2.1686  -2.1436  -2.1250  -2.0990  -2.0444
    -2.0096  -1.9679  -1.9407  -1.8671  -1.8449  -1.7781  -1.7272  -1.6532
    -1.5625  -1.5453  -1.5353  -1.4931  -1.4406  -1.3816  -1.3493  -1.3023
    -1.2405  -1.1722  -1.0734  -1.0183  -0.9848  -0.8996  -0.8489  -0.8415
    -0.7895  -0.7027  -0.6887  -0.6672  -0.6520  -0.5492  -0.4715   0.3132
     1.3120   1.5017   1.6504   1.6722   1.8568   2.0079   2.0364   2.0717
     2.2475   2.2602   2.3642   2.3807   2.4371   2.4657   2.5523   2.5893
     2.6545   2.6996   2.7338   2.7485   2.8157   2.8469   2.8752   2.9076
     2.9384   2.9553   3.0109   3.0459   3.0765   3.1177   3.1492   3.1949
     3.1999   3.2543   3.2888   3.3288   3.3380   3.3811   3.4202   3.4713
     3.4855   3.5532   3.5827   3.6452   3.6718   3.7482   3.8083   3.8441
     3.8870   3.9637   4.1568   4.5073   4.6008   4.6203   4.7586   4.8262
     4.8927   4.9691   5.0142   5.1908   5.3060   5.3801   5.4158   5.4481
     5.5983   5.6201   5.6722   5.7209   5.8835   5.9009   5.9915   6.0102
     6.0719   6.1126   6.1732   6.2086   6.3126   6.3402   6.4135   6.4273
     6.5438   6.6174   6.7612   6.8114   7.1716   7.3468   7.4988   7.6165
     7.9355   8.0083   8.1020   8.3695   8.6041   8.7182   8.8019   9.0381
     9.1893   9.3308   9.4340

     the Fermi energy is    -0.2870 ev

!    total energy              =   -3021.14964826 Ry
     Harris-Foulkes estimate   =   -3021.14964849 Ry
     estimated scf accuracy    <       0.00000044 Ry

     The total energy is the sum of the following terms:

     one-electron contribution =  -40438.50012974 Ry
     hartree contribution      =   20290.66813134 Ry
     xc contribution           =    -553.19873528 Ry
     ewald contribution        =   17679.90088193 Ry
     smearing contrib. (-TS)   =      -0.01979651 Ry

     total magnetization       =     1.06 Bohr mag/cell
     absolute magnetization    =     1.23 Bohr mag/cell

     convergence has been achieved in  10 iterations

     Forces acting on atoms (Ry/au):


     negative rho (up, down):  1.188E-02 1.195E-02
     atom    1 type  1   force =     0.00018540   -0.00089939   -0.10468954
     atom    2 type  2   force =     0.00014411    0.00068124    0.04002541
     atom    3 type  1   force =     0.00074991   -0.00175099   -0.02054276
     atom    4 type  2   force =    -0.00326775    0.00312488   -0.00324055
     atom    5 type  1   force =     0.00034693    0.00006684    0.00034146
     atom    6 type  2   force =    -0.00012977   -0.00009484    0.00023136
     atom    7 type  1   force =    -0.00034269   -0.00006612   -0.00011640
     atom    8 type  2   force =    -0.00019866   -0.00023974   -0.00025067
     atom    9 type  1   force =    -0.00003360    0.00056744   -0.10482357
     atom   10 type  2   force =     0.00034873   -0.00021104    0.03599800
     atom   11 type  1   force =     0.00068040    0.00183846    0.00261814
     atom   12 type  2   force =    -0.00519628   -0.00266747   -0.00520497
     atom   13 type  1   force =     0.00041546    0.00009112   -0.00023189
     atom   14 type  2   force =     0.00013051   -0.00007678   -0.00008193
     atom   15 type  1   force =    -0.00010583   -0.00006704   -0.00009043
     atom   16 type  2   force =    -0.00023150    0.00001972   -0.00033955
     atom   17 type  2   force =     0.00001050   -0.00001344    0.06657399
     atom   18 type  1   force =     0.00005882    0.00003109    0.13147592
     atom   19 type  2   force =     0.00017781   -0.00052748   -0.08521888
     atom   20 type  2   force =    -0.05792757    0.00014252   -0.03608227
     atom   21 type  2   force =     0.05781887   -0.00004727   -0.03604257
     atom   22 type  1   force =    -0.00043134    0.00074944    0.08017254
     atom   23 type  2   force =     0.00019908   -0.00004967    0.00002693
     atom   24 type  2   force =     0.00064243    0.00185867   -0.03466859
     atom   25 type  2   force =     0.00414211    0.00332703   -0.00511144
     atom   26 type  1   force =     0.00040896   -0.00004800    0.00006052
     atom   27 type  2   force =    -0.00009883   -0.00012982    0.00009854
     atom   28 type  2   force =     0.00004886   -0.00019487   -0.00002488
     atom   29 type  2   force =     0.00000456   -0.00007437    0.00007300
     atom   30 type  1   force =    -0.00014682   -0.00014476   -0.00003296
     atom   31 type  2   force =     0.00009910   -0.00007940    0.00005100
     atom   32 type  2   force =    -0.00008062   -0.00004020    0.00013027
     atom   33 type  2   force =    -0.00016676    0.00004978    0.06630691
     atom   34 type  1   force =     0.00007792   -0.00003382    0.13125961
     atom   35 type  2   force =     0.00018841   -0.00012947   -0.08483121
     atom   36 type  2   force =    -0.05782290    0.00006560   -0.03569451
     atom   37 type  2   force =     0.05799377   -0.00017386   -0.03609200
     atom   38 type  1   force =    -0.00037538   -0.00020394    0.07984311
     atom   39 type  2   force =     0.00007867   -0.00026171   -0.00009242
     atom   40 type  2   force =     0.00048978    0.00124200   -0.03527718
     atom   41 type  2   force =     0.00588979   -0.00243420   -0.00723367
     atom   42 type  1   force =     0.00024355   -0.00006802    0.00001093
     atom   43 type  2   force =    -0.00019522   -0.00010034    0.00008664
     atom   44 type  2   force =     0.00000130   -0.00015977   -0.00002984
     atom   45 type  2   force =     0.00000755   -0.00017003    0.00005458
     atom   46 type  1   force =    -0.00020668   -0.00009484   -0.00008747
     atom   47 type  2   force =    -0.00011268   -0.00015132    0.00020450
     atom   48 type  2   force =    -0.00006793    0.00010201    0.00029239
     atom   49 type  2   force =    -0.00028092   -0.00003808   -0.00015198
     atom   50 type  3   force =     0.00678347   -0.01051486    0.00990615
     atom   51 type  4   force =     0.00037533   -0.00110283    0.00105071
     atom   52 type  4   force =    -0.00914202    0.01087205   -0.01051289
     atom   53 type  4   force =    -0.00207325   -0.00113407   -0.00121717
     atom   54 type  4   force =    -0.00010709   -0.00063606    0.00112161

     Total force =     0.343140     Total SCF correction =     0.001218
 !ASE

     Writing output data file calc.save
 
     init_run     :     65.74s CPU     79.46s WALL (       1 calls)
     electrons    :   2789.29s CPU   3223.97s WALL (       1 calls)
     forces       :     49.41s CPU     50.81s WALL (       1 calls)

     Called by init_run:
     wfcinit      :     57.59s CPU     70.62s WALL (       1 calls)
     potinit      :      1.37s CPU      1.69s WALL (       1 calls)

     Called by electrons:
     c_bands      :   2446.76s CPU   2822.36s WALL (      11 calls)
     sum_band     :    297.47s CPU    351.49s WALL (      11 calls)
     v_of_rho     :     11.40s CPU     13.86s WALL (      11 calls)
     newd         :     37.30s CPU     40.14s WALL (      11 calls)
     mix_rho      :      0.41s CPU      0.56s WALL (      11 calls)
     vdW_energy   :      2.49s CPU      2.85s WALL (      12 calls)
     vdW_ffts     :      3.02s CPU      3.77s WALL (      24 calls)
     vdW_v        :      1.20s CPU      1.35s WALL (      12 calls)

     Called by c_bands:
     init_us_2    :      6.75s CPU      7.35s WALL (     960 calls)
     cegterg      :   2404.58s CPU   2778.16s WALL (     440 calls)

     Called by *egterg:
     h_psi        :    955.71s CPU   1246.44s WALL (    2005 calls)
     s_psi        :    163.22s CPU    169.09s WALL (    2005 calls)
     g_psi        :      4.79s CPU      4.88s WALL (    1525 calls)
     cdiaghg      :    741.76s CPU    762.03s WALL (    1925 calls)

     Called by h_psi:
     add_vuspsi   :    165.11s CPU    171.03s WALL (    2005 calls)

     General routines
     calbec       :    244.13s CPU    249.38s WALL (    2485 calls)
     fft          :      6.36s CPU      7.93s WALL (     956 calls)
     ffts         :      0.04s CPU      0.06s WALL (      44 calls)
     fftw         :    534.16s CPU    859.78s WALL (  779744 calls)
     interpolate  :      0.34s CPU      0.49s WALL (      44 calls)
     davcio       :      0.01s CPU      0.96s WALL (      40 calls)
 
     Parallel routines
     fft_scatter  :    270.02s CPU    448.39s WALL (  780744 calls)
 
     PWSCF        : 48m26.85s CPU    55m58.21s WALL

 
   This run was terminated on:  14:56: 5  26Feb2018            

=------------------------------------------------------------------------------=
   JOB DONE.
=------------------------------------------------------------------------------=
