  python dir          : /home/vossj/suncat/lib/python2.7/site-packages/espresso
  espresso dir        : /home/vossj/suncat/esdld/espresso-dynpy-beef/bin
  pseudo dir          : /home/alatimer/bin/psp/esp_psp_w_gbrvRu/
  ase-espresso py git : ffa2778-git



     Program PWSCF v.5.1rc2 (svn rev. ) starts on 13Feb2018 at  4:49:26 

     This program is part of the open-source Quantum ESPRESSO suite
     for quantum simulation of materials; please cite
         "P. Giannozzi et al., J. Phys.:Condens. Matter 21 395502 (2009);
          URL http://www.quantum-espresso.org", 
     in publications or presentations arising from this work. More details at
     http://www.quantum-espresso.org/quote

     Parallel version (MPI), running on    16 processors
     R & G space division:  proc/nbgrp/npool/nimage =      16
     Reading input from pw.inp
     Message from routine read_cards :
     DEPRECATED: no units specified in CELL_PARAMETERS card

     Current dimensions of program PWSCF are:
     Max number of different atomic species (ntypx) = 10
     Max number of k-points (npk) =  40000
     Max angular momentum in pseudopotentials (lmaxx) =  3

     **************************************************************************
     Initializing libbeef V0.1.1 with the BEEF-vdW functional.
     Citation: Wellendorff et al., PRB 85, 235149 (2012).
     **************************************************************************


     IMPORTANT: XC functional enforced from input :
     Exchange-correlation      = BEEF ( 1  4 27 13 2)
     Any further DFT definition will be discarded
     Please, verify this is what you really want


     Subspace diagonalization in iterative solution of the eigenvalue problem:
     a serial algorithm will be used

 
     Parallelization info
     --------------------
     sticks:   dense  smooth     PW     G-vecs:    dense   smooth      PW
     Min         281     112     31                68535    17318    2565
     Max         282     113     32                68545    17369    2582
     Sum        4501    1795    503              1096637   277353   41113
 
     Generating pointlists ...
     new r_m :   0.4125 (alat units)  0.7795 (a.u.) for type    1
     new r_m :   0.3995 (alat units)  0.7549 (a.u.) for type    2
     new r_m :   0.4125 (alat units)  0.7795 (a.u.) for type    3
     new r_m :   0.3995 (alat units)  0.7549 (a.u.) for type    4


     bravais-lattice index     =            0
     lattice parameter (alat)  =       1.8897  a.u.
     unit-cell volume          =    7990.9933 (a.u.)^3
     number of atoms/cell      =           54
     number of atomic types    =            4
     number of electrons       =       398.00
     number of Kohn-Sham states=          299
     kinetic-energy cutoff     =      40.4243  Ry
     charge density cutoff     =     404.2426  Ry
     convergence threshold     =      7.3E-07
     mixing beta               =       0.1000
     number of iterations used =           10  plain     mixing
     Exchange-correlation      = BEEF ( 1  4 27 13 2)
     nstep                     =           50


     celldm(1)=   1.889726  celldm(2)=   0.000000  celldm(3)=   0.000000
     celldm(4)=   0.000000  celldm(5)=   0.000000  celldm(6)=   0.000000

     crystal axes: (cart. coord. in units of alat)
               a(1) = (   6.590708   0.000000   0.000000 )  
               a(2) = (   0.000000   5.950229   0.000000 )  
               a(3) = (   0.000000   0.000000  30.195235 )  

     reciprocal axes: (cart. coord. in units 2 pi/alat)
               b(1) = (  0.151729  0.000000  0.000000 )  
               b(2) = (  0.000000  0.168061  0.000000 )  
               b(3) = (  0.000000  0.000000  0.033118 )  


     PseudoPot. # 1 for Ti read from file:
     /home/alatimer/bin/psp/esp_psp_w_gbrvRu/Ti.UPF
     MD5 check sum: 8e4df49b7f0d34bbd5052bf3f5ea0213
     Pseudo is Ultrasoft, Zval = 12.0
     Generated by new atomic code, or converted to UPF format
     Using radial grid of  851 points,  6 beta functions with: 
                l(1) =   0
                l(2) =   0
                l(3) =   1
                l(4) =   1
                l(5) =   2
                l(6) =   2
     Q(r) pseudized with  8 coefficients,  rinner =    1.000   1.000   1.000
                                                       1.000   1.000

     PseudoPot. # 2 for  O read from file:
     /home/alatimer/bin/psp/esp_psp_w_gbrvRu/O.UPF
     MD5 check sum: e057bbcf3229fb5d8c36c0c92f9568b4
     Pseudo is Ultrasoft + core correction, Zval =  6.0
     Generated using "atomic" code by A. Dal Corso  v.5.0.2 svn rev. 9415
     Using radial grid of 1095 points,  4 beta functions with: 
                l(1) =   0
                l(2) =   0
                l(3) =   1
                l(4) =   1
     Q(r) pseudized with 0 coefficients 


     PseudoPot. # 3 for  C read from file:
     /home/alatimer/bin/psp/esp_psp_w_gbrvRu/C.UPF
     MD5 check sum: ab446d787031eba755f1d5ee46644bb0
     Pseudo is Ultrasoft + core correction, Zval =  4.0
     Generated using "atomic" code by A. Dal Corso  v.5.0.2 svn rev. 9415
     Using radial grid of 1073 points,  4 beta functions with: 
                l(1) =   0
                l(2) =   0
                l(3) =   1
                l(4) =   1
     Q(r) pseudized with 0 coefficients 


     PseudoPot. # 4 for  H read from file:
     /home/alatimer/bin/psp/esp_psp_w_gbrvRu/H.UPF
     MD5 check sum: bd57da0722753ddfd9833a65b40bb853
     Pseudo is Ultrasoft, Zval =  1.0
     Generated using "atomic" code by A. Dal Corso  v.5.0.2 svn rev. 9415
     Using radial grid of  929 points,  2 beta functions with: 
                l(1) =   0
                l(2) =   0
     Q(r) pseudized with 0 coefficients 


     vdW kernel table read from file vdW_kernel_table
     MD5 check sum: 095c7af220d748ca6e76c0b4c6cfb241

     atomic species   valence    mass     pseudopotential
        Ti1           12.00    47.88000     Ti( 1.00)
        O1             6.00    15.99940      O( 1.00)
        C1             4.00    12.01100      C( 1.00)
        H1             1.00     1.00794      H( 1.00)

     Starting magnetic structure 
     atomic species   magnetization
        Ti1          0.250
        O1           0.500
        C1           0.750
        H1           0.000

     No symmetry found



   Cartesian axes

     site n.     atom                  positions (alat units)
         1           Ti1 tau(   1) = (   1.6476770   0.7437786   2.6545865  )
         2           O1  tau(   2) = (   1.6476770   2.2313359   3.9361215  )
         3           Ti1 tau(   3) = (   1.6476770   2.2313359   5.9499405  )
         4           O1  tau(   4) = (   0.3661420   0.7437786   5.9499405  )
         5           Ti1 tau(   5) = (   1.7592931   0.7557636   9.1813031  )
         6           O1  tau(   6) = (   1.6162490   2.2572048  10.5951269  )
         7           Ti1 tau(   7) = (   1.5595004   2.2680265  12.4668274  )
         8           O1  tau(   8) = (   0.3709531   0.7738127  12.6996540  )
         9           Ti1 tau(   9) = (   1.6476770   3.7188931   2.6545865  )
        10           O1  tau(  10) = (   1.6476770   5.2064503   3.9361215  )
        11           Ti1 tau(  11) = (   1.6476770   5.2064503   5.9499405  )
        12           O1  tau(  12) = (   0.3661420   3.7188931   5.9499405  )
        13           Ti1 tau(  13) = (   1.7607536   3.7112867   9.1949733  )
        14           O1  tau(  14) = (   1.6133076   5.2250699  10.5465640  )
        15           Ti1 tau(  15) = (   1.6492307   5.2431137  12.3448001  )
        16           O1  tau(  16) = (   0.3719744   3.7598389  12.7007434  )
        17           O1  tau(  17) = (   1.6476770   2.2313359   1.3730516  )
        18           Ti1 tau(  18) = (   4.9430310   2.2313359   2.6545865  )
        19           O1  tau(  19) = (   4.9430310   2.2313359   4.6684056  )
        20           O1  tau(  20) = (   6.2245660   0.7437786   2.6545865  )
        21           O1  tau(  21) = (   3.6614961   0.7437786   2.6545865  )
        22           Ti1 tau(  22) = (   4.9430310   0.7437786   5.9499405  )
        23           O1  tau(  23) = (   1.6387103   2.2391978   8.0037664  )
        24           O1  tau(  24) = (   4.9430310   2.2313359   7.2314755  )
        25           O1  tau(  25) = (   2.9292120   0.7437786   5.9499405  )
        26           Ti1 tau(  26) = (   5.0158092   2.2383949   9.3973727  )
        27           O1  tau(  27) = (   4.9391445   2.2276729  11.2675731  )
        28           O1  tau(  28) = (   6.2094020   0.7514556   9.2742047  )
        29           O1  tau(  29) = (   3.6131301   0.7515640   9.2682932  )
        30           Ti1 tau(  30) = (   4.8940083   0.8207741  12.7348365  )
        31           O1  tau(  31) = (   4.8487174   2.2703822  13.8475395  )
        32           O1  tau(  32) = (   2.8766274   0.7418004  12.6316555  )
        33           O1  tau(  33) = (   1.6476770   5.2064503   1.3730516  )
        34           Ti1 tau(  34) = (   4.9430310   5.2064503   2.6545865  )
        35           O1  tau(  35) = (   4.9430310   5.2064503   4.6684056  )
        36           O1  tau(  36) = (   6.2245660   3.7188931   2.6545865  )
        37           O1  tau(  37) = (   3.6614961   3.7188931   2.6545865  )
        38           Ti1 tau(  38) = (   4.9430310   3.7188931   5.9499405  )
        39           O1  tau(  39) = (   1.6418458   5.2133935   8.0066417  )
        40           O1  tau(  40) = (   4.9430310   5.2064503   7.2314755  )
        41           O1  tau(  41) = (   2.9292120   3.7188931   5.9499405  )
        42           Ti1 tau(  42) = (   5.0218241   5.2139137   9.3870600  )
        43           O1  tau(  43) = (   4.9399496   5.2040061  11.2598200  )
        44           O1  tau(  44) = (   6.2073000   3.7245411   9.2731052  )
        45           O1  tau(  45) = (   3.6137513   3.7232133   9.2682466  )
        46           Ti1 tau(  46) = (   4.8936935   3.8094630  12.7397413  )
        47           O1  tau(  47) = (   4.9051259   5.2510468  13.8339921  )
        48           O1  tau(  48) = (   2.8743370   3.7938830  12.6403791  )
        49           C1  tau(  49) = (   1.0587210   2.2268971  15.9066084  )
        50           O1  tau(  50) = (   1.8917182   2.2355032  14.7378010  )
        51           H1  tau(  51) = (   0.0310076   2.2200215  15.5603933  )
        52           H1  tau(  52) = (   2.8355400   2.2288152  14.9543747  )
        53           H1  tau(  53) = (   1.2478062   1.3326534  16.4739879  )
        54           H1  tau(  54) = (   1.2341453   3.1195140  16.5098874  )

     number of k points=    40  Fermi-Dirac smearing, width (Ry)=  0.0073
                       cart. coord. in units 2pi/alat
        k(    1) = (   0.0000000   0.0000000   0.0000000), wk =   0.0277778
        k(    2) = (   0.0000000   0.0280101   0.0000000), wk =   0.0555556
        k(    3) = (   0.0000000   0.0560203   0.0000000), wk =   0.0555556
        k(    4) = (   0.0000000  -0.0840304   0.0000000), wk =   0.0277778
        k(    5) = (   0.0252881   0.0000000   0.0000000), wk =   0.0555556
        k(    6) = (   0.0252881   0.0280101   0.0000000), wk =   0.0555556
        k(    7) = (   0.0252881   0.0560203   0.0000000), wk =   0.0555556
        k(    8) = (   0.0252881  -0.0840304   0.0000000), wk =   0.0555556
        k(    9) = (   0.0505763   0.0000000   0.0000000), wk =   0.0555556
        k(   10) = (   0.0505763   0.0280101   0.0000000), wk =   0.0555556
        k(   11) = (   0.0505763   0.0560203   0.0000000), wk =   0.0555556
        k(   12) = (   0.0505763  -0.0840304   0.0000000), wk =   0.0555556
        k(   13) = (  -0.0758644   0.0000000   0.0000000), wk =   0.0277778
        k(   14) = (  -0.0758644   0.0280101   0.0000000), wk =   0.0555556
        k(   15) = (  -0.0758644   0.0560203   0.0000000), wk =   0.0555556
        k(   16) = (  -0.0758644  -0.0840304   0.0000000), wk =   0.0277778
        k(   17) = (  -0.0252881   0.0280101   0.0000000), wk =   0.0555556
        k(   18) = (  -0.0252881   0.0560203   0.0000000), wk =   0.0555556
        k(   19) = (  -0.0505763   0.0280101   0.0000000), wk =   0.0555556
        k(   20) = (  -0.0505763   0.0560203   0.0000000), wk =   0.0555556
        k(   21) = (   0.0000000   0.0000000   0.0000000), wk =   0.0277778
        k(   22) = (   0.0000000   0.0280101   0.0000000), wk =   0.0555556
        k(   23) = (   0.0000000   0.0560203   0.0000000), wk =   0.0555556
        k(   24) = (   0.0000000  -0.0840304   0.0000000), wk =   0.0277778
        k(   25) = (   0.0252881   0.0000000   0.0000000), wk =   0.0555556
        k(   26) = (   0.0252881   0.0280101   0.0000000), wk =   0.0555556
        k(   27) = (   0.0252881   0.0560203   0.0000000), wk =   0.0555556
        k(   28) = (   0.0252881  -0.0840304   0.0000000), wk =   0.0555556
        k(   29) = (   0.0505763   0.0000000   0.0000000), wk =   0.0555556
        k(   30) = (   0.0505763   0.0280101   0.0000000), wk =   0.0555556
        k(   31) = (   0.0505763   0.0560203   0.0000000), wk =   0.0555556
        k(   32) = (   0.0505763  -0.0840304   0.0000000), wk =   0.0555556
        k(   33) = (  -0.0758644   0.0000000   0.0000000), wk =   0.0277778
        k(   34) = (  -0.0758644   0.0280101   0.0000000), wk =   0.0555556
        k(   35) = (  -0.0758644   0.0560203   0.0000000), wk =   0.0555556
        k(   36) = (  -0.0758644  -0.0840304   0.0000000), wk =   0.0277778
        k(   37) = (  -0.0252881   0.0280101   0.0000000), wk =   0.0555556
        k(   38) = (  -0.0252881   0.0560203   0.0000000), wk =   0.0555556
        k(   39) = (  -0.0505763   0.0280101   0.0000000), wk =   0.0555556
        k(   40) = (  -0.0505763   0.0560203   0.0000000), wk =   0.0555556

     Dense  grid:  1096637 G-vectors     FFT dimensions: (  80,  72, 375)

     Smooth grid:   277353 G-vectors     FFT dimensions: (  54,  45, 240)

     Largest allocated arrays     est. size (Mb)     dimensions
        Kohn-Sham Wavefunctions         9.95 Mb     (    2180,  299)
        NL pseudopotentials            18.89 Mb     (    2180,  568)
        Each V/rho on FFT grid          4.22 Mb     (  138240,   2)
        Each G-vector array             0.52 Mb     (   68538)
        G-vector shells                 0.25 Mb     (   33046)
     Largest temporary arrays     est. size (Mb)     dimensions
        Auxiliary wavefunctions        39.78 Mb     (    2180, 1196)
        Each subspace H/S matrix       21.83 Mb     (    1196, 1196)
        Each <psi_i|beta_j> matrix      2.59 Mb     (     568,  299)
        Arrays for rho mixing          21.09 Mb     (  138240,   10)

     Check: negative/imaginary core charge=   -0.000049    0.000000

     The initial density is read from file :
     ./calc.save/charge-density.dat


     negative rho (up, down):  1.209E-02 1.209E-02


     ************************************************************************
     *
     * You are using vdW-DF for exchange-correlation in this calculation.
     * Please cite the following three references that made this development
     * possible:
     *
     *   M. Dion, H. Rydberg, E. Schroder, D. C. Langreth, and
     *   B. I. Lundqvist, Phys. Rev. Lett. 92, 246401 (2004).
     *
     *   T. Thonhauser, V. R. Cooper, S. Li, A. Puzder, P. Hyldgaard, and
     *   D. C. Langreth, Phys. Rev. B 76, 125112 (2007).
     *
     *   G. Roman-Perez and J. M. Soler, Phys. Rev. Lett. 103, 096102 (2009).
     *
     *
     * If you are using vdW-DF2, please also cite:
     *
     *   K. Lee, E. D. Murray, L. Kong, B. I. Lundqvist, and
     *   D. C. Langreth, Phys. Rev. B 82, 081101(R) (2010).
     *
     *
     * If you are calculating the stress with vdW-DF, please also cite:
     *
     *   R. Sabatini, E. Kucukbenli, B. Kolb, T. Thonhauser, and
     *   S. de Gironcoli, J. Phys.: Condens. Matter 24, 424209 (2012).
     *
     ************************************************************************

     Carrying out vdW-DF run using the following parameters:

     Nqs =      20    Nr_points =    1024   r_max =   100.000
     q_mesh =
               0.00001000     0.04494208     0.09755937     0.15916263
               0.23128650     0.31572767     0.41458969     0.53033537
               0.66584808     0.82450364     1.01025438     1.22772762
               1.48234092     1.78043706     2.12944203     2.53805004
               3.01644009     3.57652955     4.23227104     5.00000000

     Gradients computed in reciprocal space

     ************************************************************************


     Starting wfc are  300 randomized atomic wfcs

     total cpu time spent up to now is       70.5 secs

     Self-consistent Calculation

     iteration #  1     ecut=    40.42 Ry     beta=0.10
     Davidson diagonalization with overlap
     ethr =  1.00E-05,  avg # of iterations = 14.8

     Threshold (ethr) on eigenvalues was too large:
     Diagonalizing with lowered threshold

     Davidson diagonalization with overlap
     ethr =  5.09E-07,  avg # of iterations =  1.0

     negative rho (up, down):  1.209E-02 1.209E-02
 
     Magnetic moment per site:
     atom:    1    charge:    3.1250    magn:   -0.0002    constr:    0.0000
     atom:    2    charge:    1.9451    magn:    0.0000    constr:    0.0000
     atom:    3    charge:    3.1198    magn:    0.0000    constr:    0.0000
     atom:    4    charge:    1.9504    magn:   -0.0001    constr:    0.0000
     atom:    5    charge:    3.1166    magn:    0.0000    constr:    0.0000
     atom:    6    charge:    1.9476    magn:   -0.0001    constr:    0.0000
     atom:    7    charge:    3.1157    magn:    0.0001    constr:    0.0000
     atom:    8    charge:    1.9452    magn:   -0.0001    constr:    0.0000
     atom:    9    charge:    3.1250    magn:   -0.0002    constr:    0.0000
     atom:   10    charge:    1.9452    magn:    0.0000    constr:    0.0000
     atom:   11    charge:    3.1197    magn:    0.0000    constr:    0.0000
     atom:   12    charge:    1.9504    magn:   -0.0001    constr:    0.0000
     atom:   13    charge:    3.1158    magn:    0.0000    constr:    0.0000
     atom:   14    charge:    1.9587    magn:   -0.0001    constr:    0.0000
     atom:   15    charge:    3.1189    magn:    0.0001    constr:    0.0000
     atom:   16    charge:    1.9445    magn:   -0.0001    constr:    0.0000
     atom:   17    charge:    1.9183    magn:    0.0004    constr:    0.0000
     atom:   18    charge:    3.1239    magn:   -0.0001    constr:    0.0000
     atom:   19    charge:    1.9408    magn:   -0.0000    constr:    0.0000
     atom:   20    charge:    1.9471    magn:    0.0000    constr:    0.0000
     atom:   21    charge:    1.9471    magn:    0.0000    constr:    0.0000
     atom:   22    charge:    3.1196    magn:    0.0000    constr:    0.0000
     atom:   23    charge:    1.9566    magn:   -0.0001    constr:    0.0000
     atom:   24    charge:    1.9379    magn:   -0.0001    constr:    0.0000
     atom:   25    charge:    1.9505    magn:   -0.0001    constr:    0.0000
     atom:   26    charge:    3.1145    magn:    0.0001    constr:    0.0000
     atom:   27    charge:    1.9398    magn:   -0.0001    constr:    0.0000
     atom:   28    charge:    1.9517    magn:   -0.0001    constr:    0.0000
     atom:   29    charge:    1.9476    magn:   -0.0001    constr:    0.0000
     atom:   30    charge:    3.1167    magn:    0.0000    constr:    0.0000
     atom:   31    charge:    1.9447    magn:   -0.0000    constr:    0.0000
     atom:   32    charge:    1.9440    magn:   -0.0001    constr:    0.0000
     atom:   33    charge:    1.9183    magn:    0.0004    constr:    0.0000
     atom:   34    charge:    3.1239    magn:   -0.0001    constr:    0.0000
     atom:   35    charge:    1.9408    magn:   -0.0000    constr:    0.0000
     atom:   36    charge:    1.9471    magn:    0.0000    constr:    0.0000
     atom:   37    charge:    1.9471    magn:    0.0000    constr:    0.0000
     atom:   38    charge:    3.1196    magn:    0.0000    constr:    0.0000
     atom:   39    charge:    1.9549    magn:   -0.0001    constr:    0.0000
     atom:   40    charge:    1.9383    magn:   -0.0001    constr:    0.0000
     atom:   41    charge:    1.9505    magn:   -0.0001    constr:    0.0000
     atom:   42    charge:    3.1141    magn:    0.0001    constr:    0.0000
     atom:   43    charge:    1.9413    magn:   -0.0001    constr:    0.0000
     atom:   44    charge:    1.9517    magn:   -0.0001    constr:    0.0000
     atom:   45    charge:    1.9468    magn:   -0.0001    constr:    0.0000
     atom:   46    charge:    3.1165    magn:    0.0000    constr:    0.0000
     atom:   47    charge:    1.9431    magn:   -0.0000    constr:    0.0000
     atom:   48    charge:    1.9444    magn:   -0.0001    constr:    0.0000
     atom:   49    charge:    0.6589    magn:   -0.0001    constr:    0.0000
     atom:   50    charge:    1.9580    magn:   -0.0001    constr:    0.0000
     atom:   51    charge:    0.4022    magn:    0.0000    constr:    0.0000
     atom:   52    charge:    0.4005    magn:    0.0000    constr:    0.0000
     atom:   53    charge:    0.4113    magn:    0.0000    constr:    0.0000
     atom:   54    charge:    0.4037    magn:    0.0000    constr:    0.0000

     total cpu time spent up to now is      972.0 secs

     total energy              =   -3021.42008475 Ry
     Harris-Foulkes estimate   =   -3021.42028998 Ry
     estimated scf accuracy    <       0.00202952 Ry

     total magnetization       =     0.00 Bohr mag/cell
     absolute magnetization    =     0.01 Bohr mag/cell

     iteration #  2     ecut=    40.42 Ry     beta=0.10
     Davidson diagonalization with overlap
     ethr =  5.10E-07,  avg # of iterations =  1.9

     negative rho (up, down):  1.211E-02 1.211E-02
 
     Magnetic moment per site:
     atom:    1    charge:    3.1250    magn:   -0.0001    constr:    0.0000
     atom:    2    charge:    1.9451    magn:    0.0000    constr:    0.0000
     atom:    3    charge:    3.1198    magn:    0.0000    constr:    0.0000
     atom:    4    charge:    1.9504    magn:   -0.0000    constr:    0.0000
     atom:    5    charge:    3.1166    magn:    0.0000    constr:    0.0000
     atom:    6    charge:    1.9476    magn:   -0.0001    constr:    0.0000
     atom:    7    charge:    3.1157    magn:    0.0000    constr:    0.0000
     atom:    8    charge:    1.9453    magn:   -0.0001    constr:    0.0000
     atom:    9    charge:    3.1250    magn:   -0.0001    constr:    0.0000
     atom:   10    charge:    1.9452    magn:    0.0000    constr:    0.0000
     atom:   11    charge:    3.1197    magn:    0.0000    constr:    0.0000
     atom:   12    charge:    1.9504    magn:   -0.0000    constr:    0.0000
     atom:   13    charge:    3.1158    magn:    0.0000    constr:    0.0000
     atom:   14    charge:    1.9587    magn:   -0.0001    constr:    0.0000
     atom:   15    charge:    3.1189    magn:    0.0001    constr:    0.0000
     atom:   16    charge:    1.9446    magn:   -0.0001    constr:    0.0000
     atom:   17    charge:    1.9183    magn:    0.0004    constr:    0.0000
     atom:   18    charge:    3.1239    magn:   -0.0001    constr:    0.0000
     atom:   19    charge:    1.9408    magn:   -0.0000    constr:    0.0000
     atom:   20    charge:    1.9471    magn:    0.0000    constr:    0.0000
     atom:   21    charge:    1.9471    magn:    0.0000    constr:    0.0000
     atom:   22    charge:    3.1196    magn:    0.0000    constr:    0.0000
     atom:   23    charge:    1.9566    magn:   -0.0001    constr:    0.0000
     atom:   24    charge:    1.9379    magn:   -0.0000    constr:    0.0000
     atom:   25    charge:    1.9505    magn:   -0.0000    constr:    0.0000
     atom:   26    charge:    3.1145    magn:    0.0000    constr:    0.0000
     atom:   27    charge:    1.9398    magn:   -0.0001    constr:    0.0000
     atom:   28    charge:    1.9517    magn:   -0.0001    constr:    0.0000
     atom:   29    charge:    1.9476    magn:   -0.0001    constr:    0.0000
     atom:   30    charge:    3.1167    magn:    0.0000    constr:    0.0000
     atom:   31    charge:    1.9447    magn:   -0.0000    constr:    0.0000
     atom:   32    charge:    1.9440    magn:   -0.0001    constr:    0.0000
     atom:   33    charge:    1.9183    magn:    0.0004    constr:    0.0000
     atom:   34    charge:    3.1239    magn:   -0.0001    constr:    0.0000
     atom:   35    charge:    1.9408    magn:   -0.0000    constr:    0.0000
     atom:   36    charge:    1.9471    magn:    0.0000    constr:    0.0000
     atom:   37    charge:    1.9471    magn:    0.0000    constr:    0.0000
     atom:   38    charge:    3.1196    magn:    0.0000    constr:    0.0000
     atom:   39    charge:    1.9549    magn:   -0.0001    constr:    0.0000
     atom:   40    charge:    1.9383    magn:   -0.0000    constr:    0.0000
     atom:   41    charge:    1.9505    magn:   -0.0000    constr:    0.0000
     atom:   42    charge:    3.1141    magn:    0.0000    constr:    0.0000
     atom:   43    charge:    1.9413    magn:   -0.0000    constr:    0.0000
     atom:   44    charge:    1.9517    magn:   -0.0001    constr:    0.0000
     atom:   45    charge:    1.9468    magn:   -0.0001    constr:    0.0000
     atom:   46    charge:    3.1165    magn:    0.0000    constr:    0.0000
     atom:   47    charge:    1.9431    magn:   -0.0000    constr:    0.0000
     atom:   48    charge:    1.9444    magn:   -0.0001    constr:    0.0000
     atom:   49    charge:    0.6614    magn:   -0.0000    constr:    0.0000
     atom:   50    charge:    1.9585    magn:   -0.0001    constr:    0.0000
     atom:   51    charge:    0.4021    magn:    0.0000    constr:    0.0000
     atom:   52    charge:    0.4004    magn:    0.0000    constr:    0.0000
     atom:   53    charge:    0.4116    magn:    0.0000    constr:    0.0000
     atom:   54    charge:    0.4032    magn:    0.0000    constr:    0.0000

     total cpu time spent up to now is     1152.8 secs

     total energy              =   -3021.41969575 Ry
     Harris-Foulkes estimate   =   -3021.42010119 Ry
     estimated scf accuracy    <       0.00136459 Ry

     total magnetization       =     0.00 Bohr mag/cell
     absolute magnetization    =     0.01 Bohr mag/cell

     iteration #  3     ecut=    40.42 Ry     beta=0.10
     Davidson diagonalization with overlap
     ethr =  3.43E-07,  avg # of iterations =  5.2

     negative rho (up, down):  1.211E-02 1.211E-02
 
     Magnetic moment per site:
     atom:    1    charge:    3.1250    magn:   -0.0001    constr:    0.0000
     atom:    2    charge:    1.9452    magn:    0.0000    constr:    0.0000
     atom:    3    charge:    3.1197    magn:    0.0000    constr:    0.0000
     atom:    4    charge:    1.9504    magn:   -0.0000    constr:    0.0000
     atom:    5    charge:    3.1166    magn:    0.0000    constr:    0.0000
     atom:    6    charge:    1.9477    magn:   -0.0001    constr:    0.0000
     atom:    7    charge:    3.1156    magn:    0.0000    constr:    0.0000
     atom:    8    charge:    1.9452    magn:   -0.0001    constr:    0.0000
     atom:    9    charge:    3.1250    magn:   -0.0001    constr:    0.0000
     atom:   10    charge:    1.9452    magn:    0.0000    constr:    0.0000
     atom:   11    charge:    3.1197    magn:    0.0000    constr:    0.0000
     atom:   12    charge:    1.9504    magn:   -0.0000    constr:    0.0000
     atom:   13    charge:    3.1158    magn:    0.0000    constr:    0.0000
     atom:   14    charge:    1.9587    magn:   -0.0001    constr:    0.0000
     atom:   15    charge:    3.1188    magn:    0.0000    constr:    0.0000
     atom:   16    charge:    1.9446    magn:   -0.0001    constr:    0.0000
     atom:   17    charge:    1.9184    magn:    0.0003    constr:    0.0000
     atom:   18    charge:    3.1240    magn:   -0.0001    constr:    0.0000
     atom:   19    charge:    1.9408    magn:   -0.0000    constr:    0.0000
     atom:   20    charge:    1.9471    magn:    0.0000    constr:    0.0000
     atom:   21    charge:    1.9471    magn:    0.0000    constr:    0.0000
     atom:   22    charge:    3.1196    magn:    0.0000    constr:    0.0000
     atom:   23    charge:    1.9566    magn:   -0.0001    constr:    0.0000
     atom:   24    charge:    1.9379    magn:   -0.0000    constr:    0.0000
     atom:   25    charge:    1.9505    magn:   -0.0000    constr:    0.0000
     atom:   26    charge:    3.1145    magn:    0.0000    constr:    0.0000
     atom:   27    charge:    1.9398    magn:   -0.0000    constr:    0.0000
     atom:   28    charge:    1.9517    magn:   -0.0001    constr:    0.0000
     atom:   29    charge:    1.9476    magn:   -0.0001    constr:    0.0000
     atom:   30    charge:    3.1167    magn:    0.0000    constr:    0.0000
     atom:   31    charge:    1.9447    magn:   -0.0000    constr:    0.0000
     atom:   32    charge:    1.9440    magn:   -0.0001    constr:    0.0000
     atom:   33    charge:    1.9184    magn:    0.0003    constr:    0.0000
     atom:   34    charge:    3.1240    magn:   -0.0001    constr:    0.0000
     atom:   35    charge:    1.9408    magn:   -0.0000    constr:    0.0000
     atom:   36    charge:    1.9471    magn:    0.0000    constr:    0.0000
     atom:   37    charge:    1.9471    magn:    0.0000    constr:    0.0000
     atom:   38    charge:    3.1196    magn:    0.0000    constr:    0.0000
     atom:   39    charge:    1.9550    magn:   -0.0001    constr:    0.0000
     atom:   40    charge:    1.9382    magn:   -0.0000    constr:    0.0000
     atom:   41    charge:    1.9505    magn:   -0.0000    constr:    0.0000
     atom:   42    charge:    3.1141    magn:    0.0000    constr:    0.0000
     atom:   43    charge:    1.9413    magn:   -0.0000    constr:    0.0000
     atom:   44    charge:    1.9518    magn:   -0.0001    constr:    0.0000
     atom:   45    charge:    1.9468    magn:   -0.0001    constr:    0.0000
     atom:   46    charge:    3.1165    magn:    0.0000    constr:    0.0000
     atom:   47    charge:    1.9431    magn:   -0.0000    constr:    0.0000
     atom:   48    charge:    1.9444    magn:   -0.0001    constr:    0.0000
     atom:   49    charge:    0.6616    magn:   -0.0000    constr:    0.0000
     atom:   50    charge:    1.9583    magn:   -0.0000    constr:    0.0000
     atom:   51    charge:    0.4022    magn:    0.0000    constr:    0.0000
     atom:   52    charge:    0.4005    magn:    0.0000    constr:    0.0000
     atom:   53    charge:    0.4118    magn:    0.0000    constr:    0.0000
     atom:   54    charge:    0.4031    magn:    0.0000    constr:    0.0000

     total cpu time spent up to now is     1384.0 secs

     total energy              =   -3021.41978435 Ry
     Harris-Foulkes estimate   =   -3021.41981687 Ry
     estimated scf accuracy    <       0.00027354 Ry

     total magnetization       =     0.00 Bohr mag/cell
     absolute magnetization    =     0.00 Bohr mag/cell

     iteration #  4     ecut=    40.42 Ry     beta=0.10
     Davidson diagonalization with overlap
     ethr =  6.87E-08,  avg # of iterations =  3.0

     negative rho (up, down):  1.211E-02 1.211E-02
 
     Magnetic moment per site:
     atom:    1    charge:    3.1250    magn:   -0.0001    constr:    0.0000
     atom:    2    charge:    1.9452    magn:    0.0000    constr:    0.0000
     atom:    3    charge:    3.1198    magn:    0.0000    constr:    0.0000
     atom:    4    charge:    1.9504    magn:   -0.0000    constr:    0.0000
     atom:    5    charge:    3.1166    magn:    0.0000    constr:    0.0000
     atom:    6    charge:    1.9477    magn:   -0.0000    constr:    0.0000
     atom:    7    charge:    3.1156    magn:    0.0000    constr:    0.0000
     atom:    8    charge:    1.9452    magn:   -0.0000    constr:    0.0000
     atom:    9    charge:    3.1250    magn:   -0.0001    constr:    0.0000
     atom:   10    charge:    1.9452    magn:    0.0000    constr:    0.0000
     atom:   11    charge:    3.1197    magn:    0.0000    constr:    0.0000
     atom:   12    charge:    1.9504    magn:   -0.0000    constr:    0.0000
     atom:   13    charge:    3.1158    magn:    0.0000    constr:    0.0000
     atom:   14    charge:    1.9587    magn:   -0.0000    constr:    0.0000
     atom:   15    charge:    3.1188    magn:    0.0000    constr:    0.0000
     atom:   16    charge:    1.9445    magn:   -0.0000    constr:    0.0000
     atom:   17    charge:    1.9184    magn:    0.0002    constr:    0.0000
     atom:   18    charge:    3.1240    magn:   -0.0000    constr:    0.0000
     atom:   19    charge:    1.9408    magn:   -0.0000    constr:    0.0000
     atom:   20    charge:    1.9471    magn:    0.0000    constr:    0.0000
     atom:   21    charge:    1.9471    magn:    0.0000    constr:    0.0000
     atom:   22    charge:    3.1196    magn:    0.0000    constr:    0.0000
     atom:   23    charge:    1.9566    magn:   -0.0000    constr:    0.0000
     atom:   24    charge:    1.9379    magn:   -0.0000    constr:    0.0000
     atom:   25    charge:    1.9505    magn:   -0.0000    constr:    0.0000
     atom:   26    charge:    3.1145    magn:    0.0000    constr:    0.0000
     atom:   27    charge:    1.9398    magn:   -0.0000    constr:    0.0000
     atom:   28    charge:    1.9517    magn:   -0.0000    constr:    0.0000
     atom:   29    charge:    1.9476    magn:   -0.0000    constr:    0.0000
     atom:   30    charge:    3.1167    magn:    0.0000    constr:    0.0000
     atom:   31    charge:    1.9447    magn:   -0.0000    constr:    0.0000
     atom:   32    charge:    1.9440    magn:   -0.0000    constr:    0.0000
     atom:   33    charge:    1.9184    magn:    0.0002    constr:    0.0000
     atom:   34    charge:    3.1240    magn:   -0.0000    constr:    0.0000
     atom:   35    charge:    1.9408    magn:   -0.0000    constr:    0.0000
     atom:   36    charge:    1.9471    magn:    0.0000    constr:    0.0000
     atom:   37    charge:    1.9471    magn:    0.0000    constr:    0.0000
     atom:   38    charge:    3.1196    magn:    0.0000    constr:    0.0000
     atom:   39    charge:    1.9550    magn:   -0.0000    constr:    0.0000
     atom:   40    charge:    1.9383    magn:   -0.0000    constr:    0.0000
     atom:   41    charge:    1.9505    magn:   -0.0000    constr:    0.0000
     atom:   42    charge:    3.1141    magn:    0.0000    constr:    0.0000
     atom:   43    charge:    1.9413    magn:   -0.0000    constr:    0.0000
     atom:   44    charge:    1.9518    magn:   -0.0000    constr:    0.0000
     atom:   45    charge:    1.9469    magn:   -0.0000    constr:    0.0000
     atom:   46    charge:    3.1165    magn:    0.0000    constr:    0.0000
     atom:   47    charge:    1.9431    magn:   -0.0000    constr:    0.0000
     atom:   48    charge:    1.9444    magn:   -0.0000    constr:    0.0000
     atom:   49    charge:    0.6614    magn:   -0.0000    constr:    0.0000
     atom:   50    charge:    1.9580    magn:   -0.0000    constr:    0.0000
     atom:   51    charge:    0.4023    magn:    0.0000    constr:    0.0000
     atom:   52    charge:    0.4006    magn:    0.0000    constr:    0.0000
     atom:   53    charge:    0.4123    magn:    0.0000    constr:    0.0000
     atom:   54    charge:    0.4033    magn:    0.0000    constr:    0.0000

     total cpu time spent up to now is     1579.3 secs

     total energy              =   -3021.41978474 Ry
     Harris-Foulkes estimate   =   -3021.41979243 Ry
     estimated scf accuracy    <       0.00010990 Ry

     total magnetization       =     0.00 Bohr mag/cell
     absolute magnetization    =     0.00 Bohr mag/cell

     iteration #  5     ecut=    40.42 Ry     beta=0.10
     Davidson diagonalization with overlap
     ethr =  2.76E-08,  avg # of iterations =  3.0

     negative rho (up, down):  1.211E-02 1.211E-02
 
     Magnetic moment per site:
     atom:    1    charge:    3.1250    magn:   -0.0001    constr:    0.0000
     atom:    2    charge:    1.9451    magn:    0.0000    constr:    0.0000
     atom:    3    charge:    3.1198    magn:    0.0000    constr:    0.0000
     atom:    4    charge:    1.9504    magn:   -0.0000    constr:    0.0000
     atom:    5    charge:    3.1166    magn:    0.0000    constr:    0.0000
     atom:    6    charge:    1.9476    magn:   -0.0000    constr:    0.0000
     atom:    7    charge:    3.1157    magn:    0.0000    constr:    0.0000
     atom:    8    charge:    1.9452    magn:   -0.0000    constr:    0.0000
     atom:    9    charge:    3.1250    magn:   -0.0001    constr:    0.0000
     atom:   10    charge:    1.9452    magn:    0.0000    constr:    0.0000
     atom:   11    charge:    3.1197    magn:    0.0000    constr:    0.0000
     atom:   12    charge:    1.9504    magn:   -0.0000    constr:    0.0000
     atom:   13    charge:    3.1158    magn:    0.0000    constr:    0.0000
     atom:   14    charge:    1.9587    magn:   -0.0000    constr:    0.0000
     atom:   15    charge:    3.1189    magn:    0.0000    constr:    0.0000
     atom:   16    charge:    1.9445    magn:   -0.0000    constr:    0.0000
     atom:   17    charge:    1.9184    magn:    0.0002    constr:    0.0000
     atom:   18    charge:    3.1239    magn:   -0.0000    constr:    0.0000
     atom:   19    charge:    1.9408    magn:   -0.0000    constr:    0.0000
     atom:   20    charge:    1.9471    magn:    0.0000    constr:    0.0000
     atom:   21    charge:    1.9471    magn:    0.0000    constr:    0.0000
     atom:   22    charge:    3.1196    magn:    0.0000    constr:    0.0000
     atom:   23    charge:    1.9566    magn:   -0.0000    constr:    0.0000
     atom:   24    charge:    1.9379    magn:   -0.0000    constr:    0.0000
     atom:   25    charge:    1.9505    magn:   -0.0000    constr:    0.0000
     atom:   26    charge:    3.1145    magn:    0.0000    constr:    0.0000
     atom:   27    charge:    1.9398    magn:   -0.0000    constr:    0.0000
     atom:   28    charge:    1.9517    magn:   -0.0000    constr:    0.0000
     atom:   29    charge:    1.9476    magn:   -0.0000    constr:    0.0000
     atom:   30    charge:    3.1167    magn:    0.0000    constr:    0.0000
     atom:   31    charge:    1.9447    magn:   -0.0000    constr:    0.0000
     atom:   32    charge:    1.9440    magn:   -0.0000    constr:    0.0000
     atom:   33    charge:    1.9184    magn:    0.0002    constr:    0.0000
     atom:   34    charge:    3.1239    magn:   -0.0000    constr:    0.0000
     atom:   35    charge:    1.9408    magn:   -0.0000    constr:    0.0000
     atom:   36    charge:    1.9471    magn:    0.0000    constr:    0.0000
     atom:   37    charge:    1.9471    magn:    0.0000    constr:    0.0000
     atom:   38    charge:    3.1196    magn:    0.0000    constr:    0.0000
     atom:   39    charge:    1.9549    magn:   -0.0000    constr:    0.0000
     atom:   40    charge:    1.9383    magn:   -0.0000    constr:    0.0000
     atom:   41    charge:    1.9505    magn:   -0.0000    constr:    0.0000
     atom:   42    charge:    3.1141    magn:    0.0000    constr:    0.0000
     atom:   43    charge:    1.9413    magn:   -0.0000    constr:    0.0000
     atom:   44    charge:    1.9517    magn:   -0.0000    constr:    0.0000
     atom:   45    charge:    1.9468    magn:   -0.0000    constr:    0.0000
     atom:   46    charge:    3.1165    magn:    0.0000    constr:    0.0000
     atom:   47    charge:    1.9431    magn:   -0.0000    constr:    0.0000
     atom:   48    charge:    1.9444    magn:   -0.0000    constr:    0.0000
     atom:   49    charge:    0.6605    magn:   -0.0000    constr:    0.0000
     atom:   50    charge:    1.9578    magn:   -0.0000    constr:    0.0000
     atom:   51    charge:    0.4024    magn:    0.0000    constr:    0.0000
     atom:   52    charge:    0.4007    magn:    0.0000    constr:    0.0000
     atom:   53    charge:    0.4126    magn:    0.0000    constr:    0.0000
     atom:   54    charge:    0.4036    magn:    0.0000    constr:    0.0000

     total cpu time spent up to now is     1776.4 secs

     total energy              =   -3021.41978059 Ry
     Harris-Foulkes estimate   =   -3021.41979045 Ry
     estimated scf accuracy    <       0.00003069 Ry

     total magnetization       =     0.00 Bohr mag/cell
     absolute magnetization    =     0.00 Bohr mag/cell

     iteration #  6     ecut=    40.42 Ry     beta=0.10
     Davidson diagonalization with overlap
     ethr =  7.71E-09,  avg # of iterations =  4.0

     negative rho (up, down):  1.211E-02 1.211E-02
 
     Magnetic moment per site:
     atom:    1    charge:    3.1250    magn:   -0.0001    constr:    0.0000
     atom:    2    charge:    1.9451    magn:    0.0000    constr:    0.0000
     atom:    3    charge:    3.1198    magn:    0.0000    constr:    0.0000
     atom:    4    charge:    1.9504    magn:   -0.0000    constr:    0.0000
     atom:    5    charge:    3.1166    magn:    0.0000    constr:    0.0000
     atom:    6    charge:    1.9476    magn:   -0.0000    constr:    0.0000
     atom:    7    charge:    3.1157    magn:    0.0000    constr:    0.0000
     atom:    8    charge:    1.9452    magn:   -0.0000    constr:    0.0000
     atom:    9    charge:    3.1250    magn:   -0.0001    constr:    0.0000
     atom:   10    charge:    1.9452    magn:    0.0000    constr:    0.0000
     atom:   11    charge:    3.1197    magn:    0.0000    constr:    0.0000
     atom:   12    charge:    1.9504    magn:   -0.0000    constr:    0.0000
     atom:   13    charge:    3.1158    magn:    0.0000    constr:    0.0000
     atom:   14    charge:    1.9587    magn:   -0.0000    constr:    0.0000
     atom:   15    charge:    3.1188    magn:    0.0000    constr:    0.0000
     atom:   16    charge:    1.9446    magn:   -0.0000    constr:    0.0000
     atom:   17    charge:    1.9184    magn:    0.0002    constr:    0.0000
     atom:   18    charge:    3.1239    magn:   -0.0000    constr:    0.0000
     atom:   19    charge:    1.9408    magn:   -0.0000    constr:    0.0000
     atom:   20    charge:    1.9471    magn:    0.0000    constr:    0.0000
     atom:   21    charge:    1.9471    magn:    0.0000    constr:    0.0000
     atom:   22    charge:    3.1196    magn:    0.0000    constr:    0.0000
     atom:   23    charge:    1.9566    magn:   -0.0000    constr:    0.0000
     atom:   24    charge:    1.9379    magn:   -0.0000    constr:    0.0000
     atom:   25    charge:    1.9505    magn:   -0.0000    constr:    0.0000
     atom:   26    charge:    3.1145    magn:    0.0000    constr:    0.0000
     atom:   27    charge:    1.9398    magn:   -0.0000    constr:    0.0000
     atom:   28    charge:    1.9517    magn:   -0.0000    constr:    0.0000
     atom:   29    charge:    1.9476    magn:   -0.0000    constr:    0.0000
     atom:   30    charge:    3.1167    magn:    0.0000    constr:    0.0000
     atom:   31    charge:    1.9447    magn:   -0.0000    constr:    0.0000
     atom:   32    charge:    1.9440    magn:   -0.0000    constr:    0.0000
     atom:   33    charge:    1.9184    magn:    0.0002    constr:    0.0000
     atom:   34    charge:    3.1239    magn:   -0.0000    constr:    0.0000
     atom:   35    charge:    1.9408    magn:   -0.0000    constr:    0.0000
     atom:   36    charge:    1.9471    magn:    0.0000    constr:    0.0000
     atom:   37    charge:    1.9471    magn:    0.0000    constr:    0.0000
     atom:   38    charge:    3.1196    magn:    0.0000    constr:    0.0000
     atom:   39    charge:    1.9549    magn:   -0.0000    constr:    0.0000
     atom:   40    charge:    1.9383    magn:   -0.0000    constr:    0.0000
     atom:   41    charge:    1.9505    magn:   -0.0000    constr:    0.0000
     atom:   42    charge:    3.1141    magn:    0.0000    constr:    0.0000
     atom:   43    charge:    1.9413    magn:   -0.0000    constr:    0.0000
     atom:   44    charge:    1.9517    magn:   -0.0000    constr:    0.0000
     atom:   45    charge:    1.9468    magn:   -0.0000    constr:    0.0000
     atom:   46    charge:    3.1165    magn:    0.0000    constr:    0.0000
     atom:   47    charge:    1.9431    magn:   -0.0000    constr:    0.0000
     atom:   48    charge:    1.9444    magn:   -0.0000    constr:    0.0000
     atom:   49    charge:    0.6606    magn:   -0.0000    constr:    0.0000
     atom:   50    charge:    1.9579    magn:   -0.0000    constr:    0.0000
     atom:   51    charge:    0.4024    magn:    0.0000    constr:    0.0000
     atom:   52    charge:    0.4007    magn:    0.0000    constr:    0.0000
     atom:   53    charge:    0.4126    magn:    0.0000    constr:    0.0000
     atom:   54    charge:    0.4036    magn:    0.0000    constr:    0.0000

     total cpu time spent up to now is     1992.8 secs

     total energy              =   -3021.41978575 Ry
     Harris-Foulkes estimate   =   -3021.41978607 Ry
     estimated scf accuracy    <       0.00000579 Ry

     total magnetization       =     0.00 Bohr mag/cell
     absolute magnetization    =     0.00 Bohr mag/cell

     iteration #  7     ecut=    40.42 Ry     beta=0.10
     Davidson diagonalization with overlap
     ethr =  1.45E-09,  avg # of iterations =  3.0

     negative rho (up, down):  1.211E-02 1.211E-02
 
     Magnetic moment per site:
     atom:    1    charge:    3.1250    magn:   -0.0001    constr:    0.0000
     atom:    2    charge:    1.9452    magn:    0.0000    constr:    0.0000
     atom:    3    charge:    3.1198    magn:    0.0000    constr:    0.0000
     atom:    4    charge:    1.9504    magn:   -0.0000    constr:    0.0000
     atom:    5    charge:    3.1166    magn:    0.0000    constr:    0.0000
     atom:    6    charge:    1.9476    magn:   -0.0000    constr:    0.0000
     atom:    7    charge:    3.1157    magn:    0.0000    constr:    0.0000
     atom:    8    charge:    1.9453    magn:   -0.0000    constr:    0.0000
     atom:    9    charge:    3.1250    magn:   -0.0001    constr:    0.0000
     atom:   10    charge:    1.9452    magn:    0.0000    constr:    0.0000
     atom:   11    charge:    3.1197    magn:    0.0000    constr:    0.0000
     atom:   12    charge:    1.9504    magn:   -0.0000    constr:    0.0000
     atom:   13    charge:    3.1158    magn:    0.0000    constr:    0.0000
     atom:   14    charge:    1.9587    magn:   -0.0000    constr:    0.0000
     atom:   15    charge:    3.1188    magn:    0.0000    constr:    0.0000
     atom:   16    charge:    1.9446    magn:   -0.0000    constr:    0.0000
     atom:   17    charge:    1.9184    magn:    0.0001    constr:    0.0000
     atom:   18    charge:    3.1239    magn:   -0.0000    constr:    0.0000
     atom:   19    charge:    1.9408    magn:   -0.0000    constr:    0.0000
     atom:   20    charge:    1.9471    magn:    0.0000    constr:    0.0000
     atom:   21    charge:    1.9471    magn:    0.0000    constr:    0.0000
     atom:   22    charge:    3.1196    magn:    0.0000    constr:    0.0000
     atom:   23    charge:    1.9566    magn:   -0.0000    constr:    0.0000
     atom:   24    charge:    1.9379    magn:   -0.0000    constr:    0.0000
     atom:   25    charge:    1.9505    magn:   -0.0000    constr:    0.0000
     atom:   26    charge:    3.1145    magn:    0.0000    constr:    0.0000
     atom:   27    charge:    1.9398    magn:   -0.0000    constr:    0.0000
     atom:   28    charge:    1.9517    magn:   -0.0000    constr:    0.0000
     atom:   29    charge:    1.9476    magn:   -0.0000    constr:    0.0000
     atom:   30    charge:    3.1167    magn:    0.0000    constr:    0.0000
     atom:   31    charge:    1.9447    magn:   -0.0000    constr:    0.0000
     atom:   32    charge:    1.9440    magn:   -0.0000    constr:    0.0000
     atom:   33    charge:    1.9184    magn:    0.0001    constr:    0.0000
     atom:   34    charge:    3.1239    magn:   -0.0000    constr:    0.0000
     atom:   35    charge:    1.9408    magn:   -0.0000    constr:    0.0000
     atom:   36    charge:    1.9471    magn:    0.0000    constr:    0.0000
     atom:   37    charge:    1.9471    magn:    0.0000    constr:    0.0000
     atom:   38    charge:    3.1196    magn:    0.0000    constr:    0.0000
     atom:   39    charge:    1.9549    magn:   -0.0000    constr:    0.0000
     atom:   40    charge:    1.9383    magn:   -0.0000    constr:    0.0000
     atom:   41    charge:    1.9505    magn:   -0.0000    constr:    0.0000
     atom:   42    charge:    3.1141    magn:    0.0000    constr:    0.0000
     atom:   43    charge:    1.9413    magn:   -0.0000    constr:    0.0000
     atom:   44    charge:    1.9517    magn:   -0.0000    constr:    0.0000
     atom:   45    charge:    1.9468    magn:   -0.0000    constr:    0.0000
     atom:   46    charge:    3.1165    magn:    0.0000    constr:    0.0000
     atom:   47    charge:    1.9431    magn:   -0.0000    constr:    0.0000
     atom:   48    charge:    1.9444    magn:   -0.0000    constr:    0.0000
     atom:   49    charge:    0.6603    magn:   -0.0000    constr:    0.0000
     atom:   50    charge:    1.9580    magn:   -0.0000    constr:    0.0000
     atom:   51    charge:    0.4024    magn:    0.0000    constr:    0.0000
     atom:   52    charge:    0.4007    magn:    0.0000    constr:    0.0000
     atom:   53    charge:    0.4127    magn:    0.0000    constr:    0.0000
     atom:   54    charge:    0.4038    magn:    0.0000    constr:    0.0000

     total cpu time spent up to now is     2193.6 secs

     total energy              =   -3021.41978587 Ry
     Harris-Foulkes estimate   =   -3021.41978650 Ry
     estimated scf accuracy    <       0.00000278 Ry

     total magnetization       =     0.00 Bohr mag/cell
     absolute magnetization    =     0.00 Bohr mag/cell

     iteration #  8     ecut=    40.42 Ry     beta=0.10
     Davidson diagonalization with overlap
     ethr =  6.98E-10,  avg # of iterations =  4.0

     negative rho (up, down):  1.211E-02 1.211E-02
 
     Magnetic moment per site:
     atom:    1    charge:    3.1250    magn:   -0.0000    constr:    0.0000
     atom:    2    charge:    1.9452    magn:    0.0000    constr:    0.0000
     atom:    3    charge:    3.1198    magn:    0.0000    constr:    0.0000
     atom:    4    charge:    1.9504    magn:   -0.0000    constr:    0.0000
     atom:    5    charge:    3.1166    magn:    0.0000    constr:    0.0000
     atom:    6    charge:    1.9476    magn:   -0.0000    constr:    0.0000
     atom:    7    charge:    3.1157    magn:    0.0000    constr:    0.0000
     atom:    8    charge:    1.9452    magn:   -0.0000    constr:    0.0000
     atom:    9    charge:    3.1250    magn:   -0.0000    constr:    0.0000
     atom:   10    charge:    1.9452    magn:    0.0000    constr:    0.0000
     atom:   11    charge:    3.1197    magn:    0.0000    constr:    0.0000
     atom:   12    charge:    1.9504    magn:   -0.0000    constr:    0.0000
     atom:   13    charge:    3.1158    magn:    0.0000    constr:    0.0000
     atom:   14    charge:    1.9587    magn:   -0.0000    constr:    0.0000
     atom:   15    charge:    3.1188    magn:    0.0000    constr:    0.0000
     atom:   16    charge:    1.9445    magn:   -0.0000    constr:    0.0000
     atom:   17    charge:    1.9184    magn:    0.0001    constr:    0.0000
     atom:   18    charge:    3.1239    magn:   -0.0000    constr:    0.0000
     atom:   19    charge:    1.9408    magn:   -0.0000    constr:    0.0000
     atom:   20    charge:    1.9471    magn:    0.0000    constr:    0.0000
     atom:   21    charge:    1.9471    magn:    0.0000    constr:    0.0000
     atom:   22    charge:    3.1196    magn:    0.0000    constr:    0.0000
     atom:   23    charge:    1.9566    magn:   -0.0000    constr:    0.0000
     atom:   24    charge:    1.9379    magn:   -0.0000    constr:    0.0000
     atom:   25    charge:    1.9505    magn:   -0.0000    constr:    0.0000
     atom:   26    charge:    3.1145    magn:    0.0000    constr:    0.0000
     atom:   27    charge:    1.9398    magn:   -0.0000    constr:    0.0000
     atom:   28    charge:    1.9517    magn:   -0.0000    constr:    0.0000
     atom:   29    charge:    1.9476    magn:   -0.0000    constr:    0.0000
     atom:   30    charge:    3.1167    magn:    0.0000    constr:    0.0000
     atom:   31    charge:    1.9447    magn:   -0.0000    constr:    0.0000
     atom:   32    charge:    1.9440    magn:   -0.0000    constr:    0.0000
     atom:   33    charge:    1.9184    magn:    0.0001    constr:    0.0000
     atom:   34    charge:    3.1239    magn:   -0.0000    constr:    0.0000
     atom:   35    charge:    1.9408    magn:   -0.0000    constr:    0.0000
     atom:   36    charge:    1.9471    magn:    0.0000    constr:    0.0000
     atom:   37    charge:    1.9471    magn:    0.0000    constr:    0.0000
     atom:   38    charge:    3.1196    magn:    0.0000    constr:    0.0000
     atom:   39    charge:    1.9549    magn:   -0.0000    constr:    0.0000
     atom:   40    charge:    1.9383    magn:   -0.0000    constr:    0.0000
     atom:   41    charge:    1.9505    magn:   -0.0000    constr:    0.0000
     atom:   42    charge:    3.1141    magn:    0.0000    constr:    0.0000
     atom:   43    charge:    1.9413    magn:   -0.0000    constr:    0.0000
     atom:   44    charge:    1.9517    magn:   -0.0000    constr:    0.0000
     atom:   45    charge:    1.9468    magn:   -0.0000    constr:    0.0000
     atom:   46    charge:    3.1165    magn:    0.0000    constr:    0.0000
     atom:   47    charge:    1.9431    magn:   -0.0000    constr:    0.0000
     atom:   48    charge:    1.9444    magn:   -0.0000    constr:    0.0000
     atom:   49    charge:    0.6603    magn:   -0.0000    constr:    0.0000
     atom:   50    charge:    1.9580    magn:   -0.0000    constr:    0.0000
     atom:   51    charge:    0.4024    magn:    0.0000    constr:    0.0000
     atom:   52    charge:    0.4007    magn:    0.0000    constr:    0.0000
     atom:   53    charge:    0.4127    magn:    0.0000    constr:    0.0000
     atom:   54    charge:    0.4037    magn:    0.0000    constr:    0.0000

     total cpu time spent up to now is     2411.7 secs

     total energy              =   -3021.41978642 Ry
     Harris-Foulkes estimate   =   -3021.41978656 Ry
     estimated scf accuracy    <       0.00000117 Ry

     total magnetization       =     0.00 Bohr mag/cell
     absolute magnetization    =     0.00 Bohr mag/cell

     iteration #  9     ecut=    40.42 Ry     beta=0.10
     Davidson diagonalization with overlap
     ethr =  2.94E-10,  avg # of iterations =  3.0

     negative rho (up, down):  1.210E-02 1.210E-02
 
     Magnetic moment per site:
     atom:    1    charge:    3.1250    magn:   -0.0000    constr:    0.0000
     atom:    2    charge:    1.9451    magn:    0.0000    constr:    0.0000
     atom:    3    charge:    3.1198    magn:    0.0000    constr:    0.0000
     atom:    4    charge:    1.9504    magn:   -0.0000    constr:    0.0000
     atom:    5    charge:    3.1166    magn:    0.0000    constr:    0.0000
     atom:    6    charge:    1.9476    magn:   -0.0000    constr:    0.0000
     atom:    7    charge:    3.1157    magn:    0.0000    constr:    0.0000
     atom:    8    charge:    1.9452    magn:   -0.0000    constr:    0.0000
     atom:    9    charge:    3.1250    magn:   -0.0000    constr:    0.0000
     atom:   10    charge:    1.9452    magn:    0.0000    constr:    0.0000
     atom:   11    charge:    3.1197    magn:    0.0000    constr:    0.0000
     atom:   12    charge:    1.9504    magn:   -0.0000    constr:    0.0000
     atom:   13    charge:    3.1158    magn:    0.0000    constr:    0.0000
     atom:   14    charge:    1.9587    magn:   -0.0000    constr:    0.0000
     atom:   15    charge:    3.1188    magn:    0.0000    constr:    0.0000
     atom:   16    charge:    1.9445    magn:   -0.0000    constr:    0.0000
     atom:   17    charge:    1.9184    magn:    0.0001    constr:    0.0000
     atom:   18    charge:    3.1239    magn:   -0.0000    constr:    0.0000
     atom:   19    charge:    1.9408    magn:   -0.0000    constr:    0.0000
     atom:   20    charge:    1.9471    magn:    0.0000    constr:    0.0000
     atom:   21    charge:    1.9471    magn:    0.0000    constr:    0.0000
     atom:   22    charge:    3.1196    magn:    0.0000    constr:    0.0000
     atom:   23    charge:    1.9566    magn:   -0.0000    constr:    0.0000
     atom:   24    charge:    1.9379    magn:   -0.0000    constr:    0.0000
     atom:   25    charge:    1.9505    magn:   -0.0000    constr:    0.0000
     atom:   26    charge:    3.1145    magn:    0.0000    constr:    0.0000
     atom:   27    charge:    1.9398    magn:   -0.0000    constr:    0.0000
     atom:   28    charge:    1.9517    magn:   -0.0000    constr:    0.0000
     atom:   29    charge:    1.9476    magn:   -0.0000    constr:    0.0000
     atom:   30    charge:    3.1167    magn:    0.0000    constr:    0.0000
     atom:   31    charge:    1.9447    magn:   -0.0000    constr:    0.0000
     atom:   32    charge:    1.9440    magn:   -0.0000    constr:    0.0000
     atom:   33    charge:    1.9184    magn:    0.0001    constr:    0.0000
     atom:   34    charge:    3.1239    magn:   -0.0000    constr:    0.0000
     atom:   35    charge:    1.9408    magn:   -0.0000    constr:    0.0000
     atom:   36    charge:    1.9471    magn:    0.0000    constr:    0.0000
     atom:   37    charge:    1.9471    magn:    0.0000    constr:    0.0000
     atom:   38    charge:    3.1196    magn:    0.0000    constr:    0.0000
     atom:   39    charge:    1.9549    magn:   -0.0000    constr:    0.0000
     atom:   40    charge:    1.9383    magn:   -0.0000    constr:    0.0000
     atom:   41    charge:    1.9505    magn:   -0.0000    constr:    0.0000
     atom:   42    charge:    3.1141    magn:    0.0000    constr:    0.0000
     atom:   43    charge:    1.9413    magn:   -0.0000    constr:    0.0000
     atom:   44    charge:    1.9517    magn:   -0.0000    constr:    0.0000
     atom:   45    charge:    1.9468    magn:   -0.0000    constr:    0.0000
     atom:   46    charge:    3.1165    magn:    0.0000    constr:    0.0000
     atom:   47    charge:    1.9431    magn:   -0.0000    constr:    0.0000
     atom:   48    charge:    1.9444    magn:   -0.0000    constr:    0.0000
     atom:   49    charge:    0.6606    magn:   -0.0000    constr:    0.0000
     atom:   50    charge:    1.9580    magn:   -0.0000    constr:    0.0000
     atom:   51    charge:    0.4024    magn:    0.0000    constr:    0.0000
     atom:   52    charge:    0.4006    magn:    0.0000    constr:    0.0000
     atom:   53    charge:    0.4127    magn:    0.0000    constr:    0.0000
     atom:   54    charge:    0.4036    magn:    0.0000    constr:    0.0000

     total cpu time spent up to now is     2608.5 secs

     End of self-consistent calculation

 ------ SPIN UP ------------


          k = 0.0000 0.0000 0.0000 ( 34665 PWs)   bands (ev):

   -57.6971 -57.6621 -57.3156 -57.2793 -57.2298 -57.1079 -57.0715 -57.0706
   -57.0486 -57.0359 -56.9880 -56.9525 -56.7288 -56.6914 -56.1476 -56.1123
   -34.1332 -33.9793 -33.9508 -33.8981 -33.8679 -33.8038 -33.7433 -33.6509
   -33.6162 -33.6033 -33.5659 -33.5386 -33.5165 -33.5055 -33.4876 -33.4826
   -33.4622 -33.4522 -33.4289 -33.3970 -33.3223 -33.2901 -33.2699 -33.2607
   -33.2527 -33.2521 -33.2414 -33.2413 -33.2353 -33.2278 -33.2269 -33.2106
   -33.1783 -33.1780 -33.1729 -33.1388 -33.1162 -32.9949 -32.9767 -32.9557
   -32.9064 -32.8036 -32.5654 -32.4999 -32.4738 -32.3696 -32.2779 -32.1696
   -20.2948 -18.0105 -17.8395 -17.5550 -17.4599 -17.3707 -17.2497 -17.0757
   -17.0645 -16.9724 -16.9370 -16.8824 -16.7820 -16.7755 -16.7271 -16.7055
   -16.7015 -16.6605 -16.6093 -16.6024 -16.5341 -16.4135 -16.4010 -16.3963
   -16.3193 -16.2659 -16.1928 -16.1656 -16.1481 -15.9777 -15.9284 -14.7320
   -14.6483 -11.4950  -7.2326  -5.4699  -5.3936  -5.3132  -5.2794  -5.2031
    -5.1437  -5.1245  -4.8373  -4.8176  -4.4702  -4.4408  -4.3580  -4.3534
    -4.3197  -4.2307  -4.0880  -4.0589  -4.0535  -4.0159  -3.9972  -3.9893
    -3.9589  -3.9502  -3.9492  -3.8381  -3.7872  -3.7637  -3.7348  -3.7168
    -3.6308  -3.6151  -3.5850  -3.5758  -3.5181  -3.5059  -3.4067  -3.3915
    -3.3705  -3.2671  -3.2346  -3.1859  -3.0118  -2.9340  -2.8770  -2.8300
    -2.6927  -2.6051  -2.5881  -2.5783  -2.5731  -2.5665  -2.4304  -2.4124
    -2.3342  -2.2672  -2.2452  -2.2029  -2.1985  -2.1658  -2.1366  -2.0910
    -2.0459  -2.0260  -2.0181  -1.8839  -1.8644  -1.7621  -1.7339  -1.6224
    -1.5410  -1.5395  -1.4884  -1.4788  -1.4612  -1.4216  -1.3219  -1.3075
    -1.3006  -1.2779  -1.2409  -1.1338  -1.0848  -1.0821  -1.0652  -1.0181
    -0.9525  -0.9137  -0.8190  -0.7632  -0.6086  -0.5856  -0.5674  -0.4774
    -0.3744  -0.2403  -0.0829  -0.0245   0.1332   0.2501   0.2637   1.6444
     1.6769   1.9875   2.0039   2.0675   2.0975   2.2069   2.2461   2.2891
     2.4321   2.4993   2.5279   2.5325   2.5439   2.6331   2.6511   2.6592
     2.7173   2.8016   2.8291   2.8411   2.9130   3.0019   3.0355   3.1016
     3.1071   3.1165   3.1630   3.2040   3.2103   3.2284   3.2419   3.2534
     3.2625   3.2910   3.3987   3.4335   3.4587   3.4684   3.5302   3.5878
     3.6552   3.6969   3.8099   3.9827   4.0181   4.0937   4.1818   4.3224
     4.3406   4.3937   4.5882   4.6013   4.8133   4.8407   5.0889   5.1689
     5.2479   5.3325   5.4795   5.5194   5.5266   5.5953   5.6796   5.7142
     5.8018   5.8674   5.8785   5.8885   5.9568   6.0397   6.0498   6.0737
     6.1464   6.2311   6.2457   6.2992   6.3801   6.5839   6.6380   6.7575
     6.8431   7.0105   7.0412   7.1590   7.3042   7.5797   7.9135   8.2551
     8.3517   8.6776   8.7964   8.8718   8.9400   9.0085   9.1759   9.2568
     9.3538   9.3815   9.5319

          k = 0.0000 0.0280 0.0000 ( 34717 PWs)   bands (ev):

   -57.6947 -57.6645 -57.3132 -57.2817 -57.2294 -57.1056 -57.0736 -57.0685
   -57.0490 -57.0382 -56.9856 -56.9549 -56.7264 -56.6938 -56.1452 -56.1147
   -34.1078 -33.9773 -33.9526 -33.8919 -33.8420 -33.8103 -33.7703 -33.6281
   -33.6094 -33.5783 -33.5405 -33.5356 -33.5185 -33.4986 -33.4900 -33.4822
   -33.4691 -33.4593 -33.4270 -33.3901 -33.3162 -33.2884 -33.2837 -33.2622
   -33.2569 -33.2502 -33.2483 -33.2378 -33.2361 -33.2344 -33.2340 -33.2159
   -33.2008 -33.1831 -33.1751 -33.1428 -33.1396 -32.9910 -32.9753 -32.9571
   -32.9115 -32.8316 -32.5397 -32.4982 -32.4757 -32.3635 -32.2842 -32.1971
   -20.2946 -17.9487 -17.7819 -17.5021 -17.4077 -17.3270 -17.2231 -17.0894
   -17.0343 -16.9965 -16.9909 -16.8841 -16.8174 -16.7595 -16.7051 -16.6874
   -16.6740 -16.6629 -16.6548 -16.6401 -16.5931 -16.4373 -16.3824 -16.3664
   -16.3459 -16.2955 -16.2098 -16.1722 -16.1519 -16.0085 -15.9654 -14.7420
   -14.6717 -11.4947  -7.2323  -5.4346  -5.3127  -5.2860  -5.2501  -5.1285
    -5.0665  -5.0453  -4.7618  -4.7024  -4.4336  -4.3988  -4.3923  -4.3100
    -4.2994  -4.1581  -4.1220  -4.1119  -4.0897  -4.0687  -4.0306  -4.0285
    -3.9640  -3.9595  -3.9480  -3.8901  -3.8513  -3.8447  -3.8360  -3.7644
    -3.7198  -3.7043  -3.6640  -3.6141  -3.5735  -3.5551  -3.4281  -3.3554
    -3.3088  -3.2331  -3.2009  -3.1015  -2.9327  -2.8695  -2.7428  -2.7226
    -2.6120  -2.5983  -2.5234  -2.5080  -2.4761  -2.4384  -2.4103  -2.4064
    -2.3846  -2.3599  -2.2863  -2.2748  -2.1665  -2.1407  -2.1344  -2.0924
    -2.0203  -1.9960  -1.9523  -1.8751  -1.8089  -1.7665  -1.7053  -1.6802
    -1.6409  -1.6234  -1.5618  -1.5238  -1.4798  -1.4363  -1.4338  -1.3942
    -1.3530  -1.2695  -1.2163  -1.2121  -1.1577  -1.0889  -1.0695  -1.0203
    -1.0075  -0.9027  -0.8662  -0.7891  -0.7595  -0.7047  -0.6063  -0.5892
    -0.3927  -0.2684  -0.0898  -0.0788   0.1481   0.2036   0.2303   1.7308
     1.7767   1.9877   2.0672   2.1328   2.1534   2.2206   2.2761   2.3150
     2.4265   2.4632   2.5008   2.5374   2.5879   2.6049   2.6325   2.6937
     2.7346   2.7726   2.7989   2.9145   2.9245   2.9534   2.9780   3.0119
     3.1132   3.1188   3.1365   3.1769   3.1944   3.2073   3.2603   3.3062
     3.3373   3.3727   3.4090   3.4754   3.5085   3.5537   3.5636   3.6508
     3.6668   3.6876   3.7735   3.9617   4.0360   4.1157   4.1928   4.2882
     4.3250   4.3989   4.5427   4.6908   4.8671   4.9272   5.0929   5.2604
     5.3063   5.3370   5.5392   5.5685   5.6055   5.6240   5.6879   5.7219
     5.7862   5.7945   5.8535   5.8799   5.9010   5.9496   6.0706   6.1246
     6.1513   6.1594   6.1767   6.2088   6.2771   6.5606   6.6045   6.6959
     6.8483   6.9502   6.9815   7.0820   7.2326   7.5875   7.9235   8.0202
     8.0620   8.4577   8.5643   8.8441   8.9080   8.9980   9.0905   9.1332
     9.2766   9.4350   9.5080

          k = 0.0000 0.0560 0.0000 ( 34721 PWs)   bands (ev):

   -57.6884 -57.6709 -57.3067 -57.2883 -57.2286 -57.0996 -57.0797 -57.0622
   -57.0499 -57.0447 -56.9792 -56.9614 -56.7198 -56.7005 -56.1388 -56.1212
   -34.0380 -33.9720 -33.9576 -33.8748 -33.8433 -33.8277 -33.7709 -33.5938
   -33.5704 -33.5697 -33.5326 -33.5252 -33.5045 -33.5019 -33.4739 -33.4705
   -33.4536 -33.4241 -33.4167 -33.3706 -33.3138 -33.3111 -33.3109 -33.2997
   -33.2841 -33.2744 -33.2658 -33.2615 -33.2516 -33.2443 -33.2324 -33.2302
   -33.2081 -33.1962 -33.1686 -33.1631 -33.1246 -32.9860 -32.9717 -32.9604
   -32.9244 -32.9013 -32.4934 -32.4804 -32.4690 -32.3469 -32.3011 -32.2712
   -20.2943 -17.7776 -17.6233 -17.3707 -17.2738 -17.2582 -17.2169 -17.1651
   -17.1342 -16.9605 -16.9514 -16.9169 -16.8718 -16.8176 -16.7862 -16.7238
   -16.7141 -16.6820 -16.6230 -16.5950 -16.5382 -16.5028 -16.4207 -16.3761
   -16.3606 -16.3001 -16.2389 -16.1932 -16.1554 -16.1092 -16.0382 -14.7602
   -14.7223 -11.4939  -7.2314  -5.4016  -5.2965  -5.0746  -5.0360  -4.9223
    -4.8566  -4.8224  -4.5600  -4.5037  -4.4711  -4.4158  -4.4077  -4.3646
    -4.3295  -4.2581  -4.2330  -4.2100  -4.1944  -4.1847  -4.1549  -4.0738
    -4.0558  -4.0041  -3.9854  -3.9669  -3.9288  -3.8893  -3.8545  -3.8159
    -3.7953  -3.7294  -3.6339  -3.5840  -3.4317  -3.4254  -3.3311  -3.2665
    -3.2369  -3.2102  -3.1906  -3.0803  -2.8901  -2.8417  -2.8355  -2.7968
    -2.7201  -2.6666  -2.5458  -2.4718  -2.4415  -2.3206  -2.3143  -2.3094
    -2.3017  -2.2475  -2.2052  -2.1774  -2.1461  -2.1157  -2.0301  -2.0083
    -1.9596  -1.9459  -1.9155  -1.9033  -1.8818  -1.8477  -1.8149  -1.7811
    -1.7435  -1.6919  -1.6233  -1.5402  -1.5253  -1.5078  -1.4538  -1.4181
    -1.3789  -1.3629  -1.3483  -1.2887  -1.2374  -1.2153  -1.1548  -1.1022
    -1.0826  -1.0219  -0.9221  -0.8896  -0.8490  -0.7833  -0.7614  -0.6583
    -0.5852  -0.4614  -0.2402   0.0929   0.1452   0.1803   0.1870   1.8664
     2.0263   2.0997   2.1108   2.2117   2.2364   2.2711   2.3684   2.3910
     2.3975   2.4131   2.4362   2.4778   2.5049   2.5400   2.6761   2.6972
     2.7359   2.7769   2.8320   2.9055   2.9173   2.9400   2.9734   2.9751
     3.0169   3.1004   3.1394   3.1588   3.2520   3.2635   3.2880   3.3310
     3.3700   3.3881   3.4423   3.5390   3.5452   3.6382   3.6787   3.7287
     3.7619   3.8248   3.8597   3.8917   3.9333   4.1321   4.1434   4.1600
     4.3281   4.3772   4.5668   4.9077   5.0175   5.0631   5.1762   5.3799
     5.3840   5.4801   5.5199   5.5513   5.6502   5.7246   5.7257   5.7350
     5.7810   5.7892   5.8007   5.8576   5.8869   5.9465   5.9797   5.9916
     6.0031   6.0563   6.1568   6.1727   6.3069   6.3748   6.4118   6.6165
     6.6630   6.7826   6.8711   7.0437   7.2155   7.3355   7.4438   7.7340
     8.0839   8.2098   8.3453   8.6155   8.8967   8.9921   9.3099   9.3290
     9.4293   9.4410   9.5719

          k = 0.0000-0.0840 0.0000 ( 34678 PWs)   bands (ev):

   -57.6797 -57.6795 -57.2992 -57.2959 -57.2282 -57.0941 -57.0852 -57.0535
   -57.0534 -57.0503 -56.9708 -56.9698 -56.7127 -56.7075 -56.1300 -56.1300
   -33.9649 -33.9647 -33.9415 -33.9413 -33.8514 -33.8512 -33.6840 -33.6600
   -33.5639 -33.5604 -33.5261 -33.5159 -33.5116 -33.4741 -33.4507 -33.4219
   -33.4121 -33.4057 -33.3734 -33.3731 -33.3603 -33.3452 -33.3394 -33.3221
   -33.3208 -33.2830 -33.2762 -33.2741 -33.2672 -33.2650 -33.2308 -33.2291
   -33.2135 -33.2117 -33.1616 -33.1608 -33.0475 -33.0266 -32.9686 -32.9632
   -32.9383 -32.9353 -32.4869 -32.4869 -32.3711 -32.3710 -32.3240 -32.3240
   -20.2942 -17.5669 -17.5034 -17.4085 -17.3882 -17.2273 -17.1733 -17.0642
   -17.0599 -17.0139 -17.0011 -16.9875 -16.8698 -16.8378 -16.8378 -16.7991
   -16.7925 -16.5943 -16.5923 -16.5234 -16.5215 -16.4867 -16.4852 -16.4029
   -16.4007 -16.2611 -16.2590 -16.1994 -16.1954 -16.1303 -16.1007 -14.7590
   -14.7589 -11.4935  -7.2309  -5.3931  -5.3024  -4.7977  -4.7315  -4.7305
    -4.6539  -4.6403  -4.6356  -4.6000  -4.5715  -4.5082  -4.5000  -4.3987
    -4.3714  -4.3375  -4.3356  -4.3068  -4.2937  -4.2785  -4.2732  -4.0529
    -4.0312  -4.0218  -4.0088  -3.9906  -3.9407  -3.8080  -3.7916  -3.7861
    -3.7149  -3.6927  -3.6380  -3.5051  -3.4723  -3.3379  -3.3247  -3.2416
    -3.1367  -3.1145  -3.0426  -3.0176  -2.9612  -2.9233  -2.8025  -2.7865
    -2.6961  -2.6918  -2.5752  -2.5375  -2.5113  -2.4933  -2.4763  -2.4456
    -2.4368  -2.4161  -2.3287  -2.2430  -2.0275  -2.0055  -1.9667  -1.9403
    -1.9256  -1.8270  -1.8208  -1.8073  -1.7799  -1.7430  -1.7292  -1.6978
    -1.6634  -1.6386  -1.6120  -1.5565  -1.5137  -1.4858  -1.4794  -1.4510
    -1.4235  -1.4157  -1.4083  -1.3801  -1.3573  -1.3246  -1.2206  -1.1861
    -1.0999  -1.0714  -1.0103  -0.9762  -0.9689  -0.9582  -0.9426  -0.5223
    -0.5173  -0.4551  -0.4409   0.1453   0.1454   0.1880   0.1897   2.0409
     2.0440   2.2205   2.2216   2.2226   2.2387   2.2869   2.3418   2.3488
     2.3489   2.3744   2.3852   2.5298   2.5556   2.5567   2.6031   2.6662
     2.7170   2.7388   2.7518   2.8935   2.9245   2.9917   2.9992   3.0591
     3.0603   3.1038   3.1146   3.1822   3.2203   3.2351   3.2479   3.4057
     3.4280   3.4390   3.4417   3.4747   3.4856   3.7269   3.7675   3.8059
     3.8094   3.8339   3.9107   3.9331   3.9705   4.0753   4.0776   4.1276
     4.1282   4.4193   4.6753   4.9623   5.0025   5.2609   5.3325   5.4591
     5.4909   5.5100   5.5100   5.5698   5.6065   5.6485   5.6672   5.6733
     5.8009   5.8061   5.8281   5.8537   5.8637   5.8685   5.8852   5.9754
     6.0218   6.0613   6.0733   6.1607   6.1982   6.4061   6.4675   6.5661
     6.6055   6.7458   6.7746   6.9811   7.0326   7.1024   7.3286   7.7008
     7.8933   8.1679   8.4144   8.7831   8.8384   8.8739   9.1397   9.6925
     9.7032   9.7486   9.7930

          k = 0.0253 0.0000 0.0000 ( 34707 PWs)   bands (ev):

   -57.6971 -57.6621 -57.3156 -57.2793 -57.2298 -57.1078 -57.0715 -57.0707
   -57.0486 -57.0359 -56.9880 -56.9525 -56.7288 -56.6914 -56.1476 -56.1123
   -34.1335 -33.9793 -33.9508 -33.8974 -33.8680 -33.8038 -33.7434 -33.6516
   -33.6162 -33.6050 -33.5662 -33.5351 -33.5303 -33.5064 -33.4826 -33.4728
   -33.4609 -33.4522 -33.4290 -33.3901 -33.3222 -33.2903 -33.2696 -33.2607
   -33.2562 -33.2553 -33.2425 -33.2395 -33.2376 -33.2278 -33.2270 -33.2105
   -33.1782 -33.1779 -33.1733 -33.1388 -33.1163 -32.9949 -32.9791 -32.9549
   -32.9065 -32.8038 -32.5653 -32.5009 -32.4733 -32.3696 -32.2780 -32.1697
   -20.2946 -17.9807 -17.7996 -17.5127 -17.4310 -17.3540 -17.2563 -17.1426
   -17.0903 -16.9733 -16.9365 -16.8692 -16.8170 -16.8036 -16.7874 -16.7785
   -16.7278 -16.6910 -16.5544 -16.5319 -16.4521 -16.4504 -16.4020 -16.3683
   -16.3368 -16.3105 -16.1813 -16.1634 -16.1494 -15.9775 -15.9281 -14.7308
   -14.6481 -11.4938  -7.2299  -5.4646  -5.3043  -5.2786  -5.2618  -5.0955
    -5.0424  -5.0141  -4.8319  -4.8130  -4.6158  -4.4672  -4.4338  -4.3293
    -4.3093  -4.2994  -4.2456  -4.0970  -4.0346  -4.0307  -3.9944  -3.9431
    -3.9359  -3.9078  -3.8288  -3.7989  -3.7498  -3.7181  -3.6929  -3.6906
    -3.6184  -3.5959  -3.5680  -3.5606  -3.5147  -3.4454  -3.3290  -3.3074
    -3.2490  -3.2316  -3.1787  -3.1046  -3.0320  -2.9744  -2.9214  -2.8941
    -2.7472  -2.6725  -2.6301  -2.5982  -2.5774  -2.5278  -2.5177  -2.5016
    -2.4300  -2.3335  -2.3204  -2.2346  -2.2188  -2.1800  -2.1580  -2.0685
    -2.0073  -1.9973  -1.9613  -1.8801  -1.8494  -1.7514  -1.7379  -1.6489
    -1.5839  -1.5801  -1.5360  -1.4615  -1.4559  -1.3647  -1.3558  -1.3428
    -1.3351  -1.2883  -1.2721  -1.1879  -1.1253  -1.1155  -1.0779  -1.0464
    -0.9710  -0.9131  -0.8280  -0.7843  -0.7724  -0.6491  -0.6407  -0.5489
    -0.4190  -0.2347  -0.1138  -0.0519   0.1191   0.2073   0.2081   1.6638
     1.7269   2.0031   2.0737   2.1506   2.2255   2.2402   2.2719   2.3801
     2.3874   2.4598   2.5066   2.5245   2.5431   2.5803   2.5995   2.6383
     2.6578   2.7365   2.7597   2.8692   2.8861   2.9721   3.0329   3.1063
     3.1230   3.1462   3.1645   3.2053   3.2107   3.2559   3.2714   3.3415
     3.3793   3.4041   3.4530   3.4750   3.5375   3.5624   3.5940   3.6018
     3.6661   3.7320   3.7493   3.9157   4.0039   4.0979   4.1760   4.2785
     4.3763   4.3968   4.5550   4.6774   4.8654   4.9142   4.9283   5.0716
     5.1234   5.1479   5.1909   5.3528   5.5685   5.6213   5.6951   5.8682
     5.8848   5.9271   5.9610   6.0321   6.0824   6.1155   6.1627   6.2116
     6.2209   6.2539   6.2610   6.3099   6.4505   6.5266   6.6426   6.6675
     6.8223   6.8701   7.0360   7.1466   7.3041   7.7490   7.8547   8.0884
     8.3368   8.3702   8.4331   8.6849   8.8473   8.9663   9.1505   9.3489
     9.3646   9.4723   9.4989

          k = 0.0253 0.0280 0.0000 ( 34687 PWs)   bands (ev):

   -57.6947 -57.6645 -57.3132 -57.2817 -57.2294 -57.1056 -57.0736 -57.0686
   -57.0490 -57.0382 -56.9856 -56.9549 -56.7264 -56.6938 -56.1452 -56.1147
   -34.1081 -33.9773 -33.9526 -33.8912 -33.8420 -33.8102 -33.7703 -33.6288
   -33.6094 -33.5800 -33.5408 -33.5324 -33.5197 -33.5140 -33.4902 -33.4698
   -33.4638 -33.4581 -33.4270 -33.3833 -33.3161 -33.2885 -33.2814 -33.2622
   -33.2569 -33.2521 -33.2503 -33.2457 -33.2357 -33.2344 -33.2331 -33.2146
   -33.2009 -33.1831 -33.1751 -33.1427 -33.1396 -32.9911 -32.9774 -32.9563
   -32.9115 -32.8316 -32.5396 -32.4991 -32.4751 -32.3635 -32.2842 -32.1971
   -20.2944 -17.9204 -17.7429 -17.4615 -17.3812 -17.3070 -17.2298 -17.1264
   -17.0957 -17.0040 -16.9612 -16.8564 -16.8283 -16.8034 -16.7818 -16.7681
   -16.7109 -16.6978 -16.5980 -16.5774 -16.5044 -16.4729 -16.3794 -16.3630
   -16.3541 -16.3274 -16.1984 -16.1717 -16.1516 -16.0089 -15.9652 -14.7410
   -14.6717 -11.4934  -7.2294  -5.4378  -5.2851  -5.2384  -5.1796  -5.0190
    -4.9641  -4.9340  -4.7568  -4.6994  -4.5600  -4.4012  -4.3695  -4.3436
    -4.2575  -4.2508  -4.1846  -4.1163  -4.0847  -4.0624  -4.0316  -4.0184
    -3.9742  -3.9405  -3.9108  -3.8660  -3.8200  -3.8080  -3.7823  -3.7177
    -3.6953  -3.6620  -3.6132  -3.6031  -3.5390  -3.5238  -3.3503  -3.2919
    -3.2497  -3.2153  -3.1474  -3.0710  -2.9801  -2.9478  -2.7817  -2.7035
    -2.6782  -2.6341  -2.6085  -2.5326  -2.5012  -2.4523  -2.4458  -2.4188
    -2.4031  -2.3846  -2.3381  -2.3003  -2.2138  -2.1760  -2.1139  -2.0983
    -2.0648  -1.9936  -1.9468  -1.8899  -1.8632  -1.8247  -1.7600  -1.6722
    -1.6430  -1.6146  -1.5866  -1.5601  -1.5069  -1.4600  -1.4380  -1.3988
    -1.3427  -1.3260  -1.2674  -1.2531  -1.2061  -1.1075  -1.0958  -1.0587
    -1.0096  -0.8854  -0.8377  -0.8332  -0.7625  -0.7373  -0.6943  -0.6565
    -0.4301  -0.2794  -0.1320  -0.0838   0.1512   0.1805   0.1907   1.7229
     1.8470   2.0183   2.1012   2.1979   2.2470   2.2841   2.3185   2.3992
     2.4196   2.4693   2.4911   2.5267   2.5347   2.5546   2.5929   2.6762
     2.7074   2.7296   2.7894   2.8090   2.9326   2.9891   3.0119   3.0371
     3.1085   3.1366   3.1479   3.1748   3.2107   3.2444   3.3462   3.3756
     3.4081   3.4384   3.4648   3.5123   3.5546   3.5709   3.6384   3.6630
     3.6754   3.7103   3.7519   3.8967   3.9958   4.1399   4.1874   4.2550
     4.3086   4.4544   4.5114   4.7717   4.9313   4.9549   4.9956   5.0799
     5.1621   5.1774   5.2257   5.3891   5.6442   5.6825   5.7326   5.7790
     5.8564   5.8671   5.8735   6.0097   6.0730   6.0875   6.1216   6.1469
     6.1989   6.2107   6.2211   6.2365   6.4305   6.5311   6.6136   6.6620
     6.7870   6.8677   6.9651   7.1508   7.2271   7.5043   7.9327   8.0304
     8.0954   8.2593   8.4483   8.5803   8.6533   8.7845   8.9432   9.2668
     9.3608   9.4659   9.5100

          k = 0.0253 0.0560 0.0000 ( 34699 PWs)   bands (ev):

   -57.6884 -57.6709 -57.3067 -57.2883 -57.2286 -57.0995 -57.0797 -57.0622
   -57.0499 -57.0447 -56.9792 -56.9614 -56.7198 -56.7005 -56.1388 -56.1212
   -34.0383 -33.9720 -33.9577 -33.8743 -33.8434 -33.8275 -33.7710 -33.5938
   -33.5710 -33.5698 -33.5328 -33.5232 -33.5066 -33.5055 -33.4739 -33.4708
   -33.4527 -33.4241 -33.4114 -33.3652 -33.3143 -33.3118 -33.3066 -33.2995
   -33.2842 -33.2748 -33.2658 -33.2604 -33.2517 -33.2465 -33.2364 -33.2326
   -33.2082 -33.1969 -33.1686 -33.1630 -33.1244 -32.9860 -32.9732 -32.9603
   -32.9245 -32.9012 -32.4941 -32.4802 -32.4689 -32.3469 -32.3011 -32.2712
   -20.2942 -17.7541 -17.5875 -17.3413 -17.2621 -17.2425 -17.1914 -17.1659
   -17.1372 -16.9939 -16.9681 -16.8786 -16.8741 -16.8271 -16.7942 -16.7706
   -16.7459 -16.6683 -16.6208 -16.6026 -16.5774 -16.5282 -16.4248 -16.4101
   -16.3539 -16.2830 -16.2320 -16.1925 -16.1551 -16.1100 -16.0376 -14.7596
   -14.7225 -11.4926  -7.2285  -5.4090  -5.2959  -5.0296  -4.9468  -4.8107
    -4.7548  -4.7125  -4.5563  -4.4960  -4.4885  -4.4118  -4.3922  -4.3373
    -4.2687  -4.2294  -4.2137  -4.1900  -4.1457  -4.1392  -4.1046  -4.0599
    -4.0305  -4.0107  -3.9912  -3.9334  -3.9224  -3.8730  -3.8572  -3.8195
    -3.7723  -3.7139  -3.6527  -3.5697  -3.4715  -3.3943  -3.3215  -3.2800
    -3.2351  -3.2213  -3.1810  -3.0101  -2.9346  -2.8614  -2.8275  -2.7777
    -2.7556  -2.6440  -2.5906  -2.5078  -2.4867  -2.4356  -2.3905  -2.3638
    -2.3409  -2.3224  -2.2863  -2.2614  -2.1879  -2.1392  -2.1257  -2.0382
    -2.0095  -2.0076  -1.9448  -1.9363  -1.9010  -1.8594  -1.8322  -1.8101
    -1.7432  -1.7015  -1.6766  -1.6354  -1.5711  -1.5358  -1.4923  -1.4733
    -1.4291  -1.3713  -1.3366  -1.3011  -1.2215  -1.2035  -1.1302  -1.1037
    -1.0595  -1.0114  -0.9100  -0.8737  -0.8191  -0.7978  -0.7419  -0.6788
    -0.6048  -0.4633  -0.2540   0.0939   0.1305   0.1576   0.1901   1.8637
     2.0500   2.1346   2.1808   2.2336   2.2740   2.3078   2.3498   2.3867
     2.4283   2.4640   2.4830   2.5102   2.5222   2.5856   2.6959   2.7237
     2.7410   2.7783   2.8259   2.8419   2.9059   2.9545   2.9768   2.9882
     3.0294   3.0357   3.1585   3.2096   3.2885   3.3315   3.3425   3.3853
     3.4096   3.4409   3.4628   3.5427   3.5616   3.6328   3.6580   3.7362
     3.7948   3.8216   3.8633   3.9025   3.9066   4.0738   4.1187   4.1673
     4.3449   4.3861   4.6182   4.9665   5.0145   5.1284   5.1437   5.1600
     5.2641   5.2912   5.3156   5.4390   5.5121   5.5632   5.6391   5.7604
     5.8255   5.8521   5.8936   5.9356   5.9623   6.0038   6.0495   6.0621
     6.1381   6.1586   6.2244   6.3301   6.3812   6.4046   6.4832   6.6435
     6.6946   6.7983   6.8498   7.0373   7.1513   7.3653   7.4832   7.5884
     7.9828   8.1806   8.3499   8.5199   8.6605   8.8588   9.0465   9.1152
     9.1817   9.4892   9.6254

          k = 0.0253-0.0840 0.0000 ( 34722 PWs)   bands (ev):

   -57.6797 -57.6795 -57.2992 -57.2959 -57.2282 -57.0940 -57.0851 -57.0535
   -57.0534 -57.0503 -56.9708 -56.9698 -56.7128 -56.7075 -56.1300 -56.1300
   -33.9649 -33.9647 -33.9417 -33.9416 -33.8511 -33.8509 -33.6841 -33.6602
   -33.5639 -33.5604 -33.5267 -33.5157 -33.5115 -33.4741 -33.4499 -33.4221
   -33.4142 -33.4081 -33.3743 -33.3741 -33.3611 -33.3384 -33.3325 -33.3207
   -33.3193 -33.2828 -33.2760 -33.2743 -33.2675 -33.2636 -33.2344 -33.2329
   -33.2152 -33.2134 -33.1616 -33.1608 -33.0474 -33.0266 -32.9692 -32.9640
[...]
    -1.2958  -1.2650  -1.2523  -1.1879  -1.1518  -1.0293  -1.0180  -1.0098
    -0.9866  -0.9467  -0.9029  -0.8360  -0.7543  -0.6988  -0.6450  -0.5919
    -0.5879  -0.5326  -0.5160   0.0680   0.0681   0.2128   0.2145   2.1555
     2.1563   2.2029   2.2047   2.2406   2.2415   2.2687   2.3001   2.4900
     2.4954   2.5276   2.5574   2.6111   2.6188   2.6814   2.6833   2.6929
     2.6941   2.8464   2.9120   2.9849   3.0000   3.0362   3.0438   3.1010
     3.2219   3.2513   3.2743   3.3350   3.3756   3.3923   3.4468   3.4948
     3.5023   3.5246   3.5511   3.5830   3.6056   3.6819   3.7019   3.7469
     3.8369   3.8930   3.9091   3.9547   3.9551   4.0981   4.1050   4.1137
     4.1142   4.6158   4.7853   4.7890   4.8050   4.8729   4.9225   4.9275
     4.9441   4.9868   5.0293   5.2509   5.3420   5.3608   5.3714   5.7313
     5.8015   5.9125   5.9292   5.9815   6.0447   6.1470   6.3052   6.3513
     6.3672   6.3766   6.4127   6.5755   6.6270   6.6670   6.6671   6.7050
     6.7625   6.8462   6.8471   6.8543   6.8552   7.3593   7.4058   7.5226
     7.6632   7.8299   8.0103   8.1716   8.2241   8.3213   8.3832   8.8267
     8.9165   9.0449   9.0816

          k =-0.0253 0.0280 0.0000 ( 34687 PWs)   bands (ev):

   -57.6948 -57.6645 -57.3132 -57.2817 -57.2294 -57.1055 -57.0736 -57.0686
   -57.0490 -57.0382 -56.9856 -56.9549 -56.7264 -56.6938 -56.1454 -56.1149
   -34.1082 -33.9774 -33.9527 -33.8913 -33.8420 -33.8102 -33.7704 -33.6288
   -33.6094 -33.5800 -33.5408 -33.5324 -33.5197 -33.5140 -33.4901 -33.4698
   -33.4637 -33.4581 -33.4269 -33.3833 -33.3161 -33.2885 -33.2814 -33.2622
   -33.2566 -33.2521 -33.2505 -33.2457 -33.2357 -33.2343 -33.2331 -33.2146
   -33.2009 -33.1831 -33.1751 -33.1426 -33.1395 -32.9911 -32.9774 -32.9563
   -32.9115 -32.8316 -32.5398 -32.4993 -32.4753 -32.3637 -32.2844 -32.1973
   -20.2945 -17.9204 -17.7428 -17.4615 -17.3812 -17.3070 -17.2299 -17.1263
   -17.0959 -17.0037 -16.9612 -16.8568 -16.8283 -16.8043 -16.7814 -16.7680
   -16.7109 -16.6980 -16.5978 -16.5771 -16.5044 -16.4730 -16.3795 -16.3631
   -16.3542 -16.3274 -16.1985 -16.1718 -16.1516 -16.0089 -15.9652 -14.7407
   -14.6713 -11.4934  -7.2294  -5.4377  -5.2851  -5.2383  -5.1796  -5.0194
    -4.9642  -4.9343  -4.7568  -4.7001  -4.5599  -4.4009  -4.3694  -4.3439
    -4.2588  -4.2476  -4.1859  -4.1148  -4.0889  -4.0622  -4.0341  -4.0183
    -3.9730  -3.9387  -3.9121  -3.8669  -3.8201  -3.8096  -3.7823  -3.7177
    -3.6982  -3.6608  -3.6130  -3.6023  -3.5374  -3.5229  -3.3544  -3.2857
    -3.2500  -3.2168  -3.1458  -3.0690  -2.9812  -2.9440  -2.7807  -2.7028
    -2.6775  -2.6346  -2.6083  -2.5301  -2.5021  -2.4495  -2.4453  -2.4206
    -2.4039  -2.3825  -2.3376  -2.2992  -2.2157  -2.1733  -2.1197  -2.1017
    -2.0606  -1.9898  -1.9483  -1.8930  -1.8618  -1.8251  -1.7408  -1.7055
    -1.6507  -1.5971  -1.5909  -1.5579  -1.5137  -1.4683  -1.4339  -1.3908
    -1.3427  -1.3307  -1.2787  -1.2403  -1.1948  -1.1099  -1.0968  -1.0568
    -1.0095  -0.8907  -0.8386  -0.8289  -0.7534  -0.7368  -0.7064  -0.6575
    -0.4310  -0.2794  -0.1325  -0.0836   0.1514   0.1808   0.1911   1.7227
     1.8469   2.0182   2.1027   2.1977   2.2483   2.2873   2.3212   2.4062
     2.4176   2.4523   2.4882   2.5321   2.5347   2.5496   2.6101   2.6708
     2.7076   2.7412   2.7778   2.8145   2.9411   2.9883   3.0065   3.0294
     3.1096   3.1382   3.1484   3.1764   3.2108   3.2416   3.3497   3.3746
     3.4059   3.4220   3.4663   3.5086   3.5637   3.5729   3.6392   3.6629
     3.6752   3.7113   3.7513   3.8955   3.9945   4.1417   4.1874   4.2554
     4.3086   4.4548   4.5117   4.7726   4.9393   4.9540   4.9864   5.0799
     5.1610   5.1771   5.2255   5.3879   5.6460   5.6754   5.7295   5.7889
     5.8545   5.8669   5.8745   6.0086   6.0756   6.0803   6.1261   6.1477
     6.1989   6.2093   6.2172   6.2451   6.4305   6.5290   6.6131   6.6676
     6.7914   6.8612   6.9651   7.1508   7.2273   7.5137   7.9304   8.0316
     8.0955   8.2476   8.4436   8.5803   8.6479   8.7754   8.9554   9.2694
     9.3576   9.4657   9.5159

          k =-0.0253 0.0560 0.0000 ( 34699 PWs)   bands (ev):

   -57.6884 -57.6710 -57.3066 -57.2883 -57.2285 -57.0995 -57.0797 -57.0622
   -57.0498 -57.0447 -56.9791 -56.9614 -56.7197 -56.7005 -56.1390 -56.1214
   -34.0383 -33.9720 -33.9578 -33.8744 -33.8434 -33.8275 -33.7709 -33.5938
   -33.5709 -33.5698 -33.5327 -33.5231 -33.5066 -33.5055 -33.4739 -33.4708
   -33.4526 -33.4241 -33.4113 -33.3652 -33.3142 -33.3118 -33.3066 -33.2995
   -33.2842 -33.2748 -33.2658 -33.2604 -33.2516 -33.2466 -33.2364 -33.2326
   -33.2081 -33.1968 -33.1685 -33.1630 -33.1244 -32.9860 -32.9730 -32.9603
   -32.9244 -32.9012 -32.4942 -32.4804 -32.4691 -32.3471 -32.3013 -32.2714
   -20.2942 -17.7541 -17.5875 -17.3413 -17.2621 -17.2427 -17.1916 -17.1658
   -17.1370 -16.9939 -16.9680 -16.8786 -16.8744 -16.8276 -16.7947 -16.7706
   -16.7457 -16.6680 -16.6206 -16.6023 -16.5774 -16.5284 -16.4248 -16.4102
   -16.3540 -16.2830 -16.2320 -16.1926 -16.1551 -16.1101 -16.0376 -14.7592
   -14.7221 -11.4926  -7.2284  -5.4089  -5.2959  -5.0292  -4.9468  -4.8113
    -4.7549  -4.7126  -4.5563  -4.4944  -4.4890  -4.4115  -4.3924  -4.3421
    -4.2690  -4.2305  -4.2132  -4.1901  -4.1455  -4.1386  -4.1060  -4.0599
    -4.0294  -4.0080  -3.9925  -3.9346  -3.9222  -3.8712  -3.8609  -3.8201
    -3.7719  -3.7120  -3.6536  -3.5698  -3.4708  -3.3942  -3.3270  -3.2800
    -3.2358  -3.2148  -3.1751  -3.0110  -2.9323  -2.8626  -2.8243  -2.7810
    -2.7531  -2.6435  -2.5897  -2.5084  -2.4852  -2.4370  -2.3918  -2.3606
    -2.3411  -2.3220  -2.2886  -2.2637  -2.1875  -2.1391  -2.1248  -2.0350
    -2.0180  -2.0006  -1.9434  -1.9407  -1.9025  -1.8596  -1.8278  -1.8047
    -1.7412  -1.7085  -1.6703  -1.6402  -1.5776  -1.5373  -1.5028  -1.4582
    -1.4289  -1.3703  -1.3453  -1.2994  -1.2218  -1.2039  -1.1292  -1.1020
    -1.0605  -1.0120  -0.9218  -0.8745  -0.8117  -0.7979  -0.7357  -0.6784
    -0.6048  -0.4649  -0.2554   0.0941   0.1308   0.1579   0.1904   1.8635
     2.0499   2.1375   2.1808   2.2305   2.2721   2.3085   2.3355   2.3857
     2.4467   2.4611   2.4879   2.5156   2.5227   2.5857   2.6951   2.7266
     2.7469   2.7778   2.8299   2.8430   2.8953   2.9520   2.9731   2.9889
     3.0261   3.0368   3.1727   3.2102   3.2926   3.3189   3.3361   3.3730
     3.4138   3.4387   3.4622   3.5453   3.5614   3.6368   3.6595   3.7368
     3.7951   3.8191   3.8643   3.9007   3.9088   4.0746   4.1186   4.1674
     4.3447   4.3861   4.6190   4.9677   5.0215   5.1252   5.1399   5.1581
     5.2616   5.2891   5.3174   5.4305   5.5139   5.5630   5.6421   5.7647
     5.8265   5.8502   5.8973   5.9381   5.9574   5.9974   6.0538   6.0649
     6.1378   6.1571   6.2315   6.3215   6.3814   6.4114   6.4795   6.6481
     6.6956   6.7982   6.8431   7.0380   7.1549   7.3654   7.4871   7.5888
     7.9767   8.1763   8.3515   8.5235   8.6468   8.8594   9.0536   9.1173
     9.1770   9.5049   9.6294

          k =-0.0506 0.0280 0.0000 ( 34685 PWs)   bands (ev):

   -57.6948 -57.6645 -57.3131 -57.2817 -57.2294 -57.1054 -57.0735 -57.0687
   -57.0490 -57.0382 -56.9856 -56.9549 -56.7264 -56.6938 -56.1454 -56.1149
   -34.1088 -33.9774 -33.9527 -33.8899 -33.8422 -33.8102 -33.7704 -33.6302
   -33.6094 -33.5833 -33.5414 -33.5333 -33.5253 -33.5175 -33.4901 -33.4694
   -33.4557 -33.4465 -33.4269 -33.3671 -33.3158 -33.2887 -33.2771 -33.2634
   -33.2621 -33.2592 -33.2564 -33.2511 -33.2358 -33.2343 -33.2320 -33.2123
   -33.2014 -33.1833 -33.1750 -33.1425 -33.1394 -32.9911 -32.9817 -32.9549
   -32.9115 -32.8316 -32.5397 -32.5011 -32.4744 -32.3637 -32.2844 -32.1973
   -20.2941 -17.8582 -17.6492 -17.3667 -17.3392 -17.2474 -17.2222 -17.2126
   -17.1203 -17.0410 -16.9615 -16.9185 -16.8685 -16.8555 -16.8529 -16.8307
   -16.7610 -16.7430 -16.5571 -16.5259 -16.5015 -16.4360 -16.4134 -16.3740
   -16.3667 -16.3097 -16.1893 -16.1702 -16.1504 -16.0102 -15.9650 -14.7387
   -14.6714 -11.4910  -7.2237  -5.4512  -5.2835  -5.2232  -4.8903  -4.8320
    -4.7187  -4.7029  -4.6730  -4.6533  -4.6282  -4.5074  -4.4258  -4.3433
    -4.3162  -4.3002  -4.1572  -4.1248  -4.0586  -4.0246  -4.0065  -3.9911
    -3.9805  -3.9076  -3.8577  -3.8137  -3.7713  -3.7589  -3.7167  -3.6887
    -3.6536  -3.6312  -3.5809  -3.5492  -3.4432  -3.3138  -3.2791  -3.2596
    -3.2201  -3.1683  -3.0986  -3.0562  -2.9505  -2.9350  -2.8704  -2.8380
    -2.7411  -2.6901  -2.6578  -2.6480  -2.6023  -2.5884  -2.5336  -2.4929
    -2.4346  -2.3853  -2.3788  -2.3334  -2.3066  -2.2521  -2.1771  -2.1334
    -2.1113  -2.0603  -2.0250  -1.9722  -1.9380  -1.9033  -1.8575  -1.8290
    -1.7523  -1.7377  -1.7097  -1.6386  -1.5381  -1.5046  -1.4830  -1.4154
    -1.3649  -1.3457  -1.2769  -1.2590  -1.2353  -1.1450  -1.1128  -1.0109
    -0.9758  -0.8780  -0.8537  -0.8115  -0.7764  -0.7617  -0.7029  -0.6877
    -0.5106  -0.3097  -0.2573  -0.0709   0.1121   0.1414   0.1648   1.7062
     1.9071   2.0624   2.1252   2.1298   2.1748   2.2433   2.3637   2.3745
     2.4085   2.4407   2.5202   2.5700   2.5766   2.6050   2.6863   2.6990
     2.7455   2.8052   2.8356   2.9051   2.9584   2.9840   3.0438   3.0628
     3.0937   3.1630   3.1734   3.2028   3.3047   3.3590   3.3783   3.4126
     3.4480   3.4603   3.5494   3.5884   3.6064   3.6558   3.6783   3.6871
     3.7194   3.7733   3.8206   3.8718   3.9346   4.0610   4.1708   4.2842
     4.2954   4.4249   4.6245   4.6921   4.7664   4.8133   4.8579   4.9880
     5.0146   5.1290   5.2269   5.4719   5.5967   5.6428   5.7237   5.8073
     5.8636   5.8751   5.9276   5.9484   5.9826   6.0943   6.1185   6.1410
     6.2327   6.4345   6.4846   6.5427   6.5800   6.6085   6.6877   6.7419
     6.7985   6.8194   6.9759   7.1139   7.1689   7.3962   7.5737   7.7080
     8.1326   8.1653   8.2445   8.3954   8.7619   8.9683   9.0163   9.0489
     9.3728   9.4353   9.6112

          k =-0.0506 0.0560 0.0000 ( 34596 PWs)   bands (ev):

   -57.6884 -57.6710 -57.3066 -57.2883 -57.2285 -57.0994 -57.0796 -57.0623
   -57.0498 -57.0447 -56.9791 -56.9614 -56.7198 -56.7005 -56.1390 -56.1214
   -34.0389 -33.9720 -33.9577 -33.8732 -33.8436 -33.8271 -33.7711 -33.5937
   -33.5721 -33.5698 -33.5331 -33.5192 -33.5130 -33.5089 -33.4739 -33.4716
   -33.4506 -33.4241 -33.4017 -33.3516 -33.3160 -33.3151 -33.2992 -33.2969
   -33.2845 -33.2747 -33.2657 -33.2580 -33.2517 -33.2512 -33.2457 -33.2376
   -33.2082 -33.1984 -33.1685 -33.1626 -33.1239 -32.9860 -32.9759 -32.9601
   -32.9244 -32.9011 -32.4954 -32.4799 -32.4690 -32.3471 -32.3012 -32.2713
   -20.2938 -17.7037 -17.4985 -17.2889 -17.2375 -17.1955 -17.1716 -17.1596
   -17.0876 -17.0350 -17.0038 -16.9114 -16.8544 -16.8469 -16.8422 -16.8041
   -16.7742 -16.7197 -16.6603 -16.6201 -16.6103 -16.5487 -16.5105 -16.3967
   -16.3413 -16.2616 -16.2242 -16.1911 -16.1544 -16.1117 -16.0368 -14.7580
   -14.7224 -11.4901  -7.2225  -5.4242  -5.2949  -5.0197  -4.6572  -4.6151
    -4.5132  -4.4971  -4.4817  -4.4542  -4.4300  -4.3656  -4.3227  -4.2996
    -4.2240  -4.2040  -4.1444  -4.1300  -4.0805  -4.0651  -4.0441  -4.0345
    -4.0122  -3.9942  -3.9667  -3.9126  -3.8920  -3.8863  -3.8200  -3.7851
    -3.7287  -3.6582  -3.6281  -3.5210  -3.4856  -3.3711  -3.3264  -3.2595
    -3.2540  -3.2432  -3.1334  -3.0105  -2.9312  -2.9023  -2.8488  -2.8277
    -2.7543  -2.7245  -2.6826  -2.6078  -2.5898  -2.5655  -2.5267  -2.4879
    -2.4261  -2.4034  -2.3640  -2.3272  -2.3144  -2.2982  -2.2533  -2.1763
    -2.1506  -2.1194  -2.1124  -2.0753  -2.0452  -2.0001  -1.9819  -1.8997
    -1.8893  -1.8496  -1.8308  -1.7229  -1.6358  -1.6040  -1.5709  -1.4765
    -1.4068  -1.3730  -1.3054  -1.2499  -1.2043  -1.1090  -1.0723  -1.0156
    -1.0005  -0.9348  -0.8508  -0.8175  -0.7681  -0.7540  -0.6906  -0.6550
    -0.6496  -0.5155  -0.3224   0.0801   0.1142   0.1322   0.1958   1.8688
     2.0787   2.1680   2.2019   2.2232   2.2457   2.3007   2.3504   2.3956
     2.4058   2.5396   2.5726   2.5816   2.6097   2.6308   2.6859   2.7570
     2.7842   2.8066   2.8411   2.8834   2.9658   3.0069   3.0306   3.0646
     3.0997   3.1386   3.1700   3.2592   3.3379   3.3695   3.3993   3.4433
     3.4811   3.5021   3.5242   3.5449   3.6172   3.6496   3.7139   3.7464
     3.7821   3.8535   3.8824   3.9215   3.9274   3.9564   4.1138   4.1770
     4.2915   4.4753   4.7280   4.8089   4.8191   4.8985   4.9447   5.0942
     5.1677   5.2339   5.2740   5.3293   5.3745   5.4373   5.4980   5.6284
     5.7829   5.8323   5.8841   5.9541   6.0419   6.1260   6.2190   6.2609
     6.2887   6.3468   6.4185   6.4525   6.5036   6.5804   6.6524   6.7183
     6.7327   6.8269   6.8549   6.9865   7.0516   7.4124   7.4297   7.5761
     7.7490   7.9418   8.0741   8.3877   8.5745   8.6107   8.7402   9.0078
     9.2228   9.3248   9.4549

     the Fermi energy is     0.9991 ev

!    total energy              =   -3021.41978604 Ry
     Harris-Foulkes estimate   =   -3021.41978647 Ry
     estimated scf accuracy    <       0.00000051 Ry

     The total energy is the sum of the following terms:

     one-electron contribution =  -41243.25963901 Ry
     hartree contribution      =   20695.90969592 Ry
     xc contribution           =    -553.70419141 Ry
     ewald contribution        =   18079.63455964 Ry
     smearing contrib. (-TS)   =      -0.00021118 Ry

     total magnetization       =     0.00 Bohr mag/cell
     absolute magnetization    =     0.00 Bohr mag/cell

     convergence has been achieved in   9 iterations

     Forces acting on atoms (Ry/au):


     negative rho (up, down):  1.210E-02 1.210E-02
     atom    1 type  1   force =     0.00001646   -0.00035511   -0.13379340
     atom    2 type  2   force =     0.00000479    0.00002942    0.07211812
     atom    3 type  1   force =    -0.00135528    0.00030848   -0.06094624
     atom    4 type  2   force =     0.00290416    0.00048719    0.00638401
     atom    5 type  1   force =     0.00026659    0.00186253    0.00355636
     atom    6 type  2   force =     0.00006887    0.00001495   -0.00294427
     atom    7 type  1   force =    -0.00025378   -0.00065123    0.00481959
     atom    8 type  2   force =     0.00090543   -0.00024559   -0.00064984
     atom    9 type  1   force =    -0.00002802    0.00002052   -0.13355061
     atom   10 type  2   force =    -0.00006617    0.00006464    0.07130235
     atom   11 type  1   force =    -0.00131811   -0.00024017   -0.05586132
     atom   12 type  2   force =     0.00299725   -0.00006773    0.00610453
     atom   13 type  1   force =     0.00028999   -0.00149414    0.00349197
     atom   14 type  2   force =    -0.00120198   -0.00038745   -0.00290470
     atom   15 type  1   force =    -0.00050910    0.00014405    0.00441470
     atom   16 type  2   force =     0.00053494   -0.00016008   -0.00004193
     atom   17 type  2   force =    -0.00007030   -0.00007140    0.07939295
     atom   18 type  1   force =     0.00013570   -0.00017255    0.11911492
     atom   19 type  2   force =    -0.00010822   -0.00017378   -0.06669554
     atom   20 type  2   force =    -0.06322073    0.00014875   -0.03224982
     atom   21 type  2   force =     0.06319898    0.00001431   -0.03245324
     atom   22 type  1   force =     0.00072333    0.00108091    0.05976187
     atom   23 type  2   force =    -0.00017686    0.00005622   -0.00175720
     atom   24 type  2   force =    -0.00143274   -0.00000382   -0.02325867
     atom   25 type  2   force =    -0.00313417    0.00058902    0.00787152
     atom   26 type  1   force =     0.00064072    0.00029038    0.00461481
     atom   27 type  2   force =     0.00052478    0.00059695   -0.00379441
     atom   28 type  2   force =     0.00013489   -0.00008886   -0.00119375
     atom   29 type  2   force =     0.00021831   -0.00034641   -0.00058246
     atom   30 type  1   force =     0.00029256   -0.00065032    0.00381057
     atom   31 type  2   force =     0.00006570    0.00008646   -0.00260057
     atom   32 type  2   force =     0.00004652   -0.00008957   -0.00118732
     atom   33 type  2   force =    -0.00011776    0.00003821    0.07899165
     atom   34 type  1   force =     0.00006892   -0.00022011    0.11903008
     atom   35 type  2   force =    -0.00030420   -0.00005377   -0.06639283
     atom   36 type  2   force =    -0.06318076   -0.00005343   -0.03233318
     atom   37 type  2   force =     0.06332730   -0.00020326   -0.03249041
     atom   38 type  1   force =     0.00066091   -0.00098496    0.05997756
     atom   39 type  2   force =    -0.00045910    0.00010461   -0.00249994
     atom   40 type  2   force =    -0.00118988    0.00030579   -0.02216962
     atom   41 type  2   force =    -0.00317455   -0.00014974    0.00789695
     atom   42 type  1   force =     0.00051694    0.00006123    0.00373926
     atom   43 type  2   force =     0.00069621    0.00023477   -0.00297627
     atom   44 type  2   force =     0.00022073    0.00010153   -0.00115370
     atom   45 type  2   force =     0.00019574    0.00031044   -0.00061069
     atom   46 type  1   force =     0.00052299    0.00025333    0.00390364
     atom   47 type  2   force =     0.00007354   -0.00030325   -0.00122936
     atom   48 type  2   force =     0.00015376    0.00019557   -0.00100169
     atom   49 type  3   force =    -0.00446636    0.01172708   -0.00993801
     atom   50 type  2   force =     0.00196324    0.00218710   -0.00658880
     atom   51 type  4   force =    -0.00010997    0.00109997   -0.00046862
     atom   52 type  4   force =     0.00017620    0.00031729    0.00080518
     atom   53 type  4   force =     0.00269507   -0.01325687    0.01449293
     atom   54 type  4   force =     0.00063653   -0.00230807    0.00072287

     Total force =     0.363554     Total SCF correction =     0.001567
 !ASE

     Writing output data file calc.save
 
     init_run     :     56.96s CPU     70.02s WALL (       1 calls)
     electrons    :   2112.52s CPU   2538.24s WALL (       1 calls)
     forces       :     39.85s CPU     41.64s WALL (       1 calls)

     Called by init_run:
     wfcinit      :     48.18s CPU     60.52s WALL (       1 calls)
     potinit      :      1.56s CPU      1.83s WALL (       1 calls)

     Called by electrons:
     c_bands      :   1840.08s CPU   2196.26s WALL (      10 calls)
     sum_band     :    232.53s CPU    296.21s WALL (      10 calls)
     v_of_rho     :     10.07s CPU     12.68s WALL (      10 calls)
     newd         :     34.06s CPU     37.51s WALL (      10 calls)
     mix_rho      :      0.31s CPU      0.46s WALL (      10 calls)
     vdW_energy   :      1.80s CPU      2.18s WALL (      11 calls)
     vdW_ffts     :      2.62s CPU      3.45s WALL (      22 calls)
     vdW_v        :      1.06s CPU      1.28s WALL (      11 calls)

     Called by c_bands:
     init_us_2    :      5.98s CPU      6.48s WALL (     880 calls)
     cegterg      :   1804.47s CPU   2158.50s WALL (     400 calls)

     Called by *egterg:
     h_psi        :    742.98s CPU   1021.42s WALL (    2159 calls)
     s_psi        :     91.08s CPU     94.53s WALL (    2159 calls)
     g_psi        :      4.93s CPU      4.99s WALL (    1719 calls)
     cdiaghg      :    629.39s CPU    640.85s WALL (    2079 calls)

     Called by h_psi:
     add_vuspsi   :     91.64s CPU     95.89s WALL (    2159 calls)

     General routines
     calbec       :    139.43s CPU    142.88s WALL (    2599 calls)
     fft          :      5.87s CPU      7.59s WALL (     875 calls)
     ffts         :      0.08s CPU      0.10s WALL (      40 calls)
     fftw         :    484.49s CPU    811.61s WALL (  725674 calls)
     interpolate  :      0.35s CPU      0.54s WALL (      40 calls)
     davcio       :      0.00s CPU      0.54s WALL (      40 calls)
 
     Parallel routines
     fft_scatter  :    250.36s CPU    448.25s WALL (  726589 calls)
 
     PWSCF        : 36m54.05s CPU    44m15.94s WALL

 
   This run was terminated on:   5:33:42  13Feb2018            

=------------------------------------------------------------------------------=
   JOB DONE.
=------------------------------------------------------------------------------=
