  python dir          : /home/vossj/suncat/lib/python2.7/site-packages/espresso
  espresso dir        : /home/vossj/suncat/esdld/espresso-dynpy-beef/bin
  pseudo dir          : /home/alatimer/bin/psp/esp_psp_w_gbrvRu/
  ase-espresso py git : ffa2778-git



     Program PWSCF v.5.1rc2 (svn rev. ) starts on 10Mar2018 at 15:46:45 

     This program is part of the open-source Quantum ESPRESSO suite
     for quantum simulation of materials; please cite
         "P. Giannozzi et al., J. Phys.:Condens. Matter 21 395502 (2009);
          URL http://www.quantum-espresso.org", 
     in publications or presentations arising from this work. More details at
     http://www.quantum-espresso.org/quote

     Parallel version (MPI), running on    16 processors
     R & G space division:  proc/nbgrp/npool/nimage =      16
     Reading input from pw.inp
     Message from routine read_cards :
     DEPRECATED: no units specified in CELL_PARAMETERS card

     Current dimensions of program PWSCF are:
     Max number of different atomic species (ntypx) = 10
     Max number of k-points (npk) =  40000
     Max angular momentum in pseudopotentials (lmaxx) =  3

     **************************************************************************
     Initializing libbeef V0.1.1 with the BEEF-vdW functional.
     Citation: Wellendorff et al., PRB 85, 235149 (2012).
     **************************************************************************


     IMPORTANT: XC functional enforced from input :
     Exchange-correlation      = BEEF ( 1  4 27 13 2)
     Any further DFT definition will be discarded
     Please, verify this is what you really want


     Subspace diagonalization in iterative solution of the eigenvalue problem:
     a serial algorithm will be used

 
     Parallelization info
     --------------------
     sticks:   dense  smooth     PW     G-vecs:    dense   smooth      PW
     Min         281     112     31                68535    17318    2565
     Max         282     113     32                68545    17369    2582
     Sum        4501    1795    503              1096637   277353   41113
 
     Generating pointlists ...
     new r_m :   0.4125 (alat units)  0.7795 (a.u.) for type    1
     new r_m :   0.4125 (alat units)  0.7795 (a.u.) for type    2
     new r_m :   0.4125 (alat units)  0.7795 (a.u.) for type    3


     bravais-lattice index     =            0
     lattice parameter (alat)  =       1.8897  a.u.
     unit-cell volume          =    7990.9933 (a.u.)^3
     number of atoms/cell      =           51
     number of atomic types    =            3
     number of electrons       =       400.00
     number of Kohn-Sham states=          300
     kinetic-energy cutoff     =      40.4243  Ry
     charge density cutoff     =     404.2426  Ry
     convergence threshold     =      7.3E-07
     mixing beta               =       0.1000
     number of iterations used =           10  plain     mixing
     Exchange-correlation      = BEEF ( 1  4 27 13 2)
     nstep                     =           50


     celldm(1)=   1.889726  celldm(2)=   0.000000  celldm(3)=   0.000000
     celldm(4)=   0.000000  celldm(5)=   0.000000  celldm(6)=   0.000000

     crystal axes: (cart. coord. in units of alat)
               a(1) = (   6.590708   0.000000   0.000000 )  
               a(2) = (   0.000000   5.950229   0.000000 )  
               a(3) = (   0.000000   0.000000  30.195235 )  

     reciprocal axes: (cart. coord. in units 2 pi/alat)
               b(1) = (  0.151729  0.000000  0.000000 )  
               b(2) = (  0.000000  0.168061  0.000000 )  
               b(3) = (  0.000000  0.000000  0.033118 )  


     PseudoPot. # 1 for Ti read from file:
     /home/alatimer/bin/psp/esp_psp_w_gbrvRu/Ti.UPF
     MD5 check sum: 8e4df49b7f0d34bbd5052bf3f5ea0213
     Pseudo is Ultrasoft, Zval = 12.0
     Generated by new atomic code, or converted to UPF format
     Using radial grid of  851 points,  6 beta functions with: 
                l(1) =   0
                l(2) =   0
                l(3) =   1
                l(4) =   1
                l(5) =   2
                l(6) =   2
     Q(r) pseudized with  8 coefficients,  rinner =    1.000   1.000   1.000
                                                       1.000   1.000

     PseudoPot. # 2 for  O read from file:
     /home/alatimer/bin/psp/esp_psp_w_gbrvRu/O.UPF
     MD5 check sum: e057bbcf3229fb5d8c36c0c92f9568b4
     Pseudo is Ultrasoft + core correction, Zval =  6.0
     Generated using "atomic" code by A. Dal Corso  v.5.0.2 svn rev. 9415
     Using radial grid of 1095 points,  4 beta functions with: 
                l(1) =   0
                l(2) =   0
                l(3) =   1
                l(4) =   1
     Q(r) pseudized with 0 coefficients 


     PseudoPot. # 3 for  N read from file:
     /home/alatimer/bin/psp/esp_psp_w_gbrvRu/N.UPF
     MD5 check sum: ed8b6a90f28a53b7d71920e7015d2dd6
     Pseudo is Ultrasoft + core correction, Zval =  5.0
     Generated using "atomic" code by A. Dal Corso  v.5.0.2 svn rev. 9415
     Using radial grid of 1085 points,  4 beta functions with: 
                l(1) =   0
                l(2) =   0
                l(3) =   1
                l(4) =   1
     Q(r) pseudized with 0 coefficients 


     vdW kernel table read from file vdW_kernel_table
     MD5 check sum: 095c7af220d748ca6e76c0b4c6cfb241

     atomic species   valence    mass     pseudopotential
        Ti1           12.00    47.88000     Ti( 1.00)
        O1             6.00    15.99940      O( 1.00)
        N1             5.00    14.00670      N( 1.00)

     Starting magnetic structure 
     atomic species   magnetization
        Ti1          0.250
        O1           0.500
        N1           0.600

     No symmetry found



   Cartesian axes

     site n.     atom                  positions (alat units)
         1           Ti1 tau(   1) = (   1.6476770   0.7437786   2.6545865  )
         2           O1  tau(   2) = (   1.6476770   2.2313359   3.9361215  )
         3           Ti1 tau(   3) = (   1.6476770   2.2313359   5.9499405  )
         4           O1  tau(   4) = (   0.3661420   0.7437786   5.9499405  )
         5           Ti1 tau(   5) = (   1.5280591   0.7315068   9.1973351  )
         6           O1  tau(   6) = (   1.6613943   2.1836906  10.6091769  )
         7           Ti1 tau(   7) = (   1.6665780   2.2096385  12.4157880  )
         8           O1  tau(   8) = (   0.4439715   0.7264440  12.7601561  )
         9           Ti1 tau(   9) = (   1.6476770   3.7188931   2.6545865  )
        10           O1  tau(  10) = (   1.6476770   5.2064503   3.9361215  )
        11           Ti1 tau(  11) = (   1.6476770   5.2064503   5.9499405  )
        12           O1  tau(  12) = (   0.3661420   3.7188931   5.9499405  )
        13           Ti1 tau(  13) = (   1.5319291   3.7072436   9.2118370  )
        14           O1  tau(  14) = (   1.6575607   5.2126413  10.6087893  )
        15           Ti1 tau(  15) = (   1.6606453   5.1916961  12.4165775  )
        16           O1  tau(  16) = (   0.4123725   3.7022030  12.5882193  )
        17           O1  tau(  17) = (   1.6476770   2.2313359   1.3730516  )
        18           Ti1 tau(  18) = (   4.9430310   2.2313359   2.6545865  )
        19           O1  tau(  19) = (   4.9430310   2.2313359   4.6684056  )
        20           O1  tau(  20) = (   6.2245660   0.7437786   2.6545865  )
        21           O1  tau(  21) = (   3.6614961   0.7437786   2.6545865  )
        22           Ti1 tau(  22) = (   4.9430310   0.7437786   5.9499405  )
        23           O1  tau(  23) = (   1.6517842   2.2287041   8.0298356  )
        24           O1  tau(  24) = (   4.9430310   2.2313359   7.2314755  )
        25           O1  tau(  25) = (   2.9292120   0.7437786   5.9499405  )
        26           Ti1 tau(  26) = (   4.8605205   2.2076595   9.4238065  )
        27           O1  tau(  27) = (   4.9553550   2.1639423  11.2756624  )
        28           O1  tau(  28) = (   6.2690671   0.7288246   9.2688367  )
        29           O1  tau(  29) = (   3.6660957   0.7249325   9.2867299  )
        30           Ti1 tau(  30) = (   4.9284588   0.7282168  12.7798302  )
        31           O1  tau(  31) = (   4.9953437   2.2216212  13.8477397  )
        32           O1  tau(  32) = (   2.9112183   0.7266397  12.7651274  )
        33           O1  tau(  33) = (   1.6476770   5.2064503   1.3730516  )
        34           Ti1 tau(  34) = (   4.9430310   5.2064503   2.6545865  )
        35           O1  tau(  35) = (   4.9430310   5.2064503   4.6684056  )
        36           O1  tau(  36) = (   6.2245660   3.7188931   2.6545865  )
        37           O1  tau(  37) = (   3.6614961   3.7188931   2.6545865  )
        38           Ti1 tau(  38) = (   4.9430310   3.7188931   5.9499405  )
        39           O1  tau(  39) = (   1.6524867   5.1852222   8.0294571  )
        40           O1  tau(  40) = (   4.9430310   5.2064503   7.2314755  )
        41           O1  tau(  41) = (   2.9292120   3.7188931   5.9499405  )
        42           Ti1 tau(  42) = (   4.8610151   5.1886528   9.4241876  )
        43           O1  tau(  43) = (   4.9550983   5.2107439  11.2753448  )
        44           O1  tau(  44) = (   6.2713562   3.7024388   9.3047907  )
        45           O1  tau(  45) = (   3.6650622   3.7005085   9.3135888  )
        46           Ti1 tau(  46) = (   5.0160509   3.7038162  12.7585864  )
        47           O1  tau(  47) = (   4.9984032   5.1727849  13.8485277  )
        48           O1  tau(  48) = (   2.9655234   3.7049164  12.5317472  )
        49           O1  tau(  49) = (   2.2548149   3.7063572  14.5693114  )
        50           N1  tau(  50) = (   2.4020298   3.6667063  16.9651815  )
        51           N1  tau(  51) = (   2.1725646   3.6919273  15.8611024  )

     number of k points=    40  Fermi-Dirac smearing, width (Ry)=  0.0073
                       cart. coord. in units 2pi/alat
        k(    1) = (   0.0000000   0.0000000   0.0000000), wk =   0.0277778
        k(    2) = (   0.0000000   0.0280101   0.0000000), wk =   0.0555556
        k(    3) = (   0.0000000   0.0560203   0.0000000), wk =   0.0555556
        k(    4) = (   0.0000000  -0.0840304   0.0000000), wk =   0.0277778
        k(    5) = (   0.0252881   0.0000000   0.0000000), wk =   0.0555556
        k(    6) = (   0.0252881   0.0280101   0.0000000), wk =   0.0555556
        k(    7) = (   0.0252881   0.0560203   0.0000000), wk =   0.0555556
        k(    8) = (   0.0252881  -0.0840304   0.0000000), wk =   0.0555556
        k(    9) = (   0.0505763   0.0000000   0.0000000), wk =   0.0555556
        k(   10) = (   0.0505763   0.0280101   0.0000000), wk =   0.0555556
        k(   11) = (   0.0505763   0.0560203   0.0000000), wk =   0.0555556
        k(   12) = (   0.0505763  -0.0840304   0.0000000), wk =   0.0555556
        k(   13) = (  -0.0758644   0.0000000   0.0000000), wk =   0.0277778
        k(   14) = (  -0.0758644   0.0280101   0.0000000), wk =   0.0555556
        k(   15) = (  -0.0758644   0.0560203   0.0000000), wk =   0.0555556
        k(   16) = (  -0.0758644  -0.0840304   0.0000000), wk =   0.0277778
        k(   17) = (  -0.0252881   0.0280101   0.0000000), wk =   0.0555556
        k(   18) = (  -0.0252881   0.0560203   0.0000000), wk =   0.0555556
        k(   19) = (  -0.0505763   0.0280101   0.0000000), wk =   0.0555556
        k(   20) = (  -0.0505763   0.0560203   0.0000000), wk =   0.0555556
        k(   21) = (   0.0000000   0.0000000   0.0000000), wk =   0.0277778
        k(   22) = (   0.0000000   0.0280101   0.0000000), wk =   0.0555556
        k(   23) = (   0.0000000   0.0560203   0.0000000), wk =   0.0555556
        k(   24) = (   0.0000000  -0.0840304   0.0000000), wk =   0.0277778
        k(   25) = (   0.0252881   0.0000000   0.0000000), wk =   0.0555556
        k(   26) = (   0.0252881   0.0280101   0.0000000), wk =   0.0555556
        k(   27) = (   0.0252881   0.0560203   0.0000000), wk =   0.0555556
        k(   28) = (   0.0252881  -0.0840304   0.0000000), wk =   0.0555556
        k(   29) = (   0.0505763   0.0000000   0.0000000), wk =   0.0555556
        k(   30) = (   0.0505763   0.0280101   0.0000000), wk =   0.0555556
        k(   31) = (   0.0505763   0.0560203   0.0000000), wk =   0.0555556
        k(   32) = (   0.0505763  -0.0840304   0.0000000), wk =   0.0555556
        k(   33) = (  -0.0758644   0.0000000   0.0000000), wk =   0.0277778
        k(   34) = (  -0.0758644   0.0280101   0.0000000), wk =   0.0555556
        k(   35) = (  -0.0758644   0.0560203   0.0000000), wk =   0.0555556
        k(   36) = (  -0.0758644  -0.0840304   0.0000000), wk =   0.0277778
        k(   37) = (  -0.0252881   0.0280101   0.0000000), wk =   0.0555556
        k(   38) = (  -0.0252881   0.0560203   0.0000000), wk =   0.0555556
        k(   39) = (  -0.0505763   0.0280101   0.0000000), wk =   0.0555556
        k(   40) = (  -0.0505763   0.0560203   0.0000000), wk =   0.0555556

     Dense  grid:  1096637 G-vectors     FFT dimensions: (  80,  72, 375)

     Smooth grid:   277353 G-vectors     FFT dimensions: (  54,  45, 240)

     Largest allocated arrays     est. size (Mb)     dimensions
        Kohn-Sham Wavefunctions         9.98 Mb     (    2180,  300)
        NL pseudopotentials            18.89 Mb     (    2180,  568)
        Each V/rho on FFT grid          4.22 Mb     (  138240,   2)
        Each G-vector array             0.52 Mb     (   68538)
        G-vector shells                 0.25 Mb     (   33046)
     Largest temporary arrays     est. size (Mb)     dimensions
        Auxiliary wavefunctions        39.92 Mb     (    2180, 1200)
        Each subspace H/S matrix       21.97 Mb     (    1200, 1200)
        Each <psi_i|beta_j> matrix      2.60 Mb     (     568,  300)
        Arrays for rho mixing          21.09 Mb     (  138240,   10)

     Check: negative/imaginary core charge=   -0.000049    0.000000

     The initial density is read from file :
     ./calc.save/charge-density.dat


     negative rho (up, down):  1.158E-02 1.158E-02


     ************************************************************************
     *
     * You are using vdW-DF for exchange-correlation in this calculation.
     * Please cite the following three references that made this development
     * possible:
     *
     *   M. Dion, H. Rydberg, E. Schroder, D. C. Langreth, and
     *   B. I. Lundqvist, Phys. Rev. Lett. 92, 246401 (2004).
     *
     *   T. Thonhauser, V. R. Cooper, S. Li, A. Puzder, P. Hyldgaard, and
     *   D. C. Langreth, Phys. Rev. B 76, 125112 (2007).
     *
     *   G. Roman-Perez and J. M. Soler, Phys. Rev. Lett. 103, 096102 (2009).
     *
     *
     * If you are using vdW-DF2, please also cite:
     *
     *   K. Lee, E. D. Murray, L. Kong, B. I. Lundqvist, and
     *   D. C. Langreth, Phys. Rev. B 82, 081101(R) (2010).
     *
     *
     * If you are calculating the stress with vdW-DF, please also cite:
     *
     *   R. Sabatini, E. Kucukbenli, B. Kolb, T. Thonhauser, and
     *   S. de Gironcoli, J. Phys.: Condens. Matter 24, 424209 (2012).
     *
     ************************************************************************

     Carrying out vdW-DF run using the following parameters:

     Nqs =      20    Nr_points =    1024   r_max =   100.000
     q_mesh =
               0.00001000     0.04494208     0.09755937     0.15916263
               0.23128650     0.31572767     0.41458969     0.53033537
               0.66584808     0.82450364     1.01025438     1.22772762
               1.48234092     1.78043706     2.12944203     2.53805004
               3.01644009     3.57652955     4.23227104     5.00000000

     Gradients computed in reciprocal space

     ************************************************************************


     Starting wfc are  300 randomized atomic wfcs

     total cpu time spent up to now is       73.0 secs

     Self-consistent Calculation

     iteration #  1     ecut=    40.42 Ry     beta=0.10
     Davidson diagonalization with overlap
     ethr =  1.00E-05,  avg # of iterations = 15.0

     negative rho (up, down):  1.158E-02 1.158E-02
 
     Magnetic moment per site:
     atom:    1    charge:    3.1250    magn:   -0.0002    constr:    0.0000
     atom:    2    charge:    2.0894    magn:    0.0001    constr:    0.0000
     atom:    3    charge:    3.1196    magn:   -0.0001    constr:    0.0000
     atom:    4    charge:    2.0870    magn:    0.0000    constr:    0.0000
     atom:    5    charge:    3.1170    magn:   -0.0001    constr:    0.0000
     atom:    6    charge:    2.0917    magn:    0.0001    constr:    0.0000
     atom:    7    charge:    3.1184    magn:   -0.0000    constr:    0.0000
     atom:    8    charge:    2.0814    magn:    0.0001    constr:    0.0000
     atom:    9    charge:    3.1250    magn:   -0.0002    constr:    0.0000
     atom:   10    charge:    2.0894    magn:    0.0001    constr:    0.0000
     atom:   11    charge:    3.1196    magn:   -0.0001    constr:    0.0000
     atom:   12    charge:    2.0870    magn:    0.0000    constr:    0.0000
     atom:   13    charge:    3.1148    magn:   -0.0001    constr:    0.0000
     atom:   14    charge:    2.0912    magn:    0.0001    constr:    0.0000
     atom:   15    charge:    3.1193    magn:   -0.0000    constr:    0.0000
     atom:   16    charge:    2.0880    magn:    0.0001    constr:    0.0000
     atom:   17    charge:    2.0624    magn:    0.0004    constr:    0.0000
     atom:   18    charge:    3.1239    magn:   -0.0000    constr:    0.0000
     atom:   19    charge:    2.0878    magn:   -0.0000    constr:    0.0000
     atom:   20    charge:    2.0847    magn:   -0.0001    constr:    0.0000
     atom:   21    charge:    2.0847    magn:   -0.0001    constr:    0.0000
     atom:   22    charge:    3.1197    magn:   -0.0000    constr:    0.0000
     atom:   23    charge:    2.0908    magn:    0.0001    constr:    0.0000
     atom:   24    charge:    2.0777    magn:    0.0001    constr:    0.0000
     atom:   25    charge:    2.0869    magn:    0.0000    constr:    0.0000
     atom:   26    charge:    3.1165    magn:   -0.0001    constr:    0.0000
     atom:   27    charge:    2.0824    magn:    0.0002    constr:    0.0000
     atom:   28    charge:    2.0879    magn:    0.0001    constr:    0.0000
     atom:   29    charge:    2.0877    magn:    0.0001    constr:    0.0000
     atom:   30    charge:    3.1167    magn:   -0.0001    constr:    0.0000
     atom:   31    charge:    2.0817    magn:    0.0003    constr:    0.0000
     atom:   32    charge:    2.0844    magn:    0.0001    constr:    0.0000
     atom:   33    charge:    2.0624    magn:    0.0004    constr:    0.0000
     atom:   34    charge:    3.1239    magn:   -0.0000    constr:    0.0000
     atom:   35    charge:    2.0878    magn:   -0.0000    constr:    0.0000
     atom:   36    charge:    2.0847    magn:   -0.0001    constr:    0.0000
     atom:   37    charge:    2.0847    magn:   -0.0001    constr:    0.0000
     atom:   38    charge:    3.1197    magn:   -0.0000    constr:    0.0000
     atom:   39    charge:    2.0912    magn:    0.0001    constr:    0.0000
     atom:   40    charge:    2.0777    magn:    0.0001    constr:    0.0000
     atom:   41    charge:    2.0869    magn:    0.0000    constr:    0.0000
     atom:   42    charge:    3.1181    magn:   -0.0001    constr:    0.0000
     atom:   43    charge:    2.0838    magn:    0.0002    constr:    0.0000
     atom:   44    charge:    2.0865    magn:    0.0001    constr:    0.0000
     atom:   45    charge:    2.0871    magn:    0.0001    constr:    0.0000
     atom:   46    charge:    3.1171    magn:   -0.0001    constr:    0.0000
     atom:   47    charge:    2.0798    magn:    0.0003    constr:    0.0000
     atom:   48    charge:    2.0841    magn:    0.0002    constr:    0.0000
     atom:   49    charge:    2.0520    magn:   -0.0000    constr:    0.0000
     atom:   50    charge:    1.2615    magn:   -0.0000    constr:    0.0000
     atom:   51    charge:    1.2827    magn:    0.0000    constr:    0.0000

     total cpu time spent up to now is      836.9 secs

     total energy              =   -3044.97082151 Ry
     Harris-Foulkes estimate   =   -3044.97697193 Ry
     estimated scf accuracy    <       0.04263943 Ry

     total magnetization       =     0.00 Bohr mag/cell
     absolute magnetization    =     0.01 Bohr mag/cell

     iteration #  2     ecut=    40.42 Ry     beta=0.10
     Davidson diagonalization with overlap
     ethr =  1.07E-05,  avg # of iterations =  2.0

     negative rho (up, down):  1.159E-02 1.159E-02
 
     Magnetic moment per site:
     atom:    1    charge:    3.1251    magn:   -0.0001    constr:    0.0000
     atom:    2    charge:    2.0894    magn:    0.0001    constr:    0.0000
     atom:    3    charge:    3.1196    magn:   -0.0000    constr:    0.0000
     atom:    4    charge:    2.0870    magn:    0.0000    constr:    0.0000
     atom:    5    charge:    3.1170    magn:   -0.0000    constr:    0.0000
     atom:    6    charge:    2.0917    magn:    0.0001    constr:    0.0000
     atom:    7    charge:    3.1184    magn:   -0.0000    constr:    0.0000
     atom:    8    charge:    2.0814    magn:    0.0001    constr:    0.0000
     atom:    9    charge:    3.1251    magn:   -0.0001    constr:    0.0000
     atom:   10    charge:    2.0894    magn:    0.0001    constr:    0.0000
     atom:   11    charge:    3.1196    magn:   -0.0000    constr:    0.0000
     atom:   12    charge:    2.0870    magn:    0.0000    constr:    0.0000
     atom:   13    charge:    3.1148    magn:   -0.0000    constr:    0.0000
     atom:   14    charge:    2.0912    magn:    0.0001    constr:    0.0000
     atom:   15    charge:    3.1194    magn:   -0.0000    constr:    0.0000
     atom:   16    charge:    2.0878    magn:    0.0000    constr:    0.0000
     atom:   17    charge:    2.0623    magn:    0.0003    constr:    0.0000
     atom:   18    charge:    3.1239    magn:   -0.0000    constr:    0.0000
     atom:   19    charge:    2.0878    magn:   -0.0000    constr:    0.0000
     atom:   20    charge:    2.0847    magn:   -0.0001    constr:    0.0000
     atom:   21    charge:    2.0847    magn:   -0.0001    constr:    0.0000
     atom:   22    charge:    3.1197    magn:   -0.0000    constr:    0.0000
     atom:   23    charge:    2.0909    magn:    0.0001    constr:    0.0000
     atom:   24    charge:    2.0778    magn:    0.0001    constr:    0.0000
     atom:   25    charge:    2.0869    magn:    0.0000    constr:    0.0000
     atom:   26    charge:    3.1165    magn:   -0.0001    constr:    0.0000
     atom:   27    charge:    2.0824    magn:    0.0001    constr:    0.0000
     atom:   28    charge:    2.0879    magn:    0.0001    constr:    0.0000
     atom:   29    charge:    2.0877    magn:    0.0001    constr:    0.0000
     atom:   30    charge:    3.1167    magn:   -0.0001    constr:    0.0000
     atom:   31    charge:    2.0819    magn:    0.0002    constr:    0.0000
     atom:   32    charge:    2.0845    magn:    0.0001    constr:    0.0000
     atom:   33    charge:    2.0623    magn:    0.0003    constr:    0.0000
     atom:   34    charge:    3.1239    magn:   -0.0000    constr:    0.0000
     atom:   35    charge:    2.0878    magn:   -0.0000    constr:    0.0000
     atom:   36    charge:    2.0847    magn:   -0.0001    constr:    0.0000
     atom:   37    charge:    2.0847    magn:   -0.0001    constr:    0.0000
     atom:   38    charge:    3.1197    magn:   -0.0000    constr:    0.0000
     atom:   39    charge:    2.0912    magn:    0.0001    constr:    0.0000
     atom:   40    charge:    2.0778    magn:    0.0001    constr:    0.0000
     atom:   41    charge:    2.0869    magn:    0.0000    constr:    0.0000
     atom:   42    charge:    3.1181    magn:   -0.0001    constr:    0.0000
     atom:   43    charge:    2.0838    magn:    0.0001    constr:    0.0000
     atom:   44    charge:    2.0865    magn:    0.0001    constr:    0.0000
     atom:   45    charge:    2.0871    magn:    0.0001    constr:    0.0000
     atom:   46    charge:    3.1171    magn:   -0.0001    constr:    0.0000
     atom:   47    charge:    2.0800    magn:    0.0002    constr:    0.0000
     atom:   48    charge:    2.0846    magn:    0.0001    constr:    0.0000
     atom:   49    charge:    2.0532    magn:   -0.0000    constr:    0.0000
     atom:   50    charge:    1.2659    magn:   -0.0000    constr:    0.0000
     atom:   51    charge:    1.2822    magn:    0.0000    constr:    0.0000

     total cpu time spent up to now is     1028.4 secs

     total energy              =   -3044.95890070 Ry
     Harris-Foulkes estimate   =   -3044.97122341 Ry
     estimated scf accuracy    <       0.02726538 Ry

     total magnetization       =     0.00 Bohr mag/cell
     absolute magnetization    =     0.01 Bohr mag/cell

     iteration #  3     ecut=    40.42 Ry     beta=0.10
     Davidson diagonalization with overlap
     ethr =  6.82E-06,  avg # of iterations =  2.4

     negative rho (up, down):  1.159E-02 1.159E-02
 
     Magnetic moment per site:
     atom:    1    charge:    3.1250    magn:   -0.0001    constr:    0.0000
     atom:    2    charge:    2.0894    magn:    0.0001    constr:    0.0000
     atom:    3    charge:    3.1196    magn:   -0.0000    constr:    0.0000
     atom:    4    charge:    2.0870    magn:    0.0000    constr:    0.0000
     atom:    5    charge:    3.1170    magn:   -0.0000    constr:    0.0000
     atom:    6    charge:    2.0916    magn:    0.0000    constr:    0.0000
     atom:    7    charge:    3.1187    magn:   -0.0000    constr:    0.0000
     atom:    8    charge:    2.0818    magn:    0.0000    constr:    0.0000
     atom:    9    charge:    3.1250    magn:   -0.0001    constr:    0.0000
     atom:   10    charge:    2.0894    magn:    0.0001    constr:    0.0000
     atom:   11    charge:    3.1196    magn:   -0.0000    constr:    0.0000
     atom:   12    charge:    2.0870    magn:    0.0000    constr:    0.0000
     atom:   13    charge:    3.1148    magn:   -0.0000    constr:    0.0000
     atom:   14    charge:    2.0911    magn:    0.0000    constr:    0.0000
     atom:   15    charge:    3.1196    magn:   -0.0000    constr:    0.0000
     atom:   16    charge:    2.0886    magn:    0.0000    constr:    0.0000
     atom:   17    charge:    2.0624    magn:    0.0003    constr:    0.0000
     atom:   18    charge:    3.1239    magn:   -0.0000    constr:    0.0000
     atom:   19    charge:    2.0878    magn:   -0.0000    constr:    0.0000
     atom:   20    charge:    2.0847    magn:   -0.0000    constr:    0.0000
     atom:   21    charge:    2.0847    magn:   -0.0000    constr:    0.0000
     atom:   22    charge:    3.1197    magn:   -0.0000    constr:    0.0000
     atom:   23    charge:    2.0909    magn:    0.0000    constr:    0.0000
     atom:   24    charge:    2.0777    magn:    0.0000    constr:    0.0000
     atom:   25    charge:    2.0869    magn:    0.0000    constr:    0.0000
     atom:   26    charge:    3.1165    magn:   -0.0000    constr:    0.0000
     atom:   27    charge:    2.0824    magn:    0.0001    constr:    0.0000
     atom:   28    charge:    2.0879    magn:    0.0001    constr:    0.0000
     atom:   29    charge:    2.0877    magn:    0.0001    constr:    0.0000
     atom:   30    charge:    3.1169    magn:   -0.0001    constr:    0.0000
     atom:   31    charge:    2.0815    magn:    0.0002    constr:    0.0000
     atom:   32    charge:    2.0841    magn:    0.0000    constr:    0.0000
     atom:   33    charge:    2.0624    magn:    0.0003    constr:    0.0000
     atom:   34    charge:    3.1239    magn:   -0.0000    constr:    0.0000
     atom:   35    charge:    2.0878    magn:   -0.0000    constr:    0.0000
     atom:   36    charge:    2.0847    magn:   -0.0000    constr:    0.0000
     atom:   37    charge:    2.0847    magn:   -0.0000    constr:    0.0000
     atom:   38    charge:    3.1197    magn:   -0.0000    constr:    0.0000
     atom:   39    charge:    2.0912    magn:    0.0000    constr:    0.0000
     atom:   40    charge:    2.0777    magn:    0.0000    constr:    0.0000
     atom:   41    charge:    2.0869    magn:    0.0000    constr:    0.0000
     atom:   42    charge:    3.1181    magn:   -0.0000    constr:    0.0000
     atom:   43    charge:    2.0838    magn:    0.0001    constr:    0.0000
     atom:   44    charge:    2.0865    magn:    0.0001    constr:    0.0000
     atom:   45    charge:    2.0871    magn:    0.0001    constr:    0.0000
     atom:   46    charge:    3.1171    magn:   -0.0001    constr:    0.0000
     atom:   47    charge:    2.0797    magn:    0.0002    constr:    0.0000
     atom:   48    charge:    2.0833    magn:    0.0001    constr:    0.0000
     atom:   49    charge:    2.0540    magn:   -0.0000    constr:    0.0000
     atom:   50    charge:    1.2638    magn:   -0.0000    constr:    0.0000
     atom:   51    charge:    1.2860    magn:    0.0000    constr:    0.0000

     total cpu time spent up to now is     1228.4 secs

     total energy              =   -3044.95947519 Ry
     Harris-Foulkes estimate   =   -3044.96152392 Ry
     estimated scf accuracy    <       0.00451530 Ry

     total magnetization       =     0.00 Bohr mag/cell
     absolute magnetization    =     0.00 Bohr mag/cell

     iteration #  4     ecut=    40.42 Ry     beta=0.10
     Davidson diagonalization with overlap
     ethr =  1.13E-06,  avg # of iterations =  5.7

     negative rho (up, down):  1.159E-02 1.159E-02
 
     Magnetic moment per site:
     atom:    1    charge:    3.1250    magn:   -0.0001    constr:    0.0000
     atom:    2    charge:    2.0894    magn:    0.0001    constr:    0.0000
     atom:    3    charge:    3.1196    magn:   -0.0000    constr:    0.0000
     atom:    4    charge:    2.0870    magn:    0.0000    constr:    0.0000
     atom:    5    charge:    3.1170    magn:   -0.0000    constr:    0.0000
     atom:    6    charge:    2.0917    magn:    0.0000    constr:    0.0000
     atom:    7    charge:    3.1186    magn:   -0.0000    constr:    0.0000
     atom:    8    charge:    2.0818    magn:    0.0000    constr:    0.0000
     atom:    9    charge:    3.1250    magn:   -0.0001    constr:    0.0000
     atom:   10    charge:    2.0894    magn:    0.0001    constr:    0.0000
     atom:   11    charge:    3.1196    magn:   -0.0000    constr:    0.0000
     atom:   12    charge:    2.0870    magn:    0.0000    constr:    0.0000
     atom:   13    charge:    3.1148    magn:   -0.0000    constr:    0.0000
     atom:   14    charge:    2.0911    magn:    0.0000    constr:    0.0000
     atom:   15    charge:    3.1195    magn:   -0.0000    constr:    0.0000
     atom:   16    charge:    2.0886    magn:    0.0000    constr:    0.0000
     atom:   17    charge:    2.0624    magn:    0.0002    constr:    0.0000
     atom:   18    charge:    3.1239    magn:   -0.0000    constr:    0.0000
     atom:   19    charge:    2.0878    magn:   -0.0000    constr:    0.0000
     atom:   20    charge:    2.0847    magn:   -0.0000    constr:    0.0000
     atom:   21    charge:    2.0847    magn:   -0.0000    constr:    0.0000
     atom:   22    charge:    3.1197    magn:   -0.0000    constr:    0.0000
     atom:   23    charge:    2.0909    magn:    0.0000    constr:    0.0000
     atom:   24    charge:    2.0777    magn:    0.0000    constr:    0.0000
     atom:   25    charge:    2.0869    magn:    0.0000    constr:    0.0000
     atom:   26    charge:    3.1165    magn:   -0.0000    constr:    0.0000
     atom:   27    charge:    2.0823    magn:    0.0001    constr:    0.0000
     atom:   28    charge:    2.0879    magn:    0.0001    constr:    0.0000
     atom:   29    charge:    2.0878    magn:    0.0000    constr:    0.0000
     atom:   30    charge:    3.1168    magn:   -0.0001    constr:    0.0000
     atom:   31    charge:    2.0815    magn:    0.0002    constr:    0.0000
     atom:   32    charge:    2.0842    magn:    0.0000    constr:    0.0000
     atom:   33    charge:    2.0624    magn:    0.0002    constr:    0.0000
     atom:   34    charge:    3.1239    magn:   -0.0000    constr:    0.0000
     atom:   35    charge:    2.0878    magn:   -0.0000    constr:    0.0000
     atom:   36    charge:    2.0847    magn:   -0.0000    constr:    0.0000
     atom:   37    charge:    2.0847    magn:   -0.0000    constr:    0.0000
     atom:   38    charge:    3.1197    magn:   -0.0000    constr:    0.0000
     atom:   39    charge:    2.0912    magn:    0.0000    constr:    0.0000
     atom:   40    charge:    2.0777    magn:    0.0000    constr:    0.0000
     atom:   41    charge:    2.0869    magn:    0.0000    constr:    0.0000
     atom:   42    charge:    3.1181    magn:   -0.0000    constr:    0.0000
     atom:   43    charge:    2.0837    magn:    0.0001    constr:    0.0000
     atom:   44    charge:    2.0865    magn:    0.0001    constr:    0.0000
     atom:   45    charge:    2.0871    magn:    0.0000    constr:    0.0000
     atom:   46    charge:    3.1170    magn:   -0.0001    constr:    0.0000
     atom:   47    charge:    2.0796    magn:    0.0002    constr:    0.0000
     atom:   48    charge:    2.0832    magn:    0.0001    constr:    0.0000
     atom:   49    charge:    2.0528    magn:   -0.0000    constr:    0.0000
     atom:   50    charge:    1.2633    magn:   -0.0000    constr:    0.0000
     atom:   51    charge:    1.2875    magn:    0.0000    constr:    0.0000

     total cpu time spent up to now is     1475.4 secs

     total energy              =   -3044.95985829 Ry
     Harris-Foulkes estimate   =   -3044.96000088 Ry
     estimated scf accuracy    <       0.00048759 Ry

     total magnetization       =     0.00 Bohr mag/cell
     absolute magnetization    =     0.00 Bohr mag/cell

     iteration #  5     ecut=    40.42 Ry     beta=0.10
     Davidson diagonalization with overlap
     ethr =  1.22E-07,  avg # of iterations =  3.0

     negative rho (up, down):  1.159E-02 1.159E-02
 
     Magnetic moment per site:
     atom:    1    charge:    3.1250    magn:   -0.0001    constr:    0.0000
     atom:    2    charge:    2.0894    magn:    0.0001    constr:    0.0000
     atom:    3    charge:    3.1196    magn:   -0.0000    constr:    0.0000
     atom:    4    charge:    2.0870    magn:    0.0000    constr:    0.0000
     atom:    5    charge:    3.1170    magn:   -0.0000    constr:    0.0000
     atom:    6    charge:    2.0917    magn:    0.0000    constr:    0.0000
     atom:    7    charge:    3.1185    magn:   -0.0000    constr:    0.0000
     atom:    8    charge:    2.0817    magn:    0.0000    constr:    0.0000
     atom:    9    charge:    3.1250    magn:   -0.0001    constr:    0.0000
     atom:   10    charge:    2.0894    magn:    0.0001    constr:    0.0000
     atom:   11    charge:    3.1196    magn:   -0.0000    constr:    0.0000
     atom:   12    charge:    2.0870    magn:    0.0000    constr:    0.0000
     atom:   13    charge:    3.1148    magn:   -0.0000    constr:    0.0000
     atom:   14    charge:    2.0911    magn:    0.0000    constr:    0.0000
     atom:   15    charge:    3.1195    magn:   -0.0000    constr:    0.0000
     atom:   16    charge:    2.0885    magn:    0.0000    constr:    0.0000
     atom:   17    charge:    2.0624    magn:    0.0002    constr:    0.0000
     atom:   18    charge:    3.1239    magn:   -0.0000    constr:    0.0000
     atom:   19    charge:    2.0878    magn:   -0.0000    constr:    0.0000
     atom:   20    charge:    2.0847    magn:   -0.0000    constr:    0.0000
     atom:   21    charge:    2.0847    magn:   -0.0000    constr:    0.0000
     atom:   22    charge:    3.1197    magn:   -0.0000    constr:    0.0000
     atom:   23    charge:    2.0909    magn:    0.0000    constr:    0.0000
     atom:   24    charge:    2.0777    magn:    0.0000    constr:    0.0000
     atom:   25    charge:    2.0869    magn:    0.0000    constr:    0.0000
     atom:   26    charge:    3.1165    magn:   -0.0000    constr:    0.0000
     atom:   27    charge:    2.0824    magn:    0.0001    constr:    0.0000
     atom:   28    charge:    2.0879    magn:    0.0000    constr:    0.0000
     atom:   29    charge:    2.0878    magn:    0.0000    constr:    0.0000
     atom:   30    charge:    3.1168    magn:   -0.0001    constr:    0.0000
     atom:   31    charge:    2.0815    magn:    0.0001    constr:    0.0000
     atom:   32    charge:    2.0842    magn:    0.0000    constr:    0.0000
     atom:   33    charge:    2.0624    magn:    0.0002    constr:    0.0000
     atom:   34    charge:    3.1239    magn:   -0.0000    constr:    0.0000
     atom:   35    charge:    2.0878    magn:   -0.0000    constr:    0.0000
     atom:   36    charge:    2.0847    magn:   -0.0000    constr:    0.0000
     atom:   37    charge:    2.0847    magn:   -0.0000    constr:    0.0000
     atom:   38    charge:    3.1197    magn:   -0.0000    constr:    0.0000
     atom:   39    charge:    2.0912    magn:    0.0000    constr:    0.0000
     atom:   40    charge:    2.0777    magn:    0.0000    constr:    0.0000
     atom:   41    charge:    2.0869    magn:    0.0000    constr:    0.0000
     atom:   42    charge:    3.1181    magn:   -0.0000    constr:    0.0000
     atom:   43    charge:    2.0838    magn:    0.0001    constr:    0.0000
     atom:   44    charge:    2.0865    magn:    0.0000    constr:    0.0000
     atom:   45    charge:    2.0871    magn:    0.0000    constr:    0.0000
     atom:   46    charge:    3.1171    magn:   -0.0001    constr:    0.0000
     atom:   47    charge:    2.0796    magn:    0.0001    constr:    0.0000
     atom:   48    charge:    2.0833    magn:    0.0001    constr:    0.0000
     atom:   49    charge:    2.0524    magn:   -0.0000    constr:    0.0000
     atom:   50    charge:    1.2627    magn:   -0.0000    constr:    0.0000
     atom:   51    charge:    1.2881    magn:    0.0000    constr:    0.0000

     total cpu time spent up to now is     1681.8 secs

     total energy              =   -3044.95985909 Ry
     Harris-Foulkes estimate   =   -3044.95989576 Ry
     estimated scf accuracy    <       0.00015010 Ry

     total magnetization       =     0.00 Bohr mag/cell
     absolute magnetization    =     0.00 Bohr mag/cell

     iteration #  6     ecut=    40.42 Ry     beta=0.10
     Davidson diagonalization with overlap
     ethr =  3.75E-08,  avg # of iterations =  3.0

     negative rho (up, down):  1.159E-02 1.159E-02
 
     Magnetic moment per site:
     atom:    1    charge:    3.1250    magn:   -0.0001    constr:    0.0000
     atom:    2    charge:    2.0894    magn:    0.0000    constr:    0.0000
     atom:    3    charge:    3.1196    magn:   -0.0000    constr:    0.0000
     atom:    4    charge:    2.0870    magn:    0.0000    constr:    0.0000
     atom:    5    charge:    3.1170    magn:   -0.0000    constr:    0.0000
     atom:    6    charge:    2.0917    magn:    0.0000    constr:    0.0000
     atom:    7    charge:    3.1185    magn:   -0.0000    constr:    0.0000
     atom:    8    charge:    2.0815    magn:    0.0000    constr:    0.0000
     atom:    9    charge:    3.1250    magn:   -0.0001    constr:    0.0000
     atom:   10    charge:    2.0894    magn:    0.0000    constr:    0.0000
     atom:   11    charge:    3.1196    magn:   -0.0000    constr:    0.0000
     atom:   12    charge:    2.0870    magn:    0.0000    constr:    0.0000
     atom:   13    charge:    3.1148    magn:   -0.0000    constr:    0.0000
     atom:   14    charge:    2.0911    magn:    0.0000    constr:    0.0000
     atom:   15    charge:    3.1194    magn:   -0.0000    constr:    0.0000
     atom:   16    charge:    2.0883    magn:    0.0000    constr:    0.0000
     atom:   17    charge:    2.0624    magn:    0.0002    constr:    0.0000
     atom:   18    charge:    3.1239    magn:   -0.0000    constr:    0.0000
     atom:   19    charge:    2.0878    magn:   -0.0000    constr:    0.0000
     atom:   20    charge:    2.0847    magn:   -0.0000    constr:    0.0000
     atom:   21    charge:    2.0847    magn:   -0.0000    constr:    0.0000
     atom:   22    charge:    3.1197    magn:   -0.0000    constr:    0.0000
     atom:   23    charge:    2.0908    magn:    0.0000    constr:    0.0000
     atom:   24    charge:    2.0778    magn:    0.0000    constr:    0.0000
     atom:   25    charge:    2.0869    magn:    0.0000    constr:    0.0000
     atom:   26    charge:    3.1165    magn:   -0.0000    constr:    0.0000
     atom:   27    charge:    2.0824    magn:    0.0001    constr:    0.0000
     atom:   28    charge:    2.0879    magn:    0.0000    constr:    0.0000
     atom:   29    charge:    2.0877    magn:    0.0000    constr:    0.0000
     atom:   30    charge:    3.1168    magn:   -0.0000    constr:    0.0000
     atom:   31    charge:    2.0816    magn:    0.0001    constr:    0.0000
     atom:   32    charge:    2.0843    magn:    0.0000    constr:    0.0000
     atom:   33    charge:    2.0624    magn:    0.0002    constr:    0.0000
     atom:   34    charge:    3.1239    magn:   -0.0000    constr:    0.0000
     atom:   35    charge:    2.0878    magn:   -0.0000    constr:    0.0000
     atom:   36    charge:    2.0847    magn:   -0.0000    constr:    0.0000
     atom:   37    charge:    2.0847    magn:   -0.0000    constr:    0.0000
     atom:   38    charge:    3.1197    magn:   -0.0000    constr:    0.0000
     atom:   39    charge:    2.0912    magn:    0.0000    constr:    0.0000
     atom:   40    charge:    2.0777    magn:    0.0000    constr:    0.0000
     atom:   41    charge:    2.0869    magn:    0.0000    constr:    0.0000
     atom:   42    charge:    3.1181    magn:   -0.0000    constr:    0.0000
     atom:   43    charge:    2.0838    magn:    0.0001    constr:    0.0000
     atom:   44    charge:    2.0865    magn:    0.0000    constr:    0.0000
     atom:   45    charge:    2.0871    magn:    0.0000    constr:    0.0000
     atom:   46    charge:    3.1171    magn:   -0.0000    constr:    0.0000
     atom:   47    charge:    2.0797    magn:    0.0001    constr:    0.0000
     atom:   48    charge:    2.0837    magn:    0.0001    constr:    0.0000
     atom:   49    charge:    2.0522    magn:    0.0000    constr:    0.0000
     atom:   50    charge:    1.2626    magn:   -0.0000    constr:    0.0000
     atom:   51    charge:    1.2880    magn:    0.0000    constr:    0.0000

     total cpu time spent up to now is     1888.8 secs

     total energy              =   -3044.95984675 Ry
     Harris-Foulkes estimate   =   -3044.95986759 Ry
     estimated scf accuracy    <       0.00006593 Ry

     total magnetization       =     0.00 Bohr mag/cell
     absolute magnetization    =     0.00 Bohr mag/cell

     iteration #  7     ecut=    40.42 Ry     beta=0.10
     Davidson diagonalization with overlap
     ethr =  1.65E-08,  avg # of iterations =  2.0

     negative rho (up, down):  1.159E-02 1.159E-02
 
     Magnetic moment per site:
     atom:    1    charge:    3.1250    magn:   -0.0000    constr:    0.0000
     atom:    2    charge:    2.0894    magn:    0.0000    constr:    0.0000
     atom:    3    charge:    3.1196    magn:   -0.0000    constr:    0.0000
     atom:    4    charge:    2.0870    magn:    0.0000    constr:    0.0000
     atom:    5    charge:    3.1170    magn:   -0.0000    constr:    0.0000
     atom:    6    charge:    2.0917    magn:    0.0000    constr:    0.0000
     atom:    7    charge:    3.1185    magn:   -0.0000    constr:    0.0000
     atom:    8    charge:    2.0815    magn:    0.0000    constr:    0.0000
     atom:    9    charge:    3.1250    magn:   -0.0000    constr:    0.0000
     atom:   10    charge:    2.0894    magn:    0.0000    constr:    0.0000
     atom:   11    charge:    3.1196    magn:   -0.0000    constr:    0.0000
     atom:   12    charge:    2.0870    magn:    0.0000    constr:    0.0000
     atom:   13    charge:    3.1148    magn:   -0.0000    constr:    0.0000
     atom:   14    charge:    2.0911    magn:    0.0000    constr:    0.0000
     atom:   15    charge:    3.1194    magn:   -0.0000    constr:    0.0000
     atom:   16    charge:    2.0882    magn:    0.0000    constr:    0.0000
     atom:   17    charge:    2.0624    magn:    0.0001    constr:    0.0000
     atom:   18    charge:    3.1239    magn:   -0.0000    constr:    0.0000
     atom:   19    charge:    2.0878    magn:   -0.0000    constr:    0.0000
     atom:   20    charge:    2.0847    magn:   -0.0000    constr:    0.0000
     atom:   21    charge:    2.0847    magn:   -0.0000    constr:    0.0000
     atom:   22    charge:    3.1197    magn:   -0.0000    constr:    0.0000
     atom:   23    charge:    2.0908    magn:    0.0000    constr:    0.0000
     atom:   24    charge:    2.0777    magn:    0.0000    constr:    0.0000
     atom:   25    charge:    2.0869    magn:    0.0000    constr:    0.0000
     atom:   26    charge:    3.1165    magn:   -0.0000    constr:    0.0000
     atom:   27    charge:    2.0824    magn:    0.0001    constr:    0.0000
     atom:   28    charge:    2.0879    magn:    0.0000    constr:    0.0000
     atom:   29    charge:    2.0877    magn:    0.0000    constr:    0.0000
     atom:   30    charge:    3.1168    magn:   -0.0000    constr:    0.0000
     atom:   31    charge:    2.0816    magn:    0.0001    constr:    0.0000
     atom:   32    charge:    2.0843    magn:    0.0000    constr:    0.0000
     atom:   33    charge:    2.0624    magn:    0.0001    constr:    0.0000
     atom:   34    charge:    3.1239    magn:   -0.0000    constr:    0.0000
     atom:   35    charge:    2.0878    magn:   -0.0000    constr:    0.0000
     atom:   36    charge:    2.0847    magn:   -0.0000    constr:    0.0000
     atom:   37    charge:    2.0847    magn:   -0.0000    constr:    0.0000
     atom:   38    charge:    3.1197    magn:   -0.0000    constr:    0.0000
     atom:   39    charge:    2.0912    magn:    0.0000    constr:    0.0000
     atom:   40    charge:    2.0777    magn:    0.0000    constr:    0.0000
     atom:   41    charge:    2.0869    magn:    0.0000    constr:    0.0000
     atom:   42    charge:    3.1181    magn:   -0.0000    constr:    0.0000
     atom:   43    charge:    2.0838    magn:    0.0001    constr:    0.0000
     atom:   44    charge:    2.0865    magn:    0.0000    constr:    0.0000
     atom:   45    charge:    2.0871    magn:    0.0000    constr:    0.0000
     atom:   46    charge:    3.1171    magn:   -0.0000    constr:    0.0000
     atom:   47    charge:    2.0797    magn:    0.0001    constr:    0.0000
     atom:   48    charge:    2.0837    magn:    0.0000    constr:    0.0000
     atom:   49    charge:    2.0523    magn:    0.0000    constr:    0.0000
     atom:   50    charge:    1.2624    magn:   -0.0000    constr:    0.0000
     atom:   51    charge:    1.2881    magn:    0.0000    constr:    0.0000

     total cpu time spent up to now is     2081.8 secs

     total energy              =   -3044.95984913 Ry
     Harris-Foulkes estimate   =   -3044.95985324 Ry
     estimated scf accuracy    <       0.00001549 Ry

     total magnetization       =     0.00 Bohr mag/cell
     absolute magnetization    =     0.00 Bohr mag/cell

     iteration #  8     ecut=    40.42 Ry     beta=0.10
     Davidson diagonalization with overlap
     ethr =  3.87E-09,  avg # of iterations =  2.5

     negative rho (up, down):  1.159E-02 1.159E-02
 
     Magnetic moment per site:
     atom:    1    charge:    3.1250    magn:   -0.0000    constr:    0.0000
     atom:    2    charge:    2.0894    magn:    0.0000    constr:    0.0000
     atom:    3    charge:    3.1196    magn:   -0.0000    constr:    0.0000
     atom:    4    charge:    2.0870    magn:    0.0000    constr:    0.0000
     atom:    5    charge:    3.1170    magn:   -0.0000    constr:    0.0000
     atom:    6    charge:    2.0917    magn:    0.0000    constr:    0.0000
     atom:    7    charge:    3.1185    magn:   -0.0000    constr:    0.0000
     atom:    8    charge:    2.0815    magn:    0.0000    constr:    0.0000
     atom:    9    charge:    3.1250    magn:   -0.0000    constr:    0.0000
     atom:   10    charge:    2.0894    magn:    0.0000    constr:    0.0000
     atom:   11    charge:    3.1196    magn:   -0.0000    constr:    0.0000
     atom:   12    charge:    2.0870    magn:    0.0000    constr:    0.0000
     atom:   13    charge:    3.1148    magn:   -0.0000    constr:    0.0000
     atom:   14    charge:    2.0911    magn:    0.0000    constr:    0.0000
     atom:   15    charge:    3.1194    magn:   -0.0000    constr:    0.0000
     atom:   16    charge:    2.0883    magn:    0.0000    constr:    0.0000
     atom:   17    charge:    2.0624    magn:    0.0001    constr:    0.0000
     atom:   18    charge:    3.1239    magn:   -0.0000    constr:    0.0000
     atom:   19    charge:    2.0878    magn:   -0.0000    constr:    0.0000
     atom:   20    charge:    2.0847    magn:   -0.0000    constr:    0.0000
     atom:   21    charge:    2.0847    magn:   -0.0000    constr:    0.0000
     atom:   22    charge:    3.1197    magn:   -0.0000    constr:    0.0000
     atom:   23    charge:    2.0909    magn:    0.0000    constr:    0.0000
     atom:   24    charge:    2.0777    magn:    0.0000    constr:    0.0000
     atom:   25    charge:    2.0869    magn:    0.0000    constr:    0.0000
     atom:   26    charge:    3.1165    magn:   -0.0000    constr:    0.0000
     atom:   27    charge:    2.0824    magn:    0.0000    constr:    0.0000
     atom:   28    charge:    2.0879    magn:    0.0000    constr:    0.0000
     atom:   29    charge:    2.0877    magn:    0.0000    constr:    0.0000
     atom:   30    charge:    3.1168    magn:   -0.0000    constr:    0.0000
     atom:   31    charge:    2.0816    magn:    0.0001    constr:    0.0000
     atom:   32    charge:    2.0843    magn:    0.0000    constr:    0.0000
     atom:   33    charge:    2.0624    magn:    0.0001    constr:    0.0000
     atom:   34    charge:    3.1239    magn:   -0.0000    constr:    0.0000
     atom:   35    charge:    2.0878    magn:   -0.0000    constr:    0.0000
     atom:   36    charge:    2.0847    magn:   -0.0000    constr:    0.0000
     atom:   37    charge:    2.0847    magn:   -0.0000    constr:    0.0000
     atom:   38    charge:    3.1197    magn:   -0.0000    constr:    0.0000
     atom:   39    charge:    2.0912    magn:    0.0000    constr:    0.0000
     atom:   40    charge:    2.0777    magn:    0.0000    constr:    0.0000
     atom:   41    charge:    2.0869    magn:    0.0000    constr:    0.0000
     atom:   42    charge:    3.1181    magn:   -0.0000    constr:    0.0000
     atom:   43    charge:    2.0838    magn:    0.0000    constr:    0.0000
     atom:   44    charge:    2.0865    magn:    0.0000    constr:    0.0000
     atom:   45    charge:    2.0871    magn:    0.0000    constr:    0.0000
     atom:   46    charge:    3.1171    magn:   -0.0000    constr:    0.0000
     atom:   47    charge:    2.0797    magn:    0.0001    constr:    0.0000
     atom:   48    charge:    2.0836    magn:    0.0000    constr:    0.0000
     atom:   49    charge:    2.0524    magn:    0.0000    constr:    0.0000
     atom:   50    charge:    1.2624    magn:   -0.0000    constr:    0.0000
     atom:   51    charge:    1.2881    magn:    0.0000    constr:    0.0000

     total cpu time spent up to now is     2282.5 secs

     total energy              =   -3044.95985073 Ry
     Harris-Foulkes estimate   =   -3044.95985076 Ry
     estimated scf accuracy    <       0.00000231 Ry

     total magnetization       =     0.00 Bohr mag/cell
     absolute magnetization    =     0.00 Bohr mag/cell

     iteration #  9     ecut=    40.42 Ry     beta=0.10
     Davidson diagonalization with overlap
     ethr =  5.78E-10,  avg # of iterations =  2.0

     negative rho (up, down):  1.159E-02 1.159E-02
 
     Magnetic moment per site:
     atom:    1    charge:    3.1250    magn:   -0.0000    constr:    0.0000
     atom:    2    charge:    2.0894    magn:    0.0000    constr:    0.0000
     atom:    3    charge:    3.1196    magn:   -0.0000    constr:    0.0000
     atom:    4    charge:    2.0870    magn:    0.0000    constr:    0.0000
     atom:    5    charge:    3.1170    magn:   -0.0000    constr:    0.0000
     atom:    6    charge:    2.0917    magn:    0.0000    constr:    0.0000
     atom:    7    charge:    3.1185    magn:   -0.0000    constr:    0.0000
     atom:    8    charge:    2.0816    magn:    0.0000    constr:    0.0000
     atom:    9    charge:    3.1250    magn:   -0.0000    constr:    0.0000
     atom:   10    charge:    2.0894    magn:    0.0000    constr:    0.0000
     atom:   11    charge:    3.1196    magn:   -0.0000    constr:    0.0000
     atom:   12    charge:    2.0870    magn:    0.0000    constr:    0.0000
     atom:   13    charge:    3.1148    magn:   -0.0000    constr:    0.0000
     atom:   14    charge:    2.0911    magn:    0.0000    constr:    0.0000
     atom:   15    charge:    3.1194    magn:   -0.0000    constr:    0.0000
     atom:   16    charge:    2.0883    magn:    0.0000    constr:    0.0000
     atom:   17    charge:    2.0624    magn:    0.0001    constr:    0.0000
     atom:   18    charge:    3.1239    magn:   -0.0000    constr:    0.0000
     atom:   19    charge:    2.0878    magn:   -0.0000    constr:    0.0000
     atom:   20    charge:    2.0847    magn:   -0.0000    constr:    0.0000
     atom:   21    charge:    2.0847    magn:   -0.0000    constr:    0.0000
     atom:   22    charge:    3.1197    magn:   -0.0000    constr:    0.0000
     atom:   23    charge:    2.0909    magn:    0.0000    constr:    0.0000
     atom:   24    charge:    2.0777    magn:    0.0000    constr:    0.0000
     atom:   25    charge:    2.0869    magn:    0.0000    constr:    0.0000
     atom:   26    charge:    3.1165    magn:   -0.0000    constr:    0.0000
     atom:   27    charge:    2.0824    magn:    0.0000    constr:    0.0000
     atom:   28    charge:    2.0879    magn:    0.0000    constr:    0.0000
     atom:   29    charge:    2.0877    magn:    0.0000    constr:    0.0000
     atom:   30    charge:    3.1168    magn:   -0.0000    constr:    0.0000
     atom:   31    charge:    2.0816    magn:    0.0001    constr:    0.0000
     atom:   32    charge:    2.0843    magn:    0.0000    constr:    0.0000
     atom:   33    charge:    2.0624    magn:    0.0001    constr:    0.0000
     atom:   34    charge:    3.1239    magn:   -0.0000    constr:    0.0000
     atom:   35    charge:    2.0878    magn:   -0.0000    constr:    0.0000
     atom:   36    charge:    2.0847    magn:   -0.0000    constr:    0.0000
     atom:   37    charge:    2.0847    magn:   -0.0000    constr:    0.0000
     atom:   38    charge:    3.1197    magn:   -0.0000    constr:    0.0000
     atom:   39    charge:    2.0912    magn:    0.0000    constr:    0.0000
     atom:   40    charge:    2.0777    magn:    0.0000    constr:    0.0000
     atom:   41    charge:    2.0869    magn:    0.0000    constr:    0.0000
     atom:   42    charge:    3.1181    magn:   -0.0000    constr:    0.0000
     atom:   43    charge:    2.0838    magn:    0.0000    constr:    0.0000
     atom:   44    charge:    2.0865    magn:    0.0000    constr:    0.0000
     atom:   45    charge:    2.0871    magn:    0.0000    constr:    0.0000
     atom:   46    charge:    3.1171    magn:   -0.0000    constr:    0.0000
     atom:   47    charge:    2.0797    magn:    0.0001    constr:    0.0000
     atom:   48    charge:    2.0836    magn:    0.0000    constr:    0.0000
     atom:   49    charge:    2.0524    magn:    0.0000    constr:    0.0000
     atom:   50    charge:    1.2625    magn:   -0.0000    constr:    0.0000
     atom:   51    charge:    1.2881    magn:    0.0000    constr:    0.0000

     total cpu time spent up to now is     2475.5 secs

     total energy              =   -3044.95985089 Ry
     Harris-Foulkes estimate   =   -3044.95985087 Ry
     estimated scf accuracy    <       0.00000096 Ry

     total magnetization       =     0.00 Bohr mag/cell
     absolute magnetization    =     0.00 Bohr mag/cell

     iteration # 10     ecut=    40.42 Ry     beta=0.10
     Davidson diagonalization with overlap
     ethr =  2.41E-10,  avg # of iterations =  2.0

     negative rho (up, down):  1.159E-02 1.159E-02
 
     Magnetic moment per site:
     atom:    1    charge:    3.1250    magn:   -0.0000    constr:    0.0000
     atom:    2    charge:    2.0894    magn:    0.0000    constr:    0.0000
     atom:    3    charge:    3.1196    magn:   -0.0000    constr:    0.0000
     atom:    4    charge:    2.0870    magn:    0.0000    constr:    0.0000
     atom:    5    charge:    3.1170    magn:   -0.0000    constr:    0.0000
     atom:    6    charge:    2.0917    magn:    0.0000    constr:    0.0000
     atom:    7    charge:    3.1185    magn:   -0.0000    constr:    0.0000
     atom:    8    charge:    2.0816    magn:    0.0000    constr:    0.0000
     atom:    9    charge:    3.1250    magn:   -0.0000    constr:    0.0000
     atom:   10    charge:    2.0894    magn:    0.0000    constr:    0.0000
     atom:   11    charge:    3.1196    magn:   -0.0000    constr:    0.0000
     atom:   12    charge:    2.0870    magn:    0.0000    constr:    0.0000
     atom:   13    charge:    3.1148    magn:   -0.0000    constr:    0.0000
     atom:   14    charge:    2.0911    magn:    0.0000    constr:    0.0000
     atom:   15    charge:    3.1194    magn:   -0.0000    constr:    0.0000
     atom:   16    charge:    2.0883    magn:    0.0000    constr:    0.0000
     atom:   17    charge:    2.0624    magn:    0.0000    constr:    0.0000
     atom:   18    charge:    3.1239    magn:   -0.0000    constr:    0.0000
     atom:   19    charge:    2.0878    magn:   -0.0000    constr:    0.0000
     atom:   20    charge:    2.0847    magn:   -0.0000    constr:    0.0000
     atom:   21    charge:    2.0847    magn:   -0.0000    constr:    0.0000
     atom:   22    charge:    3.1197    magn:   -0.0000    constr:    0.0000
     atom:   23    charge:    2.0909    magn:    0.0000    constr:    0.0000
     atom:   24    charge:    2.0777    magn:    0.0000    constr:    0.0000
     atom:   25    charge:    2.0869    magn:    0.0000    constr:    0.0000
     atom:   26    charge:    3.1165    magn:   -0.0000    constr:    0.0000
     atom:   27    charge:    2.0824    magn:    0.0000    constr:    0.0000
     atom:   28    charge:    2.0879    magn:    0.0000    constr:    0.0000
     atom:   29    charge:    2.0877    magn:    0.0000    constr:    0.0000
     atom:   30    charge:    3.1168    magn:   -0.0000    constr:    0.0000
     atom:   31    charge:    2.0816    magn:    0.0000    constr:    0.0000
     atom:   32    charge:    2.0843    magn:    0.0000    constr:    0.0000
     atom:   33    charge:    2.0624    magn:    0.0000    constr:    0.0000
     atom:   34    charge:    3.1239    magn:   -0.0000    constr:    0.0000
     atom:   35    charge:    2.0878    magn:   -0.0000    constr:    0.0000
     atom:   36    charge:    2.0847    magn:   -0.0000    constr:    0.0000
     atom:   37    charge:    2.0847    magn:   -0.0000    constr:    0.0000
     atom:   38    charge:    3.1197    magn:   -0.0000    constr:    0.0000
     atom:   39    charge:    2.0912    magn:    0.0000    constr:    0.0000
     atom:   40    charge:    2.0777    magn:    0.0000    constr:    0.0000
     atom:   41    charge:    2.0869    magn:    0.0000    constr:    0.0000
     atom:   42    charge:    3.1181    magn:   -0.0000    constr:    0.0000
     atom:   43    charge:    2.0838    magn:    0.0000    constr:    0.0000
     atom:   44    charge:    2.0865    magn:    0.0000    constr:    0.0000
     atom:   45    charge:    2.0871    magn:    0.0000    constr:    0.0000
     atom:   46    charge:    3.1171    magn:   -0.0000    constr:    0.0000
     atom:   47    charge:    2.0797    magn:    0.0000    constr:    0.0000
     atom:   48    charge:    2.0836    magn:    0.0000    constr:    0.0000
     atom:   49    charge:    2.0523    magn:    0.0000    constr:    0.0000
     atom:   50    charge:    1.2625    magn:   -0.0000    constr:    0.0000
     atom:   51    charge:    1.2882    magn:    0.0000    constr:    0.0000

     total cpu time spent up to now is     2667.2 secs

     End of self-consistent calculation

 ------ SPIN UP ------------


          k = 0.0000 0.0000 0.0000 ( 34665 PWs)   bands (ev):

   -57.8176 -57.7827 -57.5063 -57.4507 -57.3815 -57.3452 -57.2727 -57.2373
   -57.1752 -57.1399 -57.1112 -57.0758 -56.8798 -56.8070 -56.2797 -56.2445
   -34.2540 -34.0988 -34.0702 -34.0532 -34.0192 -33.9249 -33.8641 -33.8574
   -33.8204 -33.7661 -33.7262 -33.7159 -33.7120 -33.6810 -33.6664 -33.6617
   -33.6425 -33.6334 -33.6107 -33.5512 -33.5183 -33.4540 -33.4520 -33.4333
   -33.4263 -33.4239 -33.3834 -33.3769 -33.3730 -33.3551 -33.3507 -33.3304
   -33.3072 -33.3010 -33.2741 -33.2681 -33.2425 -33.1409 -33.1361 -33.0784
   -33.0346 -32.9340 -32.6985 -32.6309 -32.6049 -32.5024 -32.4107 -32.3024
   -24.3262 -21.1206 -18.1698 -17.9699 -17.7464 -17.6244 -17.4893 -17.4877
   -17.2067 -17.1865 -17.1396 -17.0489 -17.0451 -17.0046 -16.9883 -16.9149
   -16.8685 -16.8563 -16.8326 -16.7924 -16.7316 -16.6846 -16.5658 -16.5440
   -16.5157 -16.5002 -16.4161 -16.3063 -16.2707 -16.2396 -16.1035 -16.0740
   -14.8620 -14.7773  -9.7966  -7.5595  -7.5327  -6.0048  -5.5618  -5.5059
    -5.3540  -5.3459  -5.2893  -4.9907  -4.9328  -4.5819  -4.5789  -4.5435
    -4.5330  -4.4857  -4.3621  -4.2654  -4.2163  -4.1987  -4.1655  -4.1619
    -4.1591  -4.1498  -4.0852  -4.0808  -4.0032  -3.9820  -3.9493  -3.9078
    -3.8751  -3.8004  -3.7678  -3.7435  -3.7137  -3.6383  -3.6170  -3.5434
    -3.5390  -3.5136  -3.4474  -3.3287  -3.1967  -3.1609  -3.0604  -2.9997
    -2.9733  -2.8698  -2.8471  -2.8094  -2.7370  -2.7349  -2.7200  -2.5959
    -2.5573  -2.5016  -2.4307  -2.3944  -2.3665  -2.3468  -2.3204  -2.2770
    -2.2759  -2.2416  -2.2065  -2.1855  -2.1689  -2.0462  -1.9882  -1.8878
    -1.7484  -1.7436  -1.7159  -1.6771  -1.6470  -1.6361  -1.5586  -1.5327
    -1.4371  -1.4273  -1.4027  -1.3871  -1.3834  -1.2776  -1.2255  -1.2174
    -1.1972  -1.1272  -1.0666  -1.0108  -0.9121  -0.7376  -0.7085  -0.7040
    -0.6398  -0.5110  -0.3666  -0.2298  -0.1661  -0.0031   0.1235   0.1386
     1.5243   1.5534   1.8386   1.8772   1.8865   1.9084   2.0754   2.0940
     2.1290   2.2460   2.3646   2.3780   2.4127   2.4321   2.4701   2.4869
     2.5321   2.5696   2.6430   2.6720   2.6830   2.7671   2.7879   2.8743
     2.8930   2.9031   2.9924   3.0011   3.0024   3.0340   3.0706   3.0884
     3.0980   3.1066   3.1109   3.1446   3.2453   3.3032   3.3089   3.3486
     3.3576   3.3889   3.4239   3.5366   3.5401   3.6775   3.8839   3.9892
     4.0236   4.0483   4.0550   4.1859   4.2581   4.4648   4.5310   4.6629
     4.9067   4.9140   5.0167   5.1223   5.2113   5.3940   5.4005   5.4269
     5.5038   5.5865   5.6353   5.6427   5.7211   5.7386   5.7428   5.7488
     5.9272   5.9611   6.0165   6.0278   6.1042   6.1482   6.2035   6.2255
     6.4802   6.6178   6.7734   6.7884   6.8863   7.1689   7.1722   7.2801
     7.8875   7.9841   8.1602   8.3872   8.7076   8.9038   8.9151   8.9532
     9.2067   9.2571   9.2895   9.3524

          k = 0.0000 0.0280 0.0000 ( 34717 PWs)   bands (ev):

   -57.8153 -57.7850 -57.5048 -57.4522 -57.3792 -57.3475 -57.2703 -57.2397
   -57.1728 -57.1422 -57.1089 -57.0782 -56.8786 -56.8082 -56.2774 -56.2468
   -34.2286 -34.0968 -34.0721 -34.0274 -34.0130 -33.9314 -33.8911 -33.8323
   -33.8139 -33.7419 -33.7288 -33.7201 -33.7112 -33.6816 -33.6661 -33.6628
   -33.6411 -33.6094 -33.6042 -33.5442 -33.5273 -33.4772 -33.4519 -33.4430
   -33.4281 -33.4179 -33.4001 -33.3728 -33.3572 -33.3541 -33.3494 -33.3369
   -33.3071 -33.3061 -33.2991 -33.2698 -33.2682 -33.1403 -33.1330 -33.0790
   -33.0388 -32.9622 -32.6728 -32.6292 -32.6067 -32.4963 -32.4169 -32.3299
   -24.3262 -21.1206 -18.1082 -17.9119 -17.6935 -17.5710 -17.4681 -17.4411
   -17.2226 -17.1834 -17.1563 -17.1151 -17.0505 -17.0010 -16.9785 -16.9006
   -16.8837 -16.8394 -16.8242 -16.7930 -16.7623 -16.7421 -16.5899 -16.5309
   -16.5137 -16.4947 -16.4457 -16.3024 -16.2885 -16.2572 -16.1290 -16.1163
   -14.8719 -14.8005  -9.7965  -7.5610  -7.5326  -6.0037  -5.4736  -5.4217
    -5.2767  -5.2657  -5.2120  -4.8729  -4.8577  -4.6058  -4.5768  -4.5101
    -4.4825  -4.4477  -4.3108  -4.2876  -4.2817  -4.2343  -4.2270  -4.1899
    -4.1531  -4.1384  -4.1031  -4.0911  -4.0733  -4.0474  -4.0036  -3.9812
    -3.9233  -3.9165  -3.8567  -3.7983  -3.7314  -3.7165  -3.6952  -3.5605
    -3.4811  -3.4668  -3.3767  -3.3112  -3.1257  -3.0760  -2.9876  -2.9604
    -2.8501  -2.8159  -2.7520  -2.7449  -2.6652  -2.6340  -2.6305  -2.6123
    -2.5646  -2.5526  -2.5148  -2.4518  -2.4092  -2.3449  -2.3169  -2.2761
    -2.2327  -2.2125  -2.1999  -2.1226  -2.0483  -2.0147  -1.9353  -1.8679
    -1.8359  -1.8128  -1.7827  -1.7718  -1.6913  -1.6681  -1.6266  -1.5938
    -1.5517  -1.4839  -1.4617  -1.4034  -1.3824  -1.3515  -1.2693  -1.2309
    -1.1844  -1.1480  -1.0620  -1.0244  -0.9420  -0.9073  -0.8396  -0.7532
    -0.7250  -0.5255  -0.4072  -0.2213  -0.2189   0.0077   0.0781   0.1030
     1.6100   1.6569   1.8672   1.8786   1.9328   2.0074   2.0531   2.1209
     2.1775   2.2737   2.3265   2.3813   2.3848   2.4476   2.4588   2.4890
     2.5257   2.5550   2.5968   2.6613   2.7216   2.7735   2.7906   2.8239
     2.8782   2.8986   2.9552   2.9650   2.9951   3.0261   3.0503   3.0784
     3.1037   3.1103   3.1943   3.2128   3.2612   3.3234   3.3612   3.4204
     3.4237   3.4757   3.5083   3.5127   3.5773   3.6442   3.8342   3.9481
     3.9995   4.0581   4.1368   4.1709   4.1900   4.4078   4.5917   4.7612
     4.9192   4.9880   5.1144   5.1799   5.2155   5.4125   5.4346   5.4848
     5.4973   5.5708   5.6025   5.6282   5.6766   5.7017   5.7388   5.8269
     5.8533   5.9391   5.9826   6.0213   6.0243   6.0326   6.1226   6.2883
     6.4583   6.5470   6.7173   6.7910   6.8148   7.0741   7.0940   7.3705
     7.6760   7.9857   8.0954   8.2838   8.4160   8.6933   8.9827   9.0280
     9.0804   9.2943   9.3553   9.4038

          k = 0.0000 0.0560 0.0000 ( 34721 PWs)   bands (ev):

   -57.8089 -57.7915 -57.5015 -57.4555 -57.3730 -57.3537 -57.2639 -57.2462
   -57.1664 -57.1486 -57.1024 -57.0847 -56.8760 -56.8108 -56.2710 -56.2533
   -34.1589 -34.0915 -34.0771 -33.9959 -33.9641 -33.9568 -33.9488 -33.7980
   -33.7672 -33.7572 -33.7440 -33.7089 -33.6984 -33.6853 -33.6680 -33.6654
   -33.5867 -33.5711 -33.5678 -33.5408 -33.5280 -33.5247 -33.4734 -33.4670
   -33.4465 -33.4329 -33.4015 -33.3755 -33.3684 -33.3546 -33.3518 -33.3476
   -33.3336 -33.3192 -33.2977 -33.2961 -33.2616 -33.1396 -33.1294 -33.0803
   -33.0524 -33.0296 -32.6244 -32.6114 -32.6020 -32.4798 -32.4338 -32.4041
   -24.3262 -21.1204 -17.9367 -17.7518 -17.5536 -17.4407 -17.4217 -17.4158
   -17.3130 -17.2868 -17.1739 -17.0736 -17.0735 -17.0404 -17.0166 -16.9748
   -16.8571 -16.8500 -16.8460 -16.8069 -16.7457 -16.6805 -16.6537 -16.6086
   -16.5265 -16.4664 -16.4413 -16.3256 -16.3161 -16.2765 -16.2414 -16.1786
   -14.8895 -14.8508  -9.7962  -7.5640  -7.5322  -6.0017  -5.2308  -5.1864
    -5.0695  -5.0363  -5.0035  -4.7301  -4.6586  -4.6207  -4.5452  -4.5366
    -4.5083  -4.4917  -4.4620  -4.3856  -4.3533  -4.3446  -4.3222  -4.3176
    -4.2508  -4.2132  -4.1925  -4.1429  -4.1292  -4.0881  -4.0633  -4.0118
    -3.9497  -3.9221  -3.8517  -3.7767  -3.7206  -3.5994  -3.5707  -3.4775
    -3.4156  -3.3811  -3.3597  -3.2647  -3.1715  -3.0274  -2.9750  -2.9605
    -2.9550  -2.8760  -2.7876  -2.7358  -2.6890  -2.6504  -2.6068  -2.4650
    -2.4498  -2.4430  -2.4097  -2.3883  -2.3328  -2.2974  -2.2758  -2.2709
    -2.1984  -2.1756  -2.0937  -2.0648  -2.0427  -2.0320  -2.0053  -1.9858
    -1.9351  -1.8978  -1.8612  -1.7920  -1.7075  -1.6765  -1.6633  -1.6513
    -1.6324  -1.5656  -1.5120  -1.4965  -1.4770  -1.4358  -1.3666  -1.3517
    -1.2764  -1.2349  -1.1617  -1.1370  -1.0567  -0.9933  -0.9224  -0.8863
    -0.7934  -0.7082  -0.5877  -0.3856  -0.0380   0.0183   0.0491   0.0522
     1.7467   1.8932   1.9092   1.9888   2.0208   2.0635   2.1403   2.2077
     2.2270   2.2636   2.2690   2.2809   2.3134   2.3611   2.3839   2.5188
     2.5289   2.5633   2.6522   2.6697   2.7435   2.7592   2.7919   2.8101
     2.8255   2.8483   2.8990   2.9478   2.9814   3.0199   3.0922   3.1009
     3.1294   3.1823   3.2050   3.2262   3.3315   3.3773   3.4142   3.4889
     3.5038   3.5624   3.6196   3.6722   3.6920   3.7273   3.7472   3.8544
     3.9878   4.0010   4.0167   4.0954   4.2430   4.3368   4.7215   4.8504
     5.0357   5.1589   5.2579   5.3055   5.3356   5.3711   5.4070   5.4843
     5.5288   5.6029   5.6164   5.6252   5.6495   5.6972   5.7340   5.7432
     5.7606   5.7974   5.8368   5.9016   5.9827   6.0285   6.1925   6.2963
     6.3600   6.4046   6.6462   6.6525   6.6871   6.9048   7.0106   7.2690
     7.4540   7.6661   7.7714   8.2632   8.4097   8.5986   8.8980   9.0336
     9.1786   9.3535   9.4464   9.5624

          k = 0.0000-0.0840 0.0000 ( 34678 PWs)   bands (ev):

   -57.8002 -57.8002 -57.4997 -57.4574 -57.3672 -57.3595 -57.2551 -57.2550
   -57.1589 -57.1562 -57.0946 -57.0925 -56.8747 -56.8122 -56.2622 -56.2621
   -34.0843 -34.0843 -34.0622 -34.0622 -33.9724 -33.9724 -33.8741 -33.8411
   -33.7810 -33.7625 -33.7105 -33.7038 -33.6880 -33.6710 -33.6633 -33.6515
   -33.5719 -33.5717 -33.5637 -33.5564 -33.4970 -33.4966 -33.4753 -33.4729
   -33.4498 -33.4421 -33.4397 -33.4393 -33.3791 -33.3768 -33.3504 -33.3473
   -33.3374 -33.3353 -33.2910 -33.2892 -33.1955 -33.1616 -33.1364 -33.0859
   -33.0801 -33.0490 -32.6179 -32.6179 -32.5040 -32.5040 -32.4568 -32.4568
   -24.3261 -21.1203 -17.6986 -17.6869 -17.5311 -17.5304 -17.4145 -17.3959
   -17.2411 -17.2350 -17.1734 -17.1729 -17.1378 -17.1344 -16.9600 -16.9599
   -16.9362 -16.9321 -16.7658 -16.7411 -16.7123 -16.7110 -16.6399 -16.6330
   -16.5466 -16.5009 -16.3734 -16.3718 -16.3276 -16.3262 -16.2466 -16.2458
   -14.8876 -14.8876  -9.7961  -7.5654  -7.5320  -6.0009  -4.9195  -4.9163
    -4.8534  -4.8533  -4.7995  -4.7851  -4.7591  -4.7527  -4.7143  -4.6944
    -4.5226  -4.5040  -4.4899  -4.4878  -4.4193  -4.4178  -4.4132  -4.4105
    -4.2545  -4.2161  -4.1533  -4.1519  -4.1402  -4.1175  -4.0036  -3.9484
    -3.9475  -3.9112  -3.8361  -3.7933  -3.6499  -3.6098  -3.4584  -3.4469
    -3.2983  -3.2860  -3.2309  -3.1486  -3.1312  -3.1008  -2.9708  -2.9673
    -2.9404  -2.8869  -2.8547  -2.8208  -2.7106  -2.6878  -2.6638  -2.6463
    -2.6213  -2.6123  -2.5697  -2.4552  -2.4483  -2.4193  -2.1553  -2.1204
    -2.0974  -2.0516  -2.0104  -1.9804  -1.9296  -1.9290  -1.9231  -1.8751
    -1.8653  -1.8616  -1.8428  -1.7862  -1.7716  -1.7070  -1.6265  -1.6259
    -1.5861  -1.5686  -1.5521  -1.5507  -1.5431  -1.5383  -1.5188  -1.4058
    -1.3701  -1.2605  -1.2477  -1.2189  -1.1245  -1.1185  -1.0953  -1.0886
    -0.6790  -0.6258  -0.5917  -0.5831   0.0179   0.0183   0.0550   0.0553
     1.9121   1.9159   2.0161   2.0185   2.1043   2.1045   2.1106   2.1330
     2.2265   2.2266   2.2323   2.2478   2.3467   2.3874   2.4354   2.4377
     2.5299   2.5345   2.5982   2.5988   2.7540   2.7652   2.8264   2.8351
     2.8591   2.8929   2.9092   2.9519   2.9788   2.9991   3.0667   3.0844
     3.0973   3.2207   3.2645   3.3282   3.3347   3.3366   3.3378   3.5171
     3.6218   3.6245   3.6917   3.7051   3.7325   3.7922   3.7938   3.8751
     3.9272   3.9293   3.9930   3.9934   4.1259   4.4253   4.7984   4.8222
     5.1531   5.1760   5.2927   5.3296   5.3875   5.3875   5.4978   5.5244
     5.5589   5.5760   5.5873   5.6463   5.6639   5.6782   5.7101   5.7103
     5.7457   5.8058   5.8372   5.8553   5.9901   6.0049   6.0394   6.0630
     6.4207   6.4248   6.5560   6.5879   6.8442   6.8560   6.9557   6.9733
     7.4088   7.4938   7.6191   8.1903   8.3311   8.6387   9.0392   9.1061
     9.3588   9.4175   9.6160   9.6657

          k = 0.0253 0.0000 0.0000 ( 34707 PWs)   bands (ev):

   -57.8176 -57.7827 -57.5063 -57.4507 -57.3815 -57.3452 -57.2727 -57.2373
   -57.1752 -57.1399 -57.1112 -57.0758 -56.8798 -56.8070 -56.2797 -56.2445
   -34.2543 -34.0988 -34.0702 -34.0532 -34.0185 -33.9249 -33.8642 -33.8581
   -33.8204 -33.7675 -33.7258 -33.7153 -33.7113 -33.6821 -33.6730 -33.6668
   -33.6425 -33.6194 -33.6089 -33.5456 -33.5188 -33.4539 -33.4521 -33.4330
   -33.4264 -33.4241 -33.3829 -33.3803 -33.3730 -33.3606 -33.3495 -33.3304
   -33.3072 -33.3009 -33.2743 -33.2681 -33.2426 -33.1420 -33.1362 -33.0785
   -33.0346 -32.9341 -32.6984 -32.6320 -32.6043 -32.5024 -32.4107 -32.3025
   -24.3262 -21.1206 -18.1415 -17.9284 -17.7060 -17.5866 -17.4884 -17.4847
   -17.2646 -17.2256 -17.1388 -17.0552 -17.0484 -17.0391 -17.0119 -16.9562
   -16.9114 -16.8919 -16.8158 -16.7823 -16.6976 -16.6028 -16.6008 -16.5163
   -16.5126 -16.5061 -16.4590 -16.3067 -16.2610 -16.2402 -16.1030 -16.0741
   -14.8609 -14.7771  -9.7958  -7.5597  -7.5326  -6.0041  -5.5313  -5.3902
    -5.2446  -5.2324  -5.1819  -4.9825  -4.9314  -4.7751  -4.5753  -4.5627
    -4.5098  -4.4874  -4.4390  -4.4319  -4.3286  -4.1925  -4.1815  -4.1640
    -4.0877  -4.0702  -4.0650  -3.9808  -3.9641  -3.9298  -3.8711  -3.8354
    -3.8281  -3.8054  -3.7678  -3.7246  -3.6953  -3.6152  -3.5752  -3.4883
    -3.4575  -3.4186  -3.3312  -3.2548  -3.2121  -3.1522  -3.1336  -3.0357
    -3.0156  -2.9301  -2.8870  -2.8339  -2.7530  -2.7193  -2.6979  -2.6706
    -2.6460  -2.6084  -2.4972  -2.4961  -2.4449  -2.3741  -2.3543  -2.3111
    -2.2470  -2.2124  -2.2092  -2.1279  -2.0934  -2.0263  -1.9326  -1.8919
    -1.7955  -1.7722  -1.7466  -1.7203  -1.6983  -1.6319  -1.6041  -1.4907
    -1.4801  -1.4691  -1.4255  -1.4044  -1.3520  -1.3343  -1.2675  -1.2499
    -1.2259  -1.1123  -1.0904  -0.9878  -0.9547  -0.8929  -0.8045  -0.7664
    -0.6872  -0.5552  -0.3610  -0.2564  -0.1972  -0.0172   0.0810   0.0819
     1.5417   1.6086   1.8857   1.9060   2.0016   2.0155   2.0639   2.1416
     2.2235   2.2522   2.3230   2.3313   2.3750   2.4231   2.4431   2.4580
     2.4726   2.5416   2.5603   2.6149   2.6801   2.7077   2.8352   2.8510
     2.9064   2.9120   3.0027   3.0087   3.0173   3.0842   3.0941   3.1033
     3.1534   3.1951   3.2111   3.2504   3.3013   3.3391   3.3538   3.3911
     3.3996   3.4401   3.4700   3.5026   3.5995   3.6231   3.8141   3.9079
     4.0426   4.0673   4.0883   4.1717   4.2430   4.4179   4.6369   4.6888
     4.7750   4.9349   4.9469   4.9917   5.0150   5.0298   5.2179   5.4993
     5.5723   5.6445   5.7365   5.7450   5.7891   5.8383   5.9414   5.9585
     5.9814   6.0429   6.0465   6.0778   6.1410   6.1558   6.2455   6.3217
     6.4945   6.6323   6.7425   6.7814   6.8903   7.0167   7.1688   7.3076
     7.5490   8.0353   8.1496   8.3468   8.3970   8.7583   8.8166   8.9206
     8.9570   9.2460   9.2962   9.4236

          k = 0.0253 0.0280 0.0000 ( 34687 PWs)   bands (ev):

   -57.8153 -57.7850 -57.5048 -57.4522 -57.3792 -57.3475 -57.2703 -57.2397
   -57.1729 -57.1422 -57.1089 -57.0782 -56.8786 -56.8082 -56.2774 -56.2468
   -34.2289 -34.0968 -34.0721 -34.0274 -34.0123 -33.9313 -33.8912 -33.8329
   -33.8140 -33.7432 -33.7288 -33.7198 -33.7101 -33.6820 -33.6696 -33.6661
   -33.6414 -33.6025 -33.6004 -33.5388 -33.5274 -33.4773 -33.4518 -33.4417
   -33.4281 -33.4180 -33.4010 -33.3760 -33.3585 -33.3568 -33.3489 -33.3369
   -33.3071 -33.3061 -33.2992 -33.2698 -33.2681 -33.1412 -33.1331 -33.0791
   -33.0388 -32.9622 -32.6727 -32.6301 -32.6061 -32.4963 -32.4169 -32.3299
   -24.3262 -21.1205 -18.0813 -17.8713 -17.6546 -17.5347 -17.4675 -17.4360
   -17.2488 -17.2251 -17.1993 -17.0787 -17.0538 -17.0351 -16.9831 -16.9482
   -16.9195 -16.8547 -16.8345 -16.8138 -16.7418 -16.6541 -16.6226 -16.5340
   -16.5029 -16.4922 -16.4761 -16.3021 -16.2793 -16.2577 -16.1288 -16.1167
   -14.8708 -14.8005  -9.7957  -7.5612  -7.5324  -6.0031  -5.4469  -5.3054
    -5.1650  -5.1532  -5.1038  -4.8677  -4.8559  -4.7217  -4.5630  -4.5160
    -4.4698  -4.4389  -4.4087  -4.3498  -4.3165  -4.2794  -4.2173  -4.1900
    -4.1500  -4.1159  -4.0849  -4.0675  -4.0263  -3.9669  -3.9550  -3.9231
    -3.9069  -3.8508  -3.8387  -3.7510  -3.7310  -3.6756  -3.6703  -3.4753
    -3.4489  -3.3832  -3.3348  -3.2779  -3.1593  -3.0989  -3.0634  -2.9364
    -2.8607  -2.8421  -2.8010  -2.7835  -2.7479  -2.6719  -2.6281  -2.6083
    -2.5843  -2.5697  -2.5433  -2.5120  -2.4508  -2.4007  -2.3463  -2.3211
    -2.2598  -2.2416  -2.1896  -2.1036  -2.0570  -2.0278  -1.9872  -1.9019
    -1.8723  -1.8448  -1.7827  -1.7578  -1.7327  -1.7131  -1.6565  -1.6189
    -1.5614  -1.5026  -1.4759  -1.4592  -1.4100  -1.3696  -1.3178  -1.2258
    -1.1996  -1.1933  -1.0482  -0.9905  -0.9700  -0.9024  -0.8818  -0.8620
    -0.7772  -0.5649  -0.4182  -0.2742  -0.2128   0.0123   0.0540   0.0630
     1.6032   1.7297   1.8984   1.9110   2.0266   2.0440   2.1429   2.1786
     2.2403   2.2847   2.3217   2.3360   2.3859   2.4012   2.4146   2.4391
     2.5158   2.5494   2.5864   2.6185   2.6369   2.7702   2.8148   2.8521
     2.8924   2.9141   2.9862   2.9956   3.0025   3.0122   3.0600   3.0973
     3.1744   3.2340   3.2696   3.2756   3.3068   3.3380   3.3836   3.4443
     3.4670   3.5025   3.5222   3.5383   3.5890   3.6380   3.7694   3.8939
     4.0234   4.0508   4.1033   4.1735   4.2272   4.3674   4.6837   4.7752
     4.8271   4.9452   4.9917   5.0351   5.0444   5.0931   5.2646   5.5302
     5.5692   5.6025   5.6522   5.7316   5.7445   5.8265   5.8860   5.9293
     5.9597   6.0018   6.0262   6.0367   6.0563   6.0879   6.3015   6.3156
     6.4772   6.5547   6.7372   6.7697   6.8201   7.0303   7.0675   7.3189
     7.5197   8.0184   8.1370   8.2228   8.3135   8.5255   8.5750   8.8269
     9.0195   9.2637   9.3956   9.4693

          k = 0.0253 0.0560 0.0000 ( 34699 PWs)   bands (ev):

   -57.8089 -57.7915 -57.5015 -57.4555 -57.3730 -57.3537 -57.2639 -57.2462
   -57.1665 -57.1486 -57.1024 -57.0847 -56.8760 -56.8108 -56.2710 -56.2533
   -34.1591 -34.0915 -34.0772 -33.9954 -33.9642 -33.9568 -33.9486 -33.7980
   -33.7675 -33.7575 -33.7441 -33.7081 -33.6984 -33.6856 -33.6695 -33.6667
   -33.5856 -33.5716 -33.5676 -33.5373 -33.5278 -33.5203 -33.4742 -33.4639
   -33.4465 -33.4329 -33.4015 -33.3756 -33.3703 -33.3551 -33.3546 -33.3488
   -33.3338 -33.3198 -33.2977 -33.2960 -33.2615 -33.1403 -33.1295 -33.0807
   -33.0524 -33.0296 -32.6251 -32.6112 -32.6019 -32.4798 -32.4339 -32.4041
   -24.3262 -21.1203 -17.9142 -17.7147 -17.5208 -17.4343 -17.4129 -17.3926
   -17.3042 -17.2894 -17.1776 -17.1164 -17.0784 -17.0259 -17.0014 -16.9824
   -16.8941 -16.8850 -16.8457 -16.8007 -16.7639 -16.7282 -16.6755 -16.5824
   -16.5694 -16.4610 -16.4270 -16.3188 -16.3137 -16.2775 -16.2423 -16.1782
   -14.8888 -14.8510  -9.7954  -7.5641  -7.5320  -6.0013  -5.2158  -5.0709
    -4.9562  -4.9272  -4.8976  -4.7243  -4.6579  -4.6402  -4.5243  -4.5167
    -4.4972  -4.4879  -4.3867  -4.3477  -4.3424  -4.3102  -4.2801  -4.2639
    -4.2197  -4.2050  -4.1845  -4.1495  -4.0822  -4.0672  -4.0561  -4.0011
    -3.9657  -3.9097  -3.8403  -3.8025  -3.7192  -3.6252  -3.5377  -3.4686
    -3.4261  -3.4076  -3.3704  -3.2036  -3.1662  -3.0425  -2.9897  -2.9685
    -2.9448  -2.8728  -2.8034  -2.7620  -2.7101  -2.6668  -2.6329  -2.5784
    -2.5522  -2.5107  -2.4648  -2.4487  -2.4070  -2.3944  -2.3135  -2.2673
    -2.2526  -2.2218  -2.1668  -2.1302  -2.0851  -2.0715  -2.0075  -1.9942
    -1.9414  -1.9190  -1.8681  -1.8301  -1.8142  -1.7718  -1.7176  -1.6869
    -1.6582  -1.5803  -1.5600  -1.4872  -1.4636  -1.4106  -1.3761  -1.3369
    -1.2520  -1.2245  -1.1532  -1.0898  -1.0619  -0.9632  -0.9377  -0.8643
    -0.8146  -0.7288  -0.5930  -0.3977  -0.0366   0.0042   0.0293   0.0524
     1.7430   1.9194   1.9341   2.0569   2.0640   2.0872   2.1730   2.1835
[...]
    -2.6719  -2.6259  -2.6207  -2.6108  -2.5817  -2.5347  -2.4983  -2.4823
    -2.4818  -2.4224  -2.3789  -2.3679  -2.3275  -2.2968  -2.2529  -2.2504
    -2.2268  -2.1423  -2.1359  -2.1346  -2.0076  -1.9727  -1.8183  -1.7877
    -1.7299  -1.6806  -1.4276  -1.3804  -1.3181  -1.3171  -1.1604  -1.1467
    -1.1396  -1.1380  -1.1127  -1.0807  -1.0350  -0.8972  -0.8836  -0.7502
    -0.7415  -0.7232  -0.6587  -0.6580  -0.0577  -0.0576   0.0800   0.0802
     1.9943   2.0105   2.0512   2.0572   2.0803   2.0825   2.0949   2.0986
     2.3635   2.3755   2.3814   2.3952   2.4589   2.4648   2.5301   2.5474
     2.5654   2.5658   2.6270   2.7318   2.8419   2.8562   2.8740   2.8841
     2.9483   2.9636   3.0429   3.1108   3.1224   3.1707   3.2025   3.2645
     3.2893   3.3190   3.3413   3.3698   3.4023   3.4056   3.4483   3.4885
     3.5654   3.5954   3.7031   3.7334   3.7991   3.8210   3.8232   3.8239
     3.9550   3.9600   3.9795   3.9795   4.2889   4.5618   4.6656   4.6661
     4.7227   4.7451   4.7827   4.7897   4.7915   4.8157   5.0846   5.1122
     5.2358   5.2684   5.6279   5.6386   5.8166   5.8311   5.9451   6.0488
     6.1513   6.2146   6.2207   6.2502   6.2979   6.4074   6.4808   6.5367
     6.5382   6.5461   6.7144   6.7152   6.7689   6.7704   7.0210   7.0494
     7.6383   7.6528   7.7944   7.8075   8.0412   8.0860   8.3245   8.3975
     8.5424   8.6081   8.6824   9.1761

          k =-0.0253 0.0280 0.0000 ( 34687 PWs)   bands (ev):

   -57.8153 -57.7851 -57.5049 -57.4522 -57.3792 -57.3476 -57.2703 -57.2398
   -57.1729 -57.1422 -57.1089 -57.0783 -56.8787 -56.8083 -56.2775 -56.2470
   -34.2290 -34.0968 -34.0721 -34.0275 -34.0123 -33.9313 -33.8912 -33.8329
   -33.8140 -33.7432 -33.7288 -33.7199 -33.7101 -33.6821 -33.6697 -33.6661
   -33.6414 -33.6026 -33.6005 -33.5388 -33.5275 -33.4773 -33.4519 -33.4417
   -33.4282 -33.4180 -33.4010 -33.3760 -33.3585 -33.3569 -33.3489 -33.3369
   -33.3072 -33.3062 -33.2992 -33.2699 -33.2682 -33.1413 -33.1332 -33.0792
   -33.0389 -32.9623 -32.6728 -32.6302 -32.6063 -32.4965 -32.4171 -32.3301
   -24.3262 -21.1205 -18.0812 -17.8713 -17.6545 -17.5346 -17.4674 -17.4358
   -17.2488 -17.2254 -17.1993 -17.0787 -17.0540 -17.0351 -16.9836 -16.9482
   -16.9195 -16.8547 -16.8345 -16.8133 -16.7408 -16.6540 -16.6228 -16.5341
   -16.5029 -16.4919 -16.4760 -16.3021 -16.2792 -16.2576 -16.1286 -16.1166
   -14.8706 -14.8002  -9.7957  -7.5612  -7.5324  -6.0031  -5.4468  -5.3054
    -5.1647  -5.1529  -5.1038  -4.8679  -4.8560  -4.7224  -4.5619  -4.5164
    -4.4697  -4.4389  -4.4092  -4.3498  -4.3168  -4.2792  -4.2197  -4.1897
    -4.1502  -4.1163  -4.0851  -4.0675  -4.0254  -3.9670  -3.9546  -3.9238
    -3.9063  -3.8507  -3.8402  -3.7508  -3.7312  -3.6758  -3.6694  -3.4737
    -3.4475  -3.3809  -3.3330  -3.2788  -3.1588  -3.0989  -3.0634  -2.9374
    -2.8614  -2.8391  -2.8019  -2.7838  -2.7487  -2.6717  -2.6281  -2.6057
    -2.5873  -2.5688  -2.5432  -2.5125  -2.4526  -2.3999  -2.3443  -2.3222
    -2.2579  -2.2414  -2.1909  -2.1060  -2.0572  -2.0274  -1.9868  -1.9071
    -1.8698  -1.8469  -1.7859  -1.7564  -1.7337  -1.7116  -1.6564  -1.6192
    -1.5581  -1.4997  -1.4759  -1.4571  -1.4115  -1.3697  -1.3196  -1.2260
    -1.2022  -1.1946  -1.0484  -0.9880  -0.9668  -0.9048  -0.8815  -0.8589
    -0.7777  -0.5651  -0.4181  -0.2742  -0.2126   0.0124   0.0542   0.0633
     1.6032   1.7297   1.8984   1.9113   2.0268   2.0457   2.1435   2.1804
     2.2429   2.2837   2.3203   2.3318   2.3867   2.4015   2.4144   2.4407
     2.5153   2.5498   2.5863   2.6176   2.6370   2.7680   2.8137   2.8523
     2.8924   2.9138   2.9857   2.9957   3.0028   3.0091   3.0610   3.0955
     3.1762   3.2365   3.2698   3.2760   3.3067   3.3377   3.3843   3.4406
     3.4685   3.5048   3.5221   3.5384   3.5877   3.6379   3.7696   3.8940
     4.0235   4.0506   4.1031   4.1734   4.2267   4.3673   4.6837   4.7721
     4.8291   4.9446   4.9904   5.0343   5.0448   5.0922   5.2637   5.5299
     5.5680   5.6030   5.6525   5.7313   5.7444   5.8251   5.8917   5.9313
     5.9586   6.0012   6.0251   6.0367   6.0566   6.0875   6.3014   6.3154
     6.4788   6.5550   6.7370   6.7696   6.8200   7.0352   7.0676   7.3161
     7.5197   8.0184   8.1410   8.2181   8.3130   8.5254   8.5727   8.8277
     9.0205   9.2617   9.3986   9.4669

          k =-0.0253 0.0560 0.0000 ( 34699 PWs)   bands (ev):

   -57.8090 -57.7915 -57.5016 -57.4556 -57.3731 -57.3538 -57.2639 -57.2462
   -57.1665 -57.1487 -57.1025 -57.0847 -56.8761 -56.8110 -56.2711 -56.2535
   -34.1591 -34.0915 -34.0772 -33.9954 -33.9642 -33.9569 -33.9486 -33.7981
   -33.7675 -33.7576 -33.7441 -33.7081 -33.6984 -33.6856 -33.6696 -33.6668
   -33.5854 -33.5717 -33.5680 -33.5373 -33.5278 -33.5204 -33.4742 -33.4639
   -33.4465 -33.4329 -33.4016 -33.3757 -33.3704 -33.3551 -33.3546 -33.3488
   -33.3339 -33.3198 -33.2977 -33.2961 -33.2616 -33.1403 -33.1296 -33.0808
   -33.0525 -33.0297 -32.6252 -32.6113 -32.6021 -32.4799 -32.4340 -32.4042
   -24.3262 -21.1204 -17.9140 -17.7147 -17.5207 -17.4344 -17.4129 -17.3926
   -17.3037 -17.2895 -17.1776 -17.1165 -17.0789 -17.0258 -17.0014 -16.9841
   -16.8942 -16.8849 -16.8447 -16.7986 -16.7644 -16.7282 -16.6761 -16.5821
   -16.5694 -16.4609 -16.4269 -16.3187 -16.3136 -16.2774 -16.2422 -16.1781
   -14.8885 -14.8507  -9.7954  -7.5641  -7.5320  -6.0013  -5.2156  -5.0709
    -4.9551  -4.9267  -4.8976  -4.7239  -4.6581  -4.6412  -4.5248  -4.5192
    -4.4959  -4.4875  -4.3887  -4.3487  -4.3421  -4.3101  -4.2781  -4.2636
    -4.2199  -4.2056  -4.1838  -4.1500  -4.0820  -4.0688  -4.0564  -4.0021
    -3.9662  -3.9098  -3.8406  -3.8016  -3.7191  -3.6240  -3.5390  -3.4650
    -3.4247  -3.4055  -3.3681  -3.2046  -3.1680  -3.0416  -2.9895  -2.9676
    -2.9433  -2.8735  -2.8030  -2.7621  -2.7108  -2.6669  -2.6338  -2.5774
    -2.5520  -2.5103  -2.4651  -2.4495  -2.4067  -2.3947  -2.3133  -2.2683
    -2.2526  -2.2232  -2.1673  -2.1315  -2.0845  -2.0737  -2.0056  -1.9937
    -1.9440  -1.9216  -1.8715  -1.8308  -1.8116  -1.7718  -1.7153  -1.6886
    -1.6556  -1.5794  -1.5597  -1.4838  -1.4627  -1.4141  -1.3770  -1.3354
    -1.2524  -1.2240  -1.1518  -1.0894  -1.0617  -0.9631  -0.9373  -0.8653
    -0.8148  -0.7281  -0.5928  -0.3979  -0.0364   0.0045   0.0296   0.0526
     1.7430   1.9201   1.9340   2.0569   2.0637   2.0894   2.1754   2.1841
     2.2584   2.2762   2.3003   2.3144   2.3569   2.4012   2.4314   2.5154
     2.5665   2.5856   2.6532   2.6694   2.6868   2.7373   2.7908   2.8111
     2.8241   2.8639   2.8831   2.9295   3.0000   3.0777   3.1304   3.1507
     3.2079   3.2195   3.2511   3.2828   3.3322   3.3756   3.4289   3.4484
     3.5232   3.5575   3.6426   3.6711   3.7044   3.7395   3.7607   3.8271
     3.9427   3.9821   4.0181   4.1364   4.2128   4.3779   4.7803   4.8534
     4.9962   5.0308   5.1056   5.1228   5.1465   5.2193   5.3333   5.4204
     5.4432   5.5004   5.6025   5.6334   5.7237   5.7356   5.7997   5.8302
     5.8845   5.9121   5.9571   6.0195   6.0529   6.2236   6.2536   6.3567
     6.4006   6.4419   6.6535   6.6602   6.7191   6.9069   7.0336   7.2919
     7.3465   7.7080   7.8312   8.0804   8.3638   8.5581   8.6290   8.8989
     9.0266   9.0603   9.2837   9.3868

          k =-0.0506 0.0280 0.0000 ( 34685 PWs)   bands (ev):

   -57.8153 -57.7851 -57.5049 -57.4522 -57.3792 -57.3476 -57.2703 -57.2397
   -57.1729 -57.1422 -57.1089 -57.0783 -56.8787 -56.8083 -56.2776 -56.2470
   -34.2296 -34.0968 -34.0721 -34.0277 -34.0109 -33.9313 -33.8912 -33.8342
   -33.8141 -33.7460 -33.7288 -33.7195 -33.7092 -33.6837 -33.6766 -33.6661
   -33.6422 -33.5991 -33.5869 -33.5279 -33.5267 -33.4776 -33.4516 -33.4393
   -33.4282 -33.4182 -33.4040 -33.3825 -33.3678 -33.3561 -33.3474 -33.3369
   -33.3072 -33.3063 -33.2993 -33.2698 -33.2681 -33.1434 -33.1333 -33.0794
   -33.0390 -32.9624 -32.6727 -32.6321 -32.6054 -32.4965 -32.4171 -32.3301
   -24.3262 -21.1204 -18.0225 -17.7727 -17.5615 -17.4713 -17.4660 -17.3933
   -17.3351 -17.2504 -17.2344 -17.1038 -17.0846 -17.0564 -17.0528 -16.9948
   -16.9761 -16.9610 -16.8645 -16.7546 -16.7116 -16.6640 -16.5804 -16.5636
   -16.5243 -16.4848 -16.4553 -16.3009 -16.2679 -16.2587 -16.1285 -16.1175
   -14.8686 -14.8003  -9.7942  -7.5615  -7.5321  -6.0022  -5.4303  -5.0118
    -4.9379  -4.9254  -4.8557  -4.8325  -4.8120  -4.7721  -4.6358  -4.5731
    -4.5567  -4.5026  -4.4452  -4.3526  -4.3055  -4.2206  -4.1688  -4.1496
    -4.1300  -4.1209  -4.0484  -4.0045  -3.9722  -3.9434  -3.9030  -3.8782
    -3.8565  -3.8232  -3.7760  -3.7180  -3.7000  -3.5820  -3.4467  -3.4141
    -3.3864  -3.3290  -3.2986  -3.2507  -3.1808  -3.0977  -3.0553  -2.9998
    -2.9429  -2.9207  -2.8705  -2.8630  -2.8030  -2.7543  -2.7325  -2.6829
    -2.6441  -2.6163  -2.5827  -2.5342  -2.4978  -2.4748  -2.4311  -2.4005
    -2.3372  -2.3072  -2.2281  -2.1994  -2.1312  -2.1000  -2.0870  -2.0433
    -1.9936  -1.9284  -1.9009  -1.8692  -1.8417  -1.7722  -1.6870  -1.6322
    -1.5967  -1.5658  -1.4930  -1.4637  -1.4237  -1.4029  -1.3157  -1.2627
    -1.1794  -1.1406  -1.0304  -1.0148  -0.9469  -0.9197  -0.8841  -0.8508
    -0.8118  -0.6459  -0.4492  -0.3949  -0.1996  -0.0168   0.0139   0.0275
     1.5876   1.7938   1.9275   1.9439   1.9643   2.0393   2.0735   2.1518
     2.2476   2.2627   2.3046   2.3648   2.4142   2.4559   2.4574   2.5254
     2.5412   2.5848   2.6125   2.6628   2.7616   2.8210   2.8323   2.8745
     2.9248   2.9292   2.9707   3.0162   3.0253   3.0718   3.1473   3.1720
     3.2360   3.2690   3.3047   3.3227   3.3850   3.4118   3.4478   3.4849
     3.5015   3.5358   3.5489   3.6060   3.6460   3.6920   3.7437   3.8281
     3.9308   4.0341   4.1460   4.1523   4.2867   4.3487   4.5315   4.6387
     4.6617   4.6876   4.8534   4.8973   5.0006   5.3154   5.3296   5.4755
     5.5158   5.5808   5.6603   5.7146   5.7398   5.7564   5.8869   5.9314
     5.9846   6.0271   6.2455   6.2744   6.3057   6.3764   6.4368   6.5151
     6.5457   6.6110   6.6909   6.7302   6.8303   6.9538   7.0323   7.2425
     7.4184   7.6851   7.8079   8.0845   8.3104   8.3973   8.5225   8.9237
     9.0771   9.1598   9.3628   9.4591

          k =-0.0506 0.0560 0.0000 ( 34596 PWs)   bands (ev):

   -57.8090 -57.7915 -57.5016 -57.4555 -57.3731 -57.3537 -57.2639 -57.2462
   -57.1665 -57.1487 -57.1025 -57.0847 -56.8762 -56.8110 -56.2711 -56.2535
   -34.1597 -34.0915 -34.0772 -33.9942 -33.9644 -33.9570 -33.9482 -33.7981
   -33.7682 -33.7580 -33.7441 -33.7069 -33.6984 -33.6862 -33.6720 -33.6689
   -33.5826 -33.5727 -33.5681 -33.5306 -33.5273 -33.5101 -33.4769 -33.4576
   -33.4464 -33.4329 -33.4017 -33.3757 -33.3740 -33.3625 -33.3546 -33.3508
   -33.3341 -33.3211 -33.2977 -33.2959 -33.2614 -33.1416 -33.1297 -33.0814
   -33.0524 -33.0296 -32.6263 -32.6109 -32.6019 -32.4799 -32.4340 -32.4041
   -24.3261 -21.1202 -17.8656 -17.6216 -17.4465 -17.4236 -17.4060 -17.3340
   -17.2953 -17.2626 -17.1902 -17.1579 -17.0863 -17.0667 -17.0005 -16.9799
   -16.9776 -16.9083 -16.8982 -16.8314 -16.7935 -16.7667 -16.7009 -16.6553
   -16.5513 -16.4505 -16.4079 -16.3092 -16.3079 -16.2800 -16.2440 -16.1776
   -14.8873 -14.8511  -9.7939  -7.5643  -7.5316  -6.0006  -5.2076  -4.7772
    -4.7258  -4.7153  -4.6776  -4.6416  -4.6310  -4.5945  -4.4888  -4.4713
    -4.4463  -4.4311  -4.3396  -4.2875  -4.2705  -4.2647  -4.2222  -4.2022
    -4.1775  -4.1651  -4.1515  -4.1241  -4.0715  -4.0345  -4.0233  -3.9934
    -3.9379  -3.8788  -3.8132  -3.7777  -3.6753  -3.6463  -3.5036  -3.4756
    -3.4581  -3.3912  -3.3731  -3.2004  -3.1149  -3.0706  -3.0246  -2.9805
    -2.9649  -2.9074  -2.8894  -2.8516  -2.8122  -2.7621  -2.7080  -2.7037
    -2.6322  -2.6146  -2.5861  -2.5104  -2.4812  -2.4623  -2.4465  -2.4238
    -2.3938  -2.3515  -2.2809  -2.2687  -2.2444  -2.2184  -2.1715  -2.1607
    -2.0868  -2.0461  -2.0158  -1.9743  -1.9292  -1.8478  -1.7801  -1.7636
    -1.6957  -1.5955  -1.5216  -1.4779  -1.4423  -1.3652  -1.3294  -1.2183
    -1.1678  -1.1292  -1.0858  -1.0239  -0.9810  -0.9157  -0.9030  -0.8228
    -0.7925  -0.7779  -0.6463  -0.4582  -0.0482  -0.0110   0.0024   0.0584
     1.7459   1.9438   1.9630   2.0262   2.0814   2.1205   2.1311   2.1844
     2.2307   2.2776   2.3944   2.4301   2.4391   2.4648   2.4833   2.5093
     2.6042   2.6207   2.6527   2.6749   2.7277   2.7987   2.8240   2.8956
     2.9137   2.9326   2.9547   2.9884   3.0403   3.0795   3.1989   3.2270
     3.2479   3.2753   3.3254   3.3366   3.3805   3.3964   3.4192   3.4769
     3.5551   3.6038   3.6168   3.6986   3.7486   3.7777   3.7882   3.8040
     3.8445   3.9782   4.0305   4.1569   4.2118   4.4612   4.6555   4.6847
     4.7575   4.7604   4.9029   5.0098   5.0812   5.1482   5.2181   5.2438
     5.3137   5.4730   5.5612   5.6356   5.6820   5.7460   5.8367   5.9773
     6.0170   6.1228   6.1716   6.2135   6.2630   6.3102   6.4703   6.4872
     6.5529   6.5976   6.6342   6.6885   6.7905   6.8531   6.9494   7.3002
     7.3342   7.7137   7.7560   8.0171   8.0912   8.1739   8.5741   8.6669
     8.8388   8.9107   9.1411   9.3629

     the Fermi energy is     0.8721 ev

!    total energy              =   -3044.95985100 Ry
     Harris-Foulkes estimate   =   -3044.95985093 Ry
     estimated scf accuracy    <       0.00000031 Ry

     The total energy is the sum of the following terms:

     one-electron contribution =  -40856.03888374 Ry
     hartree contribution      =   20500.40820691 Ry
     xc contribution           =    -557.18055753 Ry
     ewald contribution        =   17867.85158866 Ry
     smearing contrib. (-TS)   =      -0.00020531 Ry

     total magnetization       =     0.00 Bohr mag/cell
     absolute magnetization    =     0.00 Bohr mag/cell

     convergence has been achieved in  10 iterations

     Forces acting on atoms (Ry/au):


     negative rho (up, down):  1.159E-02 1.159E-02
     atom    1 type  1   force =    -0.00008649    0.00030523   -0.13597500
     atom    2 type  2   force =     0.00010491   -0.00007888    0.07513579
     atom    3 type  1   force =     0.00126750    0.00109248   -0.05982466
     atom    4 type  2   force =     0.00660778   -0.00006581    0.00967369
     atom    5 type  1   force =    -0.00132302   -0.00013963    0.00006688
     atom    6 type  2   force =    -0.00189291   -0.00359563   -0.00906200
     atom    7 type  1   force =     0.01142392    0.00818533   -0.01712625
     atom    8 type  2   force =     0.00037584   -0.00011848    0.00069834
     atom    9 type  1   force =     0.00012871    0.00035183   -0.13604992
     atom   10 type  2   force =     0.00016465   -0.00003185    0.07508184
     atom   11 type  1   force =     0.00126539   -0.00086625   -0.05995190
     atom   12 type  2   force =     0.00604345   -0.00011201    0.00854194
     atom   13 type  1   force =     0.00016456   -0.00015615   -0.00031896
     atom   14 type  2   force =    -0.00207696    0.00302062   -0.00912899
     atom   15 type  1   force =     0.01160439   -0.00799809   -0.01741772
     atom   16 type  2   force =     0.00726785    0.00009580    0.01106570
     atom   17 type  2   force =    -0.00002544   -0.00005455    0.07998821
     atom   18 type  1   force =    -0.00006043    0.00022663    0.11911258
     atom   19 type  2   force =     0.00038856    0.00018848   -0.06814915
     atom   20 type  2   force =    -0.06268821    0.00005156   -0.03211067
     atom   21 type  2   force =     0.06273627    0.00015284   -0.03258343
     atom   22 type  1   force =    -0.00049274   -0.00012621    0.06430601
     atom   23 type  2   force =     0.00015874    0.00063074   -0.00267721
     atom   24 type  2   force =     0.00049565    0.00004151   -0.02243414
     atom   25 type  2   force =    -0.00644978   -0.00025453    0.00823047
     atom   26 type  1   force =    -0.00013104   -0.00005008    0.00251038
     atom   27 type  2   force =     0.00255228   -0.00144918   -0.00231992
     atom   28 type  2   force =    -0.00007414   -0.00001501   -0.00149215
     atom   29 type  2   force =     0.00014383   -0.00005495   -0.00053235
     atom   30 type  1   force =     0.00582592    0.00034941   -0.00095959
     atom   31 type  2   force =    -0.00218864    0.00160173    0.00128167
     atom   32 type  2   force =     0.00167042   -0.00010182    0.00197273
     atom   33 type  2   force =    -0.00000190    0.00015292    0.08005698
     atom   34 type  1   force =    -0.00007683    0.00023649    0.11911910
     atom   35 type  2   force =     0.00035773    0.00032418   -0.06809854
     atom   36 type  2   force =    -0.06268116    0.00009887   -0.03232162
     atom   37 type  2   force =     0.06285197    0.00017296   -0.03207164
     atom   38 type  1   force =    -0.00069922    0.00000961    0.06414348
     atom   39 type  2   force =     0.00019377   -0.00083116   -0.00266369
     atom   40 type  2   force =     0.00060370   -0.00227930   -0.02259194
     atom   41 type  2   force =    -0.00619787   -0.00030852    0.00763227
     atom   42 type  1   force =    -0.00011314   -0.00009205    0.00250766
     atom   43 type  2   force =     0.00260649    0.00144135   -0.00236257
     atom   44 type  2   force =     0.00033353   -0.00012738   -0.00071109
     atom   45 type  2   force =    -0.00019727   -0.00006246   -0.00096429
     atom   46 type  1   force =    -0.01950841    0.00042588   -0.00543028
     atom   47 type  2   force =    -0.00220033   -0.00144135    0.00128681
     atom   48 type  2   force =    -0.00133121   -0.00044977   -0.02950593
     atom   49 type  2   force =    -0.04112217    0.00061029    0.18553243
     atom   50 type  3   force =    -0.02122370    0.00125486   -0.00909306
     atom   51 type  3   force =     0.04550520   -0.00016050   -0.10401629

     Total force =     0.433437     Total SCF correction =     0.001575
 !ASE

     Writing output data file calc.save
 
     init_run     :     56.93s CPU     72.59s WALL (       1 calls)
     electrons    :   2046.69s CPU   2594.49s WALL (       1 calls)
     forces       :     40.67s CPU     42.59s WALL (       1 calls)

     Called by init_run:
     wfcinit      :     48.98s CPU     63.96s WALL (       1 calls)
     potinit      :      1.36s CPU      1.63s WALL (       1 calls)

     Called by electrons:
     c_bands      :   1764.79s CPU   2241.98s WALL (      10 calls)
     sum_band     :    236.52s CPU    300.41s WALL (      10 calls)
     v_of_rho     :     10.92s CPU     13.93s WALL (      11 calls)
     newd         :     38.04s CPU     41.93s WALL (      11 calls)
     mix_rho      :      0.42s CPU      0.58s WALL (      10 calls)
     vdW_energy   :      1.95s CPU      2.36s WALL (      12 calls)
     vdW_ffts     :      2.84s CPU      3.79s WALL (      24 calls)
     vdW_v        :      1.12s CPU      1.35s WALL (      12 calls)

     Called by c_bands:
     init_us_2    :      5.82s CPU      6.34s WALL (     880 calls)
     cegterg      :   1727.45s CPU   2202.37s WALL (     400 calls)

     Called by *egterg:
     h_psi        :    706.99s CPU   1108.03s WALL (    2020 calls)
     s_psi        :     92.69s CPU     97.37s WALL (    2020 calls)
     g_psi        :      4.87s CPU      4.96s WALL (    1580 calls)
     cdiaghg      :    585.77s CPU    596.65s WALL (    1980 calls)

     Called by h_psi:
     add_vuspsi   :     93.45s CPU     97.99s WALL (    2020 calls)

     General routines
     calbec       :    142.42s CPU    145.59s WALL (    2460 calls)
     fft          :      6.46s CPU      8.46s WALL (     948 calls)
     ffts         :      0.05s CPU      0.07s WALL (      42 calls)
     fftw         :    469.16s CPU    896.84s WALL (  721776 calls)
     interpolate  :      0.35s CPU      0.55s WALL (      42 calls)
     davcio       :      0.13s CPU      4.56s WALL (      40 calls)
 
     Parallel routines
     fft_scatter  :    257.29s CPU    478.13s WALL (  722766 calls)
 
     PWSCF        : 35m45.25s CPU    45m15.95s WALL

 
   This run was terminated on:  16:32: 1  10Mar2018            

=------------------------------------------------------------------------------=
   JOB DONE.
=------------------------------------------------------------------------------=
