  python dir          : /home/vossj/suncat/lib/python2.7/site-packages/espresso
  espresso dir        : /home/vossj/suncat/esdld/espresso-dynpy-beef/bin
  pseudo dir          : /home/alatimer/bin/psp/esp_psp_w_gbrvRu/
  ase-espresso py git : ffa2778-git



     Program PWSCF v.5.1rc2 (svn rev. ) starts on 25Feb2018 at 20:45:46 

     This program is part of the open-source Quantum ESPRESSO suite
     for quantum simulation of materials; please cite
         "P. Giannozzi et al., J. Phys.:Condens. Matter 21 395502 (2009);
          URL http://www.quantum-espresso.org", 
     in publications or presentations arising from this work. More details at
     http://www.quantum-espresso.org/quote

     Parallel version (MPI), running on    16 processors
     R & G space division:  proc/nbgrp/npool/nimage =      16
     Reading input from pw.inp
     Message from routine read_cards :
     DEPRECATED: no units specified in CELL_PARAMETERS card

     Current dimensions of program PWSCF are:
     Max number of different atomic species (ntypx) = 10
     Max number of k-points (npk) =  40000
     Max angular momentum in pseudopotentials (lmaxx) =  3

     **************************************************************************
     Initializing libbeef V0.1.1 with the BEEF-vdW functional.
     Citation: Wellendorff et al., PRB 85, 235149 (2012).
     **************************************************************************


     IMPORTANT: XC functional enforced from input :
     Exchange-correlation      = BEEF ( 1  4 27 13 2)
     Any further DFT definition will be discarded
     Please, verify this is what you really want


     Subspace diagonalization in iterative solution of the eigenvalue problem:
     a serial algorithm will be used

 
     Parallelization info
     --------------------
     sticks:   dense  smooth     PW     G-vecs:    dense   smooth      PW
     Min         281     112     31                68535    17318    2565
     Max         282     113     32                68545    17369    2582
     Sum        4501    1795    503              1096637   277353   41113
 
     Generating pointlists ...
     new r_m :   0.4125 (alat units)  0.7795 (a.u.) for type    1
     new r_m :   0.4125 (alat units)  0.7795 (a.u.) for type    2
     new r_m :   0.4125 (alat units)  0.7795 (a.u.) for type    3
     new r_m :   0.4125 (alat units)  0.7795 (a.u.) for type    4


     bravais-lattice index     =            0
     lattice parameter (alat)  =       1.8897  a.u.
     unit-cell volume          =    7990.9933 (a.u.)^3
     number of atoms/cell      =           54
     number of atomic types    =            4
     number of electrons       =       398.00
     number of Kohn-Sham states=          299
     kinetic-energy cutoff     =      40.4243  Ry
     charge density cutoff     =     404.2426  Ry
     convergence threshold     =      7.3E-07
     mixing beta               =       0.1000
     number of iterations used =           10  plain     mixing
     Exchange-correlation      = BEEF ( 1  4 27 13 2)
     nstep                     =           50


     celldm(1)=   1.889726  celldm(2)=   0.000000  celldm(3)=   0.000000
     celldm(4)=   0.000000  celldm(5)=   0.000000  celldm(6)=   0.000000

     crystal axes: (cart. coord. in units of alat)
               a(1) = (   6.590708   0.000000   0.000000 )  
               a(2) = (   0.000000   5.950229   0.000000 )  
               a(3) = (   0.000000   0.000000  30.195235 )  

     reciprocal axes: (cart. coord. in units 2 pi/alat)
               b(1) = (  0.151729  0.000000  0.000000 )  
               b(2) = (  0.000000  0.168061  0.000000 )  
               b(3) = (  0.000000  0.000000  0.033118 )  


     PseudoPot. # 1 for Ti read from file:
     /home/alatimer/bin/psp/esp_psp_w_gbrvRu/Ti.UPF
     MD5 check sum: 8e4df49b7f0d34bbd5052bf3f5ea0213
     Pseudo is Ultrasoft, Zval = 12.0
     Generated by new atomic code, or converted to UPF format
     Using radial grid of  851 points,  6 beta functions with: 
                l(1) =   0
                l(2) =   0
                l(3) =   1
                l(4) =   1
                l(5) =   2
                l(6) =   2
     Q(r) pseudized with  8 coefficients,  rinner =    1.000   1.000   1.000
                                                       1.000   1.000

     PseudoPot. # 2 for  O read from file:
     /home/alatimer/bin/psp/esp_psp_w_gbrvRu/O.UPF
     MD5 check sum: e057bbcf3229fb5d8c36c0c92f9568b4
     Pseudo is Ultrasoft + core correction, Zval =  6.0
     Generated using "atomic" code by A. Dal Corso  v.5.0.2 svn rev. 9415
     Using radial grid of 1095 points,  4 beta functions with: 
                l(1) =   0
                l(2) =   0
                l(3) =   1
                l(4) =   1
     Q(r) pseudized with 0 coefficients 


     PseudoPot. # 3 for  C read from file:
     /home/alatimer/bin/psp/esp_psp_w_gbrvRu/C.UPF
     MD5 check sum: ab446d787031eba755f1d5ee46644bb0
     Pseudo is Ultrasoft + core correction, Zval =  4.0
     Generated using "atomic" code by A. Dal Corso  v.5.0.2 svn rev. 9415
     Using radial grid of 1073 points,  4 beta functions with: 
                l(1) =   0
                l(2) =   0
                l(3) =   1
                l(4) =   1
     Q(r) pseudized with 0 coefficients 


     PseudoPot. # 4 for  H read from file:
     /home/alatimer/bin/psp/esp_psp_w_gbrvRu/H.UPF
     MD5 check sum: bd57da0722753ddfd9833a65b40bb853
     Pseudo is Ultrasoft, Zval =  1.0
     Generated using "atomic" code by A. Dal Corso  v.5.0.2 svn rev. 9415
     Using radial grid of  929 points,  2 beta functions with: 
                l(1) =   0
                l(2) =   0
     Q(r) pseudized with 0 coefficients 


     vdW kernel table read from file vdW_kernel_table
     MD5 check sum: 095c7af220d748ca6e76c0b4c6cfb241

     atomic species   valence    mass     pseudopotential
        Ti1           12.00    47.88000     Ti( 1.00)
        O1             6.00    15.99940      O( 1.00)
        C1             4.00    12.01100      C( 1.00)
        H1             1.00     1.00794      H( 1.00)

     Starting magnetic structure 
     atomic species   magnetization
        Ti1          0.250
        O1           0.500
        C1           0.750
        H1           0.000

     No symmetry found



   Cartesian axes

     site n.     atom                  positions (alat units)
         1           Ti1 tau(   1) = (   1.6476770   0.7437786   2.6545865  )
         2           O1  tau(   2) = (   1.6476770   2.2313359   3.9361215  )
         3           Ti1 tau(   3) = (   1.6476770   2.2313359   5.9499405  )
         4           O1  tau(   4) = (   0.3661420   0.7437786   5.9499405  )
         5           Ti1 tau(   5) = (   1.6407309   0.9134410   9.3139491  )
         6           O1  tau(   6) = (   1.6648823   2.2608486  10.4895904  )
         7           Ti1 tau(   7) = (   1.7578240   2.2899216  13.0472362  )
         8           O1  tau(   8) = (   0.4801583   0.7600008  12.7739736  )
         9           Ti1 tau(   9) = (   1.6476770   3.7188931   2.6545865  )
        10           O1  tau(  10) = (   1.6476770   5.2064503   3.9361215  )
        11           Ti1 tau(  11) = (   1.6476770   5.2064503   5.9499405  )
        12           O1  tau(  12) = (   0.3661420   3.7188931   5.9499405  )
        13           Ti1 tau(  13) = (   1.6336050   3.7786827   9.1566831  )
        14           O1  tau(  14) = (   1.6678212   5.2513959  10.5409436  )
        15           Ti1 tau(  15) = (   1.7144009   5.2558216  12.3462911  )
        16           O1  tau(  16) = (   0.4635505   3.7986228  12.7318280  )
        17           O1  tau(  17) = (   1.6476770   2.2313359   1.3730516  )
        18           Ti1 tau(  18) = (   4.9430310   2.2313359   2.6545865  )
        19           O1  tau(  19) = (   4.9430310   2.2313359   4.6684056  )
        20           O1  tau(  20) = (   6.2245660   0.7437786   2.6545865  )
        21           O1  tau(  21) = (   3.6614961   0.7437786   2.6545865  )
        22           Ti1 tau(  22) = (   4.9430310   0.7437786   5.9499405  )
        23           O1  tau(  23) = (   1.6683653   2.2752577   7.9427336  )
        24           O1  tau(  24) = (   4.9430310   2.2313359   7.2314755  )
        25           O1  tau(  25) = (   2.9292120   0.7437786   5.9499405  )
        26           Ti1 tau(  26) = (   4.9404121   2.2664794   9.4552217  )
        27           O1  tau(  27) = (   5.0099888   2.2616732  11.2946145  )
        28           O1  tau(  28) = (   6.2612001   0.7714827   9.2659748  )
        29           O1  tau(  29) = (   3.6791272   0.7744986   9.2965846  )
        30           Ti1 tau(  30) = (   5.0117873   0.7976728  12.8161605  )
        31           O1  tau(  31) = (   4.9963122   2.2836652  13.8750618  )
        32           O1  tau(  32) = (   2.9819382   0.7448324  12.7109220  )
        33           O1  tau(  33) = (   1.6476770   5.2064503   1.3730516  )
        34           Ti1 tau(  34) = (   4.9430310   5.2064503   2.6545865  )
        35           O1  tau(  35) = (   4.9430310   5.2064503   4.6684056  )
        36           O1  tau(  36) = (   6.2245660   3.7188931   2.6545865  )
        37           O1  tau(  37) = (   3.6614961   3.7188931   2.6545865  )
        38           Ti1 tau(  38) = (   4.9430310   3.7188931   5.9499405  )
        39           O1  tau(  39) = (   1.6664207   5.2035600   7.9365221  )
        40           O1  tau(  40) = (   4.9430310   5.2064503   7.2314755  )
        41           O1  tau(  41) = (   2.9292120   3.7188931   5.9499405  )
        42           Ti1 tau(  42) = (   4.9524353   5.2460635   9.4426343  )
        43           O1  tau(  43) = (   5.0107556   5.2394944  11.2927493  )
        44           O1  tau(  44) = (   6.2663940   3.7551737   9.2646230  )
        45           O1  tau(  45) = (   3.6780957   3.7542261   9.2971476  )
        46           Ti1 tau(  46) = (   5.0587989   3.7766986  12.8010349  )
        47           O1  tau(  47) = (   5.0196089   5.2502198  13.8813978  )
        48           O1  tau(  48) = (   2.9624133   3.7943242  12.7299881  )
        49           O1  tau(  49) = (   1.7427453   2.2833568  14.8370015  )
        50           C1  tau(  50) = (   2.7196098   4.2826273  16.2318421  )
        51           H1  tau(  51) = (   3.3037454   4.9255546  15.5827400  )
        52           H1  tau(  52) = (   3.3286606   3.7870117  16.9822022  )
        53           H1  tau(  53) = (   2.3125587   3.4026405  15.5729816  )
        54           H1  tau(  54) = (   1.8391288   4.7650601  16.6448379  )

     number of k points=    40  Fermi-Dirac smearing, width (Ry)=  0.0073
                       cart. coord. in units 2pi/alat
        k(    1) = (   0.0000000   0.0000000   0.0000000), wk =   0.0277778
        k(    2) = (   0.0000000   0.0280101   0.0000000), wk =   0.0555556
        k(    3) = (   0.0000000   0.0560203   0.0000000), wk =   0.0555556
        k(    4) = (   0.0000000  -0.0840304   0.0000000), wk =   0.0277778
        k(    5) = (   0.0252881   0.0000000   0.0000000), wk =   0.0555556
        k(    6) = (   0.0252881   0.0280101   0.0000000), wk =   0.0555556
        k(    7) = (   0.0252881   0.0560203   0.0000000), wk =   0.0555556
        k(    8) = (   0.0252881  -0.0840304   0.0000000), wk =   0.0555556
        k(    9) = (   0.0505763   0.0000000   0.0000000), wk =   0.0555556
        k(   10) = (   0.0505763   0.0280101   0.0000000), wk =   0.0555556
        k(   11) = (   0.0505763   0.0560203   0.0000000), wk =   0.0555556
        k(   12) = (   0.0505763  -0.0840304   0.0000000), wk =   0.0555556
        k(   13) = (  -0.0758644   0.0000000   0.0000000), wk =   0.0277778
        k(   14) = (  -0.0758644   0.0280101   0.0000000), wk =   0.0555556
        k(   15) = (  -0.0758644   0.0560203   0.0000000), wk =   0.0555556
        k(   16) = (  -0.0758644  -0.0840304   0.0000000), wk =   0.0277778
        k(   17) = (  -0.0252881   0.0280101   0.0000000), wk =   0.0555556
        k(   18) = (  -0.0252881   0.0560203   0.0000000), wk =   0.0555556
        k(   19) = (  -0.0505763   0.0280101   0.0000000), wk =   0.0555556
        k(   20) = (  -0.0505763   0.0560203   0.0000000), wk =   0.0555556
        k(   21) = (   0.0000000   0.0000000   0.0000000), wk =   0.0277778
        k(   22) = (   0.0000000   0.0280101   0.0000000), wk =   0.0555556
        k(   23) = (   0.0000000   0.0560203   0.0000000), wk =   0.0555556
        k(   24) = (   0.0000000  -0.0840304   0.0000000), wk =   0.0277778
        k(   25) = (   0.0252881   0.0000000   0.0000000), wk =   0.0555556
        k(   26) = (   0.0252881   0.0280101   0.0000000), wk =   0.0555556
        k(   27) = (   0.0252881   0.0560203   0.0000000), wk =   0.0555556
        k(   28) = (   0.0252881  -0.0840304   0.0000000), wk =   0.0555556
        k(   29) = (   0.0505763   0.0000000   0.0000000), wk =   0.0555556
        k(   30) = (   0.0505763   0.0280101   0.0000000), wk =   0.0555556
        k(   31) = (   0.0505763   0.0560203   0.0000000), wk =   0.0555556
        k(   32) = (   0.0505763  -0.0840304   0.0000000), wk =   0.0555556
        k(   33) = (  -0.0758644   0.0000000   0.0000000), wk =   0.0277778
        k(   34) = (  -0.0758644   0.0280101   0.0000000), wk =   0.0555556
        k(   35) = (  -0.0758644   0.0560203   0.0000000), wk =   0.0555556
        k(   36) = (  -0.0758644  -0.0840304   0.0000000), wk =   0.0277778
        k(   37) = (  -0.0252881   0.0280101   0.0000000), wk =   0.0555556
        k(   38) = (  -0.0252881   0.0560203   0.0000000), wk =   0.0555556
        k(   39) = (  -0.0505763   0.0280101   0.0000000), wk =   0.0555556
        k(   40) = (  -0.0505763   0.0560203   0.0000000), wk =   0.0555556

     Dense  grid:  1096637 G-vectors     FFT dimensions: (  80,  72, 375)

     Smooth grid:   277353 G-vectors     FFT dimensions: (  54,  45, 240)

     Largest allocated arrays     est. size (Mb)     dimensions
        Kohn-Sham Wavefunctions         9.95 Mb     (    2180,  299)
        NL pseudopotentials            18.89 Mb     (    2180,  568)
        Each V/rho on FFT grid          4.22 Mb     (  138240,   2)
        Each G-vector array             0.52 Mb     (   68538)
        G-vector shells                 0.25 Mb     (   33046)
     Largest temporary arrays     est. size (Mb)     dimensions
        Auxiliary wavefunctions        39.78 Mb     (    2180, 1196)
        Each subspace H/S matrix       21.83 Mb     (    1196, 1196)
        Each <psi_i|beta_j> matrix      2.59 Mb     (     568,  299)
        Arrays for rho mixing          21.09 Mb     (  138240,   10)

     Check: negative/imaginary core charge=   -0.000049    0.000000

     The initial density is read from file :
     ./calc.save/charge-density.dat


     negative rho (up, down):  1.189E-02 1.196E-02


     ************************************************************************
     *
     * You are using vdW-DF for exchange-correlation in this calculation.
     * Please cite the following three references that made this development
     * possible:
     *
     *   M. Dion, H. Rydberg, E. Schroder, D. C. Langreth, and
     *   B. I. Lundqvist, Phys. Rev. Lett. 92, 246401 (2004).
     *
     *   T. Thonhauser, V. R. Cooper, S. Li, A. Puzder, P. Hyldgaard, and
     *   D. C. Langreth, Phys. Rev. B 76, 125112 (2007).
     *
     *   G. Roman-Perez and J. M. Soler, Phys. Rev. Lett. 103, 096102 (2009).
     *
     *
     * If you are using vdW-DF2, please also cite:
     *
     *   K. Lee, E. D. Murray, L. Kong, B. I. Lundqvist, and
     *   D. C. Langreth, Phys. Rev. B 82, 081101(R) (2010).
     *
     *
     * If you are calculating the stress with vdW-DF, please also cite:
     *
     *   R. Sabatini, E. Kucukbenli, B. Kolb, T. Thonhauser, and
     *   S. de Gironcoli, J. Phys.: Condens. Matter 24, 424209 (2012).
     *
     ************************************************************************

     Carrying out vdW-DF run using the following parameters:

     Nqs =      20    Nr_points =    1024   r_max =   100.000
     q_mesh =
               0.00001000     0.04494208     0.09755937     0.15916263
               0.23128650     0.31572767     0.41458969     0.53033537
               0.66584808     0.82450364     1.01025438     1.22772762
               1.48234092     1.78043706     2.12944203     2.53805004
               3.01644009     3.57652955     4.23227104     5.00000000

     Gradients computed in reciprocal space

     ************************************************************************


     Starting wfc are  300 randomized atomic wfcs

     total cpu time spent up to now is       75.7 secs

     Self-consistent Calculation

     iteration #  1     ecut=    40.42 Ry     beta=0.10
     Davidson diagonalization with overlap
     ethr =  1.00E-05,  avg # of iterations = 15.0

     negative rho (up, down):  1.189E-02 1.196E-02
 
     Magnetic moment per site:
     atom:    1    charge:    3.1244    magn:   -0.0003    constr:    0.0000
     atom:    2    charge:    2.0896    magn:    0.0003    constr:    0.0000
     atom:    3    charge:    3.1198    magn:   -0.0000    constr:    0.0000
     atom:    4    charge:    2.0867    magn:   -0.0001    constr:    0.0000
     atom:    5    charge:    3.1161    magn:   -0.0002    constr:    0.0000
     atom:    6    charge:    2.0795    magn:    0.0021    constr:    0.0000
     atom:    7    charge:    3.1165    magn:   -0.0053    constr:    0.0000
     atom:    8    charge:    2.0782    magn:    0.0252    constr:    0.0000
     atom:    9    charge:    3.1244    magn:   -0.0003    constr:    0.0000
     atom:   10    charge:    2.0898    magn:    0.0003    constr:    0.0000
     atom:   11    charge:    3.1198    magn:   -0.0000    constr:    0.0000
     atom:   12    charge:    2.0870    magn:   -0.0000    constr:    0.0000
     atom:   13    charge:    3.1150    magn:   -0.0002    constr:    0.0000
     atom:   14    charge:    2.0939    magn:    0.0023    constr:    0.0000
     atom:   15    charge:    3.1184    magn:   -0.0008    constr:    0.0000
     atom:   16    charge:    2.0836    magn:    0.0046    constr:    0.0000
     atom:   17    charge:    2.0623    magn:    0.0018    constr:    0.0000
     atom:   18    charge:    3.1239    magn:   -0.0001    constr:    0.0000
     atom:   19    charge:    2.0875    magn:    0.0001    constr:    0.0000
     atom:   20    charge:    2.0847    magn:    0.0002    constr:    0.0000
     atom:   21    charge:    2.0847    magn:    0.0002    constr:    0.0000
     atom:   22    charge:    3.1199    magn:    0.0000    constr:    0.0000
     atom:   23    charge:    2.0908    magn:    0.0002    constr:    0.0000
     atom:   24    charge:    2.0754    magn:   -0.0002    constr:    0.0000
     atom:   25    charge:    2.0867    magn:    0.0000    constr:    0.0000
     atom:   26    charge:    3.1127    magn:   -0.0002    constr:    0.0000
     atom:   27    charge:    2.0803    magn:    0.0025    constr:    0.0000
     atom:   28    charge:    2.0838    magn:    0.0006    constr:    0.0000
     atom:   29    charge:    2.0860    magn:    0.0008    constr:    0.0000
     atom:   30    charge:    3.1169    magn:   -0.0008    constr:    0.0000
     atom:   31    charge:    2.0825    magn:    0.0007    constr:    0.0000
     atom:   32    charge:    2.0821    magn:    0.0065    constr:    0.0000
     atom:   33    charge:    2.0623    magn:    0.0018    constr:    0.0000
     atom:   34    charge:    3.1239    magn:   -0.0001    constr:    0.0000
     atom:   35    charge:    2.0876    magn:    0.0001    constr:    0.0000
     atom:   36    charge:    2.0847    magn:    0.0002    constr:    0.0000
     atom:   37    charge:    2.0847    magn:    0.0002    constr:    0.0000
     atom:   38    charge:    3.1200    magn:    0.0000    constr:    0.0000
     atom:   39    charge:    2.0839    magn:    0.0002    constr:    0.0000
     atom:   40    charge:    2.0756    magn:   -0.0003    constr:    0.0000
     atom:   41    charge:    2.0870    magn:   -0.0000    constr:    0.0000
     atom:   42    charge:    3.1151    magn:   -0.0002    constr:    0.0000
     atom:   43    charge:    2.0803    magn:    0.0030    constr:    0.0000
     atom:   44    charge:    2.0851    magn:    0.0008    constr:    0.0000
     atom:   45    charge:    2.0859    magn:    0.0004    constr:    0.0000
     atom:   46    charge:    3.1150    magn:   -0.0007    constr:    0.0000
     atom:   47    charge:    2.0806    magn:    0.0047    constr:    0.0000
     atom:   48    charge:    2.0843    magn:    0.0137    constr:    0.0000
     atom:   49    charge:    2.0456    magn:    0.2423    constr:    0.0000
     atom:   50    charge:    0.6718    magn:    0.0543    constr:    0.0000
     atom:   51    charge:    0.4219    magn:    0.0009    constr:    0.0000
     atom:   52    charge:    0.4226    magn:    0.0008    constr:    0.0000
     atom:   53    charge:    0.3692    magn:    0.0228    constr:    0.0000
     atom:   54    charge:    0.4230    magn:    0.0006    constr:    0.0000

     total cpu time spent up to now is     1015.4 secs

     total energy              =   -3021.17710375 Ry
     Harris-Foulkes estimate   =   -3021.19176436 Ry
     estimated scf accuracy    <       0.10069591 Ry

     total magnetization       =     1.05 Bohr mag/cell
     absolute magnetization    =     1.22 Bohr mag/cell

     iteration #  2     ecut=    40.42 Ry     beta=0.10
     Davidson diagonalization with overlap
     ethr =  2.53E-05,  avg # of iterations =  1.4

     negative rho (up, down):  1.190E-02 1.197E-02
 
     Magnetic moment per site:
     atom:    1    charge:    3.1245    magn:   -0.0003    constr:    0.0000
     atom:    2    charge:    2.0899    magn:    0.0003    constr:    0.0000
     atom:    3    charge:    3.1198    magn:   -0.0000    constr:    0.0000
     atom:    4    charge:    2.0868    magn:   -0.0001    constr:    0.0000
     atom:    5    charge:    3.1161    magn:   -0.0002    constr:    0.0000
     atom:    6    charge:    2.0792    magn:    0.0022    constr:    0.0000
     atom:    7    charge:    3.1164    magn:   -0.0053    constr:    0.0000
     atom:    8    charge:    2.0778    magn:    0.0253    constr:    0.0000
     atom:    9    charge:    3.1245    magn:   -0.0003    constr:    0.0000
     atom:   10    charge:    2.0900    magn:    0.0003    constr:    0.0000
     atom:   11    charge:    3.1198    magn:   -0.0000    constr:    0.0000
     atom:   12    charge:    2.0871    magn:   -0.0000    constr:    0.0000
     atom:   13    charge:    3.1150    magn:   -0.0002    constr:    0.0000
     atom:   14    charge:    2.0938    magn:    0.0023    constr:    0.0000
     atom:   15    charge:    3.1183    magn:   -0.0008    constr:    0.0000
     atom:   16    charge:    2.0837    magn:    0.0045    constr:    0.0000
     atom:   17    charge:    2.0631    magn:    0.0016    constr:    0.0000
     atom:   18    charge:    3.1239    magn:   -0.0001    constr:    0.0000
     atom:   19    charge:    2.0876    magn:    0.0001    constr:    0.0000
     atom:   20    charge:    2.0848    magn:    0.0002    constr:    0.0000
     atom:   21    charge:    2.0848    magn:    0.0001    constr:    0.0000
     atom:   22    charge:    3.1200    magn:    0.0000    constr:    0.0000
     atom:   23    charge:    2.0908    magn:    0.0002    constr:    0.0000
     atom:   24    charge:    2.0754    magn:   -0.0002    constr:    0.0000
     atom:   25    charge:    2.0868    magn:    0.0000    constr:    0.0000
     atom:   26    charge:    3.1127    magn:   -0.0002    constr:    0.0000
     atom:   27    charge:    2.0800    magn:    0.0025    constr:    0.0000
     atom:   28    charge:    2.0837    magn:    0.0006    constr:    0.0000
     atom:   29    charge:    2.0859    magn:    0.0008    constr:    0.0000
     atom:   30    charge:    3.1169    magn:   -0.0008    constr:    0.0000
     atom:   31    charge:    2.0821    magn:    0.0007    constr:    0.0000
     atom:   32    charge:    2.0814    magn:    0.0065    constr:    0.0000
     atom:   33    charge:    2.0631    magn:    0.0016    constr:    0.0000
     atom:   34    charge:    3.1239    magn:   -0.0001    constr:    0.0000
     atom:   35    charge:    2.0876    magn:    0.0001    constr:    0.0000
     atom:   36    charge:    2.0848    magn:    0.0002    constr:    0.0000
     atom:   37    charge:    2.0848    magn:    0.0001    constr:    0.0000
     atom:   38    charge:    3.1200    magn:    0.0000    constr:    0.0000
     atom:   39    charge:    2.0839    magn:    0.0002    constr:    0.0000
     atom:   40    charge:    2.0756    magn:   -0.0002    constr:    0.0000
     atom:   41    charge:    2.0871    magn:   -0.0000    constr:    0.0000
     atom:   42    charge:    3.1152    magn:   -0.0002    constr:    0.0000
     atom:   43    charge:    2.0799    magn:    0.0031    constr:    0.0000
     atom:   44    charge:    2.0849    magn:    0.0009    constr:    0.0000
     atom:   45    charge:    2.0857    magn:    0.0004    constr:    0.0000
     atom:   46    charge:    3.1150    magn:   -0.0007    constr:    0.0000
     atom:   47    charge:    2.0801    magn:    0.0048    constr:    0.0000
     atom:   48    charge:    2.0843    magn:    0.0140    constr:    0.0000
     atom:   49    charge:    2.0480    magn:    0.2428    constr:    0.0000
     atom:   50    charge:    0.6724    magn:    0.0536    constr:    0.0000
     atom:   51    charge:    0.4217    magn:    0.0008    constr:    0.0000
     atom:   52    charge:    0.4224    magn:    0.0008    constr:    0.0000
     atom:   53    charge:    0.3729    magn:    0.0220    constr:    0.0000
     atom:   54    charge:    0.4228    magn:    0.0006    constr:    0.0000

     total cpu time spent up to now is     1215.2 secs

     total energy              =   -3021.15071275 Ry
     Harris-Foulkes estimate   =   -3021.17797896 Ry
     estimated scf accuracy    <       0.06606859 Ry

     total magnetization       =     1.06 Bohr mag/cell
     absolute magnetization    =     1.23 Bohr mag/cell

     iteration #  3     ecut=    40.42 Ry     beta=0.10
     Davidson diagonalization with overlap
     ethr =  1.66E-05,  avg # of iterations =  2.2

     negative rho (up, down):  1.190E-02 1.197E-02
 
     Magnetic moment per site:
     atom:    1    charge:    3.1244    magn:   -0.0003    constr:    0.0000
     atom:    2    charge:    2.0897    magn:    0.0003    constr:    0.0000
     atom:    3    charge:    3.1198    magn:   -0.0000    constr:    0.0000
     atom:    4    charge:    2.0868    magn:   -0.0001    constr:    0.0000
     atom:    5    charge:    3.1161    magn:   -0.0002    constr:    0.0000
     atom:    6    charge:    2.0795    magn:    0.0022    constr:    0.0000
     atom:    7    charge:    3.1165    magn:   -0.0052    constr:    0.0000
     atom:    8    charge:    2.0783    magn:    0.0253    constr:    0.0000
     atom:    9    charge:    3.1244    magn:   -0.0003    constr:    0.0000
     atom:   10    charge:    2.0898    magn:    0.0003    constr:    0.0000
     atom:   11    charge:    3.1198    magn:   -0.0000    constr:    0.0000
     atom:   12    charge:    2.0871    magn:   -0.0000    constr:    0.0000
     atom:   13    charge:    3.1150    magn:   -0.0002    constr:    0.0000
     atom:   14    charge:    2.0940    magn:    0.0023    constr:    0.0000
     atom:   15    charge:    3.1183    magn:   -0.0008    constr:    0.0000
     atom:   16    charge:    2.0837    magn:    0.0045    constr:    0.0000
     atom:   17    charge:    2.0621    magn:    0.0016    constr:    0.0000
     atom:   18    charge:    3.1239    magn:   -0.0001    constr:    0.0000
     atom:   19    charge:    2.0876    magn:    0.0001    constr:    0.0000
     atom:   20    charge:    2.0847    magn:    0.0001    constr:    0.0000
     atom:   21    charge:    2.0847    magn:    0.0001    constr:    0.0000
     atom:   22    charge:    3.1199    magn:    0.0000    constr:    0.0000
     atom:   23    charge:    2.0909    magn:    0.0003    constr:    0.0000
     atom:   24    charge:    2.0755    magn:   -0.0001    constr:    0.0000
     atom:   25    charge:    2.0868    magn:    0.0000    constr:    0.0000
     atom:   26    charge:    3.1127    magn:   -0.0002    constr:    0.0000
     atom:   27    charge:    2.0803    magn:    0.0025    constr:    0.0000
     atom:   28    charge:    2.0840    magn:    0.0006    constr:    0.0000
     atom:   29    charge:    2.0861    magn:    0.0008    constr:    0.0000
     atom:   30    charge:    3.1170    magn:   -0.0008    constr:    0.0000
     atom:   31    charge:    2.0821    magn:    0.0007    constr:    0.0000
     atom:   32    charge:    2.0817    magn:    0.0064    constr:    0.0000
     atom:   33    charge:    2.0621    magn:    0.0016    constr:    0.0000
     atom:   34    charge:    3.1239    magn:   -0.0001    constr:    0.0000
     atom:   35    charge:    2.0876    magn:    0.0001    constr:    0.0000
     atom:   36    charge:    2.0847    magn:    0.0001    constr:    0.0000
     atom:   37    charge:    2.0847    magn:    0.0001    constr:    0.0000
     atom:   38    charge:    3.1200    magn:    0.0000    constr:    0.0000
     atom:   39    charge:    2.0840    magn:    0.0002    constr:    0.0000
     atom:   40    charge:    2.0758    magn:   -0.0002    constr:    0.0000
     atom:   41    charge:    2.0871    magn:   -0.0000    constr:    0.0000
     atom:   42    charge:    3.1152    magn:   -0.0002    constr:    0.0000
     atom:   43    charge:    2.0803    magn:    0.0031    constr:    0.0000
     atom:   44    charge:    2.0851    magn:    0.0009    constr:    0.0000
     atom:   45    charge:    2.0859    magn:    0.0004    constr:    0.0000
     atom:   46    charge:    3.1149    magn:   -0.0007    constr:    0.0000
     atom:   47    charge:    2.0802    magn:    0.0047    constr:    0.0000
     atom:   48    charge:    2.0843    magn:    0.0141    constr:    0.0000
     atom:   49    charge:    2.0491    magn:    0.2426    constr:    0.0000
     atom:   50    charge:    0.6723    magn:    0.0535    constr:    0.0000
     atom:   51    charge:    0.4216    magn:    0.0008    constr:    0.0000
     atom:   52    charge:    0.4223    magn:    0.0008    constr:    0.0000
     atom:   53    charge:    0.3737    magn:    0.0220    constr:    0.0000
     atom:   54    charge:    0.4227    magn:    0.0006    constr:    0.0000

     total cpu time spent up to now is     1434.8 secs

     total energy              =   -3021.14916964 Ry
     Harris-Foulkes estimate   =   -3021.15747556 Ry
     estimated scf accuracy    <       0.08883784 Ry

     total magnetization       =     1.04 Bohr mag/cell
     absolute magnetization    =     1.21 Bohr mag/cell

     iteration #  4     ecut=    40.42 Ry     beta=0.10
     Davidson diagonalization with overlap
     ethr =  1.66E-05,  avg # of iterations =  1.2

     negative rho (up, down):  1.190E-02 1.197E-02
 
     Magnetic moment per site:
     atom:    1    charge:    3.1244    magn:   -0.0003    constr:    0.0000
     atom:    2    charge:    2.0897    magn:    0.0003    constr:    0.0000
     atom:    3    charge:    3.1198    magn:   -0.0000    constr:    0.0000
     atom:    4    charge:    2.0867    magn:   -0.0001    constr:    0.0000
     atom:    5    charge:    3.1161    magn:   -0.0002    constr:    0.0000
     atom:    6    charge:    2.0796    magn:    0.0022    constr:    0.0000
     atom:    7    charge:    3.1167    magn:   -0.0051    constr:    0.0000
     atom:    8    charge:    2.0798    magn:    0.0249    constr:    0.0000
     atom:    9    charge:    3.1244    magn:   -0.0003    constr:    0.0000
     atom:   10    charge:    2.0898    magn:    0.0003    constr:    0.0000
     atom:   11    charge:    3.1198    magn:   -0.0000    constr:    0.0000
     atom:   12    charge:    2.0870    magn:   -0.0000    constr:    0.0000
     atom:   13    charge:    3.1150    magn:   -0.0002    constr:    0.0000
     atom:   14    charge:    2.0939    magn:    0.0022    constr:    0.0000
     atom:   15    charge:    3.1183    magn:   -0.0008    constr:    0.0000
     atom:   16    charge:    2.0827    magn:    0.0045    constr:    0.0000
     atom:   17    charge:    2.0626    magn:    0.0015    constr:    0.0000
     atom:   18    charge:    3.1240    magn:   -0.0001    constr:    0.0000
     atom:   19    charge:    2.0875    magn:    0.0001    constr:    0.0000
     atom:   20    charge:    2.0847    magn:    0.0001    constr:    0.0000
     atom:   21    charge:    2.0847    magn:    0.0001    constr:    0.0000
     atom:   22    charge:    3.1199    magn:    0.0000    constr:    0.0000
     atom:   23    charge:    2.0907    magn:    0.0003    constr:    0.0000
     atom:   24    charge:    2.0753    magn:   -0.0001    constr:    0.0000
     atom:   25    charge:    2.0867    magn:    0.0000    constr:    0.0000
     atom:   26    charge:    3.1126    magn:   -0.0002    constr:    0.0000
     atom:   27    charge:    2.0804    magn:    0.0025    constr:    0.0000
     atom:   28    charge:    2.0839    magn:    0.0006    constr:    0.0000
     atom:   29    charge:    2.0860    magn:    0.0008    constr:    0.0000
     atom:   30    charge:    3.1173    magn:   -0.0008    constr:    0.0000
     atom:   31    charge:    2.0823    magn:    0.0007    constr:    0.0000
     atom:   32    charge:    2.0831    magn:    0.0063    constr:    0.0000
     atom:   33    charge:    2.0625    magn:    0.0015    constr:    0.0000
     atom:   34    charge:    3.1240    magn:   -0.0001    constr:    0.0000
     atom:   35    charge:    2.0875    magn:    0.0001    constr:    0.0000
     atom:   36    charge:    2.0847    magn:    0.0001    constr:    0.0000
     atom:   37    charge:    2.0847    magn:    0.0001    constr:    0.0000
     atom:   38    charge:    3.1200    magn:    0.0000    constr:    0.0000
     atom:   39    charge:    2.0838    magn:    0.0002    constr:    0.0000
     atom:   40    charge:    2.0755    magn:   -0.0002    constr:    0.0000
     atom:   41    charge:    2.0870    magn:   -0.0000    constr:    0.0000
     atom:   42    charge:    3.1151    magn:   -0.0002    constr:    0.0000
     atom:   43    charge:    2.0804    magn:    0.0031    constr:    0.0000
     atom:   44    charge:    2.0850    magn:    0.0009    constr:    0.0000
     atom:   45    charge:    2.0858    magn:    0.0004    constr:    0.0000
     atom:   46    charge:    3.1146    magn:   -0.0007    constr:    0.0000
     atom:   47    charge:    2.0805    magn:    0.0047    constr:    0.0000
     atom:   48    charge:    2.0835    magn:    0.0141    constr:    0.0000
     atom:   49    charge:    2.0507    magn:    0.2418    constr:    0.0000
     atom:   50    charge:    0.6716    magn:    0.0538    constr:    0.0000
     atom:   51    charge:    0.4217    magn:    0.0008    constr:    0.0000
     atom:   52    charge:    0.4223    magn:    0.0008    constr:    0.0000
     atom:   53    charge:    0.3734    magn:    0.0223    constr:    0.0000
     atom:   54    charge:    0.4227    magn:    0.0006    constr:    0.0000

     total cpu time spent up to now is     1632.0 secs

     total energy              =   -3021.14970326 Ry
     Harris-Foulkes estimate   =   -3021.15236512 Ry
     estimated scf accuracy    <       0.01027884 Ry

     total magnetization       =     1.06 Bohr mag/cell
     absolute magnetization    =     1.23 Bohr mag/cell

     iteration #  5     ecut=    40.42 Ry     beta=0.10
     Davidson diagonalization with overlap
     ethr =  2.58E-06,  avg # of iterations =  5.8

     negative rho (up, down):  1.190E-02 1.197E-02
 
     Magnetic moment per site:
     atom:    1    charge:    3.1244    magn:   -0.0002    constr:    0.0000
     atom:    2    charge:    2.0897    magn:    0.0002    constr:    0.0000
     atom:    3    charge:    3.1198    magn:   -0.0000    constr:    0.0000
     atom:    4    charge:    2.0867    magn:   -0.0001    constr:    0.0000
     atom:    5    charge:    3.1161    magn:   -0.0002    constr:    0.0000
     atom:    6    charge:    2.0796    magn:    0.0022    constr:    0.0000
     atom:    7    charge:    3.1169    magn:   -0.0050    constr:    0.0000
     atom:    8    charge:    2.0807    magn:    0.0245    constr:    0.0000
     atom:    9    charge:    3.1244    magn:   -0.0002    constr:    0.0000
     atom:   10    charge:    2.0898    magn:    0.0003    constr:    0.0000
     atom:   11    charge:    3.1198    magn:   -0.0000    constr:    0.0000
     atom:   12    charge:    2.0871    magn:   -0.0000    constr:    0.0000
     atom:   13    charge:    3.1150    magn:   -0.0002    constr:    0.0000
     atom:   14    charge:    2.0939    magn:    0.0022    constr:    0.0000
     atom:   15    charge:    3.1184    magn:   -0.0008    constr:    0.0000
     atom:   16    charge:    2.0820    magn:    0.0046    constr:    0.0000
     atom:   17    charge:    2.0626    magn:    0.0014    constr:    0.0000
     atom:   18    charge:    3.1240    magn:   -0.0001    constr:    0.0000
     atom:   19    charge:    2.0875    magn:    0.0001    constr:    0.0000
     atom:   20    charge:    2.0847    magn:    0.0001    constr:    0.0000
     atom:   21    charge:    2.0847    magn:    0.0001    constr:    0.0000
     atom:   22    charge:    3.1199    magn:    0.0000    constr:    0.0000
     atom:   23    charge:    2.0908    magn:    0.0003    constr:    0.0000
     atom:   24    charge:    2.0753    magn:   -0.0001    constr:    0.0000
     atom:   25    charge:    2.0867    magn:    0.0000    constr:    0.0000
     atom:   26    charge:    3.1126    magn:   -0.0002    constr:    0.0000
     atom:   27    charge:    2.0803    magn:    0.0025    constr:    0.0000
     atom:   28    charge:    2.0839    magn:    0.0007    constr:    0.0000
     atom:   29    charge:    2.0860    magn:    0.0008    constr:    0.0000
     atom:   30    charge:    3.1174    magn:   -0.0008    constr:    0.0000
     atom:   31    charge:    2.0825    magn:    0.0007    constr:    0.0000
     atom:   32    charge:    2.0838    magn:    0.0062    constr:    0.0000
     atom:   33    charge:    2.0625    magn:    0.0014    constr:    0.0000
     atom:   34    charge:    3.1240    magn:   -0.0001    constr:    0.0000
     atom:   35    charge:    2.0875    magn:    0.0001    constr:    0.0000
     atom:   36    charge:    2.0847    magn:    0.0001    constr:    0.0000
     atom:   37    charge:    2.0847    magn:    0.0001    constr:    0.0000
     atom:   38    charge:    3.1200    magn:    0.0000    constr:    0.0000
     atom:   39    charge:    2.0839    magn:    0.0002    constr:    0.0000
     atom:   40    charge:    2.0756    magn:   -0.0002    constr:    0.0000
     atom:   41    charge:    2.0870    magn:   -0.0000    constr:    0.0000
     atom:   42    charge:    3.1151    magn:   -0.0002    constr:    0.0000
     atom:   43    charge:    2.0803    magn:    0.0031    constr:    0.0000
     atom:   44    charge:    2.0851    magn:    0.0009    constr:    0.0000
     atom:   45    charge:    2.0858    magn:    0.0004    constr:    0.0000
     atom:   46    charge:    3.1145    magn:   -0.0007    constr:    0.0000
     atom:   47    charge:    2.0807    magn:    0.0047    constr:    0.0000
     atom:   48    charge:    2.0830    magn:    0.0140    constr:    0.0000
     atom:   49    charge:    2.0517    magn:    0.2409    constr:    0.0000
     atom:   50    charge:    0.6709    magn:    0.0543    constr:    0.0000
     atom:   51    charge:    0.4218    magn:    0.0009    constr:    0.0000
     atom:   52    charge:    0.4223    magn:    0.0009    constr:    0.0000
     atom:   53    charge:    0.3722    magn:    0.0228    constr:    0.0000
     atom:   54    charge:    0.4228    magn:    0.0007    constr:    0.0000

     total cpu time spent up to now is     1916.1 secs

     total energy              =   -3021.14970824 Ry
     Harris-Foulkes estimate   =   -3021.15031278 Ry
     estimated scf accuracy    <       0.00220831 Ry

     total magnetization       =     1.07 Bohr mag/cell
     absolute magnetization    =     1.23 Bohr mag/cell

     iteration #  6     ecut=    40.42 Ry     beta=0.10
     Davidson diagonalization with overlap
     ethr =  5.55E-07,  avg # of iterations =  2.1

     negative rho (up, down):  1.189E-02 1.197E-02
 
     Magnetic moment per site:
     atom:    1    charge:    3.1244    magn:   -0.0002    constr:    0.0000
     atom:    2    charge:    2.0897    magn:    0.0002    constr:    0.0000
     atom:    3    charge:    3.1198    magn:   -0.0000    constr:    0.0000
     atom:    4    charge:    2.0867    magn:   -0.0001    constr:    0.0000
     atom:    5    charge:    3.1161    magn:   -0.0002    constr:    0.0000
     atom:    6    charge:    2.0795    magn:    0.0022    constr:    0.0000
     atom:    7    charge:    3.1168    magn:   -0.0049    constr:    0.0000
     atom:    8    charge:    2.0800    magn:    0.0241    constr:    0.0000
     atom:    9    charge:    3.1245    magn:   -0.0002    constr:    0.0000
     atom:   10    charge:    2.0898    magn:    0.0002    constr:    0.0000
     atom:   11    charge:    3.1198    magn:   -0.0000    constr:    0.0000
     atom:   12    charge:    2.0870    magn:   -0.0000    constr:    0.0000
     atom:   13    charge:    3.1150    magn:   -0.0002    constr:    0.0000
     atom:   14    charge:    2.0939    magn:    0.0022    constr:    0.0000
     atom:   15    charge:    3.1185    magn:   -0.0008    constr:    0.0000
     atom:   16    charge:    2.0824    magn:    0.0046    constr:    0.0000
     atom:   17    charge:    2.0625    magn:    0.0013    constr:    0.0000
     atom:   18    charge:    3.1240    magn:   -0.0001    constr:    0.0000
     atom:   19    charge:    2.0875    magn:    0.0001    constr:    0.0000
     atom:   20    charge:    2.0847    magn:    0.0001    constr:    0.0000
     atom:   21    charge:    2.0847    magn:    0.0001    constr:    0.0000
     atom:   22    charge:    3.1199    magn:    0.0000    constr:    0.0000
     atom:   23    charge:    2.0908    magn:    0.0003    constr:    0.0000
     atom:   24    charge:    2.0754    magn:   -0.0001    constr:    0.0000
     atom:   25    charge:    2.0867    magn:    0.0000    constr:    0.0000
     atom:   26    charge:    3.1127    magn:   -0.0002    constr:    0.0000
     atom:   27    charge:    2.0802    magn:    0.0025    constr:    0.0000
     atom:   28    charge:    2.0838    magn:    0.0007    constr:    0.0000
     atom:   29    charge:    2.0860    magn:    0.0008    constr:    0.0000
     atom:   30    charge:    3.1171    magn:   -0.0008    constr:    0.0000
     atom:   31    charge:    2.0828    magn:    0.0007    constr:    0.0000
     atom:   32    charge:    2.0836    magn:    0.0061    constr:    0.0000
     atom:   33    charge:    2.0625    magn:    0.0013    constr:    0.0000
     atom:   34    charge:    3.1239    magn:   -0.0001    constr:    0.0000
     atom:   35    charge:    2.0875    magn:    0.0000    constr:    0.0000
     atom:   36    charge:    2.0847    magn:    0.0001    constr:    0.0000
     atom:   37    charge:    2.0847    magn:    0.0001    constr:    0.0000
     atom:   38    charge:    3.1200    magn:    0.0000    constr:    0.0000
     atom:   39    charge:    2.0839    magn:    0.0002    constr:    0.0000
     atom:   40    charge:    2.0756    magn:   -0.0002    constr:    0.0000
     atom:   41    charge:    2.0870    magn:   -0.0000    constr:    0.0000
     atom:   42    charge:    3.1151    magn:   -0.0002    constr:    0.0000
     atom:   43    charge:    2.0802    magn:    0.0031    constr:    0.0000
     atom:   44    charge:    2.0851    magn:    0.0009    constr:    0.0000
     atom:   45    charge:    2.0858    magn:    0.0005    constr:    0.0000
     atom:   46    charge:    3.1147    magn:   -0.0007    constr:    0.0000
     atom:   47    charge:    2.0810    magn:    0.0046    constr:    0.0000
     atom:   48    charge:    2.0834    magn:    0.0139    constr:    0.0000
     atom:   49    charge:    2.0525    magn:    0.2397    constr:    0.0000
     atom:   50    charge:    0.6707    magn:    0.0550    constr:    0.0000
     atom:   51    charge:    0.4219    magn:    0.0009    constr:    0.0000
     atom:   52    charge:    0.4225    magn:    0.0010    constr:    0.0000
     atom:   53    charge:    0.3703    magn:    0.0233    constr:    0.0000
     atom:   54    charge:    0.4229    magn:    0.0007    constr:    0.0000

     total cpu time spent up to now is     2132.6 secs

     total energy              =   -3021.14972554 Ry
     Harris-Foulkes estimate   =   -3021.14986677 Ry
     estimated scf accuracy    <       0.00058762 Ry

     total magnetization       =     1.06 Bohr mag/cell
     absolute magnetization    =     1.23 Bohr mag/cell

     iteration #  7     ecut=    40.42 Ry     beta=0.10
     Davidson diagonalization with overlap
     ethr =  1.48E-07,  avg # of iterations =  2.9

     negative rho (up, down):  1.189E-02 1.197E-02
 
     Magnetic moment per site:
     atom:    1    charge:    3.1244    magn:   -0.0002    constr:    0.0000
     atom:    2    charge:    2.0897    magn:    0.0002    constr:    0.0000
     atom:    3    charge:    3.1198    magn:   -0.0000    constr:    0.0000
     atom:    4    charge:    2.0867    magn:   -0.0001    constr:    0.0000
     atom:    5    charge:    3.1161    magn:   -0.0002    constr:    0.0000
     atom:    6    charge:    2.0794    magn:    0.0022    constr:    0.0000
     atom:    7    charge:    3.1167    magn:   -0.0048    constr:    0.0000
     atom:    8    charge:    2.0796    magn:    0.0239    constr:    0.0000
     atom:    9    charge:    3.1244    magn:   -0.0002    constr:    0.0000
     atom:   10    charge:    2.0898    magn:    0.0002    constr:    0.0000
     atom:   11    charge:    3.1198    magn:   -0.0000    constr:    0.0000
     atom:   12    charge:    2.0870    magn:   -0.0000    constr:    0.0000
     atom:   13    charge:    3.1150    magn:   -0.0002    constr:    0.0000
     atom:   14    charge:    2.0939    magn:    0.0022    constr:    0.0000
     atom:   15    charge:    3.1185    magn:   -0.0009    constr:    0.0000
     atom:   16    charge:    2.0827    magn:    0.0046    constr:    0.0000
     atom:   17    charge:    2.0625    magn:    0.0012    constr:    0.0000
     atom:   18    charge:    3.1240    magn:   -0.0000    constr:    0.0000
     atom:   19    charge:    2.0875    magn:    0.0000    constr:    0.0000
     atom:   20    charge:    2.0847    magn:    0.0001    constr:    0.0000
     atom:   21    charge:    2.0847    magn:    0.0001    constr:    0.0000
     atom:   22    charge:    3.1199    magn:    0.0000    constr:    0.0000
     atom:   23    charge:    2.0908    magn:    0.0003    constr:    0.0000
     atom:   24    charge:    2.0754    magn:   -0.0001    constr:    0.0000
     atom:   25    charge:    2.0867    magn:    0.0000    constr:    0.0000
     atom:   26    charge:    3.1127    magn:   -0.0002    constr:    0.0000
     atom:   27    charge:    2.0802    magn:    0.0025    constr:    0.0000
     atom:   28    charge:    2.0839    magn:    0.0007    constr:    0.0000
     atom:   29    charge:    2.0860    magn:    0.0008    constr:    0.0000
     atom:   30    charge:    3.1171    magn:   -0.0008    constr:    0.0000
     atom:   31    charge:    2.0828    magn:    0.0007    constr:    0.0000
     atom:   32    charge:    2.0833    magn:    0.0061    constr:    0.0000
     atom:   33    charge:    2.0625    magn:    0.0012    constr:    0.0000
     atom:   34    charge:    3.1239    magn:   -0.0000    constr:    0.0000
     atom:   35    charge:    2.0875    magn:    0.0000    constr:    0.0000
     atom:   36    charge:    2.0847    magn:    0.0001    constr:    0.0000
     atom:   37    charge:    2.0847    magn:    0.0001    constr:    0.0000
     atom:   38    charge:    3.1200    magn:    0.0000    constr:    0.0000
     atom:   39    charge:    2.0839    magn:    0.0002    constr:    0.0000
     atom:   40    charge:    2.0756    magn:   -0.0001    constr:    0.0000
     atom:   41    charge:    2.0870    magn:   -0.0000    constr:    0.0000
     atom:   42    charge:    3.1151    magn:   -0.0002    constr:    0.0000
     atom:   43    charge:    2.0802    magn:    0.0031    constr:    0.0000
     atom:   44    charge:    2.0851    magn:    0.0009    constr:    0.0000
     atom:   45    charge:    2.0858    magn:    0.0005    constr:    0.0000
     atom:   46    charge:    3.1148    magn:   -0.0008    constr:    0.0000
     atom:   47    charge:    2.0809    magn:    0.0046    constr:    0.0000
     atom:   48    charge:    2.0836    magn:    0.0138    constr:    0.0000
     atom:   49    charge:    2.0528    magn:    0.2389    constr:    0.0000
     atom:   50    charge:    0.6708    magn:    0.0555    constr:    0.0000
     atom:   51    charge:    0.4220    magn:    0.0009    constr:    0.0000
     atom:   52    charge:    0.4226    magn:    0.0010    constr:    0.0000
     atom:   53    charge:    0.3691    magn:    0.0235    constr:    0.0000
     atom:   54    charge:    0.4230    magn:    0.0007    constr:    0.0000

     total cpu time spent up to now is     2359.6 secs

     total energy              =   -3021.14974350 Ry
     Harris-Foulkes estimate   =   -3021.14976459 Ry
     estimated scf accuracy    <       0.00016155 Ry

     total magnetization       =     1.06 Bohr mag/cell
     absolute magnetization    =     1.23 Bohr mag/cell

     iteration #  8     ecut=    40.42 Ry     beta=0.10
     Davidson diagonalization with overlap
     ethr =  4.06E-08,  avg # of iterations =  2.8

     negative rho (up, down):  1.189E-02 1.197E-02
 
     Magnetic moment per site:
     atom:    1    charge:    3.1244    magn:   -0.0002    constr:    0.0000
     atom:    2    charge:    2.0897    magn:    0.0002    constr:    0.0000
     atom:    3    charge:    3.1198    magn:   -0.0000    constr:    0.0000
     atom:    4    charge:    2.0867    magn:   -0.0001    constr:    0.0000
     atom:    5    charge:    3.1161    magn:   -0.0002    constr:    0.0000
     atom:    6    charge:    2.0795    magn:    0.0022    constr:    0.0000
     atom:    7    charge:    3.1166    magn:   -0.0048    constr:    0.0000
     atom:    8    charge:    2.0793    magn:    0.0237    constr:    0.0000
     atom:    9    charge:    3.1244    magn:   -0.0002    constr:    0.0000
     atom:   10    charge:    2.0898    magn:    0.0002    constr:    0.0000
     atom:   11    charge:    3.1198    magn:   -0.0000    constr:    0.0000
     atom:   12    charge:    2.0870    magn:   -0.0000    constr:    0.0000
     atom:   13    charge:    3.1150    magn:   -0.0002    constr:    0.0000
     atom:   14    charge:    2.0939    magn:    0.0022    constr:    0.0000
     atom:   15    charge:    3.1184    magn:   -0.0008    constr:    0.0000
     atom:   16    charge:    2.0828    magn:    0.0046    constr:    0.0000
     atom:   17    charge:    2.0624    magn:    0.0011    constr:    0.0000
     atom:   18    charge:    3.1239    magn:   -0.0000    constr:    0.0000
     atom:   19    charge:    2.0875    magn:    0.0000    constr:    0.0000
     atom:   20    charge:    2.0847    magn:    0.0001    constr:    0.0000
     atom:   21    charge:    2.0847    magn:    0.0001    constr:    0.0000
     atom:   22    charge:    3.1199    magn:    0.0000    constr:    0.0000
     atom:   23    charge:    2.0908    magn:    0.0003    constr:    0.0000
     atom:   24    charge:    2.0754    magn:   -0.0001    constr:    0.0000
     atom:   25    charge:    2.0867    magn:    0.0000    constr:    0.0000
     atom:   26    charge:    3.1127    magn:   -0.0003    constr:    0.0000
     atom:   27    charge:    2.0802    magn:    0.0026    constr:    0.0000
     atom:   28    charge:    2.0839    magn:    0.0007    constr:    0.0000
     atom:   29    charge:    2.0860    magn:    0.0009    constr:    0.0000
     atom:   30    charge:    3.1171    magn:   -0.0008    constr:    0.0000
     atom:   31    charge:    2.0827    magn:    0.0007    constr:    0.0000
     atom:   32    charge:    2.0830    magn:    0.0060    constr:    0.0000
     atom:   33    charge:    2.0624    magn:    0.0012    constr:    0.0000
     atom:   34    charge:    3.1239    magn:   -0.0000    constr:    0.0000
     atom:   35    charge:    2.0876    magn:    0.0000    constr:    0.0000
     atom:   36    charge:    2.0847    magn:    0.0001    constr:    0.0000
     atom:   37    charge:    2.0847    magn:    0.0001    constr:    0.0000
     atom:   38    charge:    3.1200    magn:    0.0000    constr:    0.0000
     atom:   39    charge:    2.0839    magn:    0.0002    constr:    0.0000
     atom:   40    charge:    2.0756    magn:   -0.0001    constr:    0.0000
     atom:   41    charge:    2.0870    magn:   -0.0000    constr:    0.0000
     atom:   42    charge:    3.1151    magn:   -0.0002    constr:    0.0000
     atom:   43    charge:    2.0803    magn:    0.0031    constr:    0.0000
     atom:   44    charge:    2.0851    magn:    0.0009    constr:    0.0000
     atom:   45    charge:    2.0858    magn:    0.0005    constr:    0.0000
     atom:   46    charge:    3.1148    magn:   -0.0008    constr:    0.0000
     atom:   47    charge:    2.0808    magn:    0.0045    constr:    0.0000
     atom:   48    charge:    2.0837    magn:    0.0138    constr:    0.0000
     atom:   49    charge:    2.0529    magn:    0.2381    constr:    0.0000
     atom:   50    charge:    0.6712    magn:    0.0559    constr:    0.0000
     atom:   51    charge:    0.4220    magn:    0.0009    constr:    0.0000
     atom:   52    charge:    0.4226    magn:    0.0010    constr:    0.0000
     atom:   53    charge:    0.3682    magn:    0.0235    constr:    0.0000
     atom:   54    charge:    0.4230    magn:    0.0007    constr:    0.0000

     total cpu time spent up to now is     2585.9 secs

     total energy              =   -3021.14975287 Ry
     Harris-Foulkes estimate   =   -3021.14975280 Ry
     estimated scf accuracy    <       0.00005539 Ry

     total magnetization       =     1.06 Bohr mag/cell
     absolute magnetization    =     1.22 Bohr mag/cell

     iteration #  9     ecut=    40.42 Ry     beta=0.10
     Davidson diagonalization with overlap
     ethr =  1.39E-08,  avg # of iterations =  3.0

     negative rho (up, down):  1.189E-02 1.197E-02
 
     Magnetic moment per site:
     atom:    1    charge:    3.1244    magn:   -0.0002    constr:    0.0000
     atom:    2    charge:    2.0897    magn:    0.0002    constr:    0.0000
     atom:    3    charge:    3.1198    magn:   -0.0000    constr:    0.0000
     atom:    4    charge:    2.0867    magn:   -0.0001    constr:    0.0000
     atom:    5    charge:    3.1161    magn:   -0.0003    constr:    0.0000
     atom:    6    charge:    2.0795    magn:    0.0022    constr:    0.0000
     atom:    7    charge:    3.1166    magn:   -0.0047    constr:    0.0000
     atom:    8    charge:    2.0792    magn:    0.0235    constr:    0.0000
     atom:    9    charge:    3.1244    magn:   -0.0002    constr:    0.0000
     atom:   10    charge:    2.0898    magn:    0.0002    constr:    0.0000
     atom:   11    charge:    3.1198    magn:   -0.0000    constr:    0.0000
     atom:   12    charge:    2.0870    magn:   -0.0000    constr:    0.0000
     atom:   13    charge:    3.1150    magn:   -0.0002    constr:    0.0000
     atom:   14    charge:    2.0939    magn:    0.0022    constr:    0.0000
     atom:   15    charge:    3.1184    magn:   -0.0008    constr:    0.0000
     atom:   16    charge:    2.0829    magn:    0.0046    constr:    0.0000
     atom:   17    charge:    2.0624    magn:    0.0010    constr:    0.0000
     atom:   18    charge:    3.1239    magn:   -0.0000    constr:    0.0000
     atom:   19    charge:    2.0875    magn:    0.0000    constr:    0.0000
     atom:   20    charge:    2.0847    magn:    0.0001    constr:    0.0000
     atom:   21    charge:    2.0847    magn:    0.0001    constr:    0.0000
     atom:   22    charge:    3.1199    magn:    0.0000    constr:    0.0000
     atom:   23    charge:    2.0908    magn:    0.0003    constr:    0.0000
     atom:   24    charge:    2.0754    magn:   -0.0000    constr:    0.0000
     atom:   25    charge:    2.0867    magn:    0.0000    constr:    0.0000
     atom:   26    charge:    3.1127    magn:   -0.0003    constr:    0.0000
     atom:   27    charge:    2.0803    magn:    0.0026    constr:    0.0000
     atom:   28    charge:    2.0839    magn:    0.0007    constr:    0.0000
     atom:   29    charge:    2.0860    magn:    0.0009    constr:    0.0000
     atom:   30    charge:    3.1171    magn:   -0.0008    constr:    0.0000
     atom:   31    charge:    2.0826    magn:    0.0007    constr:    0.0000
     atom:   32    charge:    2.0829    magn:    0.0060    constr:    0.0000
     atom:   33    charge:    2.0624    magn:    0.0011    constr:    0.0000
     atom:   34    charge:    3.1239    magn:   -0.0000    constr:    0.0000
     atom:   35    charge:    2.0876    magn:    0.0000    constr:    0.0000
     atom:   36    charge:    2.0847    magn:    0.0001    constr:    0.0000
     atom:   37    charge:    2.0847    magn:    0.0001    constr:    0.0000
     atom:   38    charge:    3.1200    magn:    0.0000    constr:    0.0000
     atom:   39    charge:    2.0839    magn:    0.0002    constr:    0.0000
     atom:   40    charge:    2.0756    magn:   -0.0001    constr:    0.0000
     atom:   41    charge:    2.0870    magn:   -0.0000    constr:    0.0000
     atom:   42    charge:    3.1151    magn:   -0.0002    constr:    0.0000
     atom:   43    charge:    2.0803    magn:    0.0031    constr:    0.0000
     atom:   44    charge:    2.0851    magn:    0.0010    constr:    0.0000
     atom:   45    charge:    2.0858    magn:    0.0005    constr:    0.0000
     atom:   46    charge:    3.1148    magn:   -0.0007    constr:    0.0000
     atom:   47    charge:    2.0807    magn:    0.0045    constr:    0.0000
     atom:   48    charge:    2.0837    magn:    0.0138    constr:    0.0000
     atom:   49    charge:    2.0529    magn:    0.2375    constr:    0.0000
     atom:   50    charge:    0.6715    magn:    0.0562    constr:    0.0000
     atom:   51    charge:    0.4219    magn:    0.0009    constr:    0.0000
     atom:   52    charge:    0.4226    magn:    0.0009    constr:    0.0000
     atom:   53    charge:    0.3678    magn:    0.0236    constr:    0.0000
     atom:   54    charge:    0.4230    magn:    0.0007    constr:    0.0000

     total cpu time spent up to now is     2818.7 secs

     total energy              =   -3021.14976176 Ry
     Harris-Foulkes estimate   =   -3021.14975659 Ry
     estimated scf accuracy    <       0.00001652 Ry

     total magnetization       =     1.06 Bohr mag/cell
     absolute magnetization    =     1.22 Bohr mag/cell

     iteration # 10     ecut=    40.42 Ry     beta=0.10
     Davidson diagonalization with overlap
     ethr =  4.15E-09,  avg # of iterations =  3.0

     negative rho (up, down):  1.189E-02 1.197E-02
 
     Magnetic moment per site:
     atom:    1    charge:    3.1244    magn:   -0.0002    constr:    0.0000
     atom:    2    charge:    2.0897    magn:    0.0001    constr:    0.0000
     atom:    3    charge:    3.1198    magn:   -0.0000    constr:    0.0000
     atom:    4    charge:    2.0867    magn:   -0.0001    constr:    0.0000
     atom:    5    charge:    3.1161    magn:   -0.0003    constr:    0.0000
     atom:    6    charge:    2.0795    magn:    0.0022    constr:    0.0000
     atom:    7    charge:    3.1166    magn:   -0.0047    constr:    0.0000
     atom:    8    charge:    2.0793    magn:    0.0234    constr:    0.0000
     atom:    9    charge:    3.1244    magn:   -0.0002    constr:    0.0000
     atom:   10    charge:    2.0898    magn:    0.0002    constr:    0.0000
     atom:   11    charge:    3.1198    magn:   -0.0000    constr:    0.0000
     atom:   12    charge:    2.0870    magn:   -0.0000    constr:    0.0000
     atom:   13    charge:    3.1150    magn:   -0.0002    constr:    0.0000
     atom:   14    charge:    2.0939    magn:    0.0022    constr:    0.0000
     atom:   15    charge:    3.1184    magn:   -0.0008    constr:    0.0000
     atom:   16    charge:    2.0828    magn:    0.0046    constr:    0.0000
     atom:   17    charge:    2.0624    magn:    0.0010    constr:    0.0000
     atom:   18    charge:    3.1239    magn:   -0.0000    constr:    0.0000
     atom:   19    charge:    2.0875    magn:    0.0000    constr:    0.0000
     atom:   20    charge:    2.0847    magn:    0.0001    constr:    0.0000
     atom:   21    charge:    2.0847    magn:    0.0001    constr:    0.0000
     atom:   22    charge:    3.1199    magn:    0.0000    constr:    0.0000
     atom:   23    charge:    2.0908    magn:    0.0003    constr:    0.0000
     atom:   24    charge:    2.0754    magn:   -0.0000    constr:    0.0000
     atom:   25    charge:    2.0867    magn:    0.0000    constr:    0.0000
     atom:   26    charge:    3.1127    magn:   -0.0003    constr:    0.0000
     atom:   27    charge:    2.0803    magn:    0.0026    constr:    0.0000
     atom:   28    charge:    2.0839    magn:    0.0007    constr:    0.0000
     atom:   29    charge:    2.0860    magn:    0.0009    constr:    0.0000
     atom:   30    charge:    3.1171    magn:   -0.0008    constr:    0.0000
     atom:   31    charge:    2.0825    magn:    0.0007    constr:    0.0000
     atom:   32    charge:    2.0829    magn:    0.0059    constr:    0.0000
     atom:   33    charge:    2.0624    magn:    0.0010    constr:    0.0000
     atom:   34    charge:    3.1239    magn:   -0.0000    constr:    0.0000
     atom:   35    charge:    2.0876    magn:    0.0000    constr:    0.0000
     atom:   36    charge:    2.0847    magn:    0.0001    constr:    0.0000
     atom:   37    charge:    2.0847    magn:    0.0001    constr:    0.0000
     atom:   38    charge:    3.1200    magn:    0.0000    constr:    0.0000
     atom:   39    charge:    2.0839    magn:    0.0002    constr:    0.0000
     atom:   40    charge:    2.0756    magn:   -0.0001    constr:    0.0000
     atom:   41    charge:    2.0870    magn:   -0.0000    constr:    0.0000
     atom:   42    charge:    3.1151    magn:   -0.0003    constr:    0.0000
     atom:   43    charge:    2.0803    magn:    0.0031    constr:    0.0000
     atom:   44    charge:    2.0851    magn:    0.0010    constr:    0.0000
     atom:   45    charge:    2.0858    magn:    0.0005    constr:    0.0000
     atom:   46    charge:    3.1148    magn:   -0.0007    constr:    0.0000
     atom:   47    charge:    2.0807    magn:    0.0045    constr:    0.0000
     atom:   48    charge:    2.0837    magn:    0.0138    constr:    0.0000
     atom:   49    charge:    2.0529    magn:    0.2370    constr:    0.0000
     atom:   50    charge:    0.6715    magn:    0.0564    constr:    0.0000
     atom:   51    charge:    0.4219    magn:    0.0009    constr:    0.0000
     atom:   52    charge:    0.4226    magn:    0.0009    constr:    0.0000
     atom:   53    charge:    0.3677    magn:    0.0236    constr:    0.0000
     atom:   54    charge:    0.4230    magn:    0.0007    constr:    0.0000

     total cpu time spent up to now is     3053.5 secs

     total energy              =   -3021.14976650 Ry
     Harris-Foulkes estimate   =   -3021.14976339 Ry
     estimated scf accuracy    <       0.00000624 Ry

     total magnetization       =     1.06 Bohr mag/cell
     absolute magnetization    =     1.22 Bohr mag/cell

     iteration # 11     ecut=    40.42 Ry     beta=0.10
     Davidson diagonalization with overlap
     ethr =  1.57E-09,  avg # of iterations =  2.0

     negative rho (up, down):  1.189E-02 1.197E-02
 
     Magnetic moment per site:
     atom:    1    charge:    3.1244    magn:   -0.0001    constr:    0.0000
     atom:    2    charge:    2.0897    magn:    0.0001    constr:    0.0000
     atom:    3    charge:    3.1198    magn:   -0.0000    constr:    0.0000
     atom:    4    charge:    2.0867    magn:   -0.0001    constr:    0.0000
     atom:    5    charge:    3.1161    magn:   -0.0003    constr:    0.0000
     atom:    6    charge:    2.0795    magn:    0.0022    constr:    0.0000
     atom:    7    charge:    3.1166    magn:   -0.0046    constr:    0.0000
     atom:    8    charge:    2.0793    magn:    0.0233    constr:    0.0000
     atom:    9    charge:    3.1244    magn:   -0.0001    constr:    0.0000
     atom:   10    charge:    2.0898    magn:    0.0001    constr:    0.0000
     atom:   11    charge:    3.1198    magn:   -0.0000    constr:    0.0000
     atom:   12    charge:    2.0870    magn:   -0.0000    constr:    0.0000
     atom:   13    charge:    3.1150    magn:   -0.0002    constr:    0.0000
     atom:   14    charge:    2.0939    magn:    0.0022    constr:    0.0000
     atom:   15    charge:    3.1184    magn:   -0.0008    constr:    0.0000
     atom:   16    charge:    2.0828    magn:    0.0046    constr:    0.0000
     atom:   17    charge:    2.0624    magn:    0.0009    constr:    0.0000
     atom:   18    charge:    3.1239    magn:   -0.0000    constr:    0.0000
     atom:   19    charge:    2.0875    magn:    0.0000    constr:    0.0000
     atom:   20    charge:    2.0847    magn:    0.0001    constr:    0.0000
     atom:   21    charge:    2.0847    magn:    0.0001    constr:    0.0000
     atom:   22    charge:    3.1199    magn:    0.0000    constr:    0.0000
     atom:   23    charge:    2.0908    magn:    0.0003    constr:    0.0000
     atom:   24    charge:    2.0754    magn:   -0.0000    constr:    0.0000
     atom:   25    charge:    2.0867    magn:    0.0000    constr:    0.0000
     atom:   26    charge:    3.1127    magn:   -0.0003    constr:    0.0000
     atom:   27    charge:    2.0802    magn:    0.0026    constr:    0.0000
     atom:   28    charge:    2.0839    magn:    0.0008    constr:    0.0000
     atom:   29    charge:    2.0860    magn:    0.0009    constr:    0.0000
     atom:   30    charge:    3.1171    magn:   -0.0008    constr:    0.0000
     atom:   31    charge:    2.0825    magn:    0.0007    constr:    0.0000
     atom:   32    charge:    2.0829    magn:    0.0059    constr:    0.0000
     atom:   33    charge:    2.0624    magn:    0.0009    constr:    0.0000
     atom:   34    charge:    3.1239    magn:   -0.0000    constr:    0.0000
     atom:   35    charge:    2.0876    magn:    0.0000    constr:    0.0000
     atom:   36    charge:    2.0847    magn:    0.0001    constr:    0.0000
     atom:   37    charge:    2.0847    magn:    0.0001    constr:    0.0000
     atom:   38    charge:    3.1200    magn:    0.0000    constr:    0.0000
     atom:   39    charge:    2.0839    magn:    0.0002    constr:    0.0000
     atom:   40    charge:    2.0756    magn:   -0.0001    constr:    0.0000
     atom:   41    charge:    2.0870    magn:   -0.0000    constr:    0.0000
     atom:   42    charge:    3.1151    magn:   -0.0003    constr:    0.0000
     atom:   43    charge:    2.0803    magn:    0.0031    constr:    0.0000
     atom:   44    charge:    2.0851    magn:    0.0010    constr:    0.0000
     atom:   45    charge:    2.0858    magn:    0.0005    constr:    0.0000
     atom:   46    charge:    3.1148    magn:   -0.0007    constr:    0.0000
     atom:   47    charge:    2.0807    magn:    0.0045    constr:    0.0000
     atom:   48    charge:    2.0837    magn:    0.0138    constr:    0.0000
     atom:   49    charge:    2.0528    magn:    0.2365    constr:    0.0000
     atom:   50    charge:    0.6716    magn:    0.0567    constr:    0.0000
     atom:   51    charge:    0.4219    magn:    0.0009    constr:    0.0000
     atom:   52    charge:    0.4226    magn:    0.0009    constr:    0.0000
     atom:   53    charge:    0.3676    magn:    0.0236    constr:    0.0000
     atom:   54    charge:    0.4230    magn:    0.0006    constr:    0.0000

     total cpu time spent up to now is     3267.3 secs

     total energy              =   -3021.14976888 Ry
     Harris-Foulkes estimate   =   -3021.14976691 Ry
     estimated scf accuracy    <       0.00000361 Ry

     total magnetization       =     1.06 Bohr mag/cell
     absolute magnetization    =     1.22 Bohr mag/cell

     iteration # 12     ecut=    40.42 Ry     beta=0.10
     Davidson diagonalization with overlap
     ethr =  9.07E-10,  avg # of iterations =  3.0

     negative rho (up, down):  1.189E-02 1.197E-02
 
     Magnetic moment per site:
     atom:    1    charge:    3.1244    magn:   -0.0001    constr:    0.0000
     atom:    2    charge:    2.0897    magn:    0.0001    constr:    0.0000
     atom:    3    charge:    3.1198    magn:   -0.0000    constr:    0.0000
     atom:    4    charge:    2.0867    magn:   -0.0001    constr:    0.0000
     atom:    5    charge:    3.1161    magn:   -0.0003    constr:    0.0000
     atom:    6    charge:    2.0795    magn:    0.0022    constr:    0.0000
     atom:    7    charge:    3.1166    magn:   -0.0045    constr:    0.0000
     atom:    8    charge:    2.0793    magn:    0.0232    constr:    0.0000
     atom:    9    charge:    3.1244    magn:   -0.0001    constr:    0.0000
     atom:   10    charge:    2.0898    magn:    0.0001    constr:    0.0000
     atom:   11    charge:    3.1198    magn:   -0.0000    constr:    0.0000
     atom:   12    charge:    2.0870    magn:   -0.0000    constr:    0.0000
     atom:   13    charge:    3.1150    magn:   -0.0002    constr:    0.0000
     atom:   14    charge:    2.0939    magn:    0.0022    constr:    0.0000
     atom:   15    charge:    3.1184    magn:   -0.0008    constr:    0.0000
     atom:   16    charge:    2.0828    magn:    0.0046    constr:    0.0000
     atom:   17    charge:    2.0624    magn:    0.0008    constr:    0.0000
     atom:   18    charge:    3.1240    magn:   -0.0000    constr:    0.0000
     atom:   19    charge:    2.0875    magn:    0.0000    constr:    0.0000
     atom:   20    charge:    2.0847    magn:    0.0001    constr:    0.0000
     atom:   21    charge:    2.0847    magn:    0.0001    constr:    0.0000
     atom:   22    charge:    3.1199    magn:    0.0000    constr:    0.0000
     atom:   23    charge:    2.0908    magn:    0.0003    constr:    0.0000
     atom:   24    charge:    2.0754    magn:    0.0000    constr:    0.0000
     atom:   25    charge:    2.0867    magn:    0.0000    constr:    0.0000
     atom:   26    charge:    3.1127    magn:   -0.0003    constr:    0.0000
     atom:   27    charge:    2.0802    magn:    0.0026    constr:    0.0000
     atom:   28    charge:    2.0839    magn:    0.0008    constr:    0.0000
     atom:   29    charge:    2.0860    magn:    0.0009    constr:    0.0000
     atom:   30    charge:    3.1171    magn:   -0.0008    constr:    0.0000
     atom:   31    charge:    2.0825    magn:    0.0007    constr:    0.0000
     atom:   32    charge:    2.0829    magn:    0.0058    constr:    0.0000
     atom:   33    charge:    2.0624    magn:    0.0008    constr:    0.0000
     atom:   34    charge:    3.1239    magn:   -0.0000    constr:    0.0000
     atom:   35    charge:    2.0875    magn:    0.0000    constr:    0.0000
     atom:   36    charge:    2.0847    magn:    0.0001    constr:    0.0000
     atom:   37    charge:    2.0847    magn:    0.0001    constr:    0.0000
     atom:   38    charge:    3.1200    magn:    0.0000    constr:    0.0000
     atom:   39    charge:    2.0839    magn:    0.0002    constr:    0.0000
     atom:   40    charge:    2.0756    magn:   -0.0001    constr:    0.0000
     atom:   41    charge:    2.0870    magn:   -0.0000    constr:    0.0000
     atom:   42    charge:    3.1151    magn:   -0.0003    constr:    0.0000
     atom:   43    charge:    2.0803    magn:    0.0031    constr:    0.0000
     atom:   44    charge:    2.0851    magn:    0.0010    constr:    0.0000
     atom:   45    charge:    2.0858    magn:    0.0005    constr:    0.0000
     atom:   46    charge:    3.1147    magn:   -0.0007    constr:    0.0000
     atom:   47    charge:    2.0807    magn:    0.0045    constr:    0.0000
     atom:   48    charge:    2.0837    magn:    0.0137    constr:    0.0000
     atom:   49    charge:    2.0528    magn:    0.2362    constr:    0.0000
     atom:   50    charge:    0.6715    magn:    0.0568    constr:    0.0000
     atom:   51    charge:    0.4219    magn:    0.0009    constr:    0.0000
     atom:   52    charge:    0.4226    magn:    0.0009    constr:    0.0000
     atom:   53    charge:    0.3676    magn:    0.0236    constr:    0.0000
     atom:   54    charge:    0.4230    magn:    0.0006    constr:    0.0000

     total cpu time spent up to now is     3501.4 secs

     total energy              =   -3021.14977029 Ry
     Harris-Foulkes estimate   =   -3021.14976933 Ry
     estimated scf accuracy    <       0.00000201 Ry

     total magnetization       =     1.06 Bohr mag/cell
     absolute magnetization    =     1.22 Bohr mag/cell

     iteration # 13     ecut=    40.42 Ry     beta=0.10
     Davidson diagonalization with overlap
     ethr =  5.06E-10,  avg # of iterations =  3.0

     negative rho (up, down):  1.189E-02 1.196E-02
 
     Magnetic moment per site:
     atom:    1    charge:    3.1244    magn:   -0.0001    constr:    0.0000
     atom:    2    charge:    2.0897    magn:    0.0001    constr:    0.0000
     atom:    3    charge:    3.1198    magn:   -0.0000    constr:    0.0000
     atom:    4    charge:    2.0867    magn:   -0.0001    constr:    0.0000
     atom:    5    charge:    3.1161    magn:   -0.0003    constr:    0.0000
     atom:    6    charge:    2.0795    magn:    0.0022    constr:    0.0000
     atom:    7    charge:    3.1166    magn:   -0.0044    constr:    0.0000
     atom:    8    charge:    2.0793    magn:    0.0231    constr:    0.0000
     atom:    9    charge:    3.1244    magn:   -0.0001    constr:    0.0000
     atom:   10    charge:    2.0898    magn:    0.0001    constr:    0.0000
     atom:   11    charge:    3.1198    magn:   -0.0000    constr:    0.0000
     atom:   12    charge:    2.0870    magn:   -0.0000    constr:    0.0000
     atom:   13    charge:    3.1150    magn:   -0.0002    constr:    0.0000
     atom:   14    charge:    2.0939    magn:    0.0021    constr:    0.0000
     atom:   15    charge:    3.1184    magn:   -0.0008    constr:    0.0000
     atom:   16    charge:    2.0828    magn:    0.0046    constr:    0.0000
     atom:   17    charge:    2.0624    magn:    0.0006    constr:    0.0000
     atom:   18    charge:    3.1239    magn:   -0.0000    constr:    0.0000
     atom:   19    charge:    2.0875    magn:    0.0000    constr:    0.0000
     atom:   20    charge:    2.0847    magn:    0.0000    constr:    0.0000
     atom:   21    charge:    2.0847    magn:    0.0000    constr:    0.0000
     atom:   22    charge:    3.1199    magn:    0.0000    constr:    0.0000
     atom:   23    charge:    2.0908    magn:    0.0003    constr:    0.0000
     atom:   24    charge:    2.0754    magn:    0.0000    constr:    0.0000
     atom:   25    charge:    2.0867    magn:    0.0000    constr:    0.0000
     atom:   26    charge:    3.1127    magn:   -0.0003    constr:    0.0000
     atom:   27    charge:    2.0802    magn:    0.0026    constr:    0.0000
     atom:   28    charge:    2.0839    magn:    0.0008    constr:    0.0000
     atom:   29    charge:    2.0860    magn:    0.0009    constr:    0.0000
     atom:   30    charge:    3.1171    magn:   -0.0007    constr:    0.0000
     atom:   31    charge:    2.0826    magn:    0.0006    constr:    0.0000
     atom:   32    charge:    2.0829    magn:    0.0058    constr:    0.0000
     atom:   33    charge:    2.0624    magn:    0.0006    constr:    0.0000
     atom:   34    charge:    3.1239    magn:   -0.0000    constr:    0.0000
     atom:   35    charge:    2.0876    magn:    0.0000    constr:    0.0000
     atom:   36    charge:    2.0847    magn:    0.0000    constr:    0.0000
     atom:   37    charge:    2.0847    magn:    0.0000    constr:    0.0000
     atom:   38    charge:    3.1200    magn:    0.0000    constr:    0.0000
     atom:   39    charge:    2.0839    magn:    0.0002    constr:    0.0000
     atom:   40    charge:    2.0756    magn:   -0.0000    constr:    0.0000
     atom:   41    charge:    2.0870    magn:   -0.0000    constr:    0.0000
     atom:   42    charge:    3.1151    magn:   -0.0003    constr:    0.0000
     atom:   43    charge:    2.0803    magn:    0.0031    constr:    0.0000
     atom:   44    charge:    2.0851    magn:    0.0010    constr:    0.0000
     atom:   45    charge:    2.0858    magn:    0.0005    constr:    0.0000
     atom:   46    charge:    3.1148    magn:   -0.0007    constr:    0.0000
     atom:   47    charge:    2.0807    magn:    0.0044    constr:    0.0000
     atom:   48    charge:    2.0837    magn:    0.0137    constr:    0.0000
     atom:   49    charge:    2.0528    magn:    0.2358    constr:    0.0000
     atom:   50    charge:    0.6715    magn:    0.0570    constr:    0.0000
     atom:   51    charge:    0.4219    magn:    0.0009    constr:    0.0000
     atom:   52    charge:    0.4226    magn:    0.0009    constr:    0.0000
     atom:   53    charge:    0.3677    magn:    0.0235    constr:    0.0000
     atom:   54    charge:    0.4230    magn:    0.0006    constr:    0.0000

     total cpu time spent up to now is     3735.1 secs

     End of self-consistent calculation

 ------ SPIN UP ------------


          k = 0.0000 0.0000 0.0000 ( 34665 PWs)   bands (ev):

   -58.2958 -58.2608 -57.3775 -57.3718 -57.3388 -57.3010 -57.2494 -57.0775
   -57.0540 -57.0486 -57.0102 -56.9118 -56.8905 -56.8766 -56.7916 -56.7533
   -34.7410 -34.5644 -34.5357 -34.5024 -34.4074 -34.3506 -33.8725 -33.8601
   -33.7418 -33.6690 -33.6271 -33.5841 -33.5519 -33.5450 -33.5391 -33.5326
   -33.5204 -33.5061 -33.4807 -33.4786 -33.4645 -33.4608 -33.4603 -33.4392
   -33.3312 -33.3267 -33.3213 -33.3186 -33.3035 -33.2777 -33.2723 -33.2526
   -33.2319 -33.2270 -33.2263 -33.2170 -33.1943 -33.1664 -33.1330 -33.1304
   -33.0926 -33.0697 -33.0405 -33.0192 -33.0061 -32.9806 -32.9388 -32.8731
   -18.4611 -18.0278 -17.8029 -17.7036 -17.5418 -17.5216 -17.4758 -17.3757
   -17.3482 -17.2491 -17.0365 -17.0160 -17.0089 -16.9874 -16.9235 -16.8460
   -16.8275 -16.7893 -16.7315 -16.6944 -16.6793 -16.6454 -16.5843 -16.5801
   -16.4575 -16.4091 -16.3909 -16.3489 -16.3171 -16.1386 -16.0784 -15.5907
   -15.5299 -11.2329  -6.0397  -5.4882  -5.2740  -5.1945  -5.0859  -5.0093
    -4.9723  -4.9608  -4.8704  -4.7260  -4.6415  -4.5914  -4.5771  -4.5028
    -4.4217  -4.4052  -4.3436  -4.3075  -4.2259  -4.2105  -4.1901  -4.1332
    -4.0220  -4.0140  -3.9711  -3.8979  -3.8834  -3.8774  -3.8748  -3.8208
    -3.7680  -3.7447  -3.7288  -3.6797  -3.6203  -3.5744  -3.5333  -3.5196
    -3.5112  -3.4106  -3.3981  -3.3509  -3.2642  -3.2252  -3.1807  -3.0786
    -2.9134  -2.8881  -2.8401  -2.7936  -2.7371  -2.6851  -2.6639  -2.6544
    -2.6240  -2.5283  -2.4896  -2.4297  -2.3691  -2.3209  -2.2435  -2.2208
    -2.2150  -2.1510  -2.0608  -2.0320  -1.9801  -1.9500  -1.9202  -1.8875
    -1.8437  -1.7280  -1.6852  -1.6546  -1.6307  -1.6207  -1.5715  -1.4905
    -1.4104  -1.3575  -1.3432  -1.3270  -1.3055  -1.2590  -1.2134  -1.1607
    -1.1507  -1.1017  -1.0981  -1.0785  -1.0520  -0.9694  -0.8643  -0.8183
    -0.7994  -0.6841  -0.6770  -0.6151  -0.5431  -0.5009  -0.4732  -0.1769
     1.0349   1.1318   1.4266   1.7053   1.8133   1.9311   1.9791   2.0253
[...]
    -1.7185  -1.4993  -1.4557  -1.4446  -1.4247  -1.3889  -1.3097  -1.1375
    -1.1332  -1.0780  -1.0594  -1.0429  -0.9569  -0.9005  -0.8600  -0.7768
    -0.7240  -0.7170  -0.6885  -0.6598  -0.5880  -0.5637  -0.5502   0.3270
     1.6117   1.6151   1.6278   1.6331   1.9755   1.9763   2.1052   2.1063
     2.2896   2.3102   2.3234   2.4050   2.4285   2.4983   2.5844   2.6442
     2.6661   2.7107   2.7940   2.8275   2.8838   2.9387   2.9591   2.9863
     3.0018   3.0093   3.0501   3.1083   3.1230   3.2196   3.2452   3.2544
     3.2701   3.2941   3.3512   3.3975   3.4110   3.4164   3.4730   3.4827
     3.4937   3.5212   3.5359   3.5904   3.6472   3.6633   3.7871   3.8879
     3.9246   3.9338   4.1506   4.1509   4.6018   4.6303   4.6528   4.7383
     4.8953   4.9090   4.9419   5.0928   5.1711   5.1761   5.1955   5.4578
     5.6839   5.6928   5.7043   5.9366   5.9419   5.9759   6.0256   6.0288
     6.1038   6.1162   6.1846   6.2751   6.2810   6.2876   6.3934   6.4710
     6.5095   6.6170   7.0510   7.2145   7.3216   7.3844   7.5520   7.5888
     7.7115   7.7650   7.9123   8.1067   8.2899   8.3333   8.4439   8.8641
     9.0037   9.0603   9.2088

          k =-0.0253 0.0280 0.0000 ( 34687 PWs)   bands (ev):

   -58.2937 -58.2633 -57.3754 -57.3705 -57.3411 -57.3022 -57.2499 -57.0813
   -57.0552 -57.0484 -57.0135 -56.9117 -56.9101 -56.8796 -56.7926 -56.7594
   -34.7161 -34.5627 -34.5377 -34.4955 -34.4140 -34.3778 -33.8473 -33.8367
   -33.7219 -33.6551 -33.6209 -33.5819 -33.5560 -33.5419 -33.5385 -33.5293
   -33.5209 -33.5089 -33.5072 -33.4872 -33.4799 -33.4573 -33.4547 -33.4354
   -33.3259 -33.3168 -33.3076 -33.3068 -33.3006 -33.2954 -33.2714 -33.2525
   -33.2416 -33.2288 -33.2286 -33.2197 -33.2044 -33.1929 -33.1559 -33.1250
   -33.1214 -33.0695 -33.0473 -33.0286 -33.0099 -32.9886 -32.9668 -32.9045
   -18.3590 -17.9292 -17.7645 -17.7214 -17.5115 -17.5046 -17.3627 -17.3567
   -17.3331 -17.3031 -17.0996 -17.0566 -16.9722 -16.9271 -16.8610 -16.8186
   -16.7803 -16.7363 -16.7209 -16.6574 -16.6506 -16.5688 -16.5319 -16.4734
   -16.4492 -16.3938 -16.3530 -16.3350 -16.1458 -16.1117 -15.9110 -15.6010
   -15.5523 -10.8177  -5.8298  -5.2980  -5.1319  -5.1133  -4.9822  -4.9407
    -4.9021  -4.8109  -4.6870  -4.6658  -4.6247  -4.5245  -4.4866  -4.4299
    -4.3970  -4.3019  -4.2783  -4.2414  -4.1906  -4.1743  -4.1301  -4.1173
    -4.0905  -4.0604  -4.0151  -3.9826  -3.9439  -3.9025  -3.8796  -3.7875
    -3.7743  -3.7124  -3.6913  -3.6246  -3.6007  -3.5978  -3.4971  -3.3821
    -3.3346  -3.3091  -3.2837  -3.2519  -3.2126  -3.1719  -3.1020  -3.0850
    -2.9096  -2.8716  -2.8117  -2.7665  -2.7102  -2.6749  -2.6639  -2.6062
    -2.5760  -2.4980  -2.4884  -2.4307  -2.4044  -2.3462  -2.2768  -2.2532
    -2.2042  -2.1816  -2.0935  -2.0311  -1.9512  -1.9297  -1.9061  -1.8397
    -1.8284  -1.7795  -1.7335  -1.6736  -1.6236  -1.5834  -1.5498  -1.4982
    -1.4642  -1.4246  -1.3950  -1.3637  -1.3505  -1.3342  -1.3018  -1.2737
    -1.1929  -1.1137  -1.0567  -0.9996  -0.9748  -0.9416  -0.9182  -0.8737
    -0.8314  -0.8085  -0.6216  -0.5992  -0.5752  -0.5120  -0.2542   0.3503
     1.1636   1.2572   1.4412   1.8305   1.8700   1.9371   1.9736   2.0413
     2.0524   2.2017   2.3126   2.3583   2.3996   2.4434   2.4665   2.5161
     2.5361   2.5605   2.6012   2.6616   2.7100   2.7336   2.7893   2.8438
     2.8887   2.9260   2.9425   2.9862   3.0026   3.0269   3.0529   3.1056
     3.1824   3.2031   3.2455   3.2706   3.3062   3.3481   3.4417   3.4769
     3.5068   3.5697   3.6233   3.6546   3.6750   3.7560   3.8329   3.8770
     4.0240   4.2205   4.2967   4.4476   4.6364   4.7345   4.8553   4.8732
     5.0130   5.0373   5.1246   5.2095   5.2520   5.3665   5.4717   5.5599
     5.6544   5.7061   5.7213   5.8147   5.8610   5.8949   5.9209   5.9435
     5.9777   6.0017   6.0742   6.1250   6.1875   6.2928   6.4098   6.4600
     6.4735   6.5882   6.7563   6.8138   7.3717   7.4934   7.7832   7.8873
     8.0848   8.2193   8.4903   8.5312   8.7781   8.8831   9.0720   9.3087
     9.3730   9.5252   9.6112

          k =-0.0253 0.0560 0.0000 ( 34699 PWs)   bands (ev):

   -58.2873 -58.2697 -57.3722 -57.3652 -57.3475 -57.3044 -57.2491 -57.0808
   -57.0557 -57.0437 -57.0184 -56.9122 -56.9037 -56.8860 -56.7858 -56.7662
   -34.6462 -34.5574 -34.5430 -34.4785 -34.4510 -34.4314 -33.7775 -33.7675
   -33.6712 -33.6398 -33.6041 -33.5805 -33.5765 -33.5754 -33.5641 -33.5574
   -33.5310 -33.5204 -33.5076 -33.4847 -33.4726 -33.4539 -33.4446 -33.4010
   -33.3606 -33.3139 -33.3105 -33.2990 -33.2733 -33.2638 -33.2475 -33.2473
   -33.2464 -33.2371 -33.2337 -33.2202 -33.2112 -33.2057 -33.1703 -33.1522
   -33.1088 -33.0666 -33.0639 -33.0407 -33.0255 -33.0124 -33.0007 -32.9750
   -18.2012 -17.7913 -17.7690 -17.5998 -17.5895 -17.4452 -17.3826 -17.3587
   -17.2372 -17.2296 -17.1919 -17.0468 -16.9371 -16.9082 -16.8701 -16.8283
   -16.7860 -16.7327 -16.7219 -16.7065 -16.6724 -16.5845 -16.5369 -16.5202
   -16.4889 -16.4299 -16.3998 -16.3941 -16.2084 -16.1923 -15.9099 -15.6297
   -15.6062 -10.8196  -5.5946  -5.0706  -5.0134  -4.9450  -4.9123  -4.8065
    -4.7845  -4.7467  -4.6767  -4.6605  -4.5149  -4.4980  -4.4349  -4.3850
    -4.3668  -4.3584  -4.3099  -4.2666  -4.2393  -4.2295  -4.2011  -4.1662
    -4.1212  -4.1137  -4.0596  -4.0238  -3.9827  -3.9634  -3.9207  -3.8791
    -3.8212  -3.7915  -3.6999  -3.6263  -3.5829  -3.5266  -3.4506  -3.3733
    -3.3560  -3.2804  -3.1766  -3.1496  -3.1128  -3.1010  -3.0488  -3.0134
    -2.9724  -2.9161  -2.8338  -2.7832  -2.7519  -2.6943  -2.6003  -2.5832
    -2.5141  -2.4990  -2.4478  -2.3804  -2.3651  -2.3074  -2.2891  -2.2473
    -2.1753  -2.1247  -2.1102  -2.0777  -2.0392  -1.9957  -1.9743  -1.9382
    -1.9206  -1.8951  -1.8821  -1.8385  -1.7580  -1.6906  -1.6792  -1.5820
    -1.5606  -1.5330  -1.5067  -1.4725  -1.4326  -1.3999  -1.3689  -1.3089
    -1.2750  -1.2098  -1.1449  -1.0241  -0.9946  -0.9582  -0.9264  -0.8464
    -0.7538  -0.7248  -0.6942  -0.6295  -0.5992  -0.5450  -0.3514   0.3317
     1.2979   1.4798   1.5751   1.7692   1.7845   1.9228   1.9896   2.0695
     2.2762   2.2872   2.3540   2.3900   2.4268   2.4988   2.5343   2.5595
     2.5844   2.6078   2.6658   2.7177   2.7325   2.7761   2.8186   2.8691
     2.8937   2.9291   2.9739   3.0190   3.0443   3.0577   3.0676   3.1213
     3.1703   3.2103   3.2295   3.3006   3.3292   3.3576   3.3890   3.4692
     3.5211   3.5459   3.6238   3.6442   3.6785   3.7386   3.7568   3.8104
     3.9067   4.1113   4.4041   4.5121   4.7272   4.8703   4.9212   4.9725
     5.0069   5.1016   5.1985   5.2192   5.3470   5.3992   5.4452   5.5394
     5.5754   5.6107   5.6632   5.7207   5.7504   5.8152   5.8315   5.8719
     5.9374   5.9527   5.9881   6.1017   6.1440   6.2211   6.3376   6.4397
     6.4607   6.4833   6.7270   6.7781   7.0677   7.2798   7.6635   7.8232
     8.0851   8.2299   8.3137   8.4862   8.7657   8.8941   9.0123   9.1735
     9.3712   9.5544   9.6434

          k =-0.0506 0.0280 0.0000 ( 34685 PWs)   bands (ev):

   -58.2937 -58.2633 -57.3746 -57.3714 -57.3411 -57.3022 -57.2499 -57.0813
   -57.0548 -57.0487 -57.0135 -56.9117 -56.9101 -56.8796 -56.7926 -56.7594
   -34.7169 -34.5626 -34.5378 -34.4940 -34.4140 -34.3779 -33.8478 -33.8408
   -33.7221 -33.6356 -33.6207 -33.5820 -33.5611 -33.5437 -33.5424 -33.5347
   -33.5211 -33.5163 -33.5061 -33.4870 -33.4800 -33.4558 -33.4452 -33.4366
   -33.3260 -33.3096 -33.3085 -33.3066 -33.2954 -33.2949 -33.2716 -33.2544
   -33.2515 -33.2287 -33.2278 -33.2225 -33.2045 -33.1924 -33.1519 -33.1250
   -33.1218 -33.0696 -33.0473 -33.0355 -33.0082 -32.9886 -32.9668 -32.9045
   -18.2506 -17.8526 -17.8394 -17.6889 -17.5758 -17.4440 -17.4262 -17.3328
   -17.3050 -17.2375 -17.1684 -17.0740 -16.9847 -16.9397 -16.9108 -16.8835
   -16.7961 -16.7555 -16.7444 -16.6845 -16.6214 -16.5376 -16.5090 -16.4775
   -16.4491 -16.3947 -16.3762 -16.3409 -16.1422 -16.1120 -15.9119 -15.5991
   -15.5524 -10.8175  -5.5285  -5.1755  -5.1425  -5.1086  -4.9374  -4.8580
    -4.7559  -4.6977  -4.6706  -4.6409  -4.5894  -4.5747  -4.5204  -4.3957
    -4.3529  -4.3107  -4.2307  -4.2063  -4.1700  -4.1551  -4.1368  -4.0727
    -4.0423  -4.0027  -3.9658  -3.9246  -3.8768  -3.8273  -3.8048  -3.7793
    -3.7102  -3.6622  -3.6449  -3.6104  -3.5796  -3.5241  -3.4768  -3.4466
    -3.3711  -3.3586  -3.2967  -3.2538  -3.1928  -3.1386  -3.1071  -3.0462
    -2.9976  -2.9686  -2.8914  -2.8260  -2.7466  -2.6872  -2.6774  -2.6557
    -2.6052  -2.5831  -2.5694  -2.5134  -2.5048  -2.3877  -2.3287  -2.3210
    -2.2599  -2.1898  -2.1742  -2.1492  -2.0699  -1.9999  -1.9930  -1.9339
    -1.9122  -1.8822  -1.8017  -1.7112  -1.6979  -1.6730  -1.6027  -1.5715
    -1.5117  -1.4597  -1.4393  -1.3835  -1.3673  -1.3164  -1.3007  -1.2489
    -1.2291  -1.1078  -1.0465  -1.0238  -0.9994  -0.9453  -0.9127  -0.8660
    -0.8166  -0.7851  -0.7130  -0.6708  -0.6495  -0.5255  -0.3800   0.3358
     1.1505   1.3505   1.4756   1.5764   1.9445   1.9546   1.9768   2.0687
     2.1352   2.2102   2.2651   2.3408   2.4173   2.4509   2.5391   2.5573
     2.6033   2.6621   2.6989   2.7119   2.7658   2.8393   2.8622   2.8927
     2.9514   2.9574   2.9916   2.9955   3.0025   3.1127   3.1201   3.1487
     3.1963   3.2255   3.2998   3.3204   3.3661   3.3933   3.4174   3.4658
     3.4802   3.5580   3.6126   3.6775   3.7531   3.7897   3.8099   3.9112
     3.9695   4.0722   4.1199   4.4180   4.5210   4.6674   4.7589   4.8200
     4.8522   4.9248   4.9769   5.2987   5.3392   5.4217   5.5373   5.5698
     5.6506   5.7775   5.7974   5.8645   5.9066   5.9239   5.9591   6.0634
     6.1044   6.1753   6.2606   6.3436   6.3946   6.4023   6.4529   6.5007
     6.5520   6.5620   6.7202   6.9120   7.0606   7.2170   7.5592   7.6047
     7.7170   8.2075   8.4063   8.4732   8.8686   8.9323   9.0599   9.2172
     9.4241   9.6033   9.6803

          k =-0.0506 0.0560 0.0000 ( 34596 PWs)   bands (ev):

   -58.2873 -58.2697 -57.3718 -57.3655 -57.3475 -57.3045 -57.2491 -57.0808
   -57.0555 -57.0439 -57.0184 -56.9122 -56.9037 -56.8860 -56.7859 -56.7662
   -34.6468 -34.5574 -34.5429 -34.4772 -34.4512 -34.4310 -33.7778 -33.7720
   -33.6713 -33.6241 -33.6040 -33.5797 -33.5781 -33.5753 -33.5585 -33.5574
   -33.5343 -33.5208 -33.5196 -33.4849 -33.4818 -33.4540 -33.4330 -33.4027
   -33.3610 -33.3137 -33.2981 -33.2953 -33.2758 -33.2659 -33.2487 -33.2471
   -33.2460 -33.2369 -33.2333 -33.2303 -33.2119 -33.2059 -33.1695 -33.1483
   -33.1088 -33.0667 -33.0639 -33.0406 -33.0297 -33.0130 -33.0007 -32.9748
   -18.0981 -17.8091 -17.6909 -17.6034 -17.5875 -17.5470 -17.3699 -17.3589
   -17.2084 -17.1958 -17.1062 -17.0844 -16.9672 -16.9017 -16.8573 -16.8317
   -16.8133 -16.7964 -16.7512 -16.7251 -16.7106 -16.6154 -16.5864 -16.4962
   -16.4856 -16.4272 -16.4098 -16.4006 -16.2078 -16.1887 -15.9099 -15.6285
   -15.6066 -10.8194  -5.2920  -4.9817  -4.9310  -4.9228  -4.7732  -4.7656
    -4.7064  -4.6297  -4.5161  -4.4961  -4.4904  -4.4081  -4.3927  -4.3704
    -4.3511  -4.3173  -4.2995  -4.2406  -4.1915  -4.1660  -4.1621  -4.1079
    -4.0932  -4.0735  -4.0359  -3.9916  -3.9712  -3.9033  -3.8807  -3.8212
    -3.7718  -3.7129  -3.6756  -3.6307  -3.6004  -3.5520  -3.4952  -3.4255
    -3.3880  -3.3094  -3.2510  -3.2209  -3.1253  -3.1222  -3.0706  -3.0440
    -2.9857  -2.9677  -2.9481  -2.8962  -2.7917  -2.7544  -2.7393  -2.6954
    -2.6195  -2.5768  -2.5371  -2.4943  -2.4679  -2.4040  -2.3798  -2.3602
    -2.3402  -2.2793  -2.1837  -2.1624  -2.1364  -2.1179  -2.0918  -2.0377
    -2.0030  -1.9613  -1.9361  -1.8645  -1.8388  -1.7718  -1.7200  -1.6454
    -1.5547  -1.5388  -1.5278  -1.4863  -1.4326  -1.3749  -1.3423  -1.2942
    -1.2302  -1.1608  -1.0655  -1.0122  -0.9786  -0.8914  -0.8436  -0.8354
    -0.7805  -0.6972  -0.6834  -0.6627  -0.6459  -0.5431  -0.4653   0.3343
     1.3185   1.5081   1.6569   1.6786   1.8633   2.0143   2.0429   2.0784
     2.2540   2.2672   2.3714   2.3877   2.4438   2.4727   2.5592   2.5967
     2.6611   2.7067   2.7408   2.7553   2.8224   2.8538   2.8821   2.9145
     2.9462   2.9626   3.0176   3.0525   3.0840   3.1247   3.1558   3.2015
     3.2065   3.2613   3.2956   3.3355   3.3446   3.3881   3.4266   3.4780
     3.4916   3.5599   3.5892   3.6515   3.6780   3.7545   3.8155   3.8513
     3.8932   3.9713   4.1633   4.5150   4.6074   4.6268   4.7658   4.8336
     4.8992   4.9761   5.0210   5.1975   5.3127   5.3872   5.4228   5.4550
     5.6050   5.6256   5.6789   5.7276   5.8900   5.9075   5.9980   6.0166
     6.0783   6.1193   6.1787   6.2131   6.3132   6.3460   6.4175   6.4342
     6.5502   6.6228   6.7596   6.8165   7.1736   7.3487   7.4946   7.6107
     7.9298   8.0068   8.0959   8.3680   8.6027   8.7111   8.7995   9.0352
     9.1842   9.3320   9.4347

     the Fermi energy is    -0.2804 ev

!    total energy              =   -3021.14977328 Ry
     Harris-Foulkes estimate   =   -3021.14977047 Ry
     estimated scf accuracy    <       0.00000033 Ry

     The total energy is the sum of the following terms:

     one-electron contribution =  -40438.99519002 Ry
     hartree contribution      =   20290.99264974 Ry
     xc contribution           =    -553.21398851 Ry
     ewald contribution        =   17680.08653198 Ry
     smearing contrib. (-TS)   =      -0.01977648 Ry

     total magnetization       =     1.06 Bohr mag/cell
     absolute magnetization    =     1.22 Bohr mag/cell

     convergence has been achieved in  13 iterations

     Forces acting on atoms (Ry/au):


     negative rho (up, down):  1.189E-02 1.196E-02
     atom    1 type  1   force =     0.00019288   -0.00082275   -0.10467764
     atom    2 type  2   force =     0.00019140    0.00073026    0.04004526
     atom    3 type  1   force =     0.00076241   -0.00169545   -0.02054636
     atom    4 type  2   force =    -0.00327210    0.00321227   -0.00325080
     atom    5 type  1   force =     0.00033057    0.00001718    0.00044132
     atom    6 type  2   force =    -0.00010903    0.00002868    0.00028569
     atom    7 type  1   force =    -0.00014124    0.00181689    0.00015765
     atom    8 type  2   force =    -0.00003547   -0.00004938    0.00021831
     atom    9 type  1   force =    -0.00001822    0.00060154   -0.10480926
     atom   10 type  2   force =     0.00034626   -0.00020666    0.03603633
     atom   11 type  1   force =     0.00070524    0.00190460    0.00265131
     atom   12 type  2   force =    -0.00518874   -0.00265937   -0.00522102
     atom   13 type  1   force =     0.00038964    0.00023366   -0.00019385
     atom   14 type  2   force =     0.00022957    0.00014071   -0.00029697
     atom   15 type  1   force =    -0.00042636   -0.00011637   -0.00005063
     atom   16 type  2   force =    -0.00062396    0.00052350   -0.00116758
     atom   17 type  2   force =    -0.00002802    0.00002741    0.06653425
     atom   18 type  1   force =     0.00008410    0.00011262    0.13152110
     atom   19 type  2   force =     0.00022010   -0.00047169   -0.08524351
     atom   20 type  2   force =    -0.05791317    0.00014954   -0.03607987
     atom   21 type  2   force =     0.05781434    0.00001471   -0.03604522
     atom   22 type  1   force =    -0.00041282    0.00078676    0.08018940
     atom   23 type  2   force =     0.00019356   -0.00000970    0.00007844
     atom   24 type  2   force =     0.00067671    0.00196664   -0.03470873
     atom   25 type  2   force =     0.00415262    0.00339311   -0.00510893
     atom   26 type  1   force =     0.00041461   -0.00000216    0.00012300
     atom   27 type  2   force =    -0.00009062   -0.00009893    0.00004535
     atom   28 type  2   force =     0.00003223   -0.00013308   -0.00000477
     atom   29 type  2   force =     0.00003565   -0.00005675    0.00006686
     atom   30 type  1   force =     0.00007752   -0.00009378   -0.00021048
     atom   31 type  2   force =     0.00024179    0.00009907    0.00025787
     atom   32 type  2   force =    -0.00023452    0.00031786    0.00074824
     atom   33 type  2   force =    -0.00016925    0.00010777    0.06627676
     atom   34 type  1   force =     0.00007627    0.00001687    0.13128106
     atom   35 type  2   force =     0.00021678   -0.00010070   -0.08482301
     atom   36 type  2   force =    -0.05780746    0.00007628   -0.03562762
     atom   37 type  2   force =     0.05801136   -0.00010307   -0.03608081
     atom   38 type  1   force =    -0.00035010   -0.00022766    0.07988757
     atom   39 type  2   force =     0.00011181   -0.00018752   -0.00013072
     atom   40 type  2   force =     0.00048861    0.00131714   -0.03527973
     atom   41 type  2   force =     0.00594674   -0.00241238   -0.00724216
     atom   42 type  1   force =     0.00026974    0.00001474    0.00008987
     atom   43 type  2   force =    -0.00021411   -0.00016638    0.00005999
     atom   44 type  2   force =     0.00002034   -0.00011771   -0.00006405
     atom   45 type  2   force =     0.00000150   -0.00015381    0.00007813
     atom   46 type  1   force =    -0.00010327    0.00007011   -0.00017211
     atom   47 type  2   force =    -0.00020086   -0.00006235    0.00033836
     atom   48 type  2   force =     0.00022717    0.00016234   -0.00034350
     atom   49 type  2   force =    -0.00141160   -0.00686455   -0.00026400
     atom   50 type  3   force =     0.00142376    0.00438912    0.00339591
     atom   51 type  4   force =    -0.00092101   -0.00074536   -0.00057829
     atom   52 type  4   force =    -0.00068160   -0.00049640    0.00003519
     atom   53 type  4   force =    -0.00246661   -0.00361545   -0.00235152
     atom   54 type  4   force =    -0.00106513   -0.00056197   -0.00027006

     Total force =     0.342494     Total SCF correction =     0.001373
 !ASE

     Writing output data file calc.save
 
     init_run     :     64.77s CPU     75.13s WALL (       1 calls)
     electrons    :   3273.52s CPU   3659.75s WALL (       1 calls)
     forces       :     48.53s CPU     50.77s WALL (       1 calls)

     Called by init_run:
     wfcinit      :     56.84s CPU     66.48s WALL (       1 calls)
     potinit      :      1.35s CPU      1.63s WALL (       1 calls)

     Called by electrons:
     c_bands      :   2862.22s CPU   3182.17s WALL (      13 calls)
     sum_band     :    352.61s CPU    412.90s WALL (      13 calls)
     v_of_rho     :     14.67s CPU     17.43s WALL (      14 calls)
     newd         :     47.43s CPU     50.89s WALL (      14 calls)
     mix_rho      :      0.54s CPU      0.70s WALL (      13 calls)
     vdW_energy   :      3.12s CPU      3.58s WALL (      15 calls)
     vdW_ffts     :      3.90s CPU      4.86s WALL (      30 calls)
     vdW_v        :      1.41s CPU      1.57s WALL (      15 calls)

     Called by c_bands:
     init_us_2    :      7.99s CPU      8.55s WALL (    1120 calls)
     cegterg      :   2813.87s CPU   3131.21s WALL (     520 calls)

     Called by *egterg:
     h_psi        :   1103.69s CPU   1333.94s WALL (    2454 calls)
     s_psi        :    189.78s CPU    194.85s WALL (    2454 calls)
     g_psi        :      5.51s CPU      5.64s WALL (    1894 calls)
     cdiaghg      :    889.08s CPU    906.49s WALL (    2414 calls)

     Called by h_psi:
     add_vuspsi   :    191.36s CPU    196.79s WALL (    2454 calls)

     General routines
     calbec       :    284.02s CPU    288.73s WALL (    3014 calls)
     fft          :      7.95s CPU      9.79s WALL (    1191 calls)
     ffts         :      0.05s CPU      0.07s WALL (      54 calls)
     fftw         :    629.21s CPU    902.28s WALL (  905944 calls)
     interpolate  :      0.39s CPU      0.59s WALL (      54 calls)
     davcio       :      0.15s CPU      3.52s WALL (      40 calls)
 
     Parallel routines
     fft_scatter  :    318.22s CPU    485.40s WALL (  907189 calls)
 
     PWSCF        :     0h56m CPU        1h 3m WALL

 
   This run was terminated on:  21:48:57  25Feb2018            

=------------------------------------------------------------------------------=
   JOB DONE.
=------------------------------------------------------------------------------=
