  python dir          : /home/vossj/suncat/lib/python2.7/site-packages/espresso
  espresso dir        : /home/vossj/suncat/esdld/espresso-dynpy-beef/bin
  pseudo dir          : /home/alatimer/bin/psp/esp_psp_w_gbrvRu/
  ase-espresso py git : ffa2778-git



     Program PWSCF v.5.1rc2 (svn rev. ) starts on 13Feb2018 at  5:33:44 

     This program is part of the open-source Quantum ESPRESSO suite
     for quantum simulation of materials; please cite
         "P. Giannozzi et al., J. Phys.:Condens. Matter 21 395502 (2009);
          URL http://www.quantum-espresso.org", 
     in publications or presentations arising from this work. More details at
     http://www.quantum-espresso.org/quote

     Parallel version (MPI), running on    16 processors
     R & G space division:  proc/nbgrp/npool/nimage =      16
     Reading input from pw.inp
     Message from routine read_cards :
     DEPRECATED: no units specified in CELL_PARAMETERS card

     Current dimensions of program PWSCF are:
     Max number of different atomic species (ntypx) = 10
     Max number of k-points (npk) =  40000
     Max angular momentum in pseudopotentials (lmaxx) =  3

     **************************************************************************
     Initializing libbeef V0.1.1 with the BEEF-vdW functional.
     Citation: Wellendorff et al., PRB 85, 235149 (2012).
     **************************************************************************


     IMPORTANT: XC functional enforced from input :
     Exchange-correlation      = BEEF ( 1  4 27 13 2)
     Any further DFT definition will be discarded
     Please, verify this is what you really want


     Subspace diagonalization in iterative solution of the eigenvalue problem:
     a serial algorithm will be used

 
     Parallelization info
     --------------------
     sticks:   dense  smooth     PW     G-vecs:    dense   smooth      PW
     Min         281     112     31                68535    17318    2565
     Max         282     113     32                68545    17369    2582
     Sum        4501    1795    503              1096637   277353   41113
 
     Generating pointlists ...
     new r_m :   0.4125 (alat units)  0.7795 (a.u.) for type    1
     new r_m :   0.3995 (alat units)  0.7549 (a.u.) for type    2
     new r_m :   0.4125 (alat units)  0.7795 (a.u.) for type    3
     new r_m :   0.3995 (alat units)  0.7549 (a.u.) for type    4


     bravais-lattice index     =            0
     lattice parameter (alat)  =       1.8897  a.u.
     unit-cell volume          =    7990.9933 (a.u.)^3
     number of atoms/cell      =           54
     number of atomic types    =            4
     number of electrons       =       398.00
     number of Kohn-Sham states=          299
     kinetic-energy cutoff     =      40.4243  Ry
     charge density cutoff     =     404.2426  Ry
     convergence threshold     =      7.3E-07
     mixing beta               =       0.1000
     number of iterations used =           10  plain     mixing
     Exchange-correlation      = BEEF ( 1  4 27 13 2)
     nstep                     =           50


     celldm(1)=   1.889726  celldm(2)=   0.000000  celldm(3)=   0.000000
     celldm(4)=   0.000000  celldm(5)=   0.000000  celldm(6)=   0.000000

     crystal axes: (cart. coord. in units of alat)
               a(1) = (   6.590708   0.000000   0.000000 )  
               a(2) = (   0.000000   5.950229   0.000000 )  
               a(3) = (   0.000000   0.000000  30.195235 )  

     reciprocal axes: (cart. coord. in units 2 pi/alat)
               b(1) = (  0.151729  0.000000  0.000000 )  
               b(2) = (  0.000000  0.168061  0.000000 )  
               b(3) = (  0.000000  0.000000  0.033118 )  


     PseudoPot. # 1 for Ti read from file:
     /home/alatimer/bin/psp/esp_psp_w_gbrvRu/Ti.UPF
     MD5 check sum: 8e4df49b7f0d34bbd5052bf3f5ea0213
     Pseudo is Ultrasoft, Zval = 12.0
     Generated by new atomic code, or converted to UPF format
     Using radial grid of  851 points,  6 beta functions with: 
                l(1) =   0
                l(2) =   0
                l(3) =   1
                l(4) =   1
                l(5) =   2
                l(6) =   2
     Q(r) pseudized with  8 coefficients,  rinner =    1.000   1.000   1.000
                                                       1.000   1.000

     PseudoPot. # 2 for  O read from file:
     /home/alatimer/bin/psp/esp_psp_w_gbrvRu/O.UPF
     MD5 check sum: e057bbcf3229fb5d8c36c0c92f9568b4
     Pseudo is Ultrasoft + core correction, Zval =  6.0
     Generated using "atomic" code by A. Dal Corso  v.5.0.2 svn rev. 9415
     Using radial grid of 1095 points,  4 beta functions with: 
                l(1) =   0
                l(2) =   0
                l(3) =   1
                l(4) =   1
     Q(r) pseudized with 0 coefficients 


     PseudoPot. # 3 for  C read from file:
     /home/alatimer/bin/psp/esp_psp_w_gbrvRu/C.UPF
     MD5 check sum: ab446d787031eba755f1d5ee46644bb0
     Pseudo is Ultrasoft + core correction, Zval =  4.0
     Generated using "atomic" code by A. Dal Corso  v.5.0.2 svn rev. 9415
     Using radial grid of 1073 points,  4 beta functions with: 
                l(1) =   0
                l(2) =   0
                l(3) =   1
                l(4) =   1
     Q(r) pseudized with 0 coefficients 


     PseudoPot. # 4 for  H read from file:
     /home/alatimer/bin/psp/esp_psp_w_gbrvRu/H.UPF
     MD5 check sum: bd57da0722753ddfd9833a65b40bb853
     Pseudo is Ultrasoft, Zval =  1.0
     Generated using "atomic" code by A. Dal Corso  v.5.0.2 svn rev. 9415
     Using radial grid of  929 points,  2 beta functions with: 
                l(1) =   0
                l(2) =   0
     Q(r) pseudized with 0 coefficients 


     vdW kernel table read from file vdW_kernel_table
     MD5 check sum: 095c7af220d748ca6e76c0b4c6cfb241

     atomic species   valence    mass     pseudopotential
        Ti1           12.00    47.88000     Ti( 1.00)
        O1             6.00    15.99940      O( 1.00)
        C1             4.00    12.01100      C( 1.00)
        H1             1.00     1.00794      H( 1.00)

     Starting magnetic structure 
     atomic species   magnetization
        Ti1          0.250
        O1           0.500
        C1           0.750
        H1           0.000

     No symmetry found



   Cartesian axes

     site n.     atom                  positions (alat units)
         1           Ti1 tau(   1) = (   1.6476770   0.7437786   2.6545865  )
         2           O1  tau(   2) = (   1.6476770   2.2313359   3.9361215  )
         3           Ti1 tau(   3) = (   1.6476770   2.2313359   5.9499405  )
         4           O1  tau(   4) = (   0.3661420   0.7437786   5.9499405  )
         5           Ti1 tau(   5) = (   1.7592931   0.7557636   9.1813031  )
         6           O1  tau(   6) = (   1.6162490   2.2572048  10.5951269  )
         7           Ti1 tau(   7) = (   1.5595004   2.2680265  12.4668274  )
         8           O1  tau(   8) = (   0.3709531   0.7738127  12.6996540  )
         9           Ti1 tau(   9) = (   1.6476770   3.7188931   2.6545865  )
        10           O1  tau(  10) = (   1.6476770   5.2064503   3.9361215  )
        11           Ti1 tau(  11) = (   1.6476770   5.2064503   5.9499405  )
        12           O1  tau(  12) = (   0.3661420   3.7188931   5.9499405  )
        13           Ti1 tau(  13) = (   1.7607536   3.7112867   9.1949733  )
        14           O1  tau(  14) = (   1.6133076   5.2250699  10.5465640  )
        15           Ti1 tau(  15) = (   1.6492307   5.2431137  12.3448001  )
        16           O1  tau(  16) = (   0.3719744   3.7598389  12.7007434  )
        17           O1  tau(  17) = (   1.6476770   2.2313359   1.3730516  )
        18           Ti1 tau(  18) = (   4.9430310   2.2313359   2.6545865  )
        19           O1  tau(  19) = (   4.9430310   2.2313359   4.6684056  )
        20           O1  tau(  20) = (   6.2245660   0.7437786   2.6545865  )
        21           O1  tau(  21) = (   3.6614961   0.7437786   2.6545865  )
        22           Ti1 tau(  22) = (   4.9430310   0.7437786   5.9499405  )
        23           O1  tau(  23) = (   1.6387103   2.2391978   8.0037664  )
        24           O1  tau(  24) = (   4.9430310   2.2313359   7.2314755  )
        25           O1  tau(  25) = (   2.9292120   0.7437786   5.9499405  )
        26           Ti1 tau(  26) = (   5.0158092   2.2383949   9.3973727  )
        27           O1  tau(  27) = (   4.9391445   2.2276729  11.2675731  )
        28           O1  tau(  28) = (   6.2094020   0.7514556   9.2742047  )
        29           O1  tau(  29) = (   3.6131301   0.7515640   9.2682932  )
        30           Ti1 tau(  30) = (   4.8940083   0.8207741  12.7348365  )
        31           O1  tau(  31) = (   4.8487174   2.2703822  13.8475395  )
        32           O1  tau(  32) = (   2.8766274   0.7418004  12.6316555  )
        33           O1  tau(  33) = (   1.6476770   5.2064503   1.3730516  )
        34           Ti1 tau(  34) = (   4.9430310   5.2064503   2.6545865  )
        35           O1  tau(  35) = (   4.9430310   5.2064503   4.6684056  )
        36           O1  tau(  36) = (   6.2245660   3.7188931   2.6545865  )
        37           O1  tau(  37) = (   3.6614961   3.7188931   2.6545865  )
        38           Ti1 tau(  38) = (   4.9430310   3.7188931   5.9499405  )
        39           O1  tau(  39) = (   1.6418458   5.2133935   8.0066417  )
        40           O1  tau(  40) = (   4.9430310   5.2064503   7.2314755  )
        41           O1  tau(  41) = (   2.9292120   3.7188931   5.9499405  )
        42           Ti1 tau(  42) = (   5.0218241   5.2139137   9.3870600  )
        43           O1  tau(  43) = (   4.9399496   5.2040061  11.2598200  )
        44           O1  tau(  44) = (   6.2073000   3.7245411   9.2731052  )
        45           O1  tau(  45) = (   3.6137513   3.7232133   9.2682466  )
        46           Ti1 tau(  46) = (   4.8936935   3.8094630  12.7397413  )
        47           O1  tau(  47) = (   4.9051259   5.2510468  13.8339921  )
        48           O1  tau(  48) = (   2.8743370   3.7938830  12.6403791  )
        49           C1  tau(  49) = (   1.0587210   2.2268971  15.9066084  )
        50           O1  tau(  50) = (   1.8917182   2.2355032  14.7378010  )
        51           H1  tau(  51) = (   0.0310076   2.2200215  15.5603933  )
        52           H1  tau(  52) = (   2.8355400   2.2288152  14.9543747  )
        53           H1  tau(  53) = (   1.2478062   1.3326534  16.5339879  )
        54           H1  tau(  54) = (   1.2341453   3.1195140  16.5098874  )

     number of k points=    40  Fermi-Dirac smearing, width (Ry)=  0.0073
                       cart. coord. in units 2pi/alat
        k(    1) = (   0.0000000   0.0000000   0.0000000), wk =   0.0277778
        k(    2) = (   0.0000000   0.0280101   0.0000000), wk =   0.0555556
        k(    3) = (   0.0000000   0.0560203   0.0000000), wk =   0.0555556
        k(    4) = (   0.0000000  -0.0840304   0.0000000), wk =   0.0277778
        k(    5) = (   0.0252881   0.0000000   0.0000000), wk =   0.0555556
        k(    6) = (   0.0252881   0.0280101   0.0000000), wk =   0.0555556
        k(    7) = (   0.0252881   0.0560203   0.0000000), wk =   0.0555556
        k(    8) = (   0.0252881  -0.0840304   0.0000000), wk =   0.0555556
        k(    9) = (   0.0505763   0.0000000   0.0000000), wk =   0.0555556
        k(   10) = (   0.0505763   0.0280101   0.0000000), wk =   0.0555556
        k(   11) = (   0.0505763   0.0560203   0.0000000), wk =   0.0555556
        k(   12) = (   0.0505763  -0.0840304   0.0000000), wk =   0.0555556
        k(   13) = (  -0.0758644   0.0000000   0.0000000), wk =   0.0277778
        k(   14) = (  -0.0758644   0.0280101   0.0000000), wk =   0.0555556
        k(   15) = (  -0.0758644   0.0560203   0.0000000), wk =   0.0555556
        k(   16) = (  -0.0758644  -0.0840304   0.0000000), wk =   0.0277778
        k(   17) = (  -0.0252881   0.0280101   0.0000000), wk =   0.0555556
        k(   18) = (  -0.0252881   0.0560203   0.0000000), wk =   0.0555556
        k(   19) = (  -0.0505763   0.0280101   0.0000000), wk =   0.0555556
        k(   20) = (  -0.0505763   0.0560203   0.0000000), wk =   0.0555556
        k(   21) = (   0.0000000   0.0000000   0.0000000), wk =   0.0277778
        k(   22) = (   0.0000000   0.0280101   0.0000000), wk =   0.0555556
        k(   23) = (   0.0000000   0.0560203   0.0000000), wk =   0.0555556
        k(   24) = (   0.0000000  -0.0840304   0.0000000), wk =   0.0277778
        k(   25) = (   0.0252881   0.0000000   0.0000000), wk =   0.0555556
        k(   26) = (   0.0252881   0.0280101   0.0000000), wk =   0.0555556
        k(   27) = (   0.0252881   0.0560203   0.0000000), wk =   0.0555556
        k(   28) = (   0.0252881  -0.0840304   0.0000000), wk =   0.0555556
        k(   29) = (   0.0505763   0.0000000   0.0000000), wk =   0.0555556
        k(   30) = (   0.0505763   0.0280101   0.0000000), wk =   0.0555556
        k(   31) = (   0.0505763   0.0560203   0.0000000), wk =   0.0555556
        k(   32) = (   0.0505763  -0.0840304   0.0000000), wk =   0.0555556
        k(   33) = (  -0.0758644   0.0000000   0.0000000), wk =   0.0277778
        k(   34) = (  -0.0758644   0.0280101   0.0000000), wk =   0.0555556
        k(   35) = (  -0.0758644   0.0560203   0.0000000), wk =   0.0555556
        k(   36) = (  -0.0758644  -0.0840304   0.0000000), wk =   0.0277778
        k(   37) = (  -0.0252881   0.0280101   0.0000000), wk =   0.0555556
        k(   38) = (  -0.0252881   0.0560203   0.0000000), wk =   0.0555556
        k(   39) = (  -0.0505763   0.0280101   0.0000000), wk =   0.0555556
        k(   40) = (  -0.0505763   0.0560203   0.0000000), wk =   0.0555556

     Dense  grid:  1096637 G-vectors     FFT dimensions: (  80,  72, 375)

     Smooth grid:   277353 G-vectors     FFT dimensions: (  54,  45, 240)

     Largest allocated arrays     est. size (Mb)     dimensions
        Kohn-Sham Wavefunctions         9.95 Mb     (    2180,  299)
        NL pseudopotentials            18.89 Mb     (    2180,  568)
        Each V/rho on FFT grid          4.22 Mb     (  138240,   2)
        Each G-vector array             0.52 Mb     (   68538)
        G-vector shells                 0.25 Mb     (   33046)
     Largest temporary arrays     est. size (Mb)     dimensions
        Auxiliary wavefunctions        39.78 Mb     (    2180, 1196)
        Each subspace H/S matrix       21.83 Mb     (    1196, 1196)
        Each <psi_i|beta_j> matrix      2.59 Mb     (     568,  299)
        Arrays for rho mixing          21.09 Mb     (  138240,   10)

     Check: negative/imaginary core charge=   -0.000049    0.000000

     The initial density is read from file :
     ./calc.save/charge-density.dat


     negative rho (up, down):  1.209E-02 1.209E-02


     ************************************************************************
     *
     * You are using vdW-DF for exchange-correlation in this calculation.
     * Please cite the following three references that made this development
     * possible:
     *
     *   M. Dion, H. Rydberg, E. Schroder, D. C. Langreth, and
     *   B. I. Lundqvist, Phys. Rev. Lett. 92, 246401 (2004).
     *
     *   T. Thonhauser, V. R. Cooper, S. Li, A. Puzder, P. Hyldgaard, and
     *   D. C. Langreth, Phys. Rev. B 76, 125112 (2007).
     *
     *   G. Roman-Perez and J. M. Soler, Phys. Rev. Lett. 103, 096102 (2009).
     *
     *
     * If you are using vdW-DF2, please also cite:
     *
     *   K. Lee, E. D. Murray, L. Kong, B. I. Lundqvist, and
     *   D. C. Langreth, Phys. Rev. B 82, 081101(R) (2010).
     *
     *
     * If you are calculating the stress with vdW-DF, please also cite:
     *
     *   R. Sabatini, E. Kucukbenli, B. Kolb, T. Thonhauser, and
     *   S. de Gironcoli, J. Phys.: Condens. Matter 24, 424209 (2012).
     *
     ************************************************************************

     Carrying out vdW-DF run using the following parameters:

     Nqs =      20    Nr_points =    1024   r_max =   100.000
     q_mesh =
               0.00001000     0.04494208     0.09755937     0.15916263
               0.23128650     0.31572767     0.41458969     0.53033537
               0.66584808     0.82450364     1.01025438     1.22772762
               1.48234092     1.78043706     2.12944203     2.53805004
               3.01644009     3.57652955     4.23227104     5.00000000

     Gradients computed in reciprocal space

     ************************************************************************


     Starting wfc are  300 randomized atomic wfcs

     total cpu time spent up to now is       70.9 secs

     Self-consistent Calculation

     iteration #  1     ecut=    40.42 Ry     beta=0.10
     Davidson diagonalization with overlap
     ethr =  1.00E-05,  avg # of iterations = 14.6

     Threshold (ethr) on eigenvalues was too large:
     Diagonalizing with lowered threshold

     Davidson diagonalization with overlap
     ethr =  5.26E-07,  avg # of iterations =  1.0

     negative rho (up, down):  1.208E-02 1.208E-02
 
     Magnetic moment per site:
     atom:    1    charge:    3.1250    magn:   -0.0002    constr:    0.0000
     atom:    2    charge:    1.9452    magn:    0.0000    constr:    0.0000
     atom:    3    charge:    3.1197    magn:    0.0000    constr:    0.0000
     atom:    4    charge:    1.9504    magn:   -0.0001    constr:    0.0000
     atom:    5    charge:    3.1166    magn:    0.0000    constr:    0.0000
     atom:    6    charge:    1.9477    magn:   -0.0001    constr:    0.0000
     atom:    7    charge:    3.1156    magn:    0.0001    constr:    0.0000
     atom:    8    charge:    1.9452    magn:   -0.0001    constr:    0.0000
     atom:    9    charge:    3.1250    magn:   -0.0002    constr:    0.0000
     atom:   10    charge:    1.9452    magn:    0.0000    constr:    0.0000
     atom:   11    charge:    3.1197    magn:    0.0000    constr:    0.0000
     atom:   12    charge:    1.9504    magn:   -0.0001    constr:    0.0000
     atom:   13    charge:    3.1158    magn:    0.0000    constr:    0.0000
     atom:   14    charge:    1.9587    magn:   -0.0001    constr:    0.0000
     atom:   15    charge:    3.1188    magn:    0.0001    constr:    0.0000
     atom:   16    charge:    1.9445    magn:   -0.0001    constr:    0.0000
     atom:   17    charge:    1.9185    magn:    0.0004    constr:    0.0000
     atom:   18    charge:    3.1240    magn:   -0.0001    constr:    0.0000
     atom:   19    charge:    1.9408    magn:   -0.0000    constr:    0.0000
     atom:   20    charge:    1.9471    magn:    0.0000    constr:    0.0000
     atom:   21    charge:    1.9471    magn:    0.0000    constr:    0.0000
     atom:   22    charge:    3.1196    magn:    0.0000    constr:    0.0000
     atom:   23    charge:    1.9566    magn:   -0.0001    constr:    0.0000
     atom:   24    charge:    1.9379    magn:   -0.0001    constr:    0.0000
     atom:   25    charge:    1.9505    magn:   -0.0001    constr:    0.0000
     atom:   26    charge:    3.1145    magn:    0.0001    constr:    0.0000
     atom:   27    charge:    1.9398    magn:   -0.0001    constr:    0.0000
     atom:   28    charge:    1.9517    magn:   -0.0001    constr:    0.0000
     atom:   29    charge:    1.9476    magn:   -0.0001    constr:    0.0000
     atom:   30    charge:    3.1167    magn:    0.0000    constr:    0.0000
     atom:   31    charge:    1.9447    magn:   -0.0000    constr:    0.0000
     atom:   32    charge:    1.9440    magn:   -0.0001    constr:    0.0000
     atom:   33    charge:    1.9185    magn:    0.0004    constr:    0.0000
     atom:   34    charge:    3.1240    magn:   -0.0001    constr:    0.0000
     atom:   35    charge:    1.9408    magn:   -0.0000    constr:    0.0000
     atom:   36    charge:    1.9471    magn:    0.0000    constr:    0.0000
     atom:   37    charge:    1.9471    magn:    0.0000    constr:    0.0000
     atom:   38    charge:    3.1196    magn:    0.0000    constr:    0.0000
     atom:   39    charge:    1.9550    magn:   -0.0001    constr:    0.0000
     atom:   40    charge:    1.9382    magn:   -0.0001    constr:    0.0000
     atom:   41    charge:    1.9505    magn:   -0.0001    constr:    0.0000
     atom:   42    charge:    3.1141    magn:    0.0001    constr:    0.0000
     atom:   43    charge:    1.9413    magn:   -0.0001    constr:    0.0000
     atom:   44    charge:    1.9518    magn:   -0.0001    constr:    0.0000
     atom:   45    charge:    1.9468    magn:   -0.0001    constr:    0.0000
     atom:   46    charge:    3.1165    magn:    0.0000    constr:    0.0000
     atom:   47    charge:    1.9431    magn:   -0.0000    constr:    0.0000
     atom:   48    charge:    1.9444    magn:   -0.0001    constr:    0.0000
     atom:   49    charge:    0.6572    magn:   -0.0001    constr:    0.0000
     atom:   50    charge:    1.9576    magn:   -0.0001    constr:    0.0000
     atom:   51    charge:    0.4023    magn:    0.0000    constr:    0.0000
     atom:   52    charge:    0.4006    magn:    0.0000    constr:    0.0000
     atom:   53    charge:    0.3947    magn:    0.0000    constr:    0.0000
     atom:   54    charge:    0.4041    magn:    0.0000    constr:    0.0000

     total cpu time spent up to now is      969.7 secs

     total energy              =   -3021.42002083 Ry
     Harris-Foulkes estimate   =   -3021.42023085 Ry
     estimated scf accuracy    <       0.00208930 Ry

     total magnetization       =     0.00 Bohr mag/cell
     absolute magnetization    =     0.01 Bohr mag/cell

     iteration #  2     ecut=    40.42 Ry     beta=0.10
     Davidson diagonalization with overlap
     ethr =  5.25E-07,  avg # of iterations =  2.0

     negative rho (up, down):  1.207E-02 1.207E-02
 
     Magnetic moment per site:
     atom:    1    charge:    3.1250    magn:   -0.0001    constr:    0.0000
     atom:    2    charge:    1.9452    magn:    0.0000    constr:    0.0000
     atom:    3    charge:    3.1198    magn:    0.0000    constr:    0.0000
     atom:    4    charge:    1.9504    magn:   -0.0000    constr:    0.0000
     atom:    5    charge:    3.1166    magn:    0.0000    constr:    0.0000
     atom:    6    charge:    1.9477    magn:   -0.0001    constr:    0.0000
     atom:    7    charge:    3.1156    magn:    0.0000    constr:    0.0000
     atom:    8    charge:    1.9452    magn:   -0.0001    constr:    0.0000
     atom:    9    charge:    3.1250    magn:   -0.0001    constr:    0.0000
     atom:   10    charge:    1.9452    magn:    0.0000    constr:    0.0000
     atom:   11    charge:    3.1197    magn:    0.0000    constr:    0.0000
     atom:   12    charge:    1.9504    magn:   -0.0000    constr:    0.0000
     atom:   13    charge:    3.1158    magn:    0.0000    constr:    0.0000
     atom:   14    charge:    1.9587    magn:   -0.0001    constr:    0.0000
     atom:   15    charge:    3.1188    magn:    0.0001    constr:    0.0000
     atom:   16    charge:    1.9445    magn:   -0.0001    constr:    0.0000
     atom:   17    charge:    1.9184    magn:    0.0004    constr:    0.0000
     atom:   18    charge:    3.1240    magn:   -0.0001    constr:    0.0000
     atom:   19    charge:    1.9408    magn:   -0.0000    constr:    0.0000
     atom:   20    charge:    1.9471    magn:    0.0000    constr:    0.0000
     atom:   21    charge:    1.9471    magn:    0.0000    constr:    0.0000
     atom:   22    charge:    3.1196    magn:    0.0000    constr:    0.0000
     atom:   23    charge:    1.9566    magn:   -0.0001    constr:    0.0000
     atom:   24    charge:    1.9379    magn:   -0.0000    constr:    0.0000
     atom:   25    charge:    1.9505    magn:   -0.0000    constr:    0.0000
     atom:   26    charge:    3.1145    magn:    0.0000    constr:    0.0000
     atom:   27    charge:    1.9398    magn:   -0.0001    constr:    0.0000
     atom:   28    charge:    1.9517    magn:   -0.0001    constr:    0.0000
     atom:   29    charge:    1.9476    magn:   -0.0001    constr:    0.0000
     atom:   30    charge:    3.1167    magn:    0.0000    constr:    0.0000
     atom:   31    charge:    1.9447    magn:   -0.0000    constr:    0.0000
     atom:   32    charge:    1.9440    magn:   -0.0001    constr:    0.0000
     atom:   33    charge:    1.9184    magn:    0.0004    constr:    0.0000
     atom:   34    charge:    3.1240    magn:   -0.0001    constr:    0.0000
     atom:   35    charge:    1.9408    magn:   -0.0000    constr:    0.0000
     atom:   36    charge:    1.9471    magn:    0.0000    constr:    0.0000
     atom:   37    charge:    1.9471    magn:    0.0000    constr:    0.0000
     atom:   38    charge:    3.1196    magn:    0.0000    constr:    0.0000
     atom:   39    charge:    1.9550    magn:   -0.0001    constr:    0.0000
     atom:   40    charge:    1.9383    magn:   -0.0000    constr:    0.0000
     atom:   41    charge:    1.9505    magn:   -0.0000    constr:    0.0000
     atom:   42    charge:    3.1141    magn:    0.0000    constr:    0.0000
     atom:   43    charge:    1.9413    magn:   -0.0001    constr:    0.0000
     atom:   44    charge:    1.9518    magn:   -0.0001    constr:    0.0000
     atom:   45    charge:    1.9469    magn:   -0.0001    constr:    0.0000
     atom:   46    charge:    3.1165    magn:    0.0000    constr:    0.0000
     atom:   47    charge:    1.9431    magn:   -0.0000    constr:    0.0000
     atom:   48    charge:    1.9444    magn:   -0.0001    constr:    0.0000
     atom:   49    charge:    0.6548    magn:   -0.0000    constr:    0.0000
     atom:   50    charge:    1.9572    magn:   -0.0001    constr:    0.0000
     atom:   51    charge:    0.4024    magn:    0.0000    constr:    0.0000
     atom:   52    charge:    0.4007    magn:    0.0000    constr:    0.0000
     atom:   53    charge:    0.3951    magn:    0.0000    constr:    0.0000
     atom:   54    charge:    0.4047    magn:    0.0000    constr:    0.0000

     total cpu time spent up to now is     1150.7 secs

     total energy              =   -3021.41963637 Ry
     Harris-Foulkes estimate   =   -3021.42003868 Ry
     estimated scf accuracy    <       0.00138687 Ry

     total magnetization       =     0.00 Bohr mag/cell
     absolute magnetization    =     0.01 Bohr mag/cell

     iteration #  3     ecut=    40.42 Ry     beta=0.10
     Davidson diagonalization with overlap
     ethr =  3.48E-07,  avg # of iterations =  5.2

     negative rho (up, down):  1.207E-02 1.207E-02
 
     Magnetic moment per site:
     atom:    1    charge:    3.1250    magn:   -0.0001    constr:    0.0000
     atom:    2    charge:    1.9451    magn:    0.0000    constr:    0.0000
     atom:    3    charge:    3.1198    magn:    0.0000    constr:    0.0000
     atom:    4    charge:    1.9504    magn:   -0.0000    constr:    0.0000
     atom:    5    charge:    3.1166    magn:    0.0000    constr:    0.0000
     atom:    6    charge:    1.9476    magn:   -0.0001    constr:    0.0000
     atom:    7    charge:    3.1157    magn:    0.0000    constr:    0.0000
     atom:    8    charge:    1.9452    magn:   -0.0001    constr:    0.0000
     atom:    9    charge:    3.1250    magn:   -0.0001    constr:    0.0000
     atom:   10    charge:    1.9452    magn:    0.0000    constr:    0.0000
     atom:   11    charge:    3.1197    magn:    0.0000    constr:    0.0000
     atom:   12    charge:    1.9504    magn:   -0.0000    constr:    0.0000
     atom:   13    charge:    3.1158    magn:    0.0000    constr:    0.0000
     atom:   14    charge:    1.9587    magn:   -0.0001    constr:    0.0000
     atom:   15    charge:    3.1188    magn:    0.0000    constr:    0.0000
     atom:   16    charge:    1.9445    magn:   -0.0001    constr:    0.0000
     atom:   17    charge:    1.9183    magn:    0.0003    constr:    0.0000
     atom:   18    charge:    3.1239    magn:   -0.0001    constr:    0.0000
     atom:   19    charge:    1.9408    magn:   -0.0000    constr:    0.0000
     atom:   20    charge:    1.9471    magn:    0.0000    constr:    0.0000
     atom:   21    charge:    1.9471    magn:    0.0000    constr:    0.0000
     atom:   22    charge:    3.1196    magn:    0.0000    constr:    0.0000
     atom:   23    charge:    1.9566    magn:   -0.0001    constr:    0.0000
     atom:   24    charge:    1.9380    magn:   -0.0000    constr:    0.0000
     atom:   25    charge:    1.9505    magn:   -0.0000    constr:    0.0000
     atom:   26    charge:    3.1145    magn:    0.0000    constr:    0.0000
     atom:   27    charge:    1.9398    magn:   -0.0000    constr:    0.0000
     atom:   28    charge:    1.9517    magn:   -0.0001    constr:    0.0000
     atom:   29    charge:    1.9476    magn:   -0.0001    constr:    0.0000
     atom:   30    charge:    3.1167    magn:    0.0000    constr:    0.0000
     atom:   31    charge:    1.9447    magn:   -0.0000    constr:    0.0000
     atom:   32    charge:    1.9440    magn:   -0.0001    constr:    0.0000
     atom:   33    charge:    1.9183    magn:    0.0003    constr:    0.0000
     atom:   34    charge:    3.1239    magn:   -0.0001    constr:    0.0000
     atom:   35    charge:    1.9408    magn:   -0.0000    constr:    0.0000
     atom:   36    charge:    1.9471    magn:    0.0000    constr:    0.0000
     atom:   37    charge:    1.9471    magn:    0.0000    constr:    0.0000
     atom:   38    charge:    3.1196    magn:    0.0000    constr:    0.0000
     atom:   39    charge:    1.9549    magn:   -0.0001    constr:    0.0000
     atom:   40    charge:    1.9383    magn:   -0.0000    constr:    0.0000
     atom:   41    charge:    1.9505    magn:   -0.0000    constr:    0.0000
     atom:   42    charge:    3.1141    magn:    0.0000    constr:    0.0000
     atom:   43    charge:    1.9413    magn:   -0.0000    constr:    0.0000
     atom:   44    charge:    1.9517    magn:   -0.0001    constr:    0.0000
     atom:   45    charge:    1.9468    magn:   -0.0001    constr:    0.0000
     atom:   46    charge:    3.1165    magn:    0.0000    constr:    0.0000
     atom:   47    charge:    1.9431    magn:   -0.0000    constr:    0.0000
     atom:   48    charge:    1.9444    magn:   -0.0001    constr:    0.0000
     atom:   49    charge:    0.6545    magn:   -0.0000    constr:    0.0000
     atom:   50    charge:    1.9573    magn:   -0.0000    constr:    0.0000
     atom:   51    charge:    0.4024    magn:    0.0000    constr:    0.0000
     atom:   52    charge:    0.4007    magn:    0.0000    constr:    0.0000
     atom:   53    charge:    0.3952    magn:    0.0000    constr:    0.0000
     atom:   54    charge:    0.4047    magn:    0.0000    constr:    0.0000

     total cpu time spent up to now is     1383.4 secs

     total energy              =   -3021.41972596 Ry
     Harris-Foulkes estimate   =   -3021.41975898 Ry
     estimated scf accuracy    <       0.00027816 Ry

     total magnetization       =     0.00 Bohr mag/cell
     absolute magnetization    =     0.00 Bohr mag/cell

     iteration #  4     ecut=    40.42 Ry     beta=0.10
     Davidson diagonalization with overlap
     ethr =  6.99E-08,  avg # of iterations =  3.0

     negative rho (up, down):  1.207E-02 1.207E-02
 
     Magnetic moment per site:
     atom:    1    charge:    3.1250    magn:   -0.0001    constr:    0.0000
     atom:    2    charge:    1.9451    magn:    0.0000    constr:    0.0000
     atom:    3    charge:    3.1198    magn:    0.0000    constr:    0.0000
     atom:    4    charge:    1.9504    magn:   -0.0000    constr:    0.0000
     atom:    5    charge:    3.1166    magn:    0.0000    constr:    0.0000
     atom:    6    charge:    1.9476    magn:   -0.0000    constr:    0.0000
     atom:    7    charge:    3.1158    magn:    0.0000    constr:    0.0000
     atom:    8    charge:    1.9453    magn:   -0.0000    constr:    0.0000
     atom:    9    charge:    3.1250    magn:   -0.0001    constr:    0.0000
     atom:   10    charge:    1.9452    magn:    0.0000    constr:    0.0000
     atom:   11    charge:    3.1197    magn:    0.0000    constr:    0.0000
     atom:   12    charge:    1.9504    magn:   -0.0000    constr:    0.0000
     atom:   13    charge:    3.1158    magn:    0.0000    constr:    0.0000
     atom:   14    charge:    1.9587    magn:   -0.0000    constr:    0.0000
     atom:   15    charge:    3.1189    magn:    0.0000    constr:    0.0000
     atom:   16    charge:    1.9446    magn:   -0.0000    constr:    0.0000
     atom:   17    charge:    1.9183    magn:    0.0002    constr:    0.0000
     atom:   18    charge:    3.1239    magn:   -0.0000    constr:    0.0000
     atom:   19    charge:    1.9408    magn:   -0.0000    constr:    0.0000
     atom:   20    charge:    1.9471    magn:    0.0000    constr:    0.0000
     atom:   21    charge:    1.9471    magn:    0.0000    constr:    0.0000
     atom:   22    charge:    3.1196    magn:    0.0000    constr:    0.0000
     atom:   23    charge:    1.9566    magn:   -0.0000    constr:    0.0000
     atom:   24    charge:    1.9379    magn:   -0.0000    constr:    0.0000
     atom:   25    charge:    1.9505    magn:   -0.0000    constr:    0.0000
     atom:   26    charge:    3.1145    magn:    0.0000    constr:    0.0000
     atom:   27    charge:    1.9398    magn:   -0.0000    constr:    0.0000
     atom:   28    charge:    1.9517    magn:   -0.0000    constr:    0.0000
     atom:   29    charge:    1.9476    magn:   -0.0000    constr:    0.0000
     atom:   30    charge:    3.1167    magn:    0.0000    constr:    0.0000
     atom:   31    charge:    1.9447    magn:   -0.0000    constr:    0.0000
     atom:   32    charge:    1.9440    magn:   -0.0000    constr:    0.0000
     atom:   33    charge:    1.9183    magn:    0.0002    constr:    0.0000
     atom:   34    charge:    3.1239    magn:   -0.0000    constr:    0.0000
     atom:   35    charge:    1.9408    magn:   -0.0000    constr:    0.0000
     atom:   36    charge:    1.9471    magn:    0.0000    constr:    0.0000
     atom:   37    charge:    1.9471    magn:    0.0000    constr:    0.0000
     atom:   38    charge:    3.1196    magn:    0.0000    constr:    0.0000
     atom:   39    charge:    1.9549    magn:   -0.0000    constr:    0.0000
     atom:   40    charge:    1.9383    magn:   -0.0000    constr:    0.0000
     atom:   41    charge:    1.9505    magn:   -0.0000    constr:    0.0000
     atom:   42    charge:    3.1141    magn:    0.0000    constr:    0.0000
     atom:   43    charge:    1.9413    magn:   -0.0000    constr:    0.0000
     atom:   44    charge:    1.9517    magn:   -0.0000    constr:    0.0000
     atom:   45    charge:    1.9468    magn:   -0.0000    constr:    0.0000
     atom:   46    charge:    3.1165    magn:    0.0000    constr:    0.0000
     atom:   47    charge:    1.9431    magn:   -0.0000    constr:    0.0000
     atom:   48    charge:    1.9444    magn:   -0.0000    constr:    0.0000
     atom:   49    charge:    0.6547    magn:   -0.0000    constr:    0.0000
     atom:   50    charge:    1.9576    magn:   -0.0000    constr:    0.0000
     atom:   51    charge:    0.4022    magn:    0.0000    constr:    0.0000
     atom:   52    charge:    0.4005    magn:    0.0000    constr:    0.0000
     atom:   53    charge:    0.3951    magn:    0.0000    constr:    0.0000
     atom:   54    charge:    0.4045    magn:    0.0000    constr:    0.0000

     total cpu time spent up to now is     1579.0 secs

     total energy              =   -3021.41972533 Ry
     Harris-Foulkes estimate   =   -3021.41973427 Ry
     estimated scf accuracy    <       0.00011270 Ry

     total magnetization       =     0.00 Bohr mag/cell
     absolute magnetization    =     0.00 Bohr mag/cell

     iteration #  5     ecut=    40.42 Ry     beta=0.10
     Davidson diagonalization with overlap
     ethr =  2.83E-08,  avg # of iterations =  3.0

     negative rho (up, down):  1.207E-02 1.207E-02
 
     Magnetic moment per site:
     atom:    1    charge:    3.1250    magn:   -0.0001    constr:    0.0000
     atom:    2    charge:    1.9452    magn:    0.0000    constr:    0.0000
     atom:    3    charge:    3.1197    magn:    0.0000    constr:    0.0000
     atom:    4    charge:    1.9504    magn:   -0.0000    constr:    0.0000
     atom:    5    charge:    3.1166    magn:    0.0000    constr:    0.0000
     atom:    6    charge:    1.9477    magn:   -0.0000    constr:    0.0000
     atom:    7    charge:    3.1157    magn:    0.0000    constr:    0.0000
     atom:    8    charge:    1.9453    magn:   -0.0000    constr:    0.0000
     atom:    9    charge:    3.1250    magn:   -0.0001    constr:    0.0000
     atom:   10    charge:    1.9452    magn:    0.0000    constr:    0.0000
     atom:   11    charge:    3.1197    magn:    0.0000    constr:    0.0000
     atom:   12    charge:    1.9504    magn:   -0.0000    constr:    0.0000
     atom:   13    charge:    3.1158    magn:    0.0000    constr:    0.0000
     atom:   14    charge:    1.9587    magn:   -0.0000    constr:    0.0000
     atom:   15    charge:    3.1188    magn:    0.0000    constr:    0.0000
     atom:   16    charge:    1.9446    magn:   -0.0000    constr:    0.0000
     atom:   17    charge:    1.9184    magn:    0.0002    constr:    0.0000
     atom:   18    charge:    3.1239    magn:   -0.0000    constr:    0.0000
     atom:   19    charge:    1.9408    magn:   -0.0000    constr:    0.0000
     atom:   20    charge:    1.9471    magn:    0.0000    constr:    0.0000
     atom:   21    charge:    1.9471    magn:    0.0000    constr:    0.0000
     atom:   22    charge:    3.1196    magn:    0.0000    constr:    0.0000
     atom:   23    charge:    1.9566    magn:   -0.0000    constr:    0.0000
     atom:   24    charge:    1.9379    magn:   -0.0000    constr:    0.0000
     atom:   25    charge:    1.9505    magn:   -0.0000    constr:    0.0000
     atom:   26    charge:    3.1145    magn:    0.0000    constr:    0.0000
     atom:   27    charge:    1.9398    magn:   -0.0000    constr:    0.0000
     atom:   28    charge:    1.9517    magn:   -0.0000    constr:    0.0000
     atom:   29    charge:    1.9476    magn:   -0.0000    constr:    0.0000
     atom:   30    charge:    3.1167    magn:    0.0000    constr:    0.0000
     atom:   31    charge:    1.9447    magn:   -0.0000    constr:    0.0000
     atom:   32    charge:    1.9440    magn:   -0.0000    constr:    0.0000
     atom:   33    charge:    1.9184    magn:    0.0002    constr:    0.0000
     atom:   34    charge:    3.1239    magn:   -0.0000    constr:    0.0000
     atom:   35    charge:    1.9408    magn:   -0.0000    constr:    0.0000
     atom:   36    charge:    1.9471    magn:    0.0000    constr:    0.0000
     atom:   37    charge:    1.9471    magn:    0.0000    constr:    0.0000
     atom:   38    charge:    3.1196    magn:    0.0000    constr:    0.0000
     atom:   39    charge:    1.9550    magn:   -0.0000    constr:    0.0000
     atom:   40    charge:    1.9382    magn:   -0.0000    constr:    0.0000
     atom:   41    charge:    1.9505    magn:   -0.0000    constr:    0.0000
     atom:   42    charge:    3.1141    magn:    0.0000    constr:    0.0000
     atom:   43    charge:    1.9413    magn:   -0.0000    constr:    0.0000
     atom:   44    charge:    1.9517    magn:   -0.0000    constr:    0.0000
     atom:   45    charge:    1.9468    magn:   -0.0000    constr:    0.0000
     atom:   46    charge:    3.1165    magn:    0.0000    constr:    0.0000
     atom:   47    charge:    1.9431    magn:   -0.0000    constr:    0.0000
     atom:   48    charge:    1.9444    magn:   -0.0000    constr:    0.0000
     atom:   49    charge:    0.6557    magn:   -0.0000    constr:    0.0000
     atom:   50    charge:    1.9578    magn:   -0.0000    constr:    0.0000
     atom:   51    charge:    0.4021    magn:    0.0000    constr:    0.0000
     atom:   52    charge:    0.4004    magn:    0.0000    constr:    0.0000
     atom:   53    charge:    0.3949    magn:    0.0000    constr:    0.0000
     atom:   54    charge:    0.4042    magn:    0.0000    constr:    0.0000

     total cpu time spent up to now is     1775.7 secs

     total energy              =   -3021.41972157 Ry
     Harris-Foulkes estimate   =   -3021.41973091 Ry
     estimated scf accuracy    <       0.00003172 Ry

     total magnetization       =     0.00 Bohr mag/cell
     absolute magnetization    =     0.00 Bohr mag/cell

     iteration #  6     ecut=    40.42 Ry     beta=0.10
     Davidson diagonalization with overlap
     ethr =  7.97E-09,  avg # of iterations =  4.0

     negative rho (up, down):  1.207E-02 1.207E-02
 
     Magnetic moment per site:
     atom:    1    charge:    3.1250    magn:   -0.0001    constr:    0.0000
     atom:    2    charge:    1.9452    magn:    0.0000    constr:    0.0000
     atom:    3    charge:    3.1198    magn:    0.0000    constr:    0.0000
     atom:    4    charge:    1.9504    magn:   -0.0000    constr:    0.0000
     atom:    5    charge:    3.1166    magn:    0.0000    constr:    0.0000
     atom:    6    charge:    1.9476    magn:   -0.0000    constr:    0.0000
     atom:    7    charge:    3.1157    magn:    0.0000    constr:    0.0000
     atom:    8    charge:    1.9452    magn:   -0.0000    constr:    0.0000
     atom:    9    charge:    3.1250    magn:   -0.0001    constr:    0.0000
     atom:   10    charge:    1.9452    magn:    0.0000    constr:    0.0000
     atom:   11    charge:    3.1197    magn:    0.0000    constr:    0.0000
     atom:   12    charge:    1.9504    magn:   -0.0000    constr:    0.0000
     atom:   13    charge:    3.1158    magn:    0.0000    constr:    0.0000
     atom:   14    charge:    1.9587    magn:   -0.0000    constr:    0.0000
     atom:   15    charge:    3.1188    magn:    0.0000    constr:    0.0000
     atom:   16    charge:    1.9445    magn:   -0.0000    constr:    0.0000
     atom:   17    charge:    1.9184    magn:    0.0002    constr:    0.0000
     atom:   18    charge:    3.1239    magn:   -0.0000    constr:    0.0000
     atom:   19    charge:    1.9408    magn:   -0.0000    constr:    0.0000
     atom:   20    charge:    1.9471    magn:    0.0000    constr:    0.0000
     atom:   21    charge:    1.9471    magn:    0.0000    constr:    0.0000
     atom:   22    charge:    3.1196    magn:    0.0000    constr:    0.0000
     atom:   23    charge:    1.9566    magn:   -0.0000    constr:    0.0000
     atom:   24    charge:    1.9379    magn:   -0.0000    constr:    0.0000
     atom:   25    charge:    1.9505    magn:   -0.0000    constr:    0.0000
     atom:   26    charge:    3.1145    magn:    0.0000    constr:    0.0000
     atom:   27    charge:    1.9398    magn:   -0.0000    constr:    0.0000
     atom:   28    charge:    1.9517    magn:   -0.0000    constr:    0.0000
     atom:   29    charge:    1.9476    magn:   -0.0000    constr:    0.0000
     atom:   30    charge:    3.1167    magn:    0.0000    constr:    0.0000
     atom:   31    charge:    1.9447    magn:   -0.0000    constr:    0.0000
     atom:   32    charge:    1.9440    magn:   -0.0000    constr:    0.0000
     atom:   33    charge:    1.9184    magn:    0.0002    constr:    0.0000
     atom:   34    charge:    3.1239    magn:   -0.0000    constr:    0.0000
     atom:   35    charge:    1.9408    magn:   -0.0000    constr:    0.0000
     atom:   36    charge:    1.9471    magn:    0.0000    constr:    0.0000
     atom:   37    charge:    1.9471    magn:    0.0000    constr:    0.0000
     atom:   38    charge:    3.1196    magn:    0.0000    constr:    0.0000
     atom:   39    charge:    1.9549    magn:   -0.0000    constr:    0.0000
     atom:   40    charge:    1.9383    magn:   -0.0000    constr:    0.0000
     atom:   41    charge:    1.9505    magn:   -0.0000    constr:    0.0000
     atom:   42    charge:    3.1141    magn:    0.0000    constr:    0.0000
     atom:   43    charge:    1.9413    magn:   -0.0000    constr:    0.0000
     atom:   44    charge:    1.9517    magn:   -0.0000    constr:    0.0000
     atom:   45    charge:    1.9468    magn:   -0.0000    constr:    0.0000
     atom:   46    charge:    3.1165    magn:    0.0000    constr:    0.0000
     atom:   47    charge:    1.9431    magn:   -0.0000    constr:    0.0000
     atom:   48    charge:    1.9444    magn:   -0.0000    constr:    0.0000
     atom:   49    charge:    0.6555    magn:   -0.0000    constr:    0.0000
     atom:   50    charge:    1.9577    magn:   -0.0000    constr:    0.0000
     atom:   51    charge:    0.4021    magn:    0.0000    constr:    0.0000
     atom:   52    charge:    0.4005    magn:    0.0000    constr:    0.0000
     atom:   53    charge:    0.3949    magn:    0.0000    constr:    0.0000
     atom:   54    charge:    0.4042    magn:    0.0000    constr:    0.0000

     total cpu time spent up to now is     1990.2 secs

     total energy              =   -3021.41972652 Ry
     Harris-Foulkes estimate   =   -3021.41972679 Ry
     estimated scf accuracy    <       0.00000563 Ry

     total magnetization       =     0.00 Bohr mag/cell
     absolute magnetization    =     0.00 Bohr mag/cell

     iteration #  7     ecut=    40.42 Ry     beta=0.10
     Davidson diagonalization with overlap
     ethr =  1.41E-09,  avg # of iterations =  3.0

     negative rho (up, down):  1.207E-02 1.207E-02
 
     Magnetic moment per site:
     atom:    1    charge:    3.1250    magn:   -0.0001    constr:    0.0000
     atom:    2    charge:    1.9451    magn:    0.0000    constr:    0.0000
     atom:    3    charge:    3.1198    magn:    0.0000    constr:    0.0000
     atom:    4    charge:    1.9504    magn:   -0.0000    constr:    0.0000
     atom:    5    charge:    3.1166    magn:    0.0000    constr:    0.0000
     atom:    6    charge:    1.9476    magn:   -0.0000    constr:    0.0000
     atom:    7    charge:    3.1157    magn:    0.0000    constr:    0.0000
     atom:    8    charge:    1.9452    magn:   -0.0000    constr:    0.0000
     atom:    9    charge:    3.1250    magn:   -0.0001    constr:    0.0000
     atom:   10    charge:    1.9452    magn:    0.0000    constr:    0.0000
     atom:   11    charge:    3.1197    magn:    0.0000    constr:    0.0000
     atom:   12    charge:    1.9504    magn:   -0.0000    constr:    0.0000
     atom:   13    charge:    3.1158    magn:    0.0000    constr:    0.0000
     atom:   14    charge:    1.9587    magn:   -0.0000    constr:    0.0000
     atom:   15    charge:    3.1188    magn:    0.0000    constr:    0.0000
     atom:   16    charge:    1.9445    magn:   -0.0000    constr:    0.0000
     atom:   17    charge:    1.9184    magn:    0.0001    constr:    0.0000
     atom:   18    charge:    3.1239    magn:   -0.0000    constr:    0.0000
     atom:   19    charge:    1.9408    magn:   -0.0000    constr:    0.0000
     atom:   20    charge:    1.9471    magn:    0.0000    constr:    0.0000
     atom:   21    charge:    1.9471    magn:    0.0000    constr:    0.0000
     atom:   22    charge:    3.1196    magn:    0.0000    constr:    0.0000
     atom:   23    charge:    1.9566    magn:   -0.0000    constr:    0.0000
     atom:   24    charge:    1.9379    magn:   -0.0000    constr:    0.0000
     atom:   25    charge:    1.9505    magn:   -0.0000    constr:    0.0000
     atom:   26    charge:    3.1145    magn:    0.0000    constr:    0.0000
     atom:   27    charge:    1.9398    magn:   -0.0000    constr:    0.0000
     atom:   28    charge:    1.9517    magn:   -0.0000    constr:    0.0000
     atom:   29    charge:    1.9476    magn:   -0.0000    constr:    0.0000
     atom:   30    charge:    3.1167    magn:    0.0000    constr:    0.0000
     atom:   31    charge:    1.9447    magn:   -0.0000    constr:    0.0000
     atom:   32    charge:    1.9440    magn:   -0.0000    constr:    0.0000
     atom:   33    charge:    1.9184    magn:    0.0001    constr:    0.0000
     atom:   34    charge:    3.1239    magn:   -0.0000    constr:    0.0000
     atom:   35    charge:    1.9408    magn:   -0.0000    constr:    0.0000
     atom:   36    charge:    1.9471    magn:    0.0000    constr:    0.0000
     atom:   37    charge:    1.9471    magn:    0.0000    constr:    0.0000
     atom:   38    charge:    3.1196    magn:    0.0000    constr:    0.0000
     atom:   39    charge:    1.9549    magn:   -0.0000    constr:    0.0000
     atom:   40    charge:    1.9383    magn:   -0.0000    constr:    0.0000
     atom:   41    charge:    1.9505    magn:   -0.0000    constr:    0.0000
     atom:   42    charge:    3.1141    magn:    0.0000    constr:    0.0000
     atom:   43    charge:    1.9413    magn:   -0.0000    constr:    0.0000
     atom:   44    charge:    1.9517    magn:   -0.0000    constr:    0.0000
     atom:   45    charge:    1.9468    magn:   -0.0000    constr:    0.0000
     atom:   46    charge:    3.1165    magn:    0.0000    constr:    0.0000
     atom:   47    charge:    1.9431    magn:   -0.0000    constr:    0.0000
     atom:   48    charge:    1.9444    magn:   -0.0000    constr:    0.0000
     atom:   49    charge:    0.6559    magn:   -0.0000    constr:    0.0000
     atom:   50    charge:    1.9576    magn:   -0.0000    constr:    0.0000
     atom:   51    charge:    0.4021    magn:    0.0000    constr:    0.0000
     atom:   52    charge:    0.4005    magn:    0.0000    constr:    0.0000
     atom:   53    charge:    0.3948    magn:    0.0000    constr:    0.0000
     atom:   54    charge:    0.4041    magn:    0.0000    constr:    0.0000

     total cpu time spent up to now is     2190.1 secs

     total energy              =   -3021.41972661 Ry
     Harris-Foulkes estimate   =   -3021.41972721 Ry
     estimated scf accuracy    <       0.00000268 Ry

     total magnetization       =     0.00 Bohr mag/cell
     absolute magnetization    =     0.00 Bohr mag/cell

     iteration #  8     ecut=    40.42 Ry     beta=0.10
     Davidson diagonalization with overlap
     ethr =  6.75E-10,  avg # of iterations =  4.0

     negative rho (up, down):  1.207E-02 1.207E-02
 
     Magnetic moment per site:
     atom:    1    charge:    3.1250    magn:   -0.0000    constr:    0.0000
     atom:    2    charge:    1.9451    magn:    0.0000    constr:    0.0000
     atom:    3    charge:    3.1198    magn:    0.0000    constr:    0.0000
     atom:    4    charge:    1.9504    magn:   -0.0000    constr:    0.0000
     atom:    5    charge:    3.1166    magn:    0.0000    constr:    0.0000
     atom:    6    charge:    1.9476    magn:   -0.0000    constr:    0.0000
     atom:    7    charge:    3.1157    magn:    0.0000    constr:    0.0000
     atom:    8    charge:    1.9452    magn:   -0.0000    constr:    0.0000
     atom:    9    charge:    3.1250    magn:   -0.0000    constr:    0.0000
     atom:   10    charge:    1.9452    magn:    0.0000    constr:    0.0000
     atom:   11    charge:    3.1197    magn:    0.0000    constr:    0.0000
     atom:   12    charge:    1.9504    magn:   -0.0000    constr:    0.0000
     atom:   13    charge:    3.1158    magn:    0.0000    constr:    0.0000
     atom:   14    charge:    1.9587    magn:   -0.0000    constr:    0.0000
     atom:   15    charge:    3.1188    magn:    0.0000    constr:    0.0000
     atom:   16    charge:    1.9445    magn:   -0.0000    constr:    0.0000
     atom:   17    charge:    1.9184    magn:    0.0001    constr:    0.0000
     atom:   18    charge:    3.1239    magn:   -0.0000    constr:    0.0000
     atom:   19    charge:    1.9408    magn:   -0.0000    constr:    0.0000
     atom:   20    charge:    1.9471    magn:    0.0000    constr:    0.0000
     atom:   21    charge:    1.9471    magn:    0.0000    constr:    0.0000
     atom:   22    charge:    3.1196    magn:    0.0000    constr:    0.0000
     atom:   23    charge:    1.9566    magn:   -0.0000    constr:    0.0000
     atom:   24    charge:    1.9379    magn:   -0.0000    constr:    0.0000
     atom:   25    charge:    1.9505    magn:   -0.0000    constr:    0.0000
     atom:   26    charge:    3.1145    magn:    0.0000    constr:    0.0000
     atom:   27    charge:    1.9398    magn:   -0.0000    constr:    0.0000
     atom:   28    charge:    1.9517    magn:   -0.0000    constr:    0.0000
     atom:   29    charge:    1.9476    magn:   -0.0000    constr:    0.0000
     atom:   30    charge:    3.1167    magn:    0.0000    constr:    0.0000
     atom:   31    charge:    1.9447    magn:   -0.0000    constr:    0.0000
     atom:   32    charge:    1.9440    magn:   -0.0000    constr:    0.0000
     atom:   33    charge:    1.9184    magn:    0.0001    constr:    0.0000
     atom:   34    charge:    3.1239    magn:   -0.0000    constr:    0.0000
     atom:   35    charge:    1.9408    magn:   -0.0000    constr:    0.0000
     atom:   36    charge:    1.9471    magn:    0.0000    constr:    0.0000
     atom:   37    charge:    1.9471    magn:    0.0000    constr:    0.0000
     atom:   38    charge:    3.1196    magn:    0.0000    constr:    0.0000
     atom:   39    charge:    1.9549    magn:   -0.0000    constr:    0.0000
     atom:   40    charge:    1.9383    magn:   -0.0000    constr:    0.0000
     atom:   41    charge:    1.9505    magn:   -0.0000    constr:    0.0000
     atom:   42    charge:    3.1141    magn:    0.0000    constr:    0.0000
     atom:   43    charge:    1.9413    magn:   -0.0000    constr:    0.0000
     atom:   44    charge:    1.9517    magn:   -0.0000    constr:    0.0000
     atom:   45    charge:    1.9468    magn:   -0.0000    constr:    0.0000
     atom:   46    charge:    3.1165    magn:    0.0000    constr:    0.0000
     atom:   47    charge:    1.9431    magn:   -0.0000    constr:    0.0000
     atom:   48    charge:    1.9444    magn:   -0.0000    constr:    0.0000
     atom:   49    charge:    0.6558    magn:   -0.0000    constr:    0.0000
     atom:   50    charge:    1.9576    magn:   -0.0000    constr:    0.0000
     atom:   51    charge:    0.4021    magn:    0.0000    constr:    0.0000
     atom:   52    charge:    0.4005    magn:    0.0000    constr:    0.0000
     atom:   53    charge:    0.3948    magn:    0.0000    constr:    0.0000
     atom:   54    charge:    0.4041    magn:    0.0000    constr:    0.0000

     total cpu time spent up to now is     2407.6 secs

     total energy              =   -3021.41972704 Ry
     Harris-Foulkes estimate   =   -3021.41972727 Ry
     estimated scf accuracy    <       0.00000112 Ry

     total magnetization       =     0.00 Bohr mag/cell
     absolute magnetization    =     0.00 Bohr mag/cell

     iteration #  9     ecut=    40.42 Ry     beta=0.10
     Davidson diagonalization with overlap
     ethr =  2.82E-10,  avg # of iterations =  3.0

     negative rho (up, down):  1.207E-02 1.207E-02
 
     Magnetic moment per site:
     atom:    1    charge:    3.1250    magn:   -0.0000    constr:    0.0000
     atom:    2    charge:    1.9452    magn:    0.0000    constr:    0.0000
     atom:    3    charge:    3.1198    magn:    0.0000    constr:    0.0000
     atom:    4    charge:    1.9504    magn:   -0.0000    constr:    0.0000
     atom:    5    charge:    3.1166    magn:    0.0000    constr:    0.0000
     atom:    6    charge:    1.9477    magn:   -0.0000    constr:    0.0000
     atom:    7    charge:    3.1157    magn:    0.0000    constr:    0.0000
     atom:    8    charge:    1.9452    magn:   -0.0000    constr:    0.0000
     atom:    9    charge:    3.1250    magn:   -0.0000    constr:    0.0000
     atom:   10    charge:    1.9452    magn:    0.0000    constr:    0.0000
     atom:   11    charge:    3.1197    magn:    0.0000    constr:    0.0000
     atom:   12    charge:    1.9504    magn:   -0.0000    constr:    0.0000
     atom:   13    charge:    3.1158    magn:    0.0000    constr:    0.0000
     atom:   14    charge:    1.9587    magn:   -0.0000    constr:    0.0000
     atom:   15    charge:    3.1188    magn:    0.0000    constr:    0.0000
     atom:   16    charge:    1.9446    magn:   -0.0000    constr:    0.0000
     atom:   17    charge:    1.9184    magn:    0.0001    constr:    0.0000
     atom:   18    charge:    3.1239    magn:   -0.0000    constr:    0.0000
     atom:   19    charge:    1.9408    magn:   -0.0000    constr:    0.0000
     atom:   20    charge:    1.9471    magn:    0.0000    constr:    0.0000
     atom:   21    charge:    1.9471    magn:    0.0000    constr:    0.0000
     atom:   22    charge:    3.1196    magn:    0.0000    constr:    0.0000
     atom:   23    charge:    1.9566    magn:   -0.0000    constr:    0.0000
     atom:   24    charge:    1.9379    magn:   -0.0000    constr:    0.0000
     atom:   25    charge:    1.9505    magn:   -0.0000    constr:    0.0000
     atom:   26    charge:    3.1145    magn:    0.0000    constr:    0.0000
     atom:   27    charge:    1.9398    magn:   -0.0000    constr:    0.0000
     atom:   28    charge:    1.9517    magn:   -0.0000    constr:    0.0000
     atom:   29    charge:    1.9476    magn:   -0.0000    constr:    0.0000
     atom:   30    charge:    3.1167    magn:    0.0000    constr:    0.0000
     atom:   31    charge:    1.9447    magn:   -0.0000    constr:    0.0000
     atom:   32    charge:    1.9440    magn:   -0.0000    constr:    0.0000
     atom:   33    charge:    1.9184    magn:    0.0001    constr:    0.0000
     atom:   34    charge:    3.1239    magn:   -0.0000    constr:    0.0000
     atom:   35    charge:    1.9408    magn:   -0.0000    constr:    0.0000
     atom:   36    charge:    1.9471    magn:    0.0000    constr:    0.0000
     atom:   37    charge:    1.9471    magn:    0.0000    constr:    0.0000
     atom:   38    charge:    3.1196    magn:    0.0000    constr:    0.0000
     atom:   39    charge:    1.9550    magn:   -0.0000    constr:    0.0000
     atom:   40    charge:    1.9383    magn:   -0.0000    constr:    0.0000
     atom:   41    charge:    1.9505    magn:   -0.0000    constr:    0.0000
     atom:   42    charge:    3.1141    magn:    0.0000    constr:    0.0000
     atom:   43    charge:    1.9413    magn:   -0.0000    constr:    0.0000
     atom:   44    charge:    1.9518    magn:   -0.0000    constr:    0.0000
     atom:   45    charge:    1.9468    magn:   -0.0000    constr:    0.0000
     atom:   46    charge:    3.1165    magn:    0.0000    constr:    0.0000
     atom:   47    charge:    1.9431    magn:   -0.0000    constr:    0.0000
     atom:   48    charge:    1.9444    magn:   -0.0000    constr:    0.0000
     atom:   49    charge:    0.6556    magn:   -0.0000    constr:    0.0000
     atom:   50    charge:    1.9576    magn:   -0.0000    constr:    0.0000
     atom:   51    charge:    0.4022    magn:    0.0000    constr:    0.0000
     atom:   52    charge:    0.4005    magn:    0.0000    constr:    0.0000
     atom:   53    charge:    0.3948    magn:    0.0000    constr:    0.0000
     atom:   54    charge:    0.4042    magn:    0.0000    constr:    0.0000

     total cpu time spent up to now is     2604.9 secs

     End of self-consistent calculation

 ------ SPIN UP ------------


          k = 0.0000 0.0000 0.0000 ( 34665 PWs)   bands (ev):

   -57.7007 -57.6657 -57.3201 -57.2838 -57.2352 -57.1118 -57.0754 -57.0744
   -57.0532 -57.0396 -56.9922 -56.9567 -56.7323 -56.6948 -56.1513 -56.1161
   -34.1368 -33.9829 -33.9544 -33.9017 -33.8723 -33.8074 -33.7469 -33.6558
   -33.6208 -33.6072 -33.5696 -33.5430 -33.5208 -33.5100 -33.4920 -33.4885
   -33.4673 -33.4567 -33.4335 -33.4008 -33.3261 -33.2941 -33.2738 -33.2646
   -33.2572 -33.2563 -33.2451 -33.2448 -33.2390 -33.2317 -33.2315 -33.2145
   -33.1824 -33.1821 -33.1766 -33.1429 -33.1204 -32.9984 -32.9803 -32.9593
   -32.9099 -32.8070 -32.5691 -32.5036 -32.4776 -32.3733 -32.2817 -32.1733
   -20.3062 -18.0149 -17.8434 -17.5591 -17.4641 -17.3750 -17.2542 -17.0798
   -17.0683 -16.9768 -16.9408 -16.8862 -16.7862 -16.7801 -16.7316 -16.7095
   -16.7053 -16.6648 -16.6131 -16.6070 -16.5381 -16.4178 -16.4047 -16.4002
   -16.3238 -16.2698 -16.1966 -16.1694 -16.1519 -15.9813 -15.9312 -14.7357
   -14.6520 -11.4355  -7.2460  -5.4758  -5.3975  -5.3165  -5.2074  -5.1480
    -5.1296  -5.1288  -4.8412  -4.8158  -4.4740  -4.4451  -4.3607  -4.3576
    -4.3241  -4.2346  -4.0920  -4.0631  -4.0576  -4.0198  -4.0017  -3.9933
    -3.9626  -3.9541  -3.9530  -3.8420  -3.7897  -3.7677  -3.7389  -3.7210
    -3.6342  -3.6190  -3.5893  -3.5800  -3.5218  -3.5100  -3.4108  -3.3963
    -3.3764  -3.2771  -3.2395  -3.1940  -3.0155  -2.9373  -2.8808  -2.8377
    -2.6972  -2.6094  -2.5920  -2.5821  -2.5777  -2.5709  -2.4333  -2.4165
    -2.3382  -2.2713  -2.2494  -2.2068  -2.2022  -2.1666  -2.1408  -2.0951
    -2.0500  -2.0318  -2.0225  -1.8893  -1.8678  -1.7621  -1.7383  -1.6262
    -1.5452  -1.5431  -1.4924  -1.4830  -1.4651  -1.4255  -1.3247  -1.3115
    -1.3044  -1.2820  -1.2449  -1.1377  -1.0886  -1.0808  -1.0695  -1.0215
    -0.9564  -0.9175  -0.8213  -0.7664  -0.6124  -0.5895  -0.5713  -0.4812
    -0.3785  -0.2441  -0.0868  -0.0286   0.1294   0.2463   0.2599   1.6408
     1.6732   1.9836   2.0002   2.0631   2.0929   2.2030   2.2416   2.2849
     2.4277   2.4951   2.5239   2.5289   2.5401   2.6290   2.6469   2.6553
     2.7132   2.7976   2.8251   2.8369   2.9089   2.9974   3.0313   3.0969
     3.1034   3.1119   3.1591   3.2002   3.2061   3.2247   3.2379   3.2495
     3.2588   3.2868   3.3953   3.4297   3.4547   3.4644   3.5265   3.5835
     3.6513   3.6929   3.8058   3.9795   4.0144   4.0900   4.1781   4.3184
     4.3367   4.3899   4.5842   4.5974   4.8075   4.8369   5.0852   5.1647
     5.2437   5.3288   5.4781   5.5156   5.5291   5.5913   5.6764   5.7097
     5.7979   5.8632   5.8747   5.8843   5.9524   6.0380   6.0462   6.0710
     6.1426   6.2273   6.2411   6.2950   6.3762   6.5802   6.6346   6.7540
     6.8394   7.0073   7.0372   7.1646   7.3005   7.5773   7.9044   8.2503
     8.3135   8.6760   8.7929   8.8727   8.9380   9.0077   9.1757   9.2570
     9.3507   9.3806   9.5305

          k = 0.0000 0.0280 0.0000 ( 34717 PWs)   bands (ev):

   -57.6983 -57.6681 -57.3177 -57.2862 -57.2348 -57.1095 -57.0775 -57.0723
   -57.0537 -57.0419 -56.9898 -56.9591 -56.7298 -56.6973 -56.1490 -56.1184
   -34.1114 -33.9809 -33.9563 -33.8955 -33.8464 -33.8139 -33.7739 -33.6331
   -33.6139 -33.5823 -33.5443 -33.5400 -33.5229 -33.5029 -33.4953 -33.4864
   -33.4741 -33.4644 -33.4315 -33.3939 -33.3199 -33.2923 -33.2876 -33.2661
   -33.2615 -33.2549 -33.2525 -33.2417 -33.2399 -33.2381 -33.2378 -33.2193
   -33.2045 -33.1873 -33.1792 -33.1470 -33.1436 -32.9945 -32.9789 -32.9607
   -32.9149 -32.8350 -32.5435 -32.5019 -32.4794 -32.3672 -32.2880 -32.2008
   -20.3061 -17.9531 -17.7858 -17.5062 -17.4119 -17.3313 -17.2276 -17.0938
   -17.0381 -17.0003 -16.9951 -16.8879 -16.8220 -16.7638 -16.7095 -16.6917
   -16.6780 -16.6672 -16.6589 -16.6438 -16.5970 -16.4416 -16.3861 -16.3703
   -16.3505 -16.2994 -16.2136 -16.1758 -16.1557 -16.0120 -15.9682 -14.7458
   -14.6755 -11.4352  -7.2457  -5.4407  -5.3163  -5.2550  -5.1340  -5.1319
    -5.0705  -5.0491  -4.7656  -4.7034  -4.4378  -4.4021  -4.3960  -4.3142
    -4.3034  -4.1620  -4.1262  -4.1161  -4.0937  -4.0727  -4.0346  -4.0325
    -3.9678  -3.9635  -3.9520  -3.8930  -3.8552  -3.8487  -3.8398  -3.7683
    -3.7237  -3.7088  -3.6679  -3.6179  -3.5775  -3.5588  -3.4330  -3.3612
    -3.3177  -3.2378  -3.2090  -3.1068  -2.9362  -2.8728  -2.7499  -2.7271
    -2.6158  -2.6030  -2.5274  -2.5118  -2.4802  -2.4427  -2.4142  -2.4097
    -2.3889  -2.3641  -2.2902  -2.2789  -2.1697  -2.1443  -2.1383  -2.0965
    -2.0241  -1.9993  -1.9560  -1.8790  -1.8125  -1.7684  -1.7092  -1.6843
    -1.6450  -1.6284  -1.5661  -1.5278  -1.4833  -1.4403  -1.4376  -1.3983
    -1.3563  -1.2734  -1.2203  -1.2154  -1.1608  -1.0917  -1.0708  -1.0241
    -1.0108  -0.9065  -0.8684  -0.7927  -0.7630  -0.7086  -0.6102  -0.5930
    -0.3968  -0.2723  -0.0935  -0.0828   0.1442   0.1999   0.2265   1.7270
     1.7730   1.9840   2.0627   2.1282   2.1496   2.2162   2.2722   2.3108
     2.4223   2.4592   2.4971   2.5333   2.5839   2.6011   2.6281   2.6894
     2.7306   2.7684   2.7950   2.9102   2.9205   2.9491   2.9741   3.0081
     3.1087   3.1145   3.1326   3.1729   3.1905   3.2034   3.2561   3.3022
     3.3335   3.3689   3.4048   3.4713   3.5046   3.5499   3.5599   3.6470
     3.6628   3.6838   3.7694   3.9578   4.0324   4.1126   4.1892   4.2842
     4.3213   4.3944   4.5390   4.6877   4.8611   4.9234   5.0889   5.2565
     5.3017   5.3333   5.5355   5.5663   5.6016   5.6260   5.6839   5.7189
     5.7823   5.7904   5.8496   5.8760   5.8968   5.9459   6.0678   6.1206
     6.1475   6.1549   6.1748   6.2051   6.2732   6.5566   6.6015   6.6938
     6.8442   6.9475   6.9801   7.0840   7.2295   7.5775   7.9133   8.0055
     8.0585   8.4542   8.5657   8.8355   8.9105   8.9979   9.0864   9.1350
     9.2675   9.4351   9.4852

          k = 0.0000 0.0560 0.0000 ( 34721 PWs)   bands (ev):

   -57.6920 -57.6745 -57.3111 -57.2928 -57.2340 -57.1035 -57.0836 -57.0659
   -57.0545 -57.0484 -56.9833 -56.9656 -56.7232 -56.7039 -56.1425 -56.1249
   -34.0416 -33.9756 -33.9613 -33.8784 -33.8469 -33.8313 -33.7754 -33.5984
   -33.5754 -33.5743 -33.5372 -33.5297 -33.5085 -33.5064 -33.4796 -33.4742
   -33.4588 -33.4286 -33.4209 -33.3745 -33.3186 -33.3150 -33.3148 -33.3035
   -33.2880 -33.2781 -33.2698 -33.2662 -33.2553 -33.2485 -33.2361 -33.2340
   -33.2123 -33.2003 -33.1727 -33.1670 -33.1281 -32.9894 -32.9753 -32.9640
   -32.9279 -32.9047 -32.4972 -32.4842 -32.4727 -32.3507 -32.3048 -32.2749
   -20.3058 -17.7820 -17.6271 -17.3748 -17.2781 -17.2625 -17.2213 -17.1690
   -17.1385 -16.9648 -16.9552 -16.9207 -16.8759 -16.8220 -16.7908 -16.7276
   -16.7180 -16.6863 -16.6276 -16.5990 -16.5418 -16.5071 -16.4253 -16.3801
   -16.3645 -16.3039 -16.2427 -16.1970 -16.1592 -16.1124 -16.0411 -14.7640
   -14.7260 -11.4344  -7.2447  -5.4072  -5.1430  -5.0784  -5.0401  -4.9266
    -4.8605  -4.8263  -4.5638  -4.5078  -4.4753  -4.4196  -4.4115  -4.3688
    -4.3337  -4.2620  -4.2371  -4.2140  -4.1982  -4.1888  -4.1575  -4.0773
    -4.0598  -4.0079  -3.9894  -3.9707  -3.9326  -3.8934  -3.8588  -3.8200
    -3.7992  -3.7332  -3.6377  -3.5879  -3.4358  -3.4289  -3.3444  -3.2702
    -3.2412  -3.2152  -3.1953  -3.0853  -2.8972  -2.8455  -2.8398  -2.8009
    -2.7240  -2.6706  -2.5501  -2.4754  -2.4467  -2.3242  -2.3178  -2.3133
    -2.3053  -2.2512  -2.2091  -2.1814  -2.1499  -2.1195  -2.0338  -2.0125
    -1.9626  -1.9496  -1.9194  -1.9071  -1.8853  -1.8507  -1.8190  -1.7848
    -1.7469  -1.6976  -1.6273  -1.5442  -1.5296  -1.5120  -1.4581  -1.4221
    -1.3822  -1.3667  -1.3521  -1.2927  -1.2409  -1.2192  -1.1578  -1.1044
    -1.0834  -1.0258  -0.9250  -0.8924  -0.8527  -0.7871  -0.7653  -0.6622
    -0.5891  -0.4654  -0.2443   0.0891   0.1414   0.1765   0.1832   1.8627
     2.0227   2.0952   2.1071   2.2071   2.2322   2.2673   2.3641   2.3870
     2.3938   2.4090   2.4319   2.4740   2.5012   2.5354   2.6719   2.6929
     2.7314   2.7731   2.8280   2.9014   2.9131   2.9359   2.9695   2.9711
     3.0131   3.0964   3.1350   3.1548   3.2479   3.2592   3.2839   3.3273
     3.3658   3.3838   3.4385   3.5350   3.5412   3.6341   3.6748   3.7252
     3.7583   3.8210   3.8558   3.8879   3.9296   4.1283   4.1396   4.1562
     4.3255   4.3734   4.5611   4.9047   5.0134   5.0603   5.1724   5.3762
     5.3795   5.4758   5.5156   5.5473   5.6456   5.7209   5.7220   5.7312
     5.7771   5.7855   5.7974   5.8546   5.8834   5.9469   5.9752   5.9897
     5.9991   6.0524   6.1532   6.1687   6.3071   6.3726   6.4089   6.6139
     6.6580   6.7789   6.8685   7.0403   7.2127   7.3332   7.4445   7.7231
     8.0807   8.2006   8.3385   8.6180   8.8786   8.9898   9.3122   9.3347
     9.4273   9.4419   9.5514

          k = 0.0000-0.0840 0.0000 ( 34678 PWs)   bands (ev):

   -57.6833 -57.6831 -57.3036 -57.3003 -57.2336 -57.0980 -57.0891 -57.0572
   -57.0571 -57.0550 -56.9750 -56.9739 -56.7162 -56.7110 -56.1337 -56.1337
   -33.9685 -33.9683 -33.9451 -33.9449 -33.8550 -33.8549 -33.6885 -33.6645
   -33.5684 -33.5651 -33.5312 -33.5204 -33.5160 -33.4799 -33.4559 -33.4263
   -33.4161 -33.4096 -33.3771 -33.3768 -33.3650 -33.3491 -33.3432 -33.3263
   -33.3249 -33.2869 -33.2800 -33.2779 -33.2711 -33.2696 -33.2346 -33.2328
   -33.2177 -33.2159 -33.1658 -33.1649 -33.0507 -33.0299 -32.9722 -32.9668
   -32.9418 -32.9387 -32.4906 -32.4906 -32.3748 -32.3748 -32.3277 -32.3277
   -20.3056 -17.5714 -17.5077 -17.4124 -17.3921 -17.2316 -17.1778 -17.0681
   -17.0641 -17.0182 -17.0055 -16.9918 -16.8746 -16.8416 -16.8416 -16.8030
   -16.7964 -16.5986 -16.5966 -16.5284 -16.5256 -16.4906 -16.4892 -16.4068
   -16.4045 -16.2648 -16.2627 -16.2032 -16.1992 -16.1338 -16.1032 -14.7628
   -14.7626 -11.4340  -7.2442  -5.3986  -5.1485  -4.8021  -4.7353  -4.7342
    -4.6581  -4.6446  -4.6398  -4.6040  -4.5756  -4.5117  -4.5043  -4.4029
    -4.3756  -4.3414  -4.3397  -4.3106  -4.2975  -4.2824  -4.2770  -4.0570
    -4.0350  -4.0256  -4.0130  -3.9946  -3.9450  -3.8120  -3.7955  -3.7900
    -3.7167  -3.6968  -3.6423  -3.5097  -3.4745  -3.3419  -3.3287  -3.2609
    -3.1407  -3.1187  -3.0454  -3.0214  -2.9647  -2.9290  -2.8070  -2.7906
    -2.7000  -2.6959  -2.5788  -2.5414  -2.5147  -2.4972  -2.4806  -2.4496
    -2.4408  -2.4207  -2.3322  -2.2483  -2.0297  -2.0094  -1.9692  -1.9423
    -1.9296  -1.8310  -1.8245  -1.8112  -1.7844  -1.7473  -1.7332  -1.7027
    -1.6674  -1.6426  -1.6174  -1.5608  -1.5180  -1.4897  -1.4833  -1.4554
    -1.4272  -1.4196  -1.4119  -1.3841  -1.3615  -1.3282  -1.2219  -1.1898
    -1.1024  -1.0750  -1.0113  -0.9800  -0.9727  -0.9620  -0.9449  -0.5263
    -0.5213  -0.4591  -0.4450   0.1415   0.1416   0.1842   0.1859   2.0371
     2.0403   2.2161   2.2179   2.2186   2.2343   2.2823   2.3375   2.3451
     2.3452   2.3701   2.3808   2.5252   2.5519   2.5529   2.5987   2.6620
     2.7129   2.7349   2.7479   2.8891   2.9205   2.9876   2.9953   3.0551
     3.0563   3.0999   3.1107   3.1776   3.2156   3.2310   3.2438   3.4015
     3.4241   3.4351   3.4378   3.4708   3.4816   3.7231   3.7637   3.8024
     3.8057   3.8299   3.9069   3.9292   3.9666   4.0714   4.0738   4.1238
     4.1244   4.4167   4.6687   4.9582   4.9984   5.2595   5.3288   5.4553
     5.4870   5.5063   5.5064   5.5746   5.5995   5.6447   5.6631   5.6687
     5.7971   5.8021   5.8241   5.8497   5.8598   5.8646   5.8806   5.9718
     6.0180   6.0569   6.0697   6.1569   6.1940   6.4048   6.4656   6.5631
     6.6028   6.7466   6.7731   6.9790   7.0300   7.1003   7.3261   7.7013
     7.8746   8.1684   8.4081   8.7749   8.8352   8.8547   9.1504   9.6935
     9.7025   9.7475   9.7959

          k = 0.0253 0.0000 0.0000 ( 34707 PWs)   bands (ev):

   -57.7007 -57.6657 -57.3201 -57.2838 -57.2352 -57.1118 -57.0753 -57.0745
   -57.0532 -57.0396 -56.9922 -56.9567 -56.7323 -56.6948 -56.1513 -56.1161
   -34.1371 -33.9829 -33.9544 -33.9010 -33.8724 -33.8074 -33.7470 -33.6566
   -33.6208 -33.6089 -33.5699 -33.5396 -33.5345 -33.5109 -33.4885 -33.4771
   -33.4660 -33.4567 -33.4335 -33.3939 -33.3259 -33.2942 -33.2736 -33.2646
   -33.2604 -33.2596 -33.2463 -33.2432 -33.2412 -33.2318 -33.2315 -33.2144
   -33.1823 -33.1821 -33.1770 -33.1429 -33.1205 -32.9984 -32.9827 -32.9585
   -32.9099 -32.8071 -32.5690 -32.5047 -32.4771 -32.3733 -32.2817 -32.1734
   -20.3060 -17.9851 -17.8034 -17.5168 -17.4352 -17.3583 -17.2608 -17.1464
   -17.0944 -16.9777 -16.9403 -16.8735 -16.8209 -16.8081 -16.7916 -16.7823
   -16.7319 -16.6947 -16.5587 -16.5365 -16.4560 -16.4547 -16.4056 -16.3721
   -16.3413 -16.3144 -16.1851 -16.1672 -16.1532 -15.9811 -15.9309 -14.7346
   -14.6519 -11.4343  -7.2434  -5.4706  -5.3071  -5.2660  -5.1287  -5.0997
    -5.0464  -5.0186  -4.8358  -4.8112  -4.6200  -4.4710  -4.4376  -4.3321
    -4.3135  -4.3035  -4.2499  -4.1010  -4.0387  -4.0348  -3.9988  -3.9468
    -3.9397  -3.9119  -3.8324  -3.8030  -3.7530  -3.7220  -3.6968  -3.6936
    -3.6226  -3.6001  -3.5723  -3.5648  -3.5185  -3.4495  -3.3393  -3.3123
    -3.2535  -3.2381  -3.1863  -3.1084  -3.0355  -2.9786  -2.9263  -2.8979
    -2.7548  -2.6758  -2.6353  -2.6022  -2.5813  -2.5321  -2.5217  -2.5057
    -2.4337  -2.3375  -2.3244  -2.2386  -2.2227  -2.1839  -2.1586  -2.0728
    -2.0116  -2.0027  -1.9651  -1.8851  -1.8509  -1.7549  -1.7414  -1.6528
    -1.5876  -1.5841  -1.5400  -1.4658  -1.4602  -1.3682  -1.3595  -1.3458
    -1.3391  -1.2925  -1.2757  -1.1919  -1.1291  -1.1192  -1.0792  -1.0474
    -0.9743  -0.9171  -0.8314  -0.7871  -0.7763  -0.6530  -0.6444  -0.5527
    -0.4232  -0.2385  -0.1178  -0.0559   0.1153   0.2035   0.2044   1.6601
     1.7232   1.9994   2.0693   2.1467   2.2210   2.2357   2.2678   2.3762
     2.3833   2.4557   2.5023   2.5201   2.5394   2.5764   2.5955   2.6342
     2.6539   2.7323   2.7555   2.8651   2.8819   2.9677   3.0287   3.1015
     3.1193   3.1417   3.1606   3.2016   3.2064   3.2519   3.2676   3.3378
     3.3756   3.4007   3.4489   3.4711   3.5337   3.5583   3.5897   3.5980
     3.6621   3.7279   3.7452   3.9120   4.0000   4.0949   4.1722   4.2743
     4.3725   4.3930   4.5513   4.6727   4.8616   4.9084   4.9240   5.0679
     5.1195   5.1441   5.1866   5.3489   5.5680   5.6223   5.6921   5.8644
     5.8810   5.9226   5.9573   6.0280   6.0781   6.1141   6.1585   6.2075
     6.2170   6.2500   6.2566   6.3060   6.4467   6.5205   6.6409   6.6649
     6.8189   6.8670   7.0323   7.1470   7.3003   7.7548   7.8523   8.0863
     8.3276   8.3367   8.4289   8.6823   8.8438   8.9704   9.1485   9.3403
     9.3614   9.4546   9.4913

          k = 0.0253 0.0280 0.0000 ( 34687 PWs)   bands (ev):

   -57.6983 -57.6681 -57.3177 -57.2862 -57.2348 -57.1095 -57.0775 -57.0723
   -57.0536 -57.0420 -56.9898 -56.9591 -56.7298 -56.6973 -56.1490 -56.1184
   -34.1117 -33.9809 -33.9562 -33.8948 -33.8465 -33.8138 -33.7739 -33.6338
   -33.6140 -33.5839 -33.5445 -33.5368 -33.5242 -33.5184 -33.4956 -33.4749
   -33.4682 -33.4632 -33.4315 -33.3872 -33.3198 -33.2924 -33.2853 -33.2661
   -33.2616 -33.2563 -33.2550 -33.2495 -33.2395 -33.2381 -33.2370 -33.2181
   -33.2047 -33.1873 -33.1792 -33.1469 -33.1436 -32.9945 -32.9810 -32.9599
   -32.9149 -32.8349 -32.5434 -32.5028 -32.4789 -32.3672 -32.2879 -32.2008
   -20.3059 -17.9248 -17.7467 -17.4656 -17.3854 -17.3113 -17.2343 -17.1301
   -17.1000 -17.0082 -16.9650 -16.8607 -16.8321 -16.8079 -16.7863 -16.7721
   -16.7147 -16.7016 -16.6023 -16.5821 -16.5083 -16.4772 -16.3832 -16.3672
   -16.3583 -16.3313 -16.2022 -16.1754 -16.1555 -16.0125 -15.9679 -14.7448
   -14.6755 -11.4339  -7.2428  -5.4438  -5.2432  -5.1834  -5.1317  -5.0233
    -4.9681  -4.9383  -4.7606  -4.7003  -4.5643  -4.4050  -4.3728  -4.3474
    -4.2616  -4.2551  -4.1886  -4.1205  -4.0885  -4.0666  -4.0355  -4.0223
    -3.9781  -3.9445  -3.9149  -3.8693  -3.8240  -3.8117  -3.7858  -3.7217
    -3.6995  -3.6662  -3.6170  -3.6069  -3.5428  -3.5281  -3.3570  -3.3028
    -3.2540  -3.2198  -3.1532  -3.0764  -2.9834  -2.9515  -2.7877  -2.7090
    -2.6831  -2.6382  -2.6127  -2.5364  -2.5056  -2.4560  -2.4498  -2.4225
    -2.4068  -2.3884  -2.3420  -2.3044  -2.2177  -2.1799  -2.1174  -2.1022
    -2.0685  -1.9956  -1.9515  -1.8936  -1.8667  -1.8280  -1.7641  -1.6766
    -1.6468  -1.6185  -1.5907  -1.5642  -1.5111  -1.4634  -1.4422  -1.4022
    -1.3465  -1.3295  -1.2715  -1.2573  -1.2087  -1.1091  -1.0992  -1.0625
    -1.0112  -0.8886  -0.8407  -0.8369  -0.7664  -0.7409  -0.6980  -0.6604
    -0.4341  -0.2832  -0.1361  -0.0876   0.1474   0.1768   0.1869   1.7191
     1.8433   2.0147   2.0967   2.1936   2.2425   2.2801   2.3145   2.3950
     2.4158   2.4651   2.4870   2.5226   2.5310   2.5505   2.5883   2.6722
     2.7033   2.7256   2.7854   2.8046   2.9285   2.9850   3.0079   3.0328
     3.1043   3.1322   3.1440   3.1707   3.2067   3.2403   3.3425   3.3717
     3.4042   3.4345   3.4609   3.5084   3.5504   3.5672   3.6344   3.6592
     3.6716   3.7062   3.7480   3.8929   3.9920   4.1368   4.1838   4.2508
     4.3048   4.4502   4.5076   4.7681   4.9273   4.9490   4.9914   5.0762
     5.1581   5.1736   5.2215   5.3848   5.6417   5.6819   5.7310   5.7763
     5.8526   5.8636   5.8697   6.0052   6.0693   6.0836   6.1174   6.1429
     6.1950   6.2069   6.2175   6.2336   6.4268   6.5266   6.6111   6.6596
     6.7849   6.8643   6.9614   7.1499   7.2248   7.5044   7.9292   8.0290
     8.0922   8.2432   8.4466   8.5751   8.6482   8.7654   8.9413   9.2637
     9.3561   9.4619   9.5100

          k = 0.0253 0.0560 0.0000 ( 34699 PWs)   bands (ev):

   -57.6920 -57.6745 -57.3111 -57.2928 -57.2340 -57.1034 -57.0836 -57.0659
   -57.0545 -57.0484 -56.9833 -56.9656 -56.7232 -56.7039 -56.1425 -56.1249
   -34.0419 -33.9756 -33.9613 -33.8779 -33.8470 -33.8311 -33.7754 -33.5983
   -33.5760 -33.5743 -33.5374 -33.5276 -33.5109 -33.5097 -33.4797 -33.4745
   -33.4578 -33.4286 -33.4156 -33.3691 -33.3190 -33.3157 -33.3105 -33.3033
   -33.2881 -33.2785 -33.2697 -33.2650 -33.2554 -33.2507 -33.2401 -33.2363
   -33.2124 -33.2010 -33.1727 -33.1669 -33.1279 -32.9894 -32.9768 -32.9639
   -32.9279 -32.9046 -32.4978 -32.4839 -32.4726 -32.3507 -32.3049 -32.2749
   -20.3056 -17.7585 -17.5914 -17.3455 -17.2664 -17.2470 -17.1957 -17.1698
   -17.1416 -16.9977 -16.9724 -16.8825 -16.8781 -16.8315 -16.7988 -16.7744
   -16.7498 -16.6726 -16.6253 -16.6066 -16.5813 -16.5324 -16.4288 -16.4143
   -16.3578 -16.2869 -16.2358 -16.1963 -16.1589 -16.1132 -16.0405 -14.7634
   -14.7262 -11.4331  -7.2418  -5.4146  -5.1420  -5.0337  -4.9506  -4.8150
    -4.7588  -4.7167  -4.5601  -4.5003  -4.4926  -4.4156  -4.3960  -4.3415
    -4.2728  -4.2332  -4.2176  -4.1940  -4.1498  -4.1431  -4.1077  -4.0633
    -4.0345  -4.0144  -3.9952  -3.9373  -3.9263  -3.8772  -3.8615  -3.8234
    -3.7763  -3.7174  -3.6567  -3.5736  -3.4751  -3.4004  -3.3296  -3.2842
    -3.2393  -3.2250  -3.1903  -3.0144  -2.9417  -2.8651  -2.8314  -2.7814
    -2.7608  -2.6476  -2.5952  -2.5113  -2.4911  -2.4398  -2.3948  -2.3674
    -2.3447  -2.3263  -2.2903  -2.2651  -2.1917  -2.1427  -2.1296  -2.0412
    -2.0135  -2.0114  -1.9486  -1.9402  -1.9047  -1.8634  -1.8368  -1.8139
    -1.7467  -1.7058  -1.6805  -1.6394  -1.5746  -1.5401  -1.4965  -1.4774
    -1.4329  -1.3747  -1.3405  -1.3038  -1.2253  -1.2074  -1.1319  -1.1075
    -1.0611  -1.0145  -0.9137  -0.8763  -0.8229  -0.8015  -0.7459  -0.6826
    -0.6087  -0.4673  -0.2581   0.0901   0.1267   0.1538   0.1863   1.8600
     2.0463   2.1300   2.1771   2.2293   2.2696   2.3040   2.3454   2.3830
     2.4240   2.4602   2.4787   2.5057   2.5185   2.5817   2.6916   2.7193
     2.7369   2.7745   2.8218   2.8379   2.9020   2.9505   2.9726   2.9839
     3.0253   3.0318   3.1541   3.2054   3.2845   3.3277   3.3383   3.3811
     3.4054   3.4371   3.4587   3.5387   3.5578   3.6289   3.6540   3.7326
     3.7911   3.8178   3.8596   3.8987   3.9028   4.0700   4.1149   4.1635
     4.3412   4.3831   4.6127   4.9634   5.0102   5.1248   5.1398   5.1562
     5.2602   5.2872   5.3114   5.4343   5.5078   5.5595   5.6351   5.7565
     5.8216   5.8485   5.8894   5.9323   5.9591   6.0016   6.0473   6.0607
     6.1343   6.1552   6.2208   6.3294   6.3776   6.4024   6.4793   6.6412
     6.6881   6.7946   6.8457   7.0336   7.1519   7.3624   7.4832   7.5899
     7.9736   8.1728   8.3518   8.5198   8.6329   8.8536   9.0474   9.1129
     9.1842   9.4950   9.6242

          k = 0.0253-0.0840 0.0000 ( 34722 PWs)   bands (ev):

   -57.6833 -57.6831 -57.3036 -57.3003 -57.2336 -57.0980 -57.0890 -57.0572
   -57.0571 -57.0549 -56.9750 -56.9739 -56.7162 -56.7110 -56.1337 -56.1337
   -33.9685 -33.9683 -33.9453 -33.9452 -33.8547 -33.8545 -33.6886 -33.6646
   -33.5684 -33.5652 -33.5318 -33.5202 -33.5159 -33.4800 -33.4551 -33.4265
   -33.4182 -33.4120 -33.3780 -33.3779 -33.3657 -33.3423 -33.3363 -33.3249
   -33.3234 -33.2867 -33.2798 -33.2781 -33.2714 -33.2682 -33.2381 -33.2367
   -33.2194 -33.2175 -33.1658 -33.1649 -33.0507 -33.0299 -32.9728 -32.9677
[...]
    -1.2990  -1.2683  -1.2503  -1.1918  -1.1525  -1.0331  -1.0218  -1.0136
    -0.9904  -0.9501  -0.9076  -0.8399  -0.7586  -0.7034  -0.6485  -0.5959
    -0.5918  -0.5366  -0.5200   0.0643   0.0643   0.2090   0.2107   2.1517
     2.1525   2.1991   2.2010   2.2362   2.2370   2.2640   2.2957   2.4861
     2.4917   2.5234   2.5533   2.6070   2.6146   2.6776   2.6796   2.6890
     2.6901   2.8420   2.9077   2.9810   2.9960   3.0322   3.0398   3.0957
     3.2178   3.2473   3.2704   3.3307   3.3717   3.3885   3.4428   3.4907
     3.4982   3.5207   3.5472   3.5789   3.6017   3.6781   3.6981   3.7436
     3.8327   3.8891   3.9055   3.9510   3.9513   4.0943   4.1012   4.1099
     4.1104   4.6128   4.7811   4.7853   4.7993   4.8685   4.9184   4.9236
     4.9397   4.9823   5.0247   5.2471   5.3374   5.3570   5.3676   5.7288
     5.7982   5.9088   5.9250   5.9777   6.0404   6.1510   6.3010   6.3474
     6.3629   6.3725   6.4075   6.5750   6.6065   6.6633   6.6634   6.7014
     6.7636   6.8429   6.8439   6.8505   6.8514   7.3607   7.4101   7.5258
     7.6615   7.8217   8.0155   8.1700   8.2227   8.3165   8.3953   8.8232
     8.9104   9.0442   9.0816

          k =-0.0253 0.0280 0.0000 ( 34687 PWs)   bands (ev):

   -57.6984 -57.6681 -57.3176 -57.2861 -57.2348 -57.1095 -57.0775 -57.0723
   -57.0536 -57.0419 -56.9898 -56.9590 -56.7298 -56.6972 -56.1492 -56.1186
   -34.1118 -33.9810 -33.9563 -33.8949 -33.8465 -33.8138 -33.7740 -33.6338
   -33.6140 -33.5839 -33.5445 -33.5368 -33.5242 -33.5183 -33.4955 -33.4748
   -33.4681 -33.4632 -33.4314 -33.3872 -33.3198 -33.2924 -33.2853 -33.2661
   -33.2613 -33.2563 -33.2552 -33.2495 -33.2394 -33.2381 -33.2370 -33.2180
   -33.2046 -33.1873 -33.1792 -33.1468 -33.1435 -32.9945 -32.9810 -32.9599
   -32.9149 -32.8349 -32.5435 -32.5030 -32.4790 -32.3674 -32.2881 -32.2010
   -20.3059 -17.9248 -17.7467 -17.4656 -17.3855 -17.3113 -17.2344 -17.1301
   -17.1002 -17.0079 -16.9650 -16.8612 -16.8321 -16.8088 -16.7858 -16.7720
   -16.7147 -16.7018 -16.6021 -16.5817 -16.5083 -16.4772 -16.3832 -16.3673
   -16.3583 -16.3313 -16.2023 -16.1754 -16.1554 -16.0125 -15.9679 -14.7444
   -14.6751 -11.4339  -7.2428  -5.4437  -5.2430  -5.1834  -5.1316  -5.0237
    -4.9681  -4.9386  -4.7607  -4.7011  -4.5641  -4.4047  -4.3727  -4.3477
    -4.2629  -4.2518  -4.1899  -4.1189  -4.0931  -4.0662  -4.0381  -4.0223
    -3.9768  -3.9427  -3.9162  -3.8704  -3.8241  -3.8131  -3.7861  -3.7217
    -3.7023  -3.6648  -3.6168  -3.6062  -3.5413  -3.5272  -3.3620  -3.2951
    -3.2553  -3.2213  -3.1512  -3.0746  -2.9845  -2.9476  -2.7866  -2.7083
    -2.6824  -2.6387  -2.6125  -2.5339  -2.5065  -2.4534  -2.4494  -2.4245
    -2.4076  -2.3866  -2.3415  -2.3034  -2.2196  -2.1772  -2.1230  -2.1056
    -2.0644  -1.9920  -1.9529  -1.8968  -1.8650  -1.8286  -1.7448  -1.7097
    -1.6546  -1.6009  -1.5949  -1.5618  -1.5177  -1.4719  -1.4380  -1.3946
    -1.3466  -1.3341  -1.2827  -1.2442  -1.1982  -1.1108  -1.0993  -1.0607
    -1.0117  -0.8940  -0.8425  -0.8320  -0.7572  -0.7406  -0.7102  -0.6613
    -0.4351  -0.2832  -0.1366  -0.0874   0.1476   0.1770   0.1873   1.7190
     1.8432   2.0146   2.0982   2.1934   2.2439   2.2833   2.3172   2.4020
     2.4137   2.4481   2.4840   2.5281   2.5309   2.5454   2.6059   2.6668
     2.7035   2.7372   2.7738   2.8101   2.9371   2.9843   3.0022   3.0252
     3.1054   3.1337   3.1445   3.1723   3.2069   3.2375   3.3460   3.3707
     3.4020   3.4181   3.4625   3.5049   3.5595   3.5690   3.6352   3.6591
     3.6713   3.7072   3.7474   3.8917   3.9908   4.1386   4.1838   4.2513
     4.3048   4.4505   4.5079   4.7692   4.9354   4.9484   4.9820   5.0762
     5.1570   5.1732   5.2213   5.3837   5.6431   5.6756   5.7280   5.7860
     5.8508   5.8634   5.8706   6.0041   6.0718   6.0769   6.1220   6.1437
     6.1951   6.2057   6.2136   6.2423   6.4267   6.5243   6.6112   6.6651
     6.7887   6.8578   6.9613   7.1504   7.2252   7.4928   7.9313   8.0263
     8.0922   8.2516   8.4418   8.5788   8.6464   8.7780   8.9406   9.2722
     9.3522   9.4632   9.4994

          k =-0.0253 0.0560 0.0000 ( 34699 PWs)   bands (ev):

   -57.6920 -57.6746 -57.3111 -57.2927 -57.2340 -57.1034 -57.0836 -57.0659
   -57.0545 -57.0484 -56.9833 -56.9655 -56.7232 -56.7039 -56.1427 -56.1251
   -34.0420 -33.9757 -33.9614 -33.8780 -33.8471 -33.8312 -33.7754 -33.5983
   -33.5759 -33.5743 -33.5374 -33.5276 -33.5109 -33.5097 -33.4796 -33.4745
   -33.4578 -33.4286 -33.4155 -33.3691 -33.3189 -33.3157 -33.3105 -33.3033
   -33.2881 -33.2785 -33.2697 -33.2650 -33.2554 -33.2508 -33.2401 -33.2363
   -33.2122 -33.2010 -33.1726 -33.1669 -33.1279 -32.9894 -32.9766 -32.9639
   -32.9279 -32.9046 -32.4980 -32.4841 -32.4728 -32.3509 -32.3050 -32.2751
   -20.3056 -17.7586 -17.5913 -17.3455 -17.2664 -17.2471 -17.1959 -17.1697
   -17.1414 -16.9977 -16.9724 -16.8826 -16.8783 -16.8321 -16.7992 -16.7743
   -16.7496 -16.6723 -16.6252 -16.6062 -16.5813 -16.5326 -16.4288 -16.4144
   -16.3579 -16.2868 -16.2358 -16.1963 -16.1589 -16.1132 -16.0405 -14.7630
   -14.7258 -11.4331  -7.2418  -5.4145  -5.1420  -5.0333  -4.9506  -4.8156
    -4.7589  -4.7168  -4.5601  -4.4985  -4.4932  -4.4152  -4.3962  -4.3464
    -4.2731  -4.2342  -4.2171  -4.1939  -4.1496  -4.1425  -4.1094  -4.0634
    -4.0336  -4.0117  -3.9963  -3.9384  -3.9260  -3.8752  -3.8652  -3.8240
    -3.7759  -3.7157  -3.6576  -3.5736  -3.4747  -3.4005  -3.3352  -3.2842
    -3.2400  -3.2186  -3.1843  -3.0154  -2.9391  -2.8665  -2.8282  -2.7850
    -2.7580  -2.6470  -2.5943  -2.5119  -2.4896  -2.4412  -2.3961  -2.3643
    -2.3450  -2.3259  -2.2927  -2.2675  -2.1914  -2.1426  -2.1285  -2.0383
    -2.0221  -2.0047  -1.9469  -1.9445  -1.9061  -1.8636  -1.8324  -1.8086
    -1.7447  -1.7125  -1.6741  -1.6440  -1.5812  -1.5413  -1.5069  -1.4621
    -1.4327  -1.3738  -1.3492  -1.3026  -1.2255  -1.2076  -1.1302  -1.1057
    -1.0617  -1.0155  -0.9258  -0.8774  -0.8156  -0.8017  -0.7396  -0.6823
    -0.6087  -0.4689  -0.2595   0.0903   0.1270   0.1541   0.1866   1.8598
     2.0462   2.1328   2.1771   2.2261   2.2678   2.3047   2.3313   2.3820
     2.4424   2.4571   2.4837   2.5111   2.5190   2.5817   2.6908   2.7223
     2.7427   2.7741   2.8258   2.8390   2.8913   2.9479   2.9689   2.9848
     3.0221   3.0329   3.1683   3.2060   3.2885   3.3149   3.3322   3.3688
     3.4096   3.4348   3.4582   3.5412   3.5575   3.6330   3.6554   3.7332
     3.7914   3.8153   3.8605   3.8970   3.9050   4.0708   4.1149   4.1636
     4.3410   4.3832   4.6135   4.9646   5.0173   5.1226   5.1361   5.1545
     5.2576   5.2851   5.3131   5.4259   5.5096   5.5593   5.6382   5.7609
     5.8228   5.8465   5.8930   5.9348   5.9543   5.9958   6.0509   6.0626
     6.1342   6.1538   6.2276   6.3220   6.3777   6.4084   6.4772   6.6435
     6.6935   6.7945   6.8396   7.0338   7.1435   7.3623   7.4803   7.5867
     7.9784   8.1762   8.3512   8.5202   8.6478   8.8590   9.0511   9.1141
     9.1810   9.4874   9.6189

          k =-0.0506 0.0280 0.0000 ( 34685 PWs)   bands (ev):

   -57.6984 -57.6681 -57.3176 -57.2861 -57.2348 -57.1093 -57.0775 -57.0725
   -57.0536 -57.0419 -56.9898 -56.9590 -56.7298 -56.6972 -56.1492 -56.1186
   -34.1125 -33.9810 -33.9563 -33.8935 -33.8467 -33.8138 -33.7741 -33.6352
   -33.6139 -33.5872 -33.5451 -33.5377 -33.5297 -33.5219 -33.4954 -33.4745
   -33.4609 -33.4508 -33.4315 -33.3710 -33.3195 -33.2927 -33.2810 -33.2672
   -33.2661 -33.2633 -33.2610 -33.2558 -33.2395 -33.2381 -33.2359 -33.2158
   -33.2051 -33.1875 -33.1791 -33.1467 -33.1435 -32.9945 -32.9853 -32.9585
   -32.9149 -32.8349 -32.5434 -32.5048 -32.4781 -32.3674 -32.2881 -32.2010
   -20.3055 -17.8627 -17.6530 -17.3708 -17.3435 -17.2519 -17.2265 -17.2164
   -17.1244 -17.0454 -16.9653 -16.9227 -16.8730 -16.8595 -16.8567 -16.8346
   -16.7656 -16.7467 -16.5614 -16.5300 -16.5062 -16.4399 -16.4173 -16.3782
   -16.3705 -16.3135 -16.1931 -16.1738 -16.1543 -16.0137 -15.9677 -14.7425
   -14.6751 -11.4314  -7.2372  -5.4570  -5.2277  -5.1298  -4.8941  -4.8359
    -4.7219  -4.7061  -4.6773  -4.6567  -4.6319  -4.5112  -4.4296  -4.3474
    -4.3206  -4.3033  -4.1615  -4.1286  -4.0626  -4.0284  -4.0104  -3.9950
    -3.9846  -3.9114  -3.8616  -3.8177  -3.7752  -3.7629  -3.7208  -3.6927
    -3.6574  -3.6352  -3.5848  -3.5530  -3.4482  -3.3211  -3.2872  -3.2638
    -3.2260  -3.1720  -3.1035  -3.0600  -2.9556  -2.9395  -2.8773  -2.8422
    -2.7448  -2.6963  -2.6614  -2.6524  -2.6058  -2.5926  -2.5375  -2.4970
    -2.4387  -2.3891  -2.3828  -2.3373  -2.3104  -2.2561  -2.1811  -2.1378
    -2.1150  -2.0641  -2.0269  -1.9761  -1.9416  -1.9065  -1.8617  -1.8332
    -1.7564  -1.7419  -1.7135  -1.6427  -1.5417  -1.5083  -1.4864  -1.4189
    -1.3686  -1.3490  -1.2806  -1.2618  -1.2391  -1.1485  -1.1123  -1.0148
    -0.9783  -0.8816  -0.8574  -0.8152  -0.7801  -0.7655  -0.7069  -0.6915
    -0.5147  -0.3137  -0.2613  -0.0747   0.1083   0.1376   0.1609   1.7025
     1.9034   2.0587   2.1207   2.1256   2.1709   2.2392   2.3595   2.3705
     2.4044   2.4362   2.5161   2.5658   2.5729   2.6011   2.6820   2.6948
     2.7414   2.8008   2.8314   2.9012   2.9541   2.9799   3.0400   3.0586
     3.0891   3.1587   3.1695   3.1989   3.3006   3.3547   3.3746   3.4088
     3.4444   3.4566   3.5451   3.5847   3.6026   3.6518   3.6744   3.6831
     3.7154   3.7693   3.8168   3.8677   3.9309   4.0575   4.1670   4.2804
     4.2915   4.4211   4.6205   4.6878   4.7627   4.8095   4.8536   4.9840
     5.0109   5.1244   5.2215   5.4682   5.5929   5.6391   5.7196   5.8035
     5.8596   5.8708   5.9236   5.9456   5.9791   6.0922   6.1162   6.1376
     6.2291   6.4303   6.4805   6.5385   6.5762   6.6073   6.6837   6.7410
     6.7963   6.8157   6.9722   7.1167   7.1659   7.3949   7.5649   7.6995
     8.1331   8.1620   8.2452   8.3842   8.7541   8.9672   9.0093   9.0465
     9.3774   9.4501   9.6060

          k =-0.0506 0.0560 0.0000 ( 34596 PWs)   bands (ev):

   -57.6920 -57.6746 -57.3111 -57.2927 -57.2339 -57.1033 -57.0835 -57.0660
   -57.0545 -57.0484 -56.9833 -56.9655 -56.7232 -56.7039 -56.1427 -56.1251
   -34.0425 -33.9757 -33.9614 -33.8768 -33.8472 -33.8308 -33.7755 -33.5982
   -33.5771 -33.5743 -33.5377 -33.5236 -33.5174 -33.5129 -33.4797 -33.4753
   -33.4558 -33.4286 -33.4059 -33.3555 -33.3200 -33.3197 -33.3029 -33.3008
   -33.2884 -33.2784 -33.2696 -33.2627 -33.2555 -33.2553 -33.2494 -33.2414
   -33.2124 -33.2025 -33.1726 -33.1665 -33.1274 -32.9895 -32.9794 -32.9637
   -32.9278 -32.9044 -32.4991 -32.4837 -32.4727 -32.3509 -32.3050 -32.2750
   -20.3052 -17.7082 -17.5024 -17.2933 -17.2417 -17.1997 -17.1755 -17.1639
   -17.0918 -17.0388 -17.0079 -16.9155 -16.8585 -16.8509 -16.8465 -16.8084
   -16.7781 -16.7239 -16.6645 -16.6245 -16.6148 -16.5527 -16.5144 -16.4009
   -16.3452 -16.2654 -16.2280 -16.1948 -16.1583 -16.1149 -16.0397 -14.7618
   -14.7262 -11.4305  -7.2360  -5.4298  -5.1406  -5.0238  -4.6609  -4.6190
    -4.5175  -4.5012  -4.4859  -4.4585  -4.4343  -4.3691  -4.3267  -4.3036
    -4.2275  -4.2073  -4.1482  -4.1339  -4.0846  -4.0690  -4.0480  -4.0384
    -4.0163  -3.9984  -3.9706  -3.9165  -3.8961  -3.8902  -3.8240  -3.7892
    -3.7326  -3.6618  -3.6320  -3.5244  -3.4899  -3.3789  -3.3303  -3.2637
    -3.2582  -3.2470  -3.1455  -3.0166  -2.9354  -2.9065  -2.8529  -2.8328
    -2.7584  -2.7286  -2.6868  -2.6114  -2.5935  -2.5696  -2.5307  -2.4918
    -2.4304  -2.4078  -2.3677  -2.3314  -2.3184  -2.3021  -2.2573  -2.1800
    -2.1543  -2.1230  -2.1159  -2.0794  -2.0494  -2.0041  -1.9861  -1.9036
    -1.8933  -1.8536  -1.8345  -1.7263  -1.6395  -1.6080  -1.5747  -1.4803
    -1.4099  -1.3766  -1.3091  -1.2492  -1.2079  -1.1112  -1.0751  -1.0192
    -1.0039  -0.9386  -0.8546  -0.8214  -0.7719  -0.7581  -0.6943  -0.6589
    -0.6535  -0.5196  -0.3264   0.0763   0.1104   0.1284   0.1920   1.8651
     2.0750   2.1633   2.1975   2.2193   2.2420   2.2966   2.3461   2.3913
     2.4020   2.5358   2.5684   2.5775   2.6058   2.6265   2.6816   2.7530
     2.7804   2.8026   2.8371   2.8792   2.9617   3.0025   3.0266   3.0603
     3.0955   3.1345   3.1659   3.2550   3.3339   3.3657   3.3953   3.4392
     3.4770   3.4981   3.5202   3.5408   3.6133   3.6458   3.7097   3.7426
     3.7784   3.8500   3.8786   3.9177   3.9236   3.9526   4.1100   4.1732
     4.2877   4.4719   4.7227   4.8052   4.8148   4.8946   4.9403   5.0905
     5.1637   5.2300   5.2703   5.3268   5.3704   5.4331   5.4937   5.6244
     5.7793   5.8287   5.8793   5.9503   6.0382   6.1225   6.2155   6.2577
     6.2849   6.3480   6.4145   6.4488   6.5032   6.5758   6.6465   6.7146
     6.7292   6.8222   6.8453   6.9826   7.0519   7.4093   7.4340   7.5764
     7.7405   7.9424   8.0686   8.3881   8.5728   8.6091   8.7435   9.0091
     9.2247   9.3224   9.4528

     the Fermi energy is     0.9953 ev

!    total energy              =   -3021.41972686 Ry
     Harris-Foulkes estimate   =   -3021.41972711 Ry
     estimated scf accuracy    <       0.00000030 Ry

     The total energy is the sum of the following terms:

     one-electron contribution =  -41239.53196787 Ry
     hartree contribution      =   20693.98123974 Ry
     xc contribution           =    -553.67798336 Ry
     ewald contribution        =   18077.80919578 Ry
     smearing contrib. (-TS)   =      -0.00021114 Ry

     total magnetization       =     0.00 Bohr mag/cell
     absolute magnetization    =     0.00 Bohr mag/cell

     convergence has been achieved in   9 iterations

     Forces acting on atoms (Ry/au):


     negative rho (up, down):  1.207E-02 1.207E-02
     atom    1 type  1   force =     0.00001765   -0.00035598   -0.13379400
     atom    2 type  2   force =     0.00000499    0.00002987    0.07213875
     atom    3 type  1   force =    -0.00135411    0.00030915   -0.06098601
     atom    4 type  2   force =     0.00289989    0.00048614    0.00638365
     atom    5 type  1   force =     0.00027880    0.00183940    0.00350546
     atom    6 type  2   force =     0.00005169    0.00000658   -0.00280606
     atom    7 type  1   force =    -0.00041276   -0.00084269    0.00421418
     atom    8 type  2   force =     0.00098405   -0.00016359   -0.00070161
     atom    9 type  1   force =    -0.00002683    0.00002011   -0.13355276
     atom   10 type  2   force =    -0.00006672    0.00006611    0.07131871
     atom   11 type  1   force =    -0.00131589   -0.00024168   -0.05590009
     atom   12 type  2   force =     0.00299265   -0.00006899    0.00609683
     atom   13 type  1   force =     0.00029888   -0.00146669    0.00344553
     atom   14 type  2   force =    -0.00119481   -0.00038746   -0.00289578
     atom   15 type  1   force =    -0.00058365    0.00027446    0.00455096
     atom   16 type  2   force =     0.00060641   -0.00021908   -0.00007603
     atom   17 type  2   force =    -0.00006983   -0.00007052    0.07939168
     atom   18 type  1   force =     0.00013727   -0.00017170    0.11913011
     atom   19 type  2   force =    -0.00010722   -0.00017381   -0.06667877
     atom   20 type  2   force =    -0.06322587    0.00014798   -0.03223991
     atom   21 type  2   force =     0.06320410    0.00001570   -0.03244616
     atom   22 type  1   force =     0.00072452    0.00108266    0.05973918
     atom   23 type  2   force =    -0.00017099    0.00005655   -0.00175219
     atom   24 type  2   force =    -0.00143320   -0.00000435   -0.02326776
     atom   25 type  2   force =    -0.00312645    0.00059122    0.00786928
     atom   26 type  1   force =     0.00063593    0.00029291    0.00461626
     atom   27 type  2   force =     0.00052589    0.00059924   -0.00383372
     atom   28 type  2   force =     0.00014409   -0.00008884   -0.00120133
     atom   29 type  2   force =     0.00021231   -0.00034492   -0.00058517
     atom   30 type  1   force =     0.00032231   -0.00073749    0.00392521
     atom   31 type  2   force =     0.00003385    0.00012785   -0.00264217
     atom   32 type  2   force =     0.00001331   -0.00002915   -0.00119613
     atom   33 type  2   force =    -0.00011998    0.00003727    0.07899392
     atom   34 type  1   force =     0.00006946   -0.00021809    0.11904507
     atom   35 type  2   force =    -0.00030324   -0.00005415   -0.06637925
     atom   36 type  2   force =    -0.06318632   -0.00005243   -0.03233242
     atom   37 type  2   force =     0.06333348   -0.00020146   -0.03248571
     atom   38 type  1   force =     0.00066153   -0.00097856    0.05995751
     atom   39 type  2   force =    -0.00045341    0.00010411   -0.00249765
     atom   40 type  2   force =    -0.00118923    0.00030749   -0.02217806
     atom   41 type  2   force =    -0.00316649   -0.00015024    0.00789550
     atom   42 type  1   force =     0.00051340    0.00006858    0.00372812
     atom   43 type  2   force =     0.00069149    0.00023601   -0.00300524
     atom   44 type  2   force =     0.00022904    0.00010272   -0.00116033
     atom   45 type  2   force =     0.00018669    0.00030899   -0.00061603
     atom   46 type  1   force =     0.00060001    0.00034569    0.00399446
     atom   47 type  2   force =     0.00005794   -0.00034545   -0.00142551
     atom   48 type  2   force =     0.00005941    0.00001190   -0.00086021
     atom   49 type  3   force =     0.00172531   -0.01167240    0.01541003
     atom   50 type  2   force =     0.00062287   -0.00251556    0.00012805
     atom   51 type  4   force =     0.00030050   -0.00097948    0.00033349
     atom   52 type  4   force =     0.00050417    0.00038319    0.00073579
     atom   53 type  4   force =    -0.00222248    0.01377752   -0.01538621
     atom   54 type  4   force =     0.00008557    0.00090536   -0.00166550

     Total force =     0.363724     Total SCF correction =     0.001163
 !ASE

     Writing output data file calc.save
 
     init_run     :     55.52s CPU     70.45s WALL (       1 calls)
     electrons    :   2099.23s CPU   2534.33s WALL (       1 calls)
     forces       :     40.29s CPU     41.57s WALL (       1 calls)

     Called by init_run:
     wfcinit      :     46.96s CPU     61.11s WALL (       1 calls)
     potinit      :      1.51s CPU      1.88s WALL (       1 calls)

     Called by electrons:
     c_bands      :   1827.02s CPU   2192.68s WALL (      10 calls)
     sum_band     :    232.21s CPU    295.76s WALL (      10 calls)
     v_of_rho     :      9.80s CPU     12.43s WALL (      10 calls)
     newd         :     34.12s CPU     37.62s WALL (      10 calls)
     mix_rho      :      0.31s CPU      0.46s WALL (      10 calls)
     vdW_energy   :      1.80s CPU      2.24s WALL (      11 calls)
     vdW_ffts     :      2.66s CPU      3.51s WALL (      22 calls)
     vdW_v        :      0.99s CPU      1.20s WALL (      11 calls)

     Called by c_bands:
     init_us_2    :      5.94s CPU      6.49s WALL (     880 calls)
     cegterg      :   1791.72s CPU   2155.33s WALL (     400 calls)

     Called by *egterg:
     h_psi        :    734.11s CPU   1017.58s WALL (    2155 calls)
     s_psi        :     90.98s CPU     95.21s WALL (    2155 calls)
     g_psi        :      4.91s CPU      5.05s WALL (    1715 calls)
     cdiaghg      :    627.91s CPU    644.03s WALL (    2075 calls)

     Called by h_psi:
     add_vuspsi   :     91.54s CPU     95.83s WALL (    2155 calls)

     General routines
     calbec       :    138.73s CPU    142.26s WALL (    2595 calls)
     fft          :      5.79s CPU      7.57s WALL (     875 calls)
     ffts         :      0.04s CPU      0.06s WALL (      40 calls)
     fftw         :    477.56s CPU    809.82s WALL (  726044 calls)
     interpolate  :      0.31s CPU      0.48s WALL (      40 calls)
     davcio       :      0.03s CPU      1.73s WALL (      40 calls)
 
     Parallel routines
     fft_scatter  :    247.90s CPU    443.92s WALL (  726959 calls)
 
     PWSCF        : 36m35.97s CPU    44m 9.84s WALL

 
   This run was terminated on:   6:17:54  13Feb2018            

=------------------------------------------------------------------------------=
   JOB DONE.
=------------------------------------------------------------------------------=
