  python dir          : /home/vossj/suncat/lib/python2.7/site-packages/espresso
  espresso dir        : /home/vossj/suncat/esdld/espresso-dynpy-beef/bin
  pseudo dir          : /home/alatimer/bin/psp/esp_psp_w_gbrvRu/
  ase-espresso py git : ffa2778-git



     Program PWSCF v.5.1rc2 (svn rev. ) starts on 27Feb2018 at  0:30:21 

     This program is part of the open-source Quantum ESPRESSO suite
     for quantum simulation of materials; please cite
         "P. Giannozzi et al., J. Phys.:Condens. Matter 21 395502 (2009);
          URL http://www.quantum-espresso.org", 
     in publications or presentations arising from this work. More details at
     http://www.quantum-espresso.org/quote

     Parallel version (MPI), running on    16 processors
     R & G space division:  proc/nbgrp/npool/nimage =      16
     Reading input from pw.inp
     Message from routine read_cards :
     DEPRECATED: no units specified in CELL_PARAMETERS card

     Current dimensions of program PWSCF are:
     Max number of different atomic species (ntypx) = 10
     Max number of k-points (npk) =  40000
     Max angular momentum in pseudopotentials (lmaxx) =  3

     **************************************************************************
     Initializing libbeef V0.1.1 with the BEEF-vdW functional.
     Citation: Wellendorff et al., PRB 85, 235149 (2012).
     **************************************************************************


     IMPORTANT: XC functional enforced from input :
     Exchange-correlation      = BEEF ( 1  4 27 13 2)
     Any further DFT definition will be discarded
     Please, verify this is what you really want


     Subspace diagonalization in iterative solution of the eigenvalue problem:
     a serial algorithm will be used

 
     Parallelization info
     --------------------
     sticks:   dense  smooth     PW     G-vecs:    dense   smooth      PW
     Min         281     112     31                68535    17318    2565
     Max         282     113     32                68545    17369    2582
     Sum        4501    1795    503              1096637   277353   41113
 
     Generating pointlists ...
     new r_m :   0.4125 (alat units)  0.7795 (a.u.) for type    1
     new r_m :   0.4125 (alat units)  0.7795 (a.u.) for type    2
     new r_m :   0.4125 (alat units)  0.7795 (a.u.) for type    3
     new r_m :   0.4125 (alat units)  0.7795 (a.u.) for type    4


     bravais-lattice index     =            0
     lattice parameter (alat)  =       1.8897  a.u.
     unit-cell volume          =    7990.9933 (a.u.)^3
     number of atoms/cell      =           54
     number of atomic types    =            4
     number of electrons       =       398.00
     number of Kohn-Sham states=          299
     kinetic-energy cutoff     =      40.4243  Ry
     charge density cutoff     =     404.2426  Ry
     convergence threshold     =      7.3E-07
     mixing beta               =       0.1000
     number of iterations used =           10  plain     mixing
     Exchange-correlation      = BEEF ( 1  4 27 13 2)
     nstep                     =           50


     celldm(1)=   1.889726  celldm(2)=   0.000000  celldm(3)=   0.000000
     celldm(4)=   0.000000  celldm(5)=   0.000000  celldm(6)=   0.000000

     crystal axes: (cart. coord. in units of alat)
               a(1) = (   6.590708   0.000000   0.000000 )  
               a(2) = (   0.000000   5.950229   0.000000 )  
               a(3) = (   0.000000   0.000000  30.195235 )  

     reciprocal axes: (cart. coord. in units 2 pi/alat)
               b(1) = (  0.151729  0.000000  0.000000 )  
               b(2) = (  0.000000  0.168061  0.000000 )  
               b(3) = (  0.000000  0.000000  0.033118 )  


     PseudoPot. # 1 for Ti read from file:
     /home/alatimer/bin/psp/esp_psp_w_gbrvRu/Ti.UPF
     MD5 check sum: 8e4df49b7f0d34bbd5052bf3f5ea0213
     Pseudo is Ultrasoft, Zval = 12.0
     Generated by new atomic code, or converted to UPF format
     Using radial grid of  851 points,  6 beta functions with: 
                l(1) =   0
                l(2) =   0
                l(3) =   1
                l(4) =   1
                l(5) =   2
                l(6) =   2
     Q(r) pseudized with  8 coefficients,  rinner =    1.000   1.000   1.000
                                                       1.000   1.000

     PseudoPot. # 2 for  O read from file:
     /home/alatimer/bin/psp/esp_psp_w_gbrvRu/O.UPF
     MD5 check sum: e057bbcf3229fb5d8c36c0c92f9568b4
     Pseudo is Ultrasoft + core correction, Zval =  6.0
     Generated using "atomic" code by A. Dal Corso  v.5.0.2 svn rev. 9415
     Using radial grid of 1095 points,  4 beta functions with: 
                l(1) =   0
                l(2) =   0
                l(3) =   1
                l(4) =   1
     Q(r) pseudized with 0 coefficients 


     PseudoPot. # 3 for  C read from file:
     /home/alatimer/bin/psp/esp_psp_w_gbrvRu/C.UPF
     MD5 check sum: ab446d787031eba755f1d5ee46644bb0
     Pseudo is Ultrasoft + core correction, Zval =  4.0
     Generated using "atomic" code by A. Dal Corso  v.5.0.2 svn rev. 9415
     Using radial grid of 1073 points,  4 beta functions with: 
                l(1) =   0
                l(2) =   0
                l(3) =   1
                l(4) =   1
     Q(r) pseudized with 0 coefficients 


     PseudoPot. # 4 for  H read from file:
     /home/alatimer/bin/psp/esp_psp_w_gbrvRu/H.UPF
     MD5 check sum: bd57da0722753ddfd9833a65b40bb853
     Pseudo is Ultrasoft, Zval =  1.0
     Generated using "atomic" code by A. Dal Corso  v.5.0.2 svn rev. 9415
     Using radial grid of  929 points,  2 beta functions with: 
                l(1) =   0
                l(2) =   0
     Q(r) pseudized with 0 coefficients 


     vdW kernel table read from file vdW_kernel_table
     MD5 check sum: 095c7af220d748ca6e76c0b4c6cfb241

     atomic species   valence    mass     pseudopotential
        Ti1           12.00    47.88000     Ti( 1.00)
        O1             6.00    15.99940      O( 1.00)
        C1             4.00    12.01100      C( 1.00)
        H1             1.00     1.00794      H( 1.00)

     Starting magnetic structure 
     atomic species   magnetization
        Ti1          0.250
        O1           0.500
        C1           0.750
        H1           0.000

     No symmetry found



   Cartesian axes

     site n.     atom                  positions (alat units)
         1           Ti1 tau(   1) = (   1.6476770   0.7437786   2.6545865  )
         2           O1  tau(   2) = (   1.6476770   2.2313359   3.9361215  )
         3           Ti1 tau(   3) = (   1.6476770   2.2313359   5.9499405  )
         4           O1  tau(   4) = (   0.3661420   0.7437786   5.9499405  )
         5           Ti1 tau(   5) = (   1.6407309   0.9134410   9.3139491  )
         6           O1  tau(   6) = (   1.6648823   2.2608486  10.4895904  )
         7           Ti1 tau(   7) = (   1.7578240   2.2899216  13.0472362  )
         8           O1  tau(   8) = (   0.4801583   0.7600008  12.7739736  )
         9           Ti1 tau(   9) = (   1.6476770   3.7188931   2.6545865  )
        10           O1  tau(  10) = (   1.6476770   5.2064503   3.9361215  )
        11           Ti1 tau(  11) = (   1.6476770   5.2064503   5.9499405  )
        12           O1  tau(  12) = (   0.3661420   3.7188931   5.9499405  )
        13           Ti1 tau(  13) = (   1.6336050   3.7786827   9.1566831  )
        14           O1  tau(  14) = (   1.6678212   5.2513959  10.5409436  )
        15           Ti1 tau(  15) = (   1.7144009   5.2558216  12.3462911  )
        16           O1  tau(  16) = (   0.4635505   3.7986228  12.7318280  )
        17           O1  tau(  17) = (   1.6476770   2.2313359   1.3730516  )
        18           Ti1 tau(  18) = (   4.9430310   2.2313359   2.6545865  )
        19           O1  tau(  19) = (   4.9430310   2.2313359   4.6684056  )
        20           O1  tau(  20) = (   6.2245660   0.7437786   2.6545865  )
        21           O1  tau(  21) = (   3.6614961   0.7437786   2.6545865  )
        22           Ti1 tau(  22) = (   4.9430310   0.7437786   5.9499405  )
        23           O1  tau(  23) = (   1.6683653   2.2752577   7.9427336  )
        24           O1  tau(  24) = (   4.9430310   2.2313359   7.2314755  )
        25           O1  tau(  25) = (   2.9292120   0.7437786   5.9499405  )
        26           Ti1 tau(  26) = (   4.9404121   2.2664794   9.4552217  )
        27           O1  tau(  27) = (   5.0099888   2.2616732  11.2946145  )
        28           O1  tau(  28) = (   6.2612001   0.7714827   9.2659748  )
        29           O1  tau(  29) = (   3.6791272   0.7744986   9.2965846  )
        30           Ti1 tau(  30) = (   5.0117873   0.7976728  12.8161605  )
        31           O1  tau(  31) = (   4.9963122   2.2836652  13.8750618  )
        32           O1  tau(  32) = (   2.9819382   0.7448324  12.7109220  )
        33           O1  tau(  33) = (   1.6476770   5.2064503   1.3730516  )
        34           Ti1 tau(  34) = (   4.9430310   5.2064503   2.6545865  )
        35           O1  tau(  35) = (   4.9430310   5.2064503   4.6684056  )
        36           O1  tau(  36) = (   6.2245660   3.7188931   2.6545865  )
        37           O1  tau(  37) = (   3.6614961   3.7188931   2.6545865  )
        38           Ti1 tau(  38) = (   4.9430310   3.7188931   5.9499405  )
        39           O1  tau(  39) = (   1.6664207   5.2035600   7.9365221  )
        40           O1  tau(  40) = (   4.9430310   5.2064503   7.2314755  )
        41           O1  tau(  41) = (   2.9292120   3.7188931   5.9499405  )
        42           Ti1 tau(  42) = (   4.9524353   5.2460635   9.4426343  )
        43           O1  tau(  43) = (   5.0107556   5.2394944  11.2927493  )
        44           O1  tau(  44) = (   6.2663940   3.7551737   9.2646230  )
        45           O1  tau(  45) = (   3.6780957   3.7542261   9.2971476  )
        46           Ti1 tau(  46) = (   5.0587989   3.7766986  12.8010349  )
        47           O1  tau(  47) = (   5.0196089   5.2502198  13.8813978  )
        48           O1  tau(  48) = (   2.9624133   3.7943242  12.7299881  )
        49           O1  tau(  49) = (   1.7427453   2.2533568  14.8370015  )
        50           C1  tau(  50) = (   2.7196098   4.2826273  16.2318421  )
        51           H1  tau(  51) = (   3.3037454   4.9255546  15.5827400  )
        52           H1  tau(  52) = (   3.3286606   3.7870117  16.9822022  )
        53           H1  tau(  53) = (   2.3125587   3.4026405  15.5729816  )
        54           H1  tau(  54) = (   1.8691288   4.7650601  16.6448379  )

     number of k points=    40  Fermi-Dirac smearing, width (Ry)=  0.0073
                       cart. coord. in units 2pi/alat
        k(    1) = (   0.0000000   0.0000000   0.0000000), wk =   0.0277778
        k(    2) = (   0.0000000   0.0280101   0.0000000), wk =   0.0555556
        k(    3) = (   0.0000000   0.0560203   0.0000000), wk =   0.0555556
        k(    4) = (   0.0000000  -0.0840304   0.0000000), wk =   0.0277778
        k(    5) = (   0.0252881   0.0000000   0.0000000), wk =   0.0555556
        k(    6) = (   0.0252881   0.0280101   0.0000000), wk =   0.0555556
        k(    7) = (   0.0252881   0.0560203   0.0000000), wk =   0.0555556
        k(    8) = (   0.0252881  -0.0840304   0.0000000), wk =   0.0555556
        k(    9) = (   0.0505763   0.0000000   0.0000000), wk =   0.0555556
        k(   10) = (   0.0505763   0.0280101   0.0000000), wk =   0.0555556
        k(   11) = (   0.0505763   0.0560203   0.0000000), wk =   0.0555556
        k(   12) = (   0.0505763  -0.0840304   0.0000000), wk =   0.0555556
        k(   13) = (  -0.0758644   0.0000000   0.0000000), wk =   0.0277778
        k(   14) = (  -0.0758644   0.0280101   0.0000000), wk =   0.0555556
        k(   15) = (  -0.0758644   0.0560203   0.0000000), wk =   0.0555556
        k(   16) = (  -0.0758644  -0.0840304   0.0000000), wk =   0.0277778
        k(   17) = (  -0.0252881   0.0280101   0.0000000), wk =   0.0555556
        k(   18) = (  -0.0252881   0.0560203   0.0000000), wk =   0.0555556
        k(   19) = (  -0.0505763   0.0280101   0.0000000), wk =   0.0555556
        k(   20) = (  -0.0505763   0.0560203   0.0000000), wk =   0.0555556
        k(   21) = (   0.0000000   0.0000000   0.0000000), wk =   0.0277778
        k(   22) = (   0.0000000   0.0280101   0.0000000), wk =   0.0555556
        k(   23) = (   0.0000000   0.0560203   0.0000000), wk =   0.0555556
        k(   24) = (   0.0000000  -0.0840304   0.0000000), wk =   0.0277778
        k(   25) = (   0.0252881   0.0000000   0.0000000), wk =   0.0555556
        k(   26) = (   0.0252881   0.0280101   0.0000000), wk =   0.0555556
        k(   27) = (   0.0252881   0.0560203   0.0000000), wk =   0.0555556
        k(   28) = (   0.0252881  -0.0840304   0.0000000), wk =   0.0555556
        k(   29) = (   0.0505763   0.0000000   0.0000000), wk =   0.0555556
        k(   30) = (   0.0505763   0.0280101   0.0000000), wk =   0.0555556
        k(   31) = (   0.0505763   0.0560203   0.0000000), wk =   0.0555556
        k(   32) = (   0.0505763  -0.0840304   0.0000000), wk =   0.0555556
        k(   33) = (  -0.0758644   0.0000000   0.0000000), wk =   0.0277778
        k(   34) = (  -0.0758644   0.0280101   0.0000000), wk =   0.0555556
        k(   35) = (  -0.0758644   0.0560203   0.0000000), wk =   0.0555556
        k(   36) = (  -0.0758644  -0.0840304   0.0000000), wk =   0.0277778
        k(   37) = (  -0.0252881   0.0280101   0.0000000), wk =   0.0555556
        k(   38) = (  -0.0252881   0.0560203   0.0000000), wk =   0.0555556
        k(   39) = (  -0.0505763   0.0280101   0.0000000), wk =   0.0555556
        k(   40) = (  -0.0505763   0.0560203   0.0000000), wk =   0.0555556

     Dense  grid:  1096637 G-vectors     FFT dimensions: (  80,  72, 375)

     Smooth grid:   277353 G-vectors     FFT dimensions: (  54,  45, 240)

     Largest allocated arrays     est. size (Mb)     dimensions
        Kohn-Sham Wavefunctions         9.95 Mb     (    2180,  299)
        NL pseudopotentials            18.89 Mb     (    2180,  568)
        Each V/rho on FFT grid          4.22 Mb     (  138240,   2)
        Each G-vector array             0.52 Mb     (   68538)
        G-vector shells                 0.25 Mb     (   33046)
     Largest temporary arrays     est. size (Mb)     dimensions
        Auxiliary wavefunctions        39.78 Mb     (    2180, 1196)
        Each subspace H/S matrix       21.83 Mb     (    1196, 1196)
        Each <psi_i|beta_j> matrix      2.59 Mb     (     568,  299)
        Arrays for rho mixing          21.09 Mb     (  138240,   10)

     Check: negative/imaginary core charge=   -0.000049    0.000000

     The initial density is read from file :
     ./calc.save/charge-density.dat


     negative rho (up, down):  1.189E-02 1.196E-02


     ************************************************************************
     *
     * You are using vdW-DF for exchange-correlation in this calculation.
     * Please cite the following three references that made this development
     * possible:
     *
     *   M. Dion, H. Rydberg, E. Schroder, D. C. Langreth, and
     *   B. I. Lundqvist, Phys. Rev. Lett. 92, 246401 (2004).
     *
     *   T. Thonhauser, V. R. Cooper, S. Li, A. Puzder, P. Hyldgaard, and
     *   D. C. Langreth, Phys. Rev. B 76, 125112 (2007).
     *
     *   G. Roman-Perez and J. M. Soler, Phys. Rev. Lett. 103, 096102 (2009).
     *
     *
     * If you are using vdW-DF2, please also cite:
     *
     *   K. Lee, E. D. Murray, L. Kong, B. I. Lundqvist, and
     *   D. C. Langreth, Phys. Rev. B 82, 081101(R) (2010).
     *
     *
     * If you are calculating the stress with vdW-DF, please also cite:
     *
     *   R. Sabatini, E. Kucukbenli, B. Kolb, T. Thonhauser, and
     *   S. de Gironcoli, J. Phys.: Condens. Matter 24, 424209 (2012).
     *
     ************************************************************************

     Carrying out vdW-DF run using the following parameters:

     Nqs =      20    Nr_points =    1024   r_max =   100.000
     q_mesh =
               0.00001000     0.04494208     0.09755937     0.15916263
               0.23128650     0.31572767     0.41458969     0.53033537
               0.66584808     0.82450364     1.01025438     1.22772762
               1.48234092     1.78043706     2.12944203     2.53805004
               3.01644009     3.57652955     4.23227104     5.00000000

     Gradients computed in reciprocal space

     ************************************************************************


     Starting wfc are  300 randomized atomic wfcs

     total cpu time spent up to now is       78.8 secs

     Self-consistent Calculation

     iteration #  1     ecut=    40.42 Ry     beta=0.10
     Davidson diagonalization with overlap
     ethr =  1.00E-05,  avg # of iterations = 15.0

     Threshold (ethr) on eigenvalues was too large:
     Diagonalizing with lowered threshold

     Davidson diagonalization with overlap
     ethr =  7.97E-07,  avg # of iterations =  1.0

     negative rho (up, down):  1.190E-02 1.196E-02
 
     Magnetic moment per site:
     atom:    1    charge:    3.1244    magn:   -0.0003    constr:    0.0000
     atom:    2    charge:    2.0897    magn:    0.0003    constr:    0.0000
     atom:    3    charge:    3.1198    magn:   -0.0000    constr:    0.0000
     atom:    4    charge:    2.0867    magn:   -0.0001    constr:    0.0000
     atom:    5    charge:    3.1161    magn:   -0.0002    constr:    0.0000
     atom:    6    charge:    2.0795    magn:    0.0021    constr:    0.0000
     atom:    7    charge:    3.1167    magn:   -0.0053    constr:    0.0000
     atom:    8    charge:    2.0792    magn:    0.0250    constr:    0.0000
     atom:    9    charge:    3.1244    magn:   -0.0003    constr:    0.0000
     atom:   10    charge:    2.0898    magn:    0.0003    constr:    0.0000
     atom:   11    charge:    3.1198    magn:   -0.0000    constr:    0.0000
     atom:   12    charge:    2.0870    magn:   -0.0000    constr:    0.0000
     atom:   13    charge:    3.1150    magn:   -0.0002    constr:    0.0000
     atom:   14    charge:    2.0939    magn:    0.0023    constr:    0.0000
     atom:   15    charge:    3.1184    magn:   -0.0008    constr:    0.0000
     atom:   16    charge:    2.0828    magn:    0.0046    constr:    0.0000
     atom:   17    charge:    2.0624    magn:    0.0018    constr:    0.0000
     atom:   18    charge:    3.1239    magn:   -0.0001    constr:    0.0000
     atom:   19    charge:    2.0875    magn:    0.0001    constr:    0.0000
     atom:   20    charge:    2.0847    magn:    0.0002    constr:    0.0000
     atom:   21    charge:    2.0847    magn:    0.0002    constr:    0.0000
     atom:   22    charge:    3.1199    magn:    0.0000    constr:    0.0000
     atom:   23    charge:    2.0908    magn:    0.0002    constr:    0.0000
     atom:   24    charge:    2.0754    magn:   -0.0002    constr:    0.0000
     atom:   25    charge:    2.0867    magn:    0.0000    constr:    0.0000
     atom:   26    charge:    3.1127    magn:   -0.0002    constr:    0.0000
     atom:   27    charge:    2.0803    magn:    0.0025    constr:    0.0000
     atom:   28    charge:    2.0839    magn:    0.0006    constr:    0.0000
     atom:   29    charge:    2.0860    magn:    0.0008    constr:    0.0000
     atom:   30    charge:    3.1171    magn:   -0.0008    constr:    0.0000
     atom:   31    charge:    2.0825    magn:    0.0006    constr:    0.0000
     atom:   32    charge:    2.0829    magn:    0.0064    constr:    0.0000
     atom:   33    charge:    2.0623    magn:    0.0018    constr:    0.0000
     atom:   34    charge:    3.1239    magn:   -0.0001    constr:    0.0000
     atom:   35    charge:    2.0875    magn:    0.0001    constr:    0.0000
     atom:   36    charge:    2.0847    magn:    0.0002    constr:    0.0000
     atom:   37    charge:    2.0847    magn:    0.0002    constr:    0.0000
     atom:   38    charge:    3.1200    magn:    0.0000    constr:    0.0000
     atom:   39    charge:    2.0839    magn:    0.0002    constr:    0.0000
     atom:   40    charge:    2.0756    magn:   -0.0003    constr:    0.0000
     atom:   41    charge:    2.0870    magn:   -0.0000    constr:    0.0000
     atom:   42    charge:    3.1151    magn:   -0.0002    constr:    0.0000
     atom:   43    charge:    2.0803    magn:    0.0030    constr:    0.0000
     atom:   44    charge:    2.0851    magn:    0.0008    constr:    0.0000
     atom:   45    charge:    2.0858    magn:    0.0004    constr:    0.0000
     atom:   46    charge:    3.1147    magn:   -0.0007    constr:    0.0000
     atom:   47    charge:    2.0807    magn:    0.0047    constr:    0.0000
     atom:   48    charge:    2.0837    magn:    0.0137    constr:    0.0000
     atom:   49    charge:    2.0514    magn:    0.2400    constr:    0.0000
     atom:   50    charge:    0.6727    magn:    0.0546    constr:    0.0000
     atom:   51    charge:    0.4219    magn:    0.0009    constr:    0.0000
     atom:   52    charge:    0.4226    magn:    0.0008    constr:    0.0000
     atom:   53    charge:    0.3675    magn:    0.0230    constr:    0.0000
     atom:   54    charge:    0.4362    magn:    0.0009    constr:    0.0000

     total cpu time spent up to now is     1236.5 secs

     total energy              =   -3021.14947921 Ry
     Harris-Foulkes estimate   =   -3021.14986471 Ry
     estimated scf accuracy    <       0.00317433 Ry

     total magnetization       =     1.06 Bohr mag/cell
     absolute magnetization    =     1.23 Bohr mag/cell

     iteration #  2     ecut=    40.42 Ry     beta=0.10
     Davidson diagonalization with overlap
     ethr =  7.98E-07,  avg # of iterations =  2.0

     negative rho (up, down):  1.190E-02 1.196E-02
 
     Magnetic moment per site:
     atom:    1    charge:    3.1244    magn:   -0.0003    constr:    0.0000
     atom:    2    charge:    2.0897    magn:    0.0003    constr:    0.0000
     atom:    3    charge:    3.1198    magn:   -0.0000    constr:    0.0000
     atom:    4    charge:    2.0867    magn:   -0.0001    constr:    0.0000
     atom:    5    charge:    3.1161    magn:   -0.0002    constr:    0.0000
     atom:    6    charge:    2.0795    magn:    0.0021    constr:    0.0000
     atom:    7    charge:    3.1167    magn:   -0.0054    constr:    0.0000
     atom:    8    charge:    2.0791    magn:    0.0251    constr:    0.0000
     atom:    9    charge:    3.1244    magn:   -0.0003    constr:    0.0000
     atom:   10    charge:    2.0899    magn:    0.0003    constr:    0.0000
     atom:   11    charge:    3.1198    magn:   -0.0000    constr:    0.0000
     atom:   12    charge:    2.0871    magn:   -0.0000    constr:    0.0000
     atom:   13    charge:    3.1150    magn:   -0.0002    constr:    0.0000
     atom:   14    charge:    2.0939    magn:    0.0023    constr:    0.0000
     atom:   15    charge:    3.1184    magn:   -0.0008    constr:    0.0000
     atom:   16    charge:    2.0827    magn:    0.0047    constr:    0.0000
     atom:   17    charge:    2.0626    magn:    0.0017    constr:    0.0000
     atom:   18    charge:    3.1239    magn:   -0.0001    constr:    0.0000
     atom:   19    charge:    2.0876    magn:    0.0001    constr:    0.0000
     atom:   20    charge:    2.0847    magn:    0.0002    constr:    0.0000
     atom:   21    charge:    2.0847    magn:    0.0002    constr:    0.0000
     atom:   22    charge:    3.1199    magn:    0.0000    constr:    0.0000
     atom:   23    charge:    2.0908    magn:    0.0002    constr:    0.0000
     atom:   24    charge:    2.0754    magn:   -0.0002    constr:    0.0000
     atom:   25    charge:    2.0867    magn:    0.0000    constr:    0.0000
     atom:   26    charge:    3.1127    magn:   -0.0002    constr:    0.0000
     atom:   27    charge:    2.0802    magn:    0.0025    constr:    0.0000
     atom:   28    charge:    2.0838    magn:    0.0006    constr:    0.0000
     atom:   29    charge:    2.0860    magn:    0.0008    constr:    0.0000
     atom:   30    charge:    3.1171    magn:   -0.0008    constr:    0.0000
     atom:   31    charge:    2.0825    magn:    0.0006    constr:    0.0000
     atom:   32    charge:    2.0829    magn:    0.0065    constr:    0.0000
     atom:   33    charge:    2.0626    magn:    0.0017    constr:    0.0000
     atom:   34    charge:    3.1239    magn:   -0.0001    constr:    0.0000
     atom:   35    charge:    2.0876    magn:    0.0001    constr:    0.0000
     atom:   36    charge:    2.0847    magn:    0.0002    constr:    0.0000
     atom:   37    charge:    2.0847    magn:    0.0002    constr:    0.0000
     atom:   38    charge:    3.1200    magn:    0.0000    constr:    0.0000
     atom:   39    charge:    2.0839    magn:    0.0002    constr:    0.0000
     atom:   40    charge:    2.0756    magn:   -0.0003    constr:    0.0000
     atom:   41    charge:    2.0870    magn:   -0.0000    constr:    0.0000
     atom:   42    charge:    3.1151    magn:   -0.0002    constr:    0.0000
     atom:   43    charge:    2.0802    magn:    0.0030    constr:    0.0000
     atom:   44    charge:    2.0850    magn:    0.0008    constr:    0.0000
     atom:   45    charge:    2.0858    magn:    0.0004    constr:    0.0000
     atom:   46    charge:    3.1148    magn:   -0.0007    constr:    0.0000
     atom:   47    charge:    2.0806    magn:    0.0047    constr:    0.0000
     atom:   48    charge:    2.0836    magn:    0.0137    constr:    0.0000
     atom:   49    charge:    2.0513    magn:    0.2402    constr:    0.0000
     atom:   50    charge:    0.6738    magn:    0.0545    constr:    0.0000
     atom:   51    charge:    0.4219    magn:    0.0009    constr:    0.0000
     atom:   52    charge:    0.4226    magn:    0.0007    constr:    0.0000
     atom:   53    charge:    0.3675    magn:    0.0228    constr:    0.0000
     atom:   54    charge:    0.4363    magn:    0.0009    constr:    0.0000

     total cpu time spent up to now is     1455.5 secs

     total energy              =   -3021.14927233 Ry
     Harris-Foulkes estimate   =   -3021.14953764 Ry
     estimated scf accuracy    <       0.00222556 Ry

     total magnetization       =     1.06 Bohr mag/cell
     absolute magnetization    =     1.23 Bohr mag/cell

     iteration #  3     ecut=    40.42 Ry     beta=0.10
     Davidson diagonalization with overlap
     ethr =  5.59E-07,  avg # of iterations =  1.9

     negative rho (up, down):  1.191E-02 1.197E-02
 
     Magnetic moment per site:
     atom:    1    charge:    3.1244    magn:   -0.0003    constr:    0.0000
     atom:    2    charge:    2.0897    magn:    0.0003    constr:    0.0000
     atom:    3    charge:    3.1198    magn:   -0.0000    constr:    0.0000
     atom:    4    charge:    2.0867    magn:   -0.0001    constr:    0.0000
     atom:    5    charge:    3.1161    magn:   -0.0002    constr:    0.0000
     atom:    6    charge:    2.0795    magn:    0.0021    constr:    0.0000
     atom:    7    charge:    3.1167    magn:   -0.0054    constr:    0.0000
     atom:    8    charge:    2.0791    magn:    0.0252    constr:    0.0000
     atom:    9    charge:    3.1244    magn:   -0.0003    constr:    0.0000
     atom:   10    charge:    2.0898    magn:    0.0003    constr:    0.0000
     atom:   11    charge:    3.1198    magn:   -0.0000    constr:    0.0000
     atom:   12    charge:    2.0871    magn:   -0.0000    constr:    0.0000
     atom:   13    charge:    3.1150    magn:   -0.0002    constr:    0.0000
     atom:   14    charge:    2.0939    magn:    0.0023    constr:    0.0000
     atom:   15    charge:    3.1184    magn:   -0.0008    constr:    0.0000
     atom:   16    charge:    2.0827    magn:    0.0047    constr:    0.0000
     atom:   17    charge:    2.0624    magn:    0.0016    constr:    0.0000
     atom:   18    charge:    3.1239    magn:   -0.0001    constr:    0.0000
     atom:   19    charge:    2.0876    magn:    0.0001    constr:    0.0000
     atom:   20    charge:    2.0847    magn:    0.0001    constr:    0.0000
     atom:   21    charge:    2.0847    magn:    0.0001    constr:    0.0000
     atom:   22    charge:    3.1199    magn:    0.0000    constr:    0.0000
     atom:   23    charge:    2.0908    magn:    0.0002    constr:    0.0000
     atom:   24    charge:    2.0754    magn:   -0.0001    constr:    0.0000
     atom:   25    charge:    2.0868    magn:    0.0000    constr:    0.0000
     atom:   26    charge:    3.1127    magn:   -0.0002    constr:    0.0000
     atom:   27    charge:    2.0802    magn:    0.0025    constr:    0.0000
     atom:   28    charge:    2.0839    magn:    0.0006    constr:    0.0000
     atom:   29    charge:    2.0860    magn:    0.0008    constr:    0.0000
     atom:   30    charge:    3.1171    magn:   -0.0008    constr:    0.0000
     atom:   31    charge:    2.0824    magn:    0.0006    constr:    0.0000
     atom:   32    charge:    2.0829    magn:    0.0065    constr:    0.0000
     atom:   33    charge:    2.0624    magn:    0.0016    constr:    0.0000
     atom:   34    charge:    3.1239    magn:   -0.0001    constr:    0.0000
     atom:   35    charge:    2.0876    magn:    0.0001    constr:    0.0000
     atom:   36    charge:    2.0847    magn:    0.0001    constr:    0.0000
     atom:   37    charge:    2.0847    magn:    0.0001    constr:    0.0000
     atom:   38    charge:    3.1200    magn:    0.0000    constr:    0.0000
     atom:   39    charge:    2.0839    magn:    0.0002    constr:    0.0000
     atom:   40    charge:    2.0757    magn:   -0.0002    constr:    0.0000
     atom:   41    charge:    2.0870    magn:   -0.0000    constr:    0.0000
     atom:   42    charge:    3.1151    magn:   -0.0002    constr:    0.0000
     atom:   43    charge:    2.0803    magn:    0.0031    constr:    0.0000
     atom:   44    charge:    2.0851    magn:    0.0009    constr:    0.0000
     atom:   45    charge:    2.0858    magn:    0.0004    constr:    0.0000
     atom:   46    charge:    3.1148    magn:   -0.0007    constr:    0.0000
     atom:   47    charge:    2.0805    magn:    0.0047    constr:    0.0000
     atom:   48    charge:    2.0836    magn:    0.0138    constr:    0.0000
     atom:   49    charge:    2.0512    magn:    0.2406    constr:    0.0000
     atom:   50    charge:    0.6762    magn:    0.0544    constr:    0.0000
     atom:   51    charge:    0.4218    magn:    0.0009    constr:    0.0000
     atom:   52    charge:    0.4225    magn:    0.0007    constr:    0.0000
     atom:   53    charge:    0.3674    magn:    0.0225    constr:    0.0000
     atom:   54    charge:    0.4368    magn:    0.0007    constr:    0.0000

     total cpu time spent up to now is     1670.1 secs

     total energy              =   -3021.14897688 Ry
     Harris-Foulkes estimate   =   -3021.14943090 Ry
     estimated scf accuracy    <       0.00394490 Ry

     total magnetization       =     1.06 Bohr mag/cell
     absolute magnetization    =     1.23 Bohr mag/cell

     iteration #  4     ecut=    40.42 Ry     beta=0.10
     Davidson diagonalization with overlap
     ethr =  5.59E-07,  avg # of iterations =  3.9

     negative rho (up, down):  1.191E-02 1.197E-02
 
     Magnetic moment per site:
     atom:    1    charge:    3.1244    magn:   -0.0003    constr:    0.0000
     atom:    2    charge:    2.0897    magn:    0.0003    constr:    0.0000
     atom:    3    charge:    3.1198    magn:   -0.0000    constr:    0.0000
     atom:    4    charge:    2.0867    magn:   -0.0001    constr:    0.0000
     atom:    5    charge:    3.1161    magn:   -0.0002    constr:    0.0000
     atom:    6    charge:    2.0795    magn:    0.0021    constr:    0.0000
     atom:    7    charge:    3.1167    magn:   -0.0054    constr:    0.0000
     atom:    8    charge:    2.0793    magn:    0.0252    constr:    0.0000
     atom:    9    charge:    3.1244    magn:   -0.0003    constr:    0.0000
     atom:   10    charge:    2.0898    magn:    0.0003    constr:    0.0000
     atom:   11    charge:    3.1198    magn:   -0.0000    constr:    0.0000
     atom:   12    charge:    2.0870    magn:   -0.0000    constr:    0.0000
     atom:   13    charge:    3.1150    magn:   -0.0002    constr:    0.0000
     atom:   14    charge:    2.0939    magn:    0.0023    constr:    0.0000
     atom:   15    charge:    3.1184    magn:   -0.0008    constr:    0.0000
     atom:   16    charge:    2.0828    magn:    0.0047    constr:    0.0000
     atom:   17    charge:    2.0624    magn:    0.0016    constr:    0.0000
     atom:   18    charge:    3.1239    magn:   -0.0001    constr:    0.0000
     atom:   19    charge:    2.0875    magn:    0.0001    constr:    0.0000
     atom:   20    charge:    2.0847    magn:    0.0001    constr:    0.0000
     atom:   21    charge:    2.0847    magn:    0.0001    constr:    0.0000
     atom:   22    charge:    3.1199    magn:    0.0000    constr:    0.0000
     atom:   23    charge:    2.0908    magn:    0.0002    constr:    0.0000
     atom:   24    charge:    2.0754    magn:   -0.0001    constr:    0.0000
     atom:   25    charge:    2.0867    magn:    0.0000    constr:    0.0000
     atom:   26    charge:    3.1127    magn:   -0.0002    constr:    0.0000
     atom:   27    charge:    2.0803    magn:    0.0025    constr:    0.0000
     atom:   28    charge:    2.0839    magn:    0.0006    constr:    0.0000
     atom:   29    charge:    2.0860    magn:    0.0008    constr:    0.0000
     atom:   30    charge:    3.1171    magn:   -0.0008    constr:    0.0000
     atom:   31    charge:    2.0824    magn:    0.0006    constr:    0.0000
     atom:   32    charge:    2.0829    magn:    0.0065    constr:    0.0000
     atom:   33    charge:    2.0624    magn:    0.0016    constr:    0.0000
     atom:   34    charge:    3.1239    magn:   -0.0001    constr:    0.0000
     atom:   35    charge:    2.0876    magn:    0.0001    constr:    0.0000
     atom:   36    charge:    2.0847    magn:    0.0001    constr:    0.0000
     atom:   37    charge:    2.0847    magn:    0.0001    constr:    0.0000
     atom:   38    charge:    3.1200    magn:    0.0000    constr:    0.0000
     atom:   39    charge:    2.0839    magn:    0.0002    constr:    0.0000
     atom:   40    charge:    2.0756    magn:   -0.0002    constr:    0.0000
     atom:   41    charge:    2.0870    magn:   -0.0000    constr:    0.0000
     atom:   42    charge:    3.1151    magn:   -0.0002    constr:    0.0000
     atom:   43    charge:    2.0803    magn:    0.0031    constr:    0.0000
     atom:   44    charge:    2.0851    magn:    0.0009    constr:    0.0000
     atom:   45    charge:    2.0858    magn:    0.0004    constr:    0.0000
     atom:   46    charge:    3.1148    magn:   -0.0007    constr:    0.0000
     atom:   47    charge:    2.0805    magn:    0.0047    constr:    0.0000
     atom:   48    charge:    2.0837    magn:    0.0138    constr:    0.0000
     atom:   49    charge:    2.0515    magn:    0.2405    constr:    0.0000
     atom:   50    charge:    0.6761    magn:    0.0544    constr:    0.0000
     atom:   51    charge:    0.4218    magn:    0.0009    constr:    0.0000
     atom:   52    charge:    0.4225    magn:    0.0007    constr:    0.0000
     atom:   53    charge:    0.3673    magn:    0.0226    constr:    0.0000
     atom:   54    charge:    0.4370    magn:    0.0007    constr:    0.0000

     total cpu time spent up to now is     1921.0 secs

     total energy              =   -3021.14914502 Ry
     Harris-Foulkes estimate   =   -3021.14917099 Ry
     estimated scf accuracy    <       0.00035774 Ry

     total magnetization       =     1.06 Bohr mag/cell
     absolute magnetization    =     1.23 Bohr mag/cell

     iteration #  5     ecut=    40.42 Ry     beta=0.10
     Davidson diagonalization with overlap
     ethr =  8.99E-08,  avg # of iterations =  1.0

     negative rho (up, down):  1.191E-02 1.197E-02
 
     Magnetic moment per site:
     atom:    1    charge:    3.1244    magn:   -0.0002    constr:    0.0000
     atom:    2    charge:    2.0897    magn:    0.0002    constr:    0.0000
     atom:    3    charge:    3.1198    magn:   -0.0000    constr:    0.0000
     atom:    4    charge:    2.0867    magn:   -0.0001    constr:    0.0000
     atom:    5    charge:    3.1161    magn:   -0.0002    constr:    0.0000
     atom:    6    charge:    2.0795    magn:    0.0021    constr:    0.0000
     atom:    7    charge:    3.1167    magn:   -0.0054    constr:    0.0000
     atom:    8    charge:    2.0795    magn:    0.0251    constr:    0.0000
     atom:    9    charge:    3.1244    magn:   -0.0002    constr:    0.0000
     atom:   10    charge:    2.0898    magn:    0.0003    constr:    0.0000
     atom:   11    charge:    3.1198    magn:   -0.0000    constr:    0.0000
     atom:   12    charge:    2.0870    magn:   -0.0000    constr:    0.0000
     atom:   13    charge:    3.1150    magn:   -0.0002    constr:    0.0000
     atom:   14    charge:    2.0939    magn:    0.0023    constr:    0.0000
     atom:   15    charge:    3.1184    magn:   -0.0008    constr:    0.0000
     atom:   16    charge:    2.0829    magn:    0.0047    constr:    0.0000
     atom:   17    charge:    2.0625    magn:    0.0014    constr:    0.0000
     atom:   18    charge:    3.1239    magn:   -0.0001    constr:    0.0000
     atom:   19    charge:    2.0875    magn:    0.0001    constr:    0.0000
     atom:   20    charge:    2.0847    magn:    0.0001    constr:    0.0000
     atom:   21    charge:    2.0847    magn:    0.0001    constr:    0.0000
     atom:   22    charge:    3.1199    magn:    0.0000    constr:    0.0000
     atom:   23    charge:    2.0908    magn:    0.0002    constr:    0.0000
     atom:   24    charge:    2.0754    magn:   -0.0001    constr:    0.0000
     atom:   25    charge:    2.0867    magn:    0.0000    constr:    0.0000
     atom:   26    charge:    3.1127    magn:   -0.0002    constr:    0.0000
     atom:   27    charge:    2.0803    magn:    0.0026    constr:    0.0000
     atom:   28    charge:    2.0839    magn:    0.0007    constr:    0.0000
     atom:   29    charge:    2.0860    magn:    0.0008    constr:    0.0000
     atom:   30    charge:    3.1171    magn:   -0.0008    constr:    0.0000
     atom:   31    charge:    2.0825    magn:    0.0006    constr:    0.0000
     atom:   32    charge:    2.0829    magn:    0.0065    constr:    0.0000
     atom:   33    charge:    2.0625    magn:    0.0014    constr:    0.0000
     atom:   34    charge:    3.1239    magn:   -0.0001    constr:    0.0000
     atom:   35    charge:    2.0876    magn:    0.0001    constr:    0.0000
     atom:   36    charge:    2.0847    magn:    0.0001    constr:    0.0000
     atom:   37    charge:    2.0847    magn:    0.0001    constr:    0.0000
     atom:   38    charge:    3.1200    magn:    0.0000    constr:    0.0000
     atom:   39    charge:    2.0839    magn:    0.0002    constr:    0.0000
     atom:   40    charge:    2.0756    magn:   -0.0002    constr:    0.0000
     atom:   41    charge:    2.0870    magn:   -0.0000    constr:    0.0000
     atom:   42    charge:    3.1151    magn:   -0.0002    constr:    0.0000
     atom:   43    charge:    2.0803    magn:    0.0031    constr:    0.0000
     atom:   44    charge:    2.0851    magn:    0.0009    constr:    0.0000
     atom:   45    charge:    2.0858    magn:    0.0005    constr:    0.0000
     atom:   46    charge:    3.1148    magn:   -0.0007    constr:    0.0000
     atom:   47    charge:    2.0806    magn:    0.0047    constr:    0.0000
     atom:   48    charge:    2.0838    magn:    0.0138    constr:    0.0000
     atom:   49    charge:    2.0521    magn:    0.2404    constr:    0.0000
     atom:   50    charge:    0.6758    magn:    0.0545    constr:    0.0000
     atom:   51    charge:    0.4220    magn:    0.0009    constr:    0.0000
     atom:   52    charge:    0.4226    magn:    0.0008    constr:    0.0000
     atom:   53    charge:    0.3672    magn:    0.0229    constr:    0.0000
     atom:   54    charge:    0.4375    magn:    0.0007    constr:    0.0000

     total cpu time spent up to now is     2122.0 secs

     total energy              =   -3021.14911781 Ry
     Harris-Foulkes estimate   =   -3021.14915039 Ry
     estimated scf accuracy    <       0.00023307 Ry

     total magnetization       =     1.06 Bohr mag/cell
     absolute magnetization    =     1.23 Bohr mag/cell

     iteration #  6     ecut=    40.42 Ry     beta=0.10
     Davidson diagonalization with overlap
     ethr =  5.86E-08,  avg # of iterations =  2.6

     negative rho (up, down):  1.191E-02 1.198E-02
 
     Magnetic moment per site:
     atom:    1    charge:    3.1244    magn:   -0.0002    constr:    0.0000
     atom:    2    charge:    2.0897    magn:    0.0002    constr:    0.0000
     atom:    3    charge:    3.1198    magn:   -0.0000    constr:    0.0000
     atom:    4    charge:    2.0867    magn:   -0.0001    constr:    0.0000
     atom:    5    charge:    3.1161    magn:   -0.0003    constr:    0.0000
     atom:    6    charge:    2.0795    magn:    0.0021    constr:    0.0000
     atom:    7    charge:    3.1167    magn:   -0.0054    constr:    0.0000
     atom:    8    charge:    2.0793    magn:    0.0251    constr:    0.0000
     atom:    9    charge:    3.1244    magn:   -0.0002    constr:    0.0000
     atom:   10    charge:    2.0898    magn:    0.0002    constr:    0.0000
     atom:   11    charge:    3.1198    magn:   -0.0000    constr:    0.0000
     atom:   12    charge:    2.0871    magn:   -0.0000    constr:    0.0000
     atom:   13    charge:    3.1150    magn:   -0.0002    constr:    0.0000
     atom:   14    charge:    2.0939    magn:    0.0023    constr:    0.0000
     atom:   15    charge:    3.1184    magn:   -0.0008    constr:    0.0000
     atom:   16    charge:    2.0829    magn:    0.0047    constr:    0.0000
     atom:   17    charge:    2.0624    magn:    0.0013    constr:    0.0000
     atom:   18    charge:    3.1240    magn:   -0.0001    constr:    0.0000
     atom:   19    charge:    2.0875    magn:    0.0000    constr:    0.0000
     atom:   20    charge:    2.0847    magn:    0.0001    constr:    0.0000
     atom:   21    charge:    2.0847    magn:    0.0001    constr:    0.0000
     atom:   22    charge:    3.1199    magn:    0.0000    constr:    0.0000
     atom:   23    charge:    2.0908    magn:    0.0002    constr:    0.0000
     atom:   24    charge:    2.0754    magn:   -0.0001    constr:    0.0000
     atom:   25    charge:    2.0867    magn:    0.0000    constr:    0.0000
     atom:   26    charge:    3.1127    magn:   -0.0002    constr:    0.0000
     atom:   27    charge:    2.0802    magn:    0.0026    constr:    0.0000
     atom:   28    charge:    2.0839    magn:    0.0007    constr:    0.0000
     atom:   29    charge:    2.0860    magn:    0.0008    constr:    0.0000
     atom:   30    charge:    3.1171    magn:   -0.0008    constr:    0.0000
     atom:   31    charge:    2.0826    magn:    0.0006    constr:    0.0000
     atom:   32    charge:    2.0829    magn:    0.0065    constr:    0.0000
     atom:   33    charge:    2.0624    magn:    0.0013    constr:    0.0000
     atom:   34    charge:    3.1239    magn:   -0.0001    constr:    0.0000
     atom:   35    charge:    2.0875    magn:    0.0000    constr:    0.0000
     atom:   36    charge:    2.0847    magn:    0.0001    constr:    0.0000
     atom:   37    charge:    2.0847    magn:    0.0001    constr:    0.0000
     atom:   38    charge:    3.1200    magn:    0.0000    constr:    0.0000
     atom:   39    charge:    2.0839    magn:    0.0002    constr:    0.0000
     atom:   40    charge:    2.0756    magn:   -0.0002    constr:    0.0000
     atom:   41    charge:    2.0870    magn:   -0.0000    constr:    0.0000
     atom:   42    charge:    3.1151    magn:   -0.0002    constr:    0.0000
     atom:   43    charge:    2.0803    magn:    0.0031    constr:    0.0000
     atom:   44    charge:    2.0851    magn:    0.0009    constr:    0.0000
     atom:   45    charge:    2.0858    magn:    0.0005    constr:    0.0000
     atom:   46    charge:    3.1148    magn:   -0.0007    constr:    0.0000
     atom:   47    charge:    2.0807    magn:    0.0047    constr:    0.0000
     atom:   48    charge:    2.0838    magn:    0.0138    constr:    0.0000
     atom:   49    charge:    2.0520    magn:    0.2404    constr:    0.0000
     atom:   50    charge:    0.6758    magn:    0.0544    constr:    0.0000
     atom:   51    charge:    0.4220    magn:    0.0010    constr:    0.0000
     atom:   52    charge:    0.4227    magn:    0.0008    constr:    0.0000
     atom:   53    charge:    0.3672    magn:    0.0230    constr:    0.0000
     atom:   54    charge:    0.4380    magn:    0.0006    constr:    0.0000

     total cpu time spent up to now is     2352.9 secs

     total energy              =   -3021.14912624 Ry
     Harris-Foulkes estimate   =   -3021.14912861 Ry
     estimated scf accuracy    <       0.00006405 Ry

     total magnetization       =     1.06 Bohr mag/cell
     absolute magnetization    =     1.23 Bohr mag/cell

     iteration #  7     ecut=    40.42 Ry     beta=0.10
     Davidson diagonalization with overlap
     ethr =  1.61E-08,  avg # of iterations =  3.0

     negative rho (up, down):  1.191E-02 1.197E-02
 
     Magnetic moment per site:
     atom:    1    charge:    3.1244    magn:   -0.0002    constr:    0.0000
     atom:    2    charge:    2.0897    magn:    0.0002    constr:    0.0000
     atom:    3    charge:    3.1198    magn:   -0.0000    constr:    0.0000
     atom:    4    charge:    2.0867    magn:   -0.0001    constr:    0.0000
     atom:    5    charge:    3.1161    magn:   -0.0003    constr:    0.0000
     atom:    6    charge:    2.0795    magn:    0.0021    constr:    0.0000
     atom:    7    charge:    3.1167    magn:   -0.0054    constr:    0.0000
     atom:    8    charge:    2.0793    magn:    0.0251    constr:    0.0000
     atom:    9    charge:    3.1244    magn:   -0.0002    constr:    0.0000
     atom:   10    charge:    2.0898    magn:    0.0002    constr:    0.0000
     atom:   11    charge:    3.1198    magn:   -0.0000    constr:    0.0000
     atom:   12    charge:    2.0870    magn:   -0.0000    constr:    0.0000
     atom:   13    charge:    3.1150    magn:   -0.0002    constr:    0.0000
     atom:   14    charge:    2.0939    magn:    0.0023    constr:    0.0000
     atom:   15    charge:    3.1184    magn:   -0.0008    constr:    0.0000
     atom:   16    charge:    2.0829    magn:    0.0047    constr:    0.0000
     atom:   17    charge:    2.0625    magn:    0.0012    constr:    0.0000
     atom:   18    charge:    3.1240    magn:   -0.0000    constr:    0.0000
     atom:   19    charge:    2.0875    magn:    0.0000    constr:    0.0000
     atom:   20    charge:    2.0847    magn:    0.0001    constr:    0.0000
     atom:   21    charge:    2.0847    magn:    0.0001    constr:    0.0000
     atom:   22    charge:    3.1199    magn:    0.0000    constr:    0.0000
     atom:   23    charge:    2.0908    magn:    0.0003    constr:    0.0000
     atom:   24    charge:    2.0754    magn:   -0.0001    constr:    0.0000
     atom:   25    charge:    2.0867    magn:    0.0000    constr:    0.0000
     atom:   26    charge:    3.1127    magn:   -0.0003    constr:    0.0000
     atom:   27    charge:    2.0802    magn:    0.0026    constr:    0.0000
     atom:   28    charge:    2.0839    magn:    0.0007    constr:    0.0000
     atom:   29    charge:    2.0860    magn:    0.0009    constr:    0.0000
     atom:   30    charge:    3.1171    magn:   -0.0008    constr:    0.0000
     atom:   31    charge:    2.0826    magn:    0.0006    constr:    0.0000
     atom:   32    charge:    2.0829    magn:    0.0065    constr:    0.0000
     atom:   33    charge:    2.0624    magn:    0.0012    constr:    0.0000
     atom:   34    charge:    3.1239    magn:   -0.0000    constr:    0.0000
     atom:   35    charge:    2.0875    magn:    0.0000    constr:    0.0000
     atom:   36    charge:    2.0847    magn:    0.0001    constr:    0.0000
     atom:   37    charge:    2.0847    magn:    0.0001    constr:    0.0000
     atom:   38    charge:    3.1200    magn:    0.0000    constr:    0.0000
     atom:   39    charge:    2.0839    magn:    0.0002    constr:    0.0000
     atom:   40    charge:    2.0756    magn:   -0.0001    constr:    0.0000
     atom:   41    charge:    2.0870    magn:   -0.0000    constr:    0.0000
     atom:   42    charge:    3.1151    magn:   -0.0002    constr:    0.0000
     atom:   43    charge:    2.0803    magn:    0.0032    constr:    0.0000
     atom:   44    charge:    2.0851    magn:    0.0009    constr:    0.0000
     atom:   45    charge:    2.0858    magn:    0.0005    constr:    0.0000
     atom:   46    charge:    3.1148    magn:   -0.0007    constr:    0.0000
     atom:   47    charge:    2.0807    magn:    0.0047    constr:    0.0000
     atom:   48    charge:    2.0837    magn:    0.0137    constr:    0.0000
     atom:   49    charge:    2.0519    magn:    0.2403    constr:    0.0000
     atom:   50    charge:    0.6753    magn:    0.0544    constr:    0.0000
     atom:   51    charge:    0.4221    magn:    0.0010    constr:    0.0000
     atom:   52    charge:    0.4227    magn:    0.0009    constr:    0.0000
     atom:   53    charge:    0.3673    magn:    0.0230    constr:    0.0000
     atom:   54    charge:    0.4381    magn:    0.0006    constr:    0.0000

     total cpu time spent up to now is     2590.5 secs

     total energy              =   -3021.14912686 Ry
     Harris-Foulkes estimate   =   -3021.14913106 Ry
     estimated scf accuracy    <       0.00002347 Ry

     total magnetization       =     1.06 Bohr mag/cell
     absolute magnetization    =     1.23 Bohr mag/cell

     iteration #  8     ecut=    40.42 Ry     beta=0.10
     Davidson diagonalization with overlap
     ethr =  5.90E-09,  avg # of iterations =  3.1

     negative rho (up, down):  1.191E-02 1.197E-02
 
     Magnetic moment per site:
     atom:    1    charge:    3.1244    magn:   -0.0002    constr:    0.0000
     atom:    2    charge:    2.0897    magn:    0.0002    constr:    0.0000
     atom:    3    charge:    3.1198    magn:   -0.0000    constr:    0.0000
     atom:    4    charge:    2.0867    magn:   -0.0001    constr:    0.0000
     atom:    5    charge:    3.1161    magn:   -0.0003    constr:    0.0000
     atom:    6    charge:    2.0795    magn:    0.0022    constr:    0.0000
     atom:    7    charge:    3.1167    magn:   -0.0054    constr:    0.0000
     atom:    8    charge:    2.0792    magn:    0.0251    constr:    0.0000
     atom:    9    charge:    3.1244    magn:   -0.0002    constr:    0.0000
     atom:   10    charge:    2.0898    magn:    0.0002    constr:    0.0000
     atom:   11    charge:    3.1198    magn:   -0.0000    constr:    0.0000
     atom:   12    charge:    2.0870    magn:   -0.0000    constr:    0.0000
     atom:   13    charge:    3.1150    magn:   -0.0002    constr:    0.0000
     atom:   14    charge:    2.0939    magn:    0.0023    constr:    0.0000
     atom:   15    charge:    3.1184    magn:   -0.0008    constr:    0.0000
     atom:   16    charge:    2.0828    magn:    0.0047    constr:    0.0000
     atom:   17    charge:    2.0624    magn:    0.0011    constr:    0.0000
     atom:   18    charge:    3.1239    magn:   -0.0000    constr:    0.0000
     atom:   19    charge:    2.0875    magn:    0.0000    constr:    0.0000
     atom:   20    charge:    2.0847    magn:    0.0001    constr:    0.0000
     atom:   21    charge:    2.0847    magn:    0.0001    constr:    0.0000
     atom:   22    charge:    3.1199    magn:    0.0000    constr:    0.0000
     atom:   23    charge:    2.0908    magn:    0.0003    constr:    0.0000
     atom:   24    charge:    2.0754    magn:   -0.0000    constr:    0.0000
     atom:   25    charge:    2.0867    magn:    0.0000    constr:    0.0000
     atom:   26    charge:    3.1127    magn:   -0.0003    constr:    0.0000
     atom:   27    charge:    2.0803    magn:    0.0027    constr:    0.0000
     atom:   28    charge:    2.0839    magn:    0.0007    constr:    0.0000
     atom:   29    charge:    2.0860    magn:    0.0009    constr:    0.0000
     atom:   30    charge:    3.1171    magn:   -0.0008    constr:    0.0000
     atom:   31    charge:    2.0825    magn:    0.0006    constr:    0.0000
     atom:   32    charge:    2.0829    magn:    0.0065    constr:    0.0000
     atom:   33    charge:    2.0624    magn:    0.0011    constr:    0.0000
     atom:   34    charge:    3.1239    magn:   -0.0000    constr:    0.0000
     atom:   35    charge:    2.0876    magn:    0.0000    constr:    0.0000
     atom:   36    charge:    2.0847    magn:    0.0001    constr:    0.0000
     atom:   37    charge:    2.0847    magn:    0.0001    constr:    0.0000
     atom:   38    charge:    3.1200    magn:    0.0000    constr:    0.0000
     atom:   39    charge:    2.0839    magn:    0.0002    constr:    0.0000
     atom:   40    charge:    2.0756    magn:   -0.0001    constr:    0.0000
     atom:   41    charge:    2.0870    magn:   -0.0000    constr:    0.0000
     atom:   42    charge:    3.1151    magn:   -0.0002    constr:    0.0000
     atom:   43    charge:    2.0803    magn:    0.0032    constr:    0.0000
     atom:   44    charge:    2.0851    magn:    0.0010    constr:    0.0000
     atom:   45    charge:    2.0858    magn:    0.0005    constr:    0.0000
     atom:   46    charge:    3.1148    magn:   -0.0007    constr:    0.0000
     atom:   47    charge:    2.0806    magn:    0.0047    constr:    0.0000
     atom:   48    charge:    2.0837    magn:    0.0137    constr:    0.0000
     atom:   49    charge:    2.0517    magn:    0.2404    constr:    0.0000
     atom:   50    charge:    0.6750    magn:    0.0544    constr:    0.0000
     atom:   51    charge:    0.4221    magn:    0.0010    constr:    0.0000
     atom:   52    charge:    0.4228    magn:    0.0009    constr:    0.0000
     atom:   53    charge:    0.3675    magn:    0.0230    constr:    0.0000
     atom:   54    charge:    0.4382    magn:    0.0006    constr:    0.0000

     total cpu time spent up to now is     2830.0 secs

     total energy              =   -3021.14912773 Ry
     Harris-Foulkes estimate   =   -3021.14912850 Ry
     estimated scf accuracy    <       0.00000584 Ry

     total magnetization       =     1.06 Bohr mag/cell
     absolute magnetization    =     1.23 Bohr mag/cell

     iteration #  9     ecut=    40.42 Ry     beta=0.10
     Davidson diagonalization with overlap
     ethr =  1.47E-09,  avg # of iterations =  3.0

     negative rho (up, down):  1.191E-02 1.197E-02
 
     Magnetic moment per site:
     atom:    1    charge:    3.1244    magn:   -0.0002    constr:    0.0000
     atom:    2    charge:    2.0897    magn:    0.0002    constr:    0.0000
     atom:    3    charge:    3.1198    magn:   -0.0000    constr:    0.0000
     atom:    4    charge:    2.0867    magn:   -0.0001    constr:    0.0000
     atom:    5    charge:    3.1161    magn:   -0.0003    constr:    0.0000
     atom:    6    charge:    2.0795    magn:    0.0022    constr:    0.0000
     atom:    7    charge:    3.1167    magn:   -0.0054    constr:    0.0000
     atom:    8    charge:    2.0793    magn:    0.0251    constr:    0.0000
     atom:    9    charge:    3.1244    magn:   -0.0002    constr:    0.0000
     atom:   10    charge:    2.0898    magn:    0.0002    constr:    0.0000
     atom:   11    charge:    3.1198    magn:   -0.0000    constr:    0.0000
     atom:   12    charge:    2.0870    magn:   -0.0000    constr:    0.0000
     atom:   13    charge:    3.1150    magn:   -0.0002    constr:    0.0000
     atom:   14    charge:    2.0939    magn:    0.0023    constr:    0.0000
     atom:   15    charge:    3.1184    magn:   -0.0008    constr:    0.0000
     atom:   16    charge:    2.0828    magn:    0.0047    constr:    0.0000
     atom:   17    charge:    2.0624    magn:    0.0010    constr:    0.0000
     atom:   18    charge:    3.1239    magn:   -0.0000    constr:    0.0000
     atom:   19    charge:    2.0875    magn:    0.0000    constr:    0.0000
     atom:   20    charge:    2.0847    magn:    0.0001    constr:    0.0000
     atom:   21    charge:    2.0847    magn:    0.0001    constr:    0.0000
     atom:   22    charge:    3.1199    magn:    0.0000    constr:    0.0000
     atom:   23    charge:    2.0908    magn:    0.0003    constr:    0.0000
     atom:   24    charge:    2.0754    magn:   -0.0000    constr:    0.0000
     atom:   25    charge:    2.0867    magn:    0.0000    constr:    0.0000
     atom:   26    charge:    3.1127    magn:   -0.0003    constr:    0.0000
     atom:   27    charge:    2.0803    magn:    0.0027    constr:    0.0000
     atom:   28    charge:    2.0839    magn:    0.0008    constr:    0.0000
     atom:   29    charge:    2.0860    magn:    0.0009    constr:    0.0000
     atom:   30    charge:    3.1171    magn:   -0.0008    constr:    0.0000
     atom:   31    charge:    2.0825    magn:    0.0006    constr:    0.0000
     atom:   32    charge:    2.0829    magn:    0.0065    constr:    0.0000
     atom:   33    charge:    2.0624    magn:    0.0010    constr:    0.0000
     atom:   34    charge:    3.1239    magn:   -0.0000    constr:    0.0000
     atom:   35    charge:    2.0876    magn:    0.0000    constr:    0.0000
     atom:   36    charge:    2.0847    magn:    0.0001    constr:    0.0000
     atom:   37    charge:    2.0847    magn:    0.0001    constr:    0.0000
     atom:   38    charge:    3.1200    magn:    0.0000    constr:    0.0000
     atom:   39    charge:    2.0839    magn:    0.0002    constr:    0.0000
     atom:   40    charge:    2.0756    magn:   -0.0001    constr:    0.0000
     atom:   41    charge:    2.0870    magn:   -0.0000    constr:    0.0000
     atom:   42    charge:    3.1151    magn:   -0.0002    constr:    0.0000
     atom:   43    charge:    2.0803    magn:    0.0032    constr:    0.0000
     atom:   44    charge:    2.0851    magn:    0.0010    constr:    0.0000
     atom:   45    charge:    2.0858    magn:    0.0005    constr:    0.0000
     atom:   46    charge:    3.1148    magn:   -0.0007    constr:    0.0000
     atom:   47    charge:    2.0806    magn:    0.0047    constr:    0.0000
     atom:   48    charge:    2.0837    magn:    0.0137    constr:    0.0000
     atom:   49    charge:    2.0517    magn:    0.2404    constr:    0.0000
     atom:   50    charge:    0.6749    magn:    0.0543    constr:    0.0000
     atom:   51    charge:    0.4221    magn:    0.0010    constr:    0.0000
     atom:   52    charge:    0.4228    magn:    0.0009    constr:    0.0000
     atom:   53    charge:    0.3676    magn:    0.0230    constr:    0.0000
     atom:   54    charge:    0.4383    magn:    0.0006    constr:    0.0000

     total cpu time spent up to now is     3073.4 secs

     total energy              =   -3021.14912836 Ry
     Harris-Foulkes estimate   =   -3021.14912829 Ry
     estimated scf accuracy    <       0.00000101 Ry

     total magnetization       =     1.06 Bohr mag/cell
     absolute magnetization    =     1.23 Bohr mag/cell

     iteration # 10     ecut=    40.42 Ry     beta=0.10
     Davidson diagonalization with overlap
     ethr =  2.55E-10,  avg # of iterations =  2.0

     negative rho (up, down):  1.191E-02 1.197E-02
 
     Magnetic moment per site:
     atom:    1    charge:    3.1244    magn:   -0.0001    constr:    0.0000
     atom:    2    charge:    2.0897    magn:    0.0001    constr:    0.0000
     atom:    3    charge:    3.1198    magn:   -0.0000    constr:    0.0000
     atom:    4    charge:    2.0867    magn:   -0.0001    constr:    0.0000
     atom:    5    charge:    3.1161    magn:   -0.0003    constr:    0.0000
     atom:    6    charge:    2.0795    magn:    0.0022    constr:    0.0000
     atom:    7    charge:    3.1167    magn:   -0.0054    constr:    0.0000
     atom:    8    charge:    2.0793    magn:    0.0251    constr:    0.0000
     atom:    9    charge:    3.1244    magn:   -0.0001    constr:    0.0000
     atom:   10    charge:    2.0898    magn:    0.0001    constr:    0.0000
     atom:   11    charge:    3.1198    magn:   -0.0000    constr:    0.0000
     atom:   12    charge:    2.0870    magn:   -0.0000    constr:    0.0000
     atom:   13    charge:    3.1150    magn:   -0.0002    constr:    0.0000
     atom:   14    charge:    2.0939    magn:    0.0023    constr:    0.0000
     atom:   15    charge:    3.1184    magn:   -0.0008    constr:    0.0000
     atom:   16    charge:    2.0828    magn:    0.0047    constr:    0.0000
     atom:   17    charge:    2.0624    magn:    0.0008    constr:    0.0000
     atom:   18    charge:    3.1239    magn:   -0.0000    constr:    0.0000
     atom:   19    charge:    2.0875    magn:    0.0000    constr:    0.0000
     atom:   20    charge:    2.0847    magn:    0.0001    constr:    0.0000
     atom:   21    charge:    2.0847    magn:    0.0001    constr:    0.0000
     atom:   22    charge:    3.1199    magn:    0.0000    constr:    0.0000
     atom:   23    charge:    2.0908    magn:    0.0003    constr:    0.0000
     atom:   24    charge:    2.0754    magn:   -0.0000    constr:    0.0000
     atom:   25    charge:    2.0867    magn:    0.0000    constr:    0.0000
     atom:   26    charge:    3.1127    magn:   -0.0003    constr:    0.0000
     atom:   27    charge:    2.0803    magn:    0.0027    constr:    0.0000
     atom:   28    charge:    2.0839    magn:    0.0008    constr:    0.0000
     atom:   29    charge:    2.0860    magn:    0.0009    constr:    0.0000
     atom:   30    charge:    3.1171    magn:   -0.0008    constr:    0.0000
     atom:   31    charge:    2.0825    magn:    0.0006    constr:    0.0000
     atom:   32    charge:    2.0829    magn:    0.0066    constr:    0.0000
     atom:   33    charge:    2.0624    magn:    0.0008    constr:    0.0000
     atom:   34    charge:    3.1239    magn:   -0.0000    constr:    0.0000
     atom:   35    charge:    2.0875    magn:    0.0000    constr:    0.0000
     atom:   36    charge:    2.0847    magn:    0.0001    constr:    0.0000
     atom:   37    charge:    2.0847    magn:    0.0001    constr:    0.0000
     atom:   38    charge:    3.1200    magn:    0.0000    constr:    0.0000
     atom:   39    charge:    2.0839    magn:    0.0002    constr:    0.0000
     atom:   40    charge:    2.0756    magn:   -0.0001    constr:    0.0000
     atom:   41    charge:    2.0870    magn:   -0.0000    constr:    0.0000
     atom:   42    charge:    3.1151    magn:   -0.0003    constr:    0.0000
     atom:   43    charge:    2.0803    magn:    0.0033    constr:    0.0000
     atom:   44    charge:    2.0851    magn:    0.0010    constr:    0.0000
     atom:   45    charge:    2.0858    magn:    0.0006    constr:    0.0000
     atom:   46    charge:    3.1147    magn:   -0.0007    constr:    0.0000
     atom:   47    charge:    2.0806    magn:    0.0047    constr:    0.0000
     atom:   48    charge:    2.0837    magn:    0.0137    constr:    0.0000
     atom:   49    charge:    2.0517    magn:    0.2404    constr:    0.0000
     atom:   50    charge:    0.6749    magn:    0.0543    constr:    0.0000
     atom:   51    charge:    0.4221    magn:    0.0010    constr:    0.0000
     atom:   52    charge:    0.4228    magn:    0.0009    constr:    0.0000
     atom:   53    charge:    0.3676    magn:    0.0231    constr:    0.0000
     atom:   54    charge:    0.4383    magn:    0.0006    constr:    0.0000

     total cpu time spent up to now is     3292.7 secs

     End of self-consistent calculation

 ------ SPIN UP ------------


          k = 0.0000 0.0000 0.0000 ( 34665 PWs)   bands (ev):

   -58.3079 -58.2729 -57.3899 -57.3842 -57.3511 -57.3135 -57.2622 -57.0935
   -57.0667 -57.0609 -57.0225 -56.9241 -56.8999 -56.8888 -56.8021 -56.7637
   -34.7531 -34.5765 -34.5477 -34.5145 -34.4195 -34.3626 -33.8848 -33.8725
   -33.7546 -33.6814 -33.6394 -33.5966 -33.5641 -33.5574 -33.5514 -33.5449
   -33.5334 -33.5185 -33.4930 -33.4917 -33.4772 -33.4758 -33.4728 -33.4541
   -33.3435 -33.3370 -33.3338 -33.3314 -33.3186 -33.2904 -33.2845 -33.2648
   -33.2445 -33.2392 -33.2385 -33.2293 -33.2014 -33.1786 -33.1444 -33.1426
   -33.1051 -33.0801 -33.0527 -33.0304 -33.0167 -32.9910 -32.9510 -32.8832
   -18.4731 -18.0404 -17.8161 -17.7156 -17.5553 -17.5336 -17.4899 -17.3879
   -17.3613 -17.2611 -17.0492 -17.0284 -17.0207 -16.9907 -16.9300 -16.8584
   -16.8391 -16.8018 -16.7440 -16.7123 -16.6933 -16.6610 -16.5964 -16.5925
   -16.4696 -16.4221 -16.4027 -16.3659 -16.3296 -16.1489 -16.0878 -15.6035
   -15.5427 -11.2298  -6.0517  -5.5006  -5.2864  -5.2066  -5.0979  -4.9970
    -4.9858  -4.9375  -4.8824  -4.7369  -4.6537  -4.6033  -4.5893  -4.5143
    -4.4331  -4.4175  -4.3563  -4.3201  -4.2368  -4.2229  -4.2005  -4.1458
    -4.0348  -4.0278  -3.9831  -3.9122  -3.8958  -3.8898  -3.8871  -3.8300
    -3.7804  -3.7558  -3.7378  -3.6523  -3.6340  -3.5857  -3.5455  -3.5316
    -3.5228  -3.4216  -3.4109  -3.3639  -3.2766  -3.2361  -3.1917  -3.0905
    -2.9259  -2.9005  -2.8550  -2.8071  -2.7494  -2.6973  -2.6758  -2.6649
    -2.6372  -2.5402  -2.4914  -2.4424  -2.3812  -2.3367  -2.2524  -2.2328
    -2.2286  -2.1637  -2.0719  -2.0447  -2.0031  -1.9629  -1.9332  -1.9023
    -1.8571  -1.7410  -1.6981  -1.6721  -1.6441  -1.6340  -1.5899  -1.5080
    -1.4243  -1.3706  -1.3562  -1.3414  -1.3168  -1.2711  -1.2280  -1.1737
    -1.1632  -1.1141  -1.1118  -1.0981  -1.0670  -0.9835  -0.8767  -0.8372
    -0.8118  -0.6967  -0.6904  -0.6276  -0.5557  -0.5143  -0.4866  -0.1900
     1.0229   1.1197   1.4146   1.6929   1.8011   1.9192   1.9666   2.0132
     2.0433   2.1305   2.2071   2.2280   2.2740   2.3929   2.4682   2.4819
     2.4891   2.5161   2.6190   2.6642   2.6693   2.6862   2.7079   2.8246
     2.8395   2.8841   2.8984   2.9519   2.9660   3.0190   3.0272   3.0493
     3.1028   3.1585   3.1967   3.1976   3.2453   3.2532   3.4089   3.4449
     3.4760   3.5182   3.5952   3.6239   3.6674   3.7118   3.8266   3.9539
     4.1019   4.1331   4.3243   4.4703   4.5924   4.7042   4.7821   4.8328
     5.0830   5.1305   5.2091   5.3513   5.3956   5.4009   5.4255   5.4305
     5.4506   5.5201   5.5526   5.6603   5.7164   5.7335   5.9038   5.9219
     5.9533   6.0729   6.0917   6.1340   6.2158   6.2928   6.4204   6.4873
     6.5403   6.5681   6.7809   6.8127   7.2154   7.9205   8.1564   8.1745
     8.3717   8.3896   8.6515   8.7138   8.7508   8.9665   9.1518   9.2517
     9.3024   9.4496   9.6226

          k = 0.0000 0.0280 0.0000 ( 34717 PWs)   bands (ev):

   -58.3056 -58.2752 -57.3881 -57.3825 -57.3534 -57.3145 -57.2618 -57.0933
   -57.0667 -57.0592 -57.0245 -56.9217 -56.9001 -56.8912 -56.7996 -56.7662
   -34.7277 -34.5745 -34.5496 -34.5082 -34.4260 -34.3897 -33.8594 -33.8471
   -33.7337 -33.6751 -33.6332 -33.5941 -33.5712 -33.5537 -33.5457 -33.5375
   -33.5326 -33.5203 -33.5171 -33.4999 -33.4923 -33.4756 -33.4675 -33.4478
   -33.3378 -33.3317 -33.3185 -33.3163 -33.3109 -33.3069 -33.2820 -33.2631
   -33.2491 -33.2410 -33.2391 -33.2287 -33.2049 -33.2033 -33.1506 -33.1367
   -33.1169 -33.0767 -33.0589 -33.0303 -33.0165 -32.9958 -32.9784 -32.9119
   -18.4148 -17.9807 -17.7662 -17.6854 -17.6099 -17.5106 -17.4410 -17.3758
   -17.3300 -17.2918 -17.1002 -17.0079 -16.9992 -16.9799 -16.9319 -16.8800
   -16.7996 -16.7774 -16.7649 -16.7398 -16.7115 -16.6862 -16.6218 -16.5699
   -16.4837 -16.4473 -16.4095 -16.3892 -16.3617 -16.1677 -16.1294 -15.6175
   -15.5681 -11.2307  -5.9662  -5.4164  -5.2071  -5.1361  -5.0282  -4.9653
    -4.9302  -4.9110  -4.8115  -4.7331  -4.6722  -4.6575  -4.5304  -4.5197
    -4.4206  -4.3806  -4.3667  -4.3269  -4.2617  -4.2166  -4.2028  -4.1813
    -4.1034  -4.0714  -4.0208  -4.0051  -3.9820  -3.9746  -3.9256  -3.8587
    -3.8185  -3.7761  -3.7575  -3.7203  -3.7009  -3.6529  -3.5586  -3.4414
    -3.4061  -3.3238  -3.3080  -3.3041  -3.2715  -3.1276  -3.1077  -2.9483
    -2.9071  -2.8860  -2.8062  -2.7523  -2.7479  -2.7248  -2.6925  -2.6551
    -2.6024  -2.5211  -2.4615  -2.4470  -2.4194  -2.2834  -2.2589  -2.2270
    -2.2160  -2.1565  -2.1483  -2.0316  -1.9869  -1.9616  -1.9291  -1.9166
    -1.8774  -1.7709  -1.7618  -1.7228  -1.6847  -1.6139  -1.5858  -1.5755
    -1.5051  -1.4633  -1.3951  -1.3810  -1.3781  -1.3610  -1.2882  -1.2753
    -1.2388  -1.1783  -1.1524  -1.0728  -0.9968  -0.9568  -0.9325  -0.9003
    -0.8798  -0.8431  -0.7329  -0.6028  -0.5764  -0.5627  -0.5426  -0.2311
     1.1556   1.1607   1.4158   1.8293   1.8735   1.8910   1.9236   2.0000
     2.0585   2.0765   2.2974   2.3058   2.3384   2.4556   2.4916   2.5121
     2.5199   2.5419   2.5467   2.5953   2.7123   2.7303   2.8003   2.8113
     2.8334   2.8975   2.9342   2.9623   2.9791   2.9919   3.0131   3.0638
     3.0842   3.1205   3.1736   3.2325   3.2450   3.3255   3.4337   3.4744
     3.5102   3.5411   3.5639   3.5865   3.6414   3.6647   3.7848   3.9061
     4.0562   4.2002   4.2806   4.5236   4.7031   4.7055   4.8122   4.9079
     5.1098   5.1710   5.2542   5.3004   5.3701   5.4098   5.4325   5.4769
     5.5046   5.5408   5.5489   5.6594   5.7027   5.7119   5.8209   5.8818
     5.9448   5.9894   6.0385   6.0491   6.1778   6.2493   6.3863   6.4319
     6.4490   6.5552   6.7262   6.8157   7.3217   7.4514   7.9984   8.0882
     8.3447   8.4968   8.5393   8.7100   8.7836   8.9897   9.1133   9.3099
     9.3726   9.4481   9.5238

          k = 0.0000 0.0560 0.0000 ( 34721 PWs)   bands (ev):

   -58.2992 -58.2816 -57.3847 -57.3773 -57.3598 -57.3168 -57.2610 -57.0929
   -57.0672 -57.0546 -57.0294 -56.9153 -56.9006 -56.8976 -56.7929 -56.7729
   -34.6578 -34.5692 -34.5548 -34.4911 -34.4628 -34.4436 -33.7896 -33.7776
   -33.6831 -33.6582 -33.6165 -33.5944 -33.5936 -33.5878 -33.5730 -33.5696
   -33.5416 -33.5327 -33.5153 -33.4970 -33.4735 -33.4687 -33.4656 -33.4137
   -33.3724 -33.3275 -33.3253 -33.3105 -33.2835 -33.2736 -33.2584 -33.2582
   -33.2569 -33.2488 -33.2457 -33.2274 -33.2190 -33.2126 -33.1682 -33.1363
   -33.1204 -33.0755 -33.0738 -33.0524 -33.0297 -33.0165 -33.0079 -32.9824
   -18.2537 -17.8160 -17.7936 -17.6364 -17.6026 -17.4127 -17.3936 -17.3754
   -17.3105 -17.2678 -17.2332 -17.0472 -16.9925 -16.9235 -16.9196 -16.9026
   -16.8449 -16.8190 -16.7304 -16.7070 -16.7016 -16.6756 -16.6260 -16.5630
   -16.5165 -16.5110 -16.4557 -16.4435 -16.4165 -16.2328 -16.2101 -15.6460
   -15.6218 -11.2325  -5.7268  -5.1835  -5.0477  -4.9913  -4.9580  -4.9329
    -4.8505  -4.8347  -4.8171  -4.7744  -4.7353  -4.5558  -4.5104  -4.4675
    -4.3958  -4.3948  -4.3531  -4.3221  -4.3076  -4.2895  -4.2519  -4.2153
    -4.2108  -4.1935  -4.1324  -4.0611  -4.0176  -3.9790  -3.9671  -3.9103
    -3.8786  -3.8177  -3.7623  -3.7172  -3.6466  -3.5457  -3.4142  -3.4068
    -3.3666  -3.2882  -3.2487  -3.1365  -3.0914  -3.0725  -3.0409  -3.0129
    -2.9701  -2.9595  -2.8286  -2.7988  -2.7420  -2.6978  -2.6526  -2.5601
    -2.4851  -2.4766  -2.4426  -2.3572  -2.3040  -2.2985  -2.2236  -2.1902
    -2.1551  -2.1412  -2.1210  -2.0886  -2.0559  -2.0119  -1.9973  -1.9713
    -1.9354  -1.8937  -1.8834  -1.8627  -1.8147  -1.7546  -1.6593  -1.6088
    -1.5965  -1.5798  -1.5144  -1.4757  -1.4526  -1.4475  -1.4334  -1.3786
    -1.2944  -1.2736  -1.2168  -1.1990  -1.0917  -1.0069  -0.9804  -0.9461
    -0.8615  -0.8382  -0.7393  -0.7178  -0.6227  -0.5842  -0.5664  -0.3344
     1.2845   1.4263   1.4989   1.7201   1.7968   1.8898   1.9605   2.0582
     2.1388   2.2746   2.2796   2.3314   2.4155   2.4844   2.5037   2.5300
     2.5711   2.6102   2.6606   2.7078   2.7512   2.7683   2.7996   2.8481
     2.8635   2.8823   2.8919   2.9620   3.0083   3.0264   3.0353   3.0622
     3.1233   3.1565   3.1798   3.2579   3.3066   3.3380   3.3847   3.4322
     3.4702   3.4858   3.5617   3.6096   3.6730   3.6852   3.7250   3.8007
     3.9230   4.1580   4.3225   4.6508   4.7411   4.8415   4.9333   5.0712
     5.0770   5.1742   5.2808   5.3322   5.4004   5.4356   5.4687   5.4981
     5.4985   5.5607   5.5803   5.6466   5.6516   5.7524   5.7705   5.8127
     5.8553   5.8670   5.8870   5.9292   6.1159   6.1573   6.2964   6.3713
     6.4236   6.4416   6.7192   6.7470   7.0034   7.2201   7.6154   7.7486
     8.2124   8.3852   8.7150   8.8209   8.8420   8.8925   9.1843   9.3512
     9.4286   9.6029   9.7136

          k = 0.0000-0.0840 0.0000 ( 34678 PWs)   bands (ev):

   -58.2911 -58.2897 -57.3831 -57.3710 -57.3667 -57.3180 -57.2606 -57.0927
   -57.0675 -57.0513 -57.0329 -56.9068 -56.9061 -56.9008 -56.7862 -56.7797
   -34.5629 -34.5619 -34.5610 -34.5604 -34.4680 -34.4668 -33.7058 -33.6927
   -33.6890 -33.6503 -33.6490 -33.6432 -33.6115 -33.5954 -33.5913 -33.5806
   -33.5401 -33.5346 -33.5148 -33.5062 -33.4706 -33.4643 -33.4024 -33.3877
   -33.3822 -33.3663 -33.3292 -33.3243 -33.3073 -33.2757 -33.2627 -33.2538
   -33.2523 -33.2518 -33.2273 -33.2258 -33.1775 -33.1520 -33.1511 -33.1439
   -33.1280 -33.1257 -33.0984 -33.0978 -33.0300 -33.0216 -33.0188 -33.0129
   -18.0286 -18.0279 -17.5962 -17.5870 -17.5133 -17.4894 -17.4891 -17.3988
   -17.2618 -17.2216 -17.1343 -17.1086 -17.0761 -17.0413 -16.8989 -16.8485
   -16.8115 -16.8112 -16.8098 -16.6784 -16.6164 -16.6131 -16.6068 -16.5827
   -16.5518 -16.5293 -16.5110 -16.4784 -16.4693 -16.2752 -16.2513 -15.6553
   -15.6553 -11.2334  -5.3873  -5.3871  -4.9330  -4.8911  -4.8901  -4.8775
    -4.8552  -4.7736  -4.7620  -4.7231  -4.6623  -4.6078  -4.5707  -4.5640
    -4.4957  -4.4728  -4.4496  -4.3952  -4.3795  -4.2694  -4.2572  -4.2494
    -4.1621  -4.1199  -4.0702  -4.0363  -3.9961  -3.9064  -3.8869  -3.8710
    -3.7843  -3.7398  -3.7247  -3.6766  -3.6639  -3.6522  -3.6265  -3.4143
    -3.3641  -3.3514  -3.1535  -3.0806  -3.0748  -3.0349  -2.9308  -2.9301
    -2.9206  -2.8532  -2.8301  -2.7956  -2.7768  -2.6970  -2.6726  -2.6478
    -2.5256  -2.5050  -2.4237  -2.4071  -2.3991  -2.3769  -2.3150  -2.2448
    -2.2309  -2.1688  -2.1228  -2.0600  -2.0093  -1.9831  -1.9789  -1.9733
    -1.9690  -1.9448  -1.8422  -1.8018  -1.7815  -1.7317  -1.6955  -1.6604
    -1.6445  -1.6133  -1.5940  -1.5202  -1.5109  -1.4686  -1.4490  -1.4258
    -1.3844  -1.3339  -1.2832  -1.1810  -1.1407  -1.1196  -1.0940  -1.0689
    -0.8415  -0.8177  -0.6205  -0.6115  -0.6063  -0.5984  -0.5492  -0.5008
     1.4807   1.4834   1.6330   1.6337   1.7126   1.7135   2.0837   2.0845
     2.1476   2.2026   2.3734   2.4079   2.4445   2.4906   2.5384   2.5462
     2.6529   2.6646   2.6739   2.6878   2.7400   2.7502   2.8082   2.8108
     2.9106   2.9458   2.9893   3.0171   3.0221   3.0250   3.0315   3.0349
     3.0423   3.2233   3.2328   3.2633   3.2959   3.3378   3.3641   3.3942
     3.4312   3.4461   3.5015   3.6233   3.6950   3.7339   3.7483   3.7907
     3.8441   4.0353   4.3748   4.7552   4.8307   4.8643   4.8650   5.0505
     5.1428   5.2222   5.3130   5.3288   5.3634   5.4064   5.4669   5.5411
     5.5631   5.5950   5.5978   5.6854   5.6981   5.7173   5.7276   5.7410
     5.7674   5.8082   5.8407   5.9418   6.0249   6.1563   6.2937   6.3859
     6.4598   6.4767   6.5896   6.6091   6.9377   6.9848   7.4575   7.6172
     8.0366   8.2498   8.7246   8.9500   9.1366   9.2492   9.3455   9.3470
     9.4537   9.6129   9.7011

          k = 0.0253 0.0000 0.0000 ( 34707 PWs)   bands (ev):

   -58.3079 -58.2729 -57.3895 -57.3845 -57.3511 -57.3135 -57.2621 -57.0935
   -57.0665 -57.0611 -57.0225 -56.9241 -56.8999 -56.8888 -56.8021 -56.7637
   -34.7534 -34.5765 -34.5477 -34.5137 -34.4195 -34.3627 -33.8851 -33.8745
   -33.7547 -33.6736 -33.6393 -33.5967 -33.5675 -33.5577 -33.5536 -33.5451
   -33.5335 -33.5218 -33.4927 -33.4918 -33.4768 -33.4733 -33.4712 -33.4542
   -33.3434 -33.3381 -33.3318 -33.3303 -33.3155 -33.2904 -33.2845 -33.2660
   -33.2498 -33.2387 -33.2385 -33.2291 -33.2014 -33.1788 -33.1429 -33.1426
   -33.1046 -33.0801 -33.0528 -33.0344 -33.0157 -32.9910 -32.9511 -32.8834
   -18.4285 -18.0025 -17.7942 -17.7884 -17.5648 -17.4610 -17.4527 -17.3872
   -17.3657 -17.3249 -17.1103 -17.0420 -17.0176 -16.9845 -16.9326 -16.8957
   -16.8614 -16.7989 -16.7682 -16.7461 -16.6422 -16.5998 -16.5908 -16.5830
   -16.4679 -16.4471 -16.4033 -16.3878 -16.3271 -16.1472 -16.0879 -15.6024
   -15.5425 -11.2298  -5.9268  -5.3941  -5.2182  -5.2032  -5.0776  -5.0283
    -4.9754  -4.9394  -4.8850  -4.7389  -4.7017  -4.5872  -4.5835  -4.5161
    -4.4882  -4.4129  -4.3314  -4.2673  -4.2618  -4.2026  -4.1967  -4.1086
    -4.0333  -4.0005  -3.9934  -3.9188  -3.9033  -3.8616  -3.8518  -3.8042
    -3.7480  -3.7255  -3.6730  -3.6050  -3.5663  -3.5572  -3.5269  -3.5046
    -3.4484  -3.4171  -3.3225  -3.3189  -3.2773  -3.2613  -3.2408  -3.1549
    -3.0162  -2.9058  -2.8417  -2.8215  -2.7754  -2.7467  -2.7031  -2.6739
    -2.6151  -2.5616  -2.5439  -2.5032  -2.4389  -2.3849  -2.3359  -2.2695
    -2.2514  -2.2021  -2.0943  -2.0490  -2.0082  -1.9595  -1.8864  -1.8540
    -1.8306  -1.8018  -1.7162  -1.6283  -1.5825  -1.5742  -1.5489  -1.5124
    -1.4810  -1.4363  -1.4323  -1.3967  -1.3376  -1.3052  -1.2943  -1.2249
    -1.1895  -1.1589  -1.1091  -1.0863  -1.0451  -1.0263  -0.9595  -0.9150
    -0.8376  -0.8309  -0.6739  -0.6470  -0.6099  -0.5922  -0.5608  -0.2495
     1.1055   1.1201   1.4137   1.7806   1.8167   1.9018   1.9282   2.0473
     2.0833   2.1151   2.2016   2.2423   2.3357   2.3810   2.4394   2.5033
     2.5256   2.5942   2.6265   2.6457   2.6760   2.7017   2.8100   2.8241
     2.8447   2.8478   2.8890   2.8981   2.9430   3.0242   3.0733   3.1313
     3.1886   3.2004   3.2135   3.2156   3.2399   3.3074   3.4047   3.4416
     3.4866   3.5420   3.5907   3.6326   3.6972   3.7615   3.7833   3.9072
     4.0505   4.1891   4.2624   4.4234   4.5791   4.6222   4.8075   4.8260
     4.9579   4.9818   5.0850   5.1695   5.3026   5.3145   5.4262   5.5347
     5.5568   5.7073   5.7404   5.9031   5.9113   5.9363   5.9629   5.9856
     6.0217   6.0314   6.0681   6.1678   6.2267   6.2584   6.4385   6.4939
     6.5408   6.6207   6.7386   6.8096   7.2616   7.6787   7.7633   8.0233
     8.2246   8.3016   8.3812   8.6949   8.7570   8.9917   9.1150   9.2264
     9.4138   9.5061   9.7815

          k = 0.0253 0.0280 0.0000 ( 34687 PWs)   bands (ev):

   -58.3056 -58.2752 -57.3878 -57.3828 -57.3534 -57.3145 -57.2618 -57.0933
   -57.0666 -57.0594 -57.0245 -56.9217 -56.9001 -56.8912 -56.7996 -56.7662
   -34.7280 -34.5745 -34.5496 -34.5075 -34.4259 -34.3897 -33.8596 -33.8491
   -33.7338 -33.6675 -33.6332 -33.5942 -33.5683 -33.5541 -33.5508 -33.5409
   -33.5331 -33.5212 -33.5195 -33.4995 -33.4923 -33.4695 -33.4678 -33.4484
   -33.3380 -33.3276 -33.3184 -33.3174 -33.3078 -33.3067 -33.2820 -33.2641
   -33.2534 -33.2404 -33.2391 -33.2302 -33.2045 -33.2032 -33.1487 -33.1367
   -33.1173 -33.0767 -33.0589 -33.0325 -33.0167 -32.9958 -32.9784 -32.9119
   -18.3712 -17.9442 -17.7766 -17.7407 -17.5241 -17.5219 -17.4145 -17.3690
   -17.3522 -17.3206 -17.1147 -17.0716 -17.0017 -16.9706 -16.9215 -16.8784
   -16.8315 -16.8066 -16.7970 -16.7345 -16.6715 -16.6677 -16.6156 -16.5508
   -16.4893 -16.4669 -16.4117 -16.4072 -16.3587 -16.1659 -16.1300 -15.6166
   -15.5682 -11.2306  -5.8418  -5.3106  -5.1451  -5.1296  -4.9945  -4.9614
    -4.9382  -4.9109  -4.8246  -4.6990  -4.6782  -4.6369  -4.5349  -4.4992
    -4.4406  -4.4029  -4.3144  -4.2954  -4.2452  -4.2095  -4.1841  -4.1566
    -4.1280  -4.0963  -4.0337  -3.9990  -3.9553  -3.9427  -3.9008  -3.8250
    -3.7912  -3.7654  -3.7255  -3.7009  -3.6477  -3.6143  -3.5270  -3.4033
    -3.3472  -3.3256  -3.3161  -3.2682  -3.2377  -3.1929  -3.1186  -3.0976
    -2.9310  -2.8958  -2.8413  -2.7808  -2.7517  -2.7124  -2.6809  -2.6412
    -2.6120  -2.5250  -2.5018  -2.4724  -2.4538  -2.3847  -2.3314  -2.3066
    -2.2299  -2.1905  -2.1308  -2.0667  -2.0171  -1.9556  -1.9388  -1.9112
[...]
    -1.7313  -1.5093  -1.4660  -1.4551  -1.4375  -1.3999  -1.3205  -1.1564
    -1.1461  -1.0897  -1.0718  -1.0560  -0.9730  -0.9126  -0.8740  -0.7892
    -0.7357  -0.7288  -0.6997  -0.6723  -0.5977  -0.5756  -0.5621   0.2926
     1.5997   1.6031   1.6157   1.6211   1.9635   1.9644   2.0933   2.0943
     2.2769   2.2978   2.3110   2.3927   2.4159   2.4857   2.5727   2.6317
     2.6537   2.6983   2.7817   2.8152   2.8715   2.9236   2.9459   2.9738
     2.9883   2.9970   3.0381   3.0960   3.1102   3.2074   3.2332   3.2420
     3.2578   3.2819   3.3390   3.3851   3.3989   3.4040   3.4608   3.4717
     3.4819   3.5097   3.5242   3.5771   3.6346   3.6532   3.7748   3.8765
     3.9121   3.9225   4.1384   4.1389   4.5889   4.6180   4.6404   4.7259
     4.8811   4.8970   4.9294   5.0798   5.1591   5.1641   5.1831   5.4438
     5.6720   5.6810   5.6918   5.9244   5.9298   5.9635   6.0149   6.0177
     6.0927   6.1040   6.1741   6.2649   6.2688   6.2772   6.3812   6.4585
     6.4986   6.6050   7.0890   7.2387   7.3434   7.3972   7.5538   7.5908
     7.7187   7.7721   7.9230   8.1130   8.3010   8.3475   8.4545   8.8714
     9.0141   9.0851   9.2183

          k =-0.0253 0.0280 0.0000 ( 34687 PWs)   bands (ev):

   -58.3058 -58.2754 -57.3878 -57.3828 -57.3534 -57.3146 -57.2626 -57.0974
   -57.0678 -57.0606 -57.0257 -56.9248 -56.9225 -56.8920 -56.8032 -56.7698
   -34.7282 -34.5747 -34.5498 -34.5076 -34.4261 -34.3899 -33.8596 -33.8491
   -33.7347 -33.6675 -33.6331 -33.5943 -33.5683 -33.5541 -33.5508 -33.5416
   -33.5339 -33.5213 -33.5195 -33.4996 -33.4933 -33.4702 -33.4694 -33.4508
   -33.3388 -33.3293 -33.3219 -33.3192 -33.3123 -33.3081 -33.2835 -33.2648
   -33.2541 -33.2412 -33.2406 -33.2320 -33.2168 -33.2052 -33.1692 -33.1374
   -33.1359 -33.0800 -33.0597 -33.0400 -33.0209 -32.9991 -32.9792 -32.9147
   -18.3709 -17.9418 -17.7763 -17.7344 -17.5234 -17.5170 -17.3758 -17.3689
   -17.3456 -17.3159 -17.1122 -17.0693 -16.9846 -16.9395 -16.8734 -16.8305
   -16.7925 -16.7509 -16.7332 -16.6698 -16.6631 -16.5834 -16.5440 -16.4857
   -16.4616 -16.4055 -16.3665 -16.3486 -16.1553 -16.1205 -15.8838 -15.6128
   -15.5641 -10.8354  -5.8418  -5.3104  -5.1442  -5.1262  -4.9942  -4.9532
    -4.9143  -4.8256  -4.6990  -4.6782  -4.6370  -4.5369  -4.4989  -4.4424
    -4.4090  -4.3141  -4.2907  -4.2508  -4.2016  -4.1825  -4.1419  -4.1280
    -4.0949  -4.0516  -4.0201  -3.9931  -3.9564  -3.9144  -3.8819  -3.7999
    -3.7879  -3.7247  -3.6923  -3.6295  -3.6156  -3.5897  -3.4998  -3.3927
    -3.3448  -3.3212  -3.2931  -3.2640  -3.2251  -3.1830  -3.1133  -3.0969
    -2.9206  -2.8834  -2.8232  -2.7785  -2.7225  -2.6867  -2.6752  -2.6181
    -2.5892  -2.5098  -2.5004  -2.4433  -2.4105  -2.3593  -2.2888  -2.2664
    -2.2142  -2.1929  -2.1052  -2.0435  -1.9604  -1.9414  -1.9172  -1.8513
    -1.8402  -1.7921  -1.7463  -1.6859  -1.6368  -1.5960  -1.5633  -1.5115
    -1.4774  -1.4365  -1.4076  -1.3815  -1.3620  -1.3468  -1.3153  -1.2918
    -1.2060  -1.1251  -1.0655  -1.0117  -0.9879  -0.9548  -0.9303  -0.8857
    -0.8440  -0.8212  -0.6325  -0.6109  -0.5865  -0.5232  -0.2662   0.3155
     1.1515   1.2452   1.4292   1.8184   1.8579   1.9251   1.9615   2.0289
     2.0399   2.1892   2.2999   2.3457   2.3872   2.4299   2.4536   2.5036
     2.5238   2.5481   2.5889   2.6493   2.6975   2.7216   2.7776   2.8314
     2.8765   2.9133   2.9298   2.9729   2.9904   3.0142   3.0405   3.0931
     3.1703   3.1908   3.2332   3.2586   3.2939   3.3363   3.4293   3.4643
     3.4945   3.5586   3.6116   3.6424   3.6631   3.7437   3.8203   3.8653
     4.0124   4.2085   4.2844   4.4355   4.6242   4.7229   4.8434   4.8606
     5.0012   5.0250   5.1121   5.1978   5.2410   5.3564   5.4602   5.5483
     5.6648   5.6945   5.7165   5.8027   5.8495   5.8827   5.9088   5.9310
     5.9665   5.9893   6.0650   6.1272   6.1747   6.2820   6.3978   6.4484
     6.4617   6.5825   6.7540   6.8107   7.3799   7.4838   7.8005   7.8973
     8.0968   8.2477   8.4894   8.5382   8.7910   8.9051   9.0915   9.3098
     9.3853   9.5329   9.6175

          k =-0.0253 0.0560 0.0000 ( 34699 PWs)   bands (ev):

   -58.2994 -58.2818 -57.3846 -57.3775 -57.3598 -57.3169 -57.2618 -57.0969
   -57.0684 -57.0559 -57.0307 -56.9253 -56.9161 -56.8985 -56.7965 -56.7766
   -34.6583 -34.5694 -34.5550 -34.4906 -34.4631 -34.4435 -33.7898 -33.7799
   -33.6840 -33.6522 -33.6164 -33.5928 -33.5888 -33.5879 -33.5765 -33.5696
   -33.5433 -33.5335 -33.5200 -33.4983 -33.4850 -33.4679 -33.4570 -33.4168
   -33.3737 -33.3267 -33.3230 -33.3147 -33.2854 -33.2759 -33.2599 -33.2594
   -33.2584 -33.2495 -33.2461 -33.2327 -33.2220 -33.2183 -33.1847 -33.1651
   -33.1212 -33.0771 -33.0763 -33.0531 -33.0369 -33.0233 -33.0112 -32.9852
   -18.2132 -17.8033 -17.7815 -17.6129 -17.6015 -17.4573 -17.3948 -17.3710
   -17.2500 -17.2427 -17.2052 -17.0593 -16.9496 -16.9207 -16.8825 -16.8417
   -16.7989 -16.7451 -16.7343 -16.7189 -16.6846 -16.5994 -16.5492 -16.5324
   -16.5013 -16.4427 -16.4123 -16.4079 -16.2169 -16.2017 -15.8826 -15.6415
   -15.6179 -10.8373  -5.6066  -5.0830  -5.0254  -4.9573  -4.9251  -4.8185
    -4.7965  -4.7592  -4.6891  -4.6748  -4.5273  -4.5106  -4.4474  -4.3969
    -4.3790  -4.3706  -4.3220  -4.2783  -4.2514  -4.2415  -4.2072  -4.1758
    -4.1337  -4.1239  -4.0566  -4.0260  -3.9944  -3.9648  -3.9316  -3.8910
    -3.8325  -3.7963  -3.6977  -3.6244  -3.5880  -3.5351  -3.4587  -3.3857
    -3.3663  -3.2925  -3.1890  -3.1614  -3.1217  -3.1126  -3.0604  -3.0255
    -2.9838  -2.9281  -2.8444  -2.7948  -2.7634  -2.7059  -2.6107  -2.5909
    -2.5255  -2.5113  -2.4584  -2.3925  -2.3771  -2.3193  -2.3014  -2.2604
    -2.1895  -2.1366  -2.1224  -2.0901  -2.0500  -2.0078  -1.9864  -1.9498
    -1.9323  -1.9070  -1.8943  -1.8475  -1.7691  -1.7037  -1.6911  -1.5950
    -1.5736  -1.5455  -1.5194  -1.4860  -1.4436  -1.4144  -1.3852  -1.3265
    -1.2909  -1.2235  -1.1560  -1.0349  -1.0059  -0.9717  -0.9386  -0.8586
    -0.7646  -0.7366  -0.7061  -0.6413  -0.6104  -0.5569  -0.3634   0.2971
     1.2858   1.4678   1.5631   1.7571   1.7725   1.9108   1.9776   2.0571
     2.2642   2.2748   2.3415   2.3777   2.4142   2.4864   2.5216   2.5469
     2.5718   2.5951   2.6526   2.7052   2.7201   2.7638   2.8062   2.8558
     2.8817   2.9166   2.9608   3.0063   3.0319   3.0453   3.0553   3.1087
     3.1583   3.1980   3.2173   3.2878   3.3168   3.3452   3.3771   3.4568
     3.5087   3.5338   3.6115   3.6329   3.6675   3.7267   3.7455   3.7994
     3.8952   4.0989   4.3915   4.4999   4.7150   4.8581   4.9091   4.9603
     4.9947   5.0889   5.1861   5.2069   5.3350   5.3869   5.4331   5.5276
     5.5638   5.5985   5.6511   5.7086   5.7380   5.8030   5.8193   5.8597
     5.9267   5.9432   6.0024   6.0893   6.1320   6.2114   6.3282   6.4315
     6.4600   6.4757   6.7188   6.7684   7.0808   7.3055   7.6744   7.8343
     8.1043   8.2412   8.3298   8.4994   8.7853   8.8999   9.0069   9.1941
     9.3790   9.5540   9.6574

          k =-0.0506 0.0280 0.0000 ( 34685 PWs)   bands (ev):

   -58.3058 -58.2754 -57.3869 -57.3837 -57.3534 -57.3146 -57.2626 -57.0974
   -57.0675 -57.0610 -57.0257 -56.9248 -56.9225 -56.8920 -56.8033 -56.7698
   -34.7289 -34.5747 -34.5498 -34.5061 -34.4261 -34.3900 -33.8600 -33.8532
   -33.7349 -33.6479 -33.6330 -33.5945 -33.5734 -33.5560 -33.5547 -33.5470
   -33.5342 -33.5287 -33.5184 -33.4994 -33.4934 -33.4706 -33.4578 -33.4519
   -33.3390 -33.3224 -33.3209 -33.3190 -33.3085 -33.3077 -33.2837 -33.2668
   -33.2641 -33.2407 -33.2402 -33.2348 -33.2169 -33.2046 -33.1652 -33.1374
   -33.1362 -33.0801 -33.0597 -33.0469 -33.0193 -32.9991 -32.9793 -32.9147
   -18.2626 -17.8645 -17.8522 -17.7016 -17.5882 -17.4560 -17.4385 -17.3448
   -17.3176 -17.2512 -17.1808 -17.0868 -16.9972 -16.9521 -16.9232 -16.8955
   -16.8110 -16.7679 -16.7568 -16.6968 -16.6336 -16.5500 -16.5235 -16.4897
   -16.4616 -16.4065 -16.3904 -16.3534 -16.1518 -16.1209 -15.8846 -15.6109
   -15.5642 -10.8352  -5.5404  -5.1878  -5.1545  -5.1215  -4.9498  -4.8701
    -4.7683  -4.7102  -4.6832  -4.6529  -4.6020  -4.5878  -4.5337  -4.4080
    -4.3638  -4.3234  -4.2421  -4.2172  -4.1802  -4.1660  -4.1488  -4.0586
    -4.0422  -4.0148  -3.9775  -3.9315  -3.8868  -3.8395  -3.8137  -3.7809
    -3.7232  -3.6744  -3.6546  -3.6042  -3.5844  -3.5353  -3.4871  -3.4561
    -3.3807  -3.3683  -3.3048  -3.2659  -3.2048  -3.1502  -3.1191  -3.0588
    -3.0103  -2.9811  -2.9025  -2.8367  -2.7585  -2.6993  -2.6900  -2.6674
    -2.6175  -2.5946  -2.5819  -2.5263  -2.5176  -2.3941  -2.3419  -2.3335
    -2.2707  -2.2016  -2.1863  -2.1598  -2.0816  -2.0114  -2.0050  -1.9438
    -1.9248  -1.8949  -1.8120  -1.7231  -1.7097  -1.6854  -1.6157  -1.5872
    -1.5246  -1.4775  -1.4550  -1.3940  -1.3798  -1.3275  -1.3121  -1.2614
    -1.2447  -1.1217  -1.0586  -1.0357  -1.0117  -0.9572  -0.9259  -0.8774
    -0.8290  -0.7974  -0.7215  -0.6825  -0.6612  -0.5370  -0.3922   0.3002
     1.1385   1.3385   1.4636   1.5644   1.9323   1.9423   1.9648   2.0566
     2.1228   2.1975   2.2524   2.3283   2.4046   2.4384   2.5270   2.5446
     2.5910   2.6492   2.6860   2.6997   2.7535   2.8270   2.8499   2.8803
     2.9390   2.9448   2.9782   2.9831   2.9895   3.1005   3.1078   3.1363
     3.1840   3.2131   3.2890   3.3089   3.3540   3.3809   3.4050   3.4534
     3.4677   3.5465   3.6008   3.6658   3.7408   3.7778   3.7977   3.8993
     3.9567   4.0602   4.1077   4.4056   4.5087   4.6546   4.7463   4.8079
     4.8402   4.9123   4.9647   5.2875   5.3279   5.4106   5.5256   5.5581
     5.6393   5.7652   5.7852   5.8521   5.8976   5.9115   5.9697   6.0550
     6.0923   6.1644   6.2487   6.3332   6.3855   6.4021   6.4420   6.4888
     6.5400   6.5506   6.7111   6.9217   7.0790   7.2218   7.5494   7.6133
     7.7281   8.2262   8.4145   8.5103   8.8722   8.9444   9.0710   9.2370
     9.4286   9.6084   9.6793

          k =-0.0506 0.0560 0.0000 ( 34596 PWs)   bands (ev):

   -58.2994 -58.2818 -57.3842 -57.3778 -57.3598 -57.3169 -57.2618 -57.0969
   -57.0682 -57.0561 -57.0307 -56.9253 -56.9161 -56.8985 -56.7965 -56.7766
   -34.6589 -34.5694 -34.5550 -34.4893 -34.4633 -34.4431 -33.7901 -33.7844
   -33.6841 -33.6364 -33.6162 -33.5920 -33.5904 -33.5877 -33.5708 -33.5696
   -33.5466 -33.5337 -33.5322 -33.4985 -33.4943 -33.4680 -33.4454 -33.4184
   -33.3740 -33.3265 -33.3122 -33.3094 -33.2880 -33.2781 -33.2611 -33.2592
   -33.2581 -33.2493 -33.2457 -33.2426 -33.2228 -33.2184 -33.1840 -33.1609
   -33.1212 -33.0771 -33.0763 -33.0530 -33.0411 -33.0239 -33.0111 -32.9851
   -18.1100 -17.8210 -17.7036 -17.6156 -17.5994 -17.5596 -17.3826 -17.3711
   -17.2210 -17.2084 -17.1195 -17.0973 -16.9797 -16.9142 -16.8697 -16.8445
   -16.8258 -16.8097 -16.7637 -16.7379 -16.7230 -16.6298 -16.5989 -16.5085
   -16.4982 -16.4402 -16.4230 -16.4127 -16.2163 -16.1981 -15.8825 -15.6403
   -15.6183 -10.8371  -5.3039  -4.9939  -4.9433  -4.9354  -4.7854  -4.7777
    -4.7187  -4.6418  -4.5288  -4.5088  -4.5029  -4.4201  -4.4058  -4.3829
    -4.3633  -4.3297  -4.3113  -4.2504  -4.2025  -4.1782  -4.1693  -4.1160
    -4.1042  -4.0664  -4.0483  -3.9983  -3.9825  -3.9068  -3.8900  -3.8290
    -3.7834  -3.7133  -3.6830  -3.6307  -3.6082  -3.5615  -3.5016  -3.4358
    -3.3982  -3.3221  -3.2635  -3.2331  -3.1358  -3.1323  -3.0820  -3.0545
    -2.9973  -2.9798  -2.9600  -2.9054  -2.8025  -2.7658  -2.7511  -2.7079
    -2.6316  -2.5892  -2.5478  -2.5048  -2.4804  -2.4163  -2.3914  -2.3716
    -2.3532  -2.2919  -2.1970  -2.1743  -2.1493  -2.1307  -2.1047  -2.0499
    -2.0150  -1.9731  -1.9463  -1.8728  -1.8501  -1.7838  -1.7332  -1.6592
    -1.5682  -1.5510  -1.5402  -1.4983  -1.4443  -1.3871  -1.3550  -1.3078
    -1.2462  -1.1771  -1.0790  -1.0235  -0.9902  -0.9053  -0.8543  -0.8470
    -0.7950  -0.7085  -0.6944  -0.6730  -0.6578  -0.5550  -0.4773   0.2994
     1.3064   1.4961   1.6448   1.6666   1.8512   2.0023   2.0309   2.0661
     2.2419   2.2547   2.3591   2.3751   2.4314   2.4601   2.5468   2.5838
     2.6491   2.6944   2.7282   2.7428   2.8100   2.8409   2.8696   2.9019
     2.9324   2.9495   3.0052   3.0404   3.0710   3.1120   3.1436   3.1892
     3.1942   3.2495   3.2833   3.3233   3.3325   3.3755   3.4150   3.4656
     3.4802   3.5477   3.5765   3.6394   3.6663   3.7440   3.8034   3.8393
     3.8820   3.9588   4.1511   4.5022   4.5951   4.6147   4.7531   4.8205
     4.8872   4.9637   5.0090   5.1852   5.3005   5.3746   5.4101   5.4420
     5.5936   5.6151   5.6666   5.7155   5.8780   5.8953   5.9859   6.0049
     6.0674   6.1073   6.1695   6.2070   6.3146   6.3359   6.4126   6.4223
     6.5400   6.6139   6.7648   6.8067   7.1951   7.3632   7.5132   7.6235
     7.9403   8.0180   8.1073   8.3930   8.6110   8.7254   8.8062   9.0442
     9.1947   9.3331   9.4362

     the Fermi energy is    -0.2927 ev

!    total energy              =   -3021.14912834 Ry
     Harris-Foulkes estimate   =   -3021.14912840 Ry
     estimated scf accuracy    <       0.00000040 Ry

     The total energy is the sum of the following terms:

     one-electron contribution =  -40438.58723101 Ry
     hartree contribution      =   20290.63043506 Ry
     xc contribution           =    -553.22702709 Ry
     ewald contribution        =   17680.05450290 Ry
     smearing contrib. (-TS)   =      -0.01980820 Ry

     total magnetization       =     1.06 Bohr mag/cell
     absolute magnetization    =     1.23 Bohr mag/cell

     convergence has been achieved in  10 iterations

     Forces acting on atoms (Ry/au):


     negative rho (up, down):  1.191E-02 1.197E-02
     atom    1 type  1   force =     0.00018500   -0.00089749   -0.10470536
     atom    2 type  2   force =     0.00014375    0.00068495    0.04003931
     atom    3 type  1   force =     0.00074879   -0.00174877   -0.02054385
     atom    4 type  2   force =    -0.00326585    0.00312637   -0.00323351
     atom    5 type  1   force =     0.00034676    0.00007488    0.00031682
     atom    6 type  2   force =    -0.00013423   -0.00010046    0.00023421
     atom    7 type  1   force =    -0.00025173    0.00006122   -0.00049608
     atom    8 type  2   force =    -0.00010392   -0.00013372   -0.00017558
     atom    9 type  1   force =    -0.00003368    0.00056838   -0.10483865
     atom   10 type  2   force =     0.00034834   -0.00021160    0.03601049
     atom   11 type  1   force =     0.00068073    0.00183972    0.00261439
     atom   12 type  2   force =    -0.00519510   -0.00266625   -0.00519643
     atom   13 type  1   force =     0.00041629    0.00008531   -0.00025459
     atom   14 type  2   force =     0.00013074   -0.00007578   -0.00005277
     atom   15 type  1   force =    -0.00008354   -0.00007235    0.00005961
     atom   16 type  2   force =    -0.00014123   -0.00000488   -0.00034206
     atom   17 type  2   force =     0.00000906   -0.00001323    0.06654723
     atom   18 type  1   force =     0.00005770    0.00003239    0.13144611
     atom   19 type  2   force =     0.00017756   -0.00052717   -0.08520695
     atom   20 type  2   force =    -0.05792230    0.00014409   -0.03607567
     atom   21 type  2   force =     0.05781152   -0.00004577   -0.03603772
     atom   22 type  1   force =    -0.00042897    0.00075266    0.08017426
     atom   23 type  2   force =     0.00019883   -0.00004773    0.00004289
     atom   24 type  2   force =     0.00064202    0.00185914   -0.03467393
     atom   25 type  2   force =     0.00413979    0.00332936   -0.00510236
     atom   26 type  1   force =     0.00040720   -0.00004666    0.00010971
     atom   27 type  2   force =    -0.00009995   -0.00012478   -0.00000825
     atom   28 type  2   force =     0.00006273   -0.00019364   -0.00002375
     atom   29 type  2   force =    -0.00000906   -0.00007373    0.00007486
     atom   30 type  1   force =    -0.00023957   -0.00018214    0.00021605
     atom   31 type  2   force =     0.00012148   -0.00008925   -0.00011825
     atom   32 type  2   force =    -0.00017842    0.00001349    0.00009563
     atom   33 type  2   force =    -0.00016709    0.00005104    0.06628200
     atom   34 type  1   force =     0.00007679   -0.00003152    0.13122677
     atom   35 type  2   force =     0.00018932   -0.00012881   -0.08482127
     atom   36 type  2   force =    -0.05781578    0.00006553   -0.03568827
     atom   37 type  2   force =     0.05798859   -0.00017216   -0.03608758
     atom   38 type  1   force =    -0.00037748   -0.00020154    0.07984320
     atom   39 type  2   force =     0.00007779   -0.00026054   -0.00008334
     atom   40 type  2   force =     0.00048927    0.00124263   -0.03527994
     atom   41 type  2   force =     0.00588770   -0.00243147   -0.00722774
     atom   42 type  1   force =     0.00024334   -0.00006653    0.00004563
     atom   43 type  2   force =    -0.00019615   -0.00009457   -0.00000116
     atom   44 type  2   force =     0.00001146   -0.00015822   -0.00002954
     atom   45 type  2   force =    -0.00000193   -0.00016714    0.00005574
     atom   46 type  1   force =    -0.00017591   -0.00006340    0.00020004
     atom   47 type  2   force =    -0.00000423   -0.00012094   -0.00006626
     atom   48 type  2   force =    -0.00017997   -0.00005144    0.00033831
     atom   49 type  2   force =    -0.00071013   -0.00078689   -0.00027065
     atom   50 type  3   force =     0.02549894   -0.01323996   -0.01079305
     atom   51 type  4   force =     0.00009002   -0.00157432   -0.00087060
     atom   52 type  4   force =     0.00048998   -0.00087392   -0.00068653
     atom   53 type  4   force =    -0.00089886    0.00011999    0.00107016
     atom   54 type  4   force =    -0.02905640    0.01362764    0.01194830

     Total force =     0.345351     Total SCF correction =     0.000918
 !ASE

     Writing output data file calc.save
 
     init_run     :     66.61s CPU     78.28s WALL (       1 calls)
     electrons    :   2798.54s CPU   3214.18s WALL (       1 calls)
     forces       :     48.69s CPU     51.02s WALL (       1 calls)

     Called by init_run:
     wfcinit      :     58.44s CPU     69.50s WALL (       1 calls)
     potinit      :      1.37s CPU      1.63s WALL (       1 calls)

     Called by electrons:
     c_bands      :   2455.27s CPU   2811.97s WALL (      11 calls)
     sum_band     :    298.52s CPU    352.35s WALL (      11 calls)
     v_of_rho     :     11.35s CPU     13.72s WALL (      11 calls)
     newd         :     37.10s CPU     39.97s WALL (      11 calls)
     mix_rho      :      0.42s CPU      0.56s WALL (      11 calls)
     vdW_energy   :      2.47s CPU      2.87s WALL (      12 calls)
     vdW_ffts     :      3.03s CPU      3.84s WALL (      24 calls)
     vdW_v        :      1.17s CPU      1.35s WALL (      12 calls)

     Called by c_bands:
     init_us_2    :      6.76s CPU      7.33s WALL (     960 calls)
     cegterg      :   2413.44s CPU   2767.90s WALL (     440 calls)

     Called by *egterg:
     h_psi        :    956.63s CPU   1236.59s WALL (    2020 calls)
     s_psi        :    163.22s CPU    167.33s WALL (    2020 calls)
     g_psi        :      4.80s CPU      4.91s WALL (    1540 calls)
     cdiaghg      :    746.39s CPU    759.34s WALL (    1940 calls)

     Called by h_psi:
     add_vuspsi   :    165.01s CPU    169.71s WALL (    2020 calls)

     General routines
     calbec       :    244.30s CPU    248.71s WALL (    2500 calls)
     fft          :      6.63s CPU      8.25s WALL (     956 calls)
     ffts         :      0.06s CPU      0.08s WALL (      44 calls)
     fftw         :    533.99s CPU    852.76s WALL (  778570 calls)
     interpolate  :      0.35s CPU      0.51s WALL (      44 calls)
     davcio       :      0.00s CPU      0.98s WALL (      40 calls)
 
     Parallel routines
     fft_scatter  :    271.48s CPU    447.25s WALL (  779570 calls)
 
     PWSCF        : 48m36.50s CPU    55m47.89s WALL

 
   This run was terminated on:   1:26: 9  27Feb2018            

=------------------------------------------------------------------------------=
   JOB DONE.
=------------------------------------------------------------------------------=
