  python dir          : /home/vossj/suncat/lib/python2.7/site-packages/espresso
  espresso dir        : /home/vossj/suncat/esdld/espresso-dynpy-beef/bin
  pseudo dir          : /home/alatimer/bin/psp/esp_psp_w_gbrvRu/
  ase-espresso py git : ffa2778-git



     Program PWSCF v.5.1rc2 (svn rev. ) starts on 26Feb2018 at  6:30:45 

     This program is part of the open-source Quantum ESPRESSO suite
     for quantum simulation of materials; please cite
         "P. Giannozzi et al., J. Phys.:Condens. Matter 21 395502 (2009);
          URL http://www.quantum-espresso.org", 
     in publications or presentations arising from this work. More details at
     http://www.quantum-espresso.org/quote

     Parallel version (MPI), running on    16 processors
     R & G space division:  proc/nbgrp/npool/nimage =      16
     Reading input from pw.inp
     Message from routine read_cards :
     DEPRECATED: no units specified in CELL_PARAMETERS card

     Current dimensions of program PWSCF are:
     Max number of different atomic species (ntypx) = 10
     Max number of k-points (npk) =  40000
     Max angular momentum in pseudopotentials (lmaxx) =  3

     **************************************************************************
     Initializing libbeef V0.1.1 with the BEEF-vdW functional.
     Citation: Wellendorff et al., PRB 85, 235149 (2012).
     **************************************************************************


     IMPORTANT: XC functional enforced from input :
     Exchange-correlation      = BEEF ( 1  4 27 13 2)
     Any further DFT definition will be discarded
     Please, verify this is what you really want


     Subspace diagonalization in iterative solution of the eigenvalue problem:
     a serial algorithm will be used

 
     Parallelization info
     --------------------
     sticks:   dense  smooth     PW     G-vecs:    dense   smooth      PW
     Min         281     112     31                68535    17318    2565
     Max         282     113     32                68545    17369    2582
     Sum        4501    1795    503              1096637   277353   41113
 
     Generating pointlists ...
     new r_m :   0.4125 (alat units)  0.7795 (a.u.) for type    1
     new r_m :   0.4125 (alat units)  0.7795 (a.u.) for type    2
     new r_m :   0.4125 (alat units)  0.7795 (a.u.) for type    3
     new r_m :   0.4125 (alat units)  0.7795 (a.u.) for type    4


     bravais-lattice index     =            0
     lattice parameter (alat)  =       1.8897  a.u.
     unit-cell volume          =    7990.9933 (a.u.)^3
     number of atoms/cell      =           54
     number of atomic types    =            4
     number of electrons       =       398.00
     number of Kohn-Sham states=          299
     kinetic-energy cutoff     =      40.4243  Ry
     charge density cutoff     =     404.2426  Ry
     convergence threshold     =      7.3E-07
     mixing beta               =       0.1000
     number of iterations used =           10  plain     mixing
     Exchange-correlation      = BEEF ( 1  4 27 13 2)
     nstep                     =           50


     celldm(1)=   1.889726  celldm(2)=   0.000000  celldm(3)=   0.000000
     celldm(4)=   0.000000  celldm(5)=   0.000000  celldm(6)=   0.000000

     crystal axes: (cart. coord. in units of alat)
               a(1) = (   6.590708   0.000000   0.000000 )  
               a(2) = (   0.000000   5.950229   0.000000 )  
               a(3) = (   0.000000   0.000000  30.195235 )  

     reciprocal axes: (cart. coord. in units 2 pi/alat)
               b(1) = (  0.151729  0.000000  0.000000 )  
               b(2) = (  0.000000  0.168061  0.000000 )  
               b(3) = (  0.000000  0.000000  0.033118 )  


     PseudoPot. # 1 for Ti read from file:
     /home/alatimer/bin/psp/esp_psp_w_gbrvRu/Ti.UPF
     MD5 check sum: 8e4df49b7f0d34bbd5052bf3f5ea0213
     Pseudo is Ultrasoft, Zval = 12.0
     Generated by new atomic code, or converted to UPF format
     Using radial grid of  851 points,  6 beta functions with: 
                l(1) =   0
                l(2) =   0
                l(3) =   1
                l(4) =   1
                l(5) =   2
                l(6) =   2
     Q(r) pseudized with  8 coefficients,  rinner =    1.000   1.000   1.000
                                                       1.000   1.000

     PseudoPot. # 2 for  O read from file:
     /home/alatimer/bin/psp/esp_psp_w_gbrvRu/O.UPF
     MD5 check sum: e057bbcf3229fb5d8c36c0c92f9568b4
     Pseudo is Ultrasoft + core correction, Zval =  6.0
     Generated using "atomic" code by A. Dal Corso  v.5.0.2 svn rev. 9415
     Using radial grid of 1095 points,  4 beta functions with: 
                l(1) =   0
                l(2) =   0
                l(3) =   1
                l(4) =   1
     Q(r) pseudized with 0 coefficients 


     PseudoPot. # 3 for  C read from file:
     /home/alatimer/bin/psp/esp_psp_w_gbrvRu/C.UPF
     MD5 check sum: ab446d787031eba755f1d5ee46644bb0
     Pseudo is Ultrasoft + core correction, Zval =  4.0
     Generated using "atomic" code by A. Dal Corso  v.5.0.2 svn rev. 9415
     Using radial grid of 1073 points,  4 beta functions with: 
                l(1) =   0
                l(2) =   0
                l(3) =   1
                l(4) =   1
     Q(r) pseudized with 0 coefficients 


     PseudoPot. # 4 for  H read from file:
     /home/alatimer/bin/psp/esp_psp_w_gbrvRu/H.UPF
     MD5 check sum: bd57da0722753ddfd9833a65b40bb853
     Pseudo is Ultrasoft, Zval =  1.0
     Generated using "atomic" code by A. Dal Corso  v.5.0.2 svn rev. 9415
     Using radial grid of  929 points,  2 beta functions with: 
                l(1) =   0
                l(2) =   0
     Q(r) pseudized with 0 coefficients 


     vdW kernel table read from file vdW_kernel_table
     MD5 check sum: 095c7af220d748ca6e76c0b4c6cfb241

     atomic species   valence    mass     pseudopotential
        Ti1           12.00    47.88000     Ti( 1.00)
        O1             6.00    15.99940      O( 1.00)
        C1             4.00    12.01100      C( 1.00)
        H1             1.00     1.00794      H( 1.00)

     Starting magnetic structure 
     atomic species   magnetization
        Ti1          0.250
        O1           0.500
        C1           0.750
        H1           0.000

     No symmetry found



   Cartesian axes

     site n.     atom                  positions (alat units)
         1           Ti1 tau(   1) = (   1.6476770   0.7437786   2.6545865  )
         2           O1  tau(   2) = (   1.6476770   2.2313359   3.9361215  )
         3           Ti1 tau(   3) = (   1.6476770   2.2313359   5.9499405  )
         4           O1  tau(   4) = (   0.3661420   0.7437786   5.9499405  )
         5           Ti1 tau(   5) = (   1.6407309   0.9134410   9.3139491  )
         6           O1  tau(   6) = (   1.6648823   2.2608486  10.4895904  )
         7           Ti1 tau(   7) = (   1.7578240   2.2899216  13.0472362  )
         8           O1  tau(   8) = (   0.4801583   0.7600008  12.7739736  )
         9           Ti1 tau(   9) = (   1.6476770   3.7188931   2.6545865  )
        10           O1  tau(  10) = (   1.6476770   5.2064503   3.9361215  )
        11           Ti1 tau(  11) = (   1.6476770   5.2064503   5.9499405  )
        12           O1  tau(  12) = (   0.3661420   3.7188931   5.9499405  )
        13           Ti1 tau(  13) = (   1.6336050   3.7786827   9.1566831  )
        14           O1  tau(  14) = (   1.6678212   5.2513959  10.5409436  )
        15           Ti1 tau(  15) = (   1.7144009   5.2558216  12.3462911  )
        16           O1  tau(  16) = (   0.4635505   3.7986228  12.7318280  )
        17           O1  tau(  17) = (   1.6476770   2.2313359   1.3730516  )
        18           Ti1 tau(  18) = (   4.9430310   2.2313359   2.6545865  )
        19           O1  tau(  19) = (   4.9430310   2.2313359   4.6684056  )
        20           O1  tau(  20) = (   6.2245660   0.7437786   2.6545865  )
        21           O1  tau(  21) = (   3.6614961   0.7437786   2.6545865  )
        22           Ti1 tau(  22) = (   4.9430310   0.7437786   5.9499405  )
        23           O1  tau(  23) = (   1.6683653   2.2752577   7.9427336  )
        24           O1  tau(  24) = (   4.9430310   2.2313359   7.2314755  )
        25           O1  tau(  25) = (   2.9292120   0.7437786   5.9499405  )
        26           Ti1 tau(  26) = (   4.9404121   2.2664794   9.4552217  )
        27           O1  tau(  27) = (   5.0099888   2.2616732  11.2946145  )
        28           O1  tau(  28) = (   6.2612001   0.7714827   9.2659748  )
        29           O1  tau(  29) = (   3.6791272   0.7744986   9.2965846  )
        30           Ti1 tau(  30) = (   5.0117873   0.7976728  12.8161605  )
        31           O1  tau(  31) = (   4.9963122   2.2836652  13.8750618  )
        32           O1  tau(  32) = (   2.9819382   0.7448324  12.7109220  )
        33           O1  tau(  33) = (   1.6476770   5.2064503   1.3730516  )
        34           Ti1 tau(  34) = (   4.9430310   5.2064503   2.6545865  )
        35           O1  tau(  35) = (   4.9430310   5.2064503   4.6684056  )
        36           O1  tau(  36) = (   6.2245660   3.7188931   2.6545865  )
        37           O1  tau(  37) = (   3.6614961   3.7188931   2.6545865  )
        38           Ti1 tau(  38) = (   4.9430310   3.7188931   5.9499405  )
        39           O1  tau(  39) = (   1.6664207   5.2035600   7.9365221  )
        40           O1  tau(  40) = (   4.9430310   5.2064503   7.2314755  )
        41           O1  tau(  41) = (   2.9292120   3.7188931   5.9499405  )
        42           Ti1 tau(  42) = (   4.9524353   5.2460635   9.4426343  )
        43           O1  tau(  43) = (   5.0107556   5.2394944  11.2927493  )
        44           O1  tau(  44) = (   6.2663940   3.7551737   9.2646230  )
        45           O1  tau(  45) = (   3.6780957   3.7542261   9.2971476  )
        46           Ti1 tau(  46) = (   5.0587989   3.7766986  12.8010349  )
        47           O1  tau(  47) = (   5.0196089   5.2502198  13.8813978  )
        48           O1  tau(  48) = (   2.9624133   3.7943242  12.7299881  )
        49           O1  tau(  49) = (   1.7427453   2.2533568  14.8370015  )
        50           C1  tau(  50) = (   2.7196098   4.2826273  16.2318421  )
        51           H1  tau(  51) = (   3.2737454   4.9255546  15.5827400  )
        52           H1  tau(  52) = (   3.3286606   3.7870117  16.9822022  )
        53           H1  tau(  53) = (   2.3125587   3.4026405  15.5729816  )
        54           H1  tau(  54) = (   1.8391288   4.7650601  16.6448379  )

     number of k points=    40  Fermi-Dirac smearing, width (Ry)=  0.0073
                       cart. coord. in units 2pi/alat
        k(    1) = (   0.0000000   0.0000000   0.0000000), wk =   0.0277778
        k(    2) = (   0.0000000   0.0280101   0.0000000), wk =   0.0555556
        k(    3) = (   0.0000000   0.0560203   0.0000000), wk =   0.0555556
        k(    4) = (   0.0000000  -0.0840304   0.0000000), wk =   0.0277778
        k(    5) = (   0.0252881   0.0000000   0.0000000), wk =   0.0555556
        k(    6) = (   0.0252881   0.0280101   0.0000000), wk =   0.0555556
        k(    7) = (   0.0252881   0.0560203   0.0000000), wk =   0.0555556
        k(    8) = (   0.0252881  -0.0840304   0.0000000), wk =   0.0555556
        k(    9) = (   0.0505763   0.0000000   0.0000000), wk =   0.0555556
        k(   10) = (   0.0505763   0.0280101   0.0000000), wk =   0.0555556
        k(   11) = (   0.0505763   0.0560203   0.0000000), wk =   0.0555556
        k(   12) = (   0.0505763  -0.0840304   0.0000000), wk =   0.0555556
        k(   13) = (  -0.0758644   0.0000000   0.0000000), wk =   0.0277778
        k(   14) = (  -0.0758644   0.0280101   0.0000000), wk =   0.0555556
        k(   15) = (  -0.0758644   0.0560203   0.0000000), wk =   0.0555556
        k(   16) = (  -0.0758644  -0.0840304   0.0000000), wk =   0.0277778
        k(   17) = (  -0.0252881   0.0280101   0.0000000), wk =   0.0555556
        k(   18) = (  -0.0252881   0.0560203   0.0000000), wk =   0.0555556
        k(   19) = (  -0.0505763   0.0280101   0.0000000), wk =   0.0555556
        k(   20) = (  -0.0505763   0.0560203   0.0000000), wk =   0.0555556
        k(   21) = (   0.0000000   0.0000000   0.0000000), wk =   0.0277778
        k(   22) = (   0.0000000   0.0280101   0.0000000), wk =   0.0555556
        k(   23) = (   0.0000000   0.0560203   0.0000000), wk =   0.0555556
        k(   24) = (   0.0000000  -0.0840304   0.0000000), wk =   0.0277778
        k(   25) = (   0.0252881   0.0000000   0.0000000), wk =   0.0555556
        k(   26) = (   0.0252881   0.0280101   0.0000000), wk =   0.0555556
        k(   27) = (   0.0252881   0.0560203   0.0000000), wk =   0.0555556
        k(   28) = (   0.0252881  -0.0840304   0.0000000), wk =   0.0555556
        k(   29) = (   0.0505763   0.0000000   0.0000000), wk =   0.0555556
        k(   30) = (   0.0505763   0.0280101   0.0000000), wk =   0.0555556
        k(   31) = (   0.0505763   0.0560203   0.0000000), wk =   0.0555556
        k(   32) = (   0.0505763  -0.0840304   0.0000000), wk =   0.0555556
        k(   33) = (  -0.0758644   0.0000000   0.0000000), wk =   0.0277778
        k(   34) = (  -0.0758644   0.0280101   0.0000000), wk =   0.0555556
        k(   35) = (  -0.0758644   0.0560203   0.0000000), wk =   0.0555556
        k(   36) = (  -0.0758644  -0.0840304   0.0000000), wk =   0.0277778
        k(   37) = (  -0.0252881   0.0280101   0.0000000), wk =   0.0555556
        k(   38) = (  -0.0252881   0.0560203   0.0000000), wk =   0.0555556
        k(   39) = (  -0.0505763   0.0280101   0.0000000), wk =   0.0555556
        k(   40) = (  -0.0505763   0.0560203   0.0000000), wk =   0.0555556

     Dense  grid:  1096637 G-vectors     FFT dimensions: (  80,  72, 375)

     Smooth grid:   277353 G-vectors     FFT dimensions: (  54,  45, 240)

     Largest allocated arrays     est. size (Mb)     dimensions
        Kohn-Sham Wavefunctions         9.95 Mb     (    2180,  299)
        NL pseudopotentials            18.89 Mb     (    2180,  568)
        Each V/rho on FFT grid          4.22 Mb     (  138240,   2)
        Each G-vector array             0.52 Mb     (   68538)
        G-vector shells                 0.25 Mb     (   33046)
     Largest temporary arrays     est. size (Mb)     dimensions
        Auxiliary wavefunctions        39.78 Mb     (    2180, 1196)
        Each subspace H/S matrix       21.83 Mb     (    1196, 1196)
        Each <psi_i|beta_j> matrix      2.59 Mb     (     568,  299)
        Arrays for rho mixing          21.09 Mb     (  138240,   10)

     Check: negative/imaginary core charge=   -0.000049    0.000000

     The initial density is read from file :
     ./calc.save/charge-density.dat


     negative rho (up, down):  1.189E-02 1.196E-02


     ************************************************************************
     *
     * You are using vdW-DF for exchange-correlation in this calculation.
     * Please cite the following three references that made this development
     * possible:
     *
     *   M. Dion, H. Rydberg, E. Schroder, D. C. Langreth, and
     *   B. I. Lundqvist, Phys. Rev. Lett. 92, 246401 (2004).
     *
     *   T. Thonhauser, V. R. Cooper, S. Li, A. Puzder, P. Hyldgaard, and
     *   D. C. Langreth, Phys. Rev. B 76, 125112 (2007).
     *
     *   G. Roman-Perez and J. M. Soler, Phys. Rev. Lett. 103, 096102 (2009).
     *
     *
     * If you are using vdW-DF2, please also cite:
     *
     *   K. Lee, E. D. Murray, L. Kong, B. I. Lundqvist, and
     *   D. C. Langreth, Phys. Rev. B 82, 081101(R) (2010).
     *
     *
     * If you are calculating the stress with vdW-DF, please also cite:
     *
     *   R. Sabatini, E. Kucukbenli, B. Kolb, T. Thonhauser, and
     *   S. de Gironcoli, J. Phys.: Condens. Matter 24, 424209 (2012).
     *
     ************************************************************************

     Carrying out vdW-DF run using the following parameters:

     Nqs =      20    Nr_points =    1024   r_max =   100.000
     q_mesh =
               0.00001000     0.04494208     0.09755937     0.15916263
               0.23128650     0.31572767     0.41458969     0.53033537
               0.66584808     0.82450364     1.01025438     1.22772762
               1.48234092     1.78043706     2.12944203     2.53805004
               3.01644009     3.57652955     4.23227104     5.00000000

     Gradients computed in reciprocal space

     ************************************************************************


     Starting wfc are  300 randomized atomic wfcs

     total cpu time spent up to now is       76.9 secs

     Self-consistent Calculation

     iteration #  1     ecut=    40.42 Ry     beta=0.10
     Davidson diagonalization with overlap
     ethr =  1.00E-05,  avg # of iterations = 14.9

     Threshold (ethr) on eigenvalues was too large:
     Diagonalizing with lowered threshold

     Davidson diagonalization with overlap
     ethr =  4.89E-07,  avg # of iterations =  1.0

     negative rho (up, down):  1.189E-02 1.196E-02
 
     Magnetic moment per site:
     atom:    1    charge:    3.1244    magn:   -0.0003    constr:    0.0000
     atom:    2    charge:    2.0897    magn:    0.0003    constr:    0.0000
     atom:    3    charge:    3.1198    magn:   -0.0000    constr:    0.0000
     atom:    4    charge:    2.0867    magn:   -0.0001    constr:    0.0000
     atom:    5    charge:    3.1161    magn:   -0.0002    constr:    0.0000
     atom:    6    charge:    2.0795    magn:    0.0021    constr:    0.0000
     atom:    7    charge:    3.1167    magn:   -0.0053    constr:    0.0000
     atom:    8    charge:    2.0792    magn:    0.0250    constr:    0.0000
     atom:    9    charge:    3.1244    magn:   -0.0003    constr:    0.0000
     atom:   10    charge:    2.0898    magn:    0.0003    constr:    0.0000
     atom:   11    charge:    3.1198    magn:   -0.0000    constr:    0.0000
     atom:   12    charge:    2.0870    magn:   -0.0000    constr:    0.0000
     atom:   13    charge:    3.1150    magn:   -0.0002    constr:    0.0000
     atom:   14    charge:    2.0939    magn:    0.0023    constr:    0.0000
     atom:   15    charge:    3.1184    magn:   -0.0008    constr:    0.0000
     atom:   16    charge:    2.0829    magn:    0.0046    constr:    0.0000
     atom:   17    charge:    2.0624    magn:    0.0018    constr:    0.0000
     atom:   18    charge:    3.1239    magn:   -0.0001    constr:    0.0000
     atom:   19    charge:    2.0875    magn:    0.0001    constr:    0.0000
     atom:   20    charge:    2.0847    magn:    0.0002    constr:    0.0000
     atom:   21    charge:    2.0847    magn:    0.0002    constr:    0.0000
     atom:   22    charge:    3.1199    magn:    0.0000    constr:    0.0000
     atom:   23    charge:    2.0908    magn:    0.0002    constr:    0.0000
     atom:   24    charge:    2.0754    magn:   -0.0002    constr:    0.0000
     atom:   25    charge:    2.0867    magn:    0.0000    constr:    0.0000
     atom:   26    charge:    3.1127    magn:   -0.0002    constr:    0.0000
     atom:   27    charge:    2.0803    magn:    0.0025    constr:    0.0000
     atom:   28    charge:    2.0839    magn:    0.0006    constr:    0.0000
     atom:   29    charge:    2.0860    magn:    0.0008    constr:    0.0000
     atom:   30    charge:    3.1172    magn:   -0.0008    constr:    0.0000
     atom:   31    charge:    2.0825    magn:    0.0006    constr:    0.0000
     atom:   32    charge:    2.0829    magn:    0.0064    constr:    0.0000
     atom:   33    charge:    2.0624    magn:    0.0018    constr:    0.0000
     atom:   34    charge:    3.1239    magn:   -0.0001    constr:    0.0000
     atom:   35    charge:    2.0875    magn:    0.0001    constr:    0.0000
     atom:   36    charge:    2.0847    magn:    0.0002    constr:    0.0000
     atom:   37    charge:    2.0847    magn:    0.0002    constr:    0.0000
     atom:   38    charge:    3.1200    magn:    0.0000    constr:    0.0000
     atom:   39    charge:    2.0839    magn:    0.0002    constr:    0.0000
     atom:   40    charge:    2.0756    magn:   -0.0003    constr:    0.0000
     atom:   41    charge:    2.0870    magn:   -0.0000    constr:    0.0000
     atom:   42    charge:    3.1151    magn:   -0.0002    constr:    0.0000
     atom:   43    charge:    2.0803    magn:    0.0030    constr:    0.0000
     atom:   44    charge:    2.0851    magn:    0.0008    constr:    0.0000
     atom:   45    charge:    2.0858    magn:    0.0004    constr:    0.0000
     atom:   46    charge:    3.1148    magn:   -0.0007    constr:    0.0000
     atom:   47    charge:    2.0803    magn:    0.0047    constr:    0.0000
     atom:   48    charge:    2.0837    magn:    0.0137    constr:    0.0000
     atom:   49    charge:    2.0518    magn:    0.2398    constr:    0.0000
     atom:   50    charge:    0.6722    magn:    0.0547    constr:    0.0000
     atom:   51    charge:    0.4304    magn:    0.0009    constr:    0.0000
     atom:   52    charge:    0.4225    magn:    0.0008    constr:    0.0000
     atom:   53    charge:    0.3676    magn:    0.0231    constr:    0.0000
     atom:   54    charge:    0.4231    magn:    0.0006    constr:    0.0000

     total cpu time spent up to now is     1234.7 secs

     total energy              =   -3021.14980620 Ry
     Harris-Foulkes estimate   =   -3021.15001281 Ry
     estimated scf accuracy    <       0.00194927 Ry

     total magnetization       =     1.06 Bohr mag/cell
     absolute magnetization    =     1.23 Bohr mag/cell

     iteration #  2     ecut=    40.42 Ry     beta=0.10
     Davidson diagonalization with overlap
     ethr =  4.90E-07,  avg # of iterations =  1.4

     negative rho (up, down):  1.189E-02 1.196E-02
 
     Magnetic moment per site:
     atom:    1    charge:    3.1244    magn:   -0.0003    constr:    0.0000
     atom:    2    charge:    2.0897    magn:    0.0003    constr:    0.0000
     atom:    3    charge:    3.1198    magn:   -0.0000    constr:    0.0000
     atom:    4    charge:    2.0867    magn:   -0.0001    constr:    0.0000
     atom:    5    charge:    3.1161    magn:   -0.0002    constr:    0.0000
     atom:    6    charge:    2.0795    magn:    0.0021    constr:    0.0000
     atom:    7    charge:    3.1167    magn:   -0.0053    constr:    0.0000
     atom:    8    charge:    2.0792    magn:    0.0250    constr:    0.0000
     atom:    9    charge:    3.1244    magn:   -0.0003    constr:    0.0000
     atom:   10    charge:    2.0899    magn:    0.0003    constr:    0.0000
     atom:   11    charge:    3.1198    magn:   -0.0000    constr:    0.0000
     atom:   12    charge:    2.0870    magn:   -0.0000    constr:    0.0000
     atom:   13    charge:    3.1150    magn:   -0.0002    constr:    0.0000
     atom:   14    charge:    2.0939    magn:    0.0023    constr:    0.0000
     atom:   15    charge:    3.1184    magn:   -0.0008    constr:    0.0000
     atom:   16    charge:    2.0828    magn:    0.0046    constr:    0.0000
     atom:   17    charge:    2.0625    magn:    0.0017    constr:    0.0000
     atom:   18    charge:    3.1239    magn:   -0.0001    constr:    0.0000
     atom:   19    charge:    2.0875    magn:    0.0001    constr:    0.0000
     atom:   20    charge:    2.0847    magn:    0.0002    constr:    0.0000
     atom:   21    charge:    2.0847    magn:    0.0002    constr:    0.0000
     atom:   22    charge:    3.1199    magn:    0.0000    constr:    0.0000
     atom:   23    charge:    2.0908    magn:    0.0002    constr:    0.0000
     atom:   24    charge:    2.0754    magn:   -0.0002    constr:    0.0000
     atom:   25    charge:    2.0867    magn:    0.0000    constr:    0.0000
     atom:   26    charge:    3.1127    magn:   -0.0002    constr:    0.0000
     atom:   27    charge:    2.0802    magn:    0.0025    constr:    0.0000
     atom:   28    charge:    2.0839    magn:    0.0006    constr:    0.0000
     atom:   29    charge:    2.0860    magn:    0.0008    constr:    0.0000
     atom:   30    charge:    3.1172    magn:   -0.0008    constr:    0.0000
     atom:   31    charge:    2.0825    magn:    0.0006    constr:    0.0000
     atom:   32    charge:    2.0829    magn:    0.0064    constr:    0.0000
     atom:   33    charge:    2.0625    magn:    0.0018    constr:    0.0000
     atom:   34    charge:    3.1239    magn:   -0.0001    constr:    0.0000
     atom:   35    charge:    2.0876    magn:    0.0001    constr:    0.0000
     atom:   36    charge:    2.0847    magn:    0.0002    constr:    0.0000
     atom:   37    charge:    2.0847    magn:    0.0002    constr:    0.0000
     atom:   38    charge:    3.1200    magn:    0.0000    constr:    0.0000
     atom:   39    charge:    2.0839    magn:    0.0002    constr:    0.0000
     atom:   40    charge:    2.0756    magn:   -0.0003    constr:    0.0000
     atom:   41    charge:    2.0870    magn:   -0.0000    constr:    0.0000
     atom:   42    charge:    3.1151    magn:   -0.0002    constr:    0.0000
     atom:   43    charge:    2.0802    magn:    0.0030    constr:    0.0000
     atom:   44    charge:    2.0851    magn:    0.0008    constr:    0.0000
     atom:   45    charge:    2.0858    magn:    0.0004    constr:    0.0000
     atom:   46    charge:    3.1148    magn:   -0.0007    constr:    0.0000
     atom:   47    charge:    2.0802    magn:    0.0047    constr:    0.0000
     atom:   48    charge:    2.0836    magn:    0.0137    constr:    0.0000
     atom:   49    charge:    2.0517    magn:    0.2399    constr:    0.0000
     atom:   50    charge:    0.6726    magn:    0.0546    constr:    0.0000
     atom:   51    charge:    0.4305    magn:    0.0009    constr:    0.0000
     atom:   52    charge:    0.4224    magn:    0.0008    constr:    0.0000
     atom:   53    charge:    0.3676    magn:    0.0230    constr:    0.0000
     atom:   54    charge:    0.4232    magn:    0.0006    constr:    0.0000

     total cpu time spent up to now is     1441.9 secs

     total energy              =   -3021.14972170 Ry
     Harris-Foulkes estimate   =   -3021.14984811 Ry
     estimated scf accuracy    <       0.00168865 Ry

     total magnetization       =     1.06 Bohr mag/cell
     absolute magnetization    =     1.23 Bohr mag/cell

     iteration #  3     ecut=    40.42 Ry     beta=0.10
     Davidson diagonalization with overlap
     ethr =  4.24E-07,  avg # of iterations =  1.3

     negative rho (up, down):  1.190E-02 1.196E-02
 
     Magnetic moment per site:
     atom:    1    charge:    3.1244    magn:   -0.0003    constr:    0.0000
     atom:    2    charge:    2.0897    magn:    0.0003    constr:    0.0000
     atom:    3    charge:    3.1198    magn:   -0.0000    constr:    0.0000
     atom:    4    charge:    2.0867    magn:   -0.0001    constr:    0.0000
     atom:    5    charge:    3.1161    magn:   -0.0002    constr:    0.0000
     atom:    6    charge:    2.0795    magn:    0.0021    constr:    0.0000
     atom:    7    charge:    3.1167    magn:   -0.0054    constr:    0.0000
     atom:    8    charge:    2.0792    magn:    0.0251    constr:    0.0000
     atom:    9    charge:    3.1244    magn:   -0.0003    constr:    0.0000
     atom:   10    charge:    2.0898    magn:    0.0003    constr:    0.0000
     atom:   11    charge:    3.1198    magn:   -0.0000    constr:    0.0000
     atom:   12    charge:    2.0871    magn:   -0.0000    constr:    0.0000
     atom:   13    charge:    3.1150    magn:   -0.0002    constr:    0.0000
     atom:   14    charge:    2.0939    magn:    0.0023    constr:    0.0000
     atom:   15    charge:    3.1185    magn:   -0.0008    constr:    0.0000
     atom:   16    charge:    2.0828    magn:    0.0046    constr:    0.0000
     atom:   17    charge:    2.0624    magn:    0.0016    constr:    0.0000
     atom:   18    charge:    3.1239    magn:   -0.0001    constr:    0.0000
     atom:   19    charge:    2.0875    magn:    0.0001    constr:    0.0000
     atom:   20    charge:    2.0847    magn:    0.0001    constr:    0.0000
     atom:   21    charge:    2.0847    magn:    0.0001    constr:    0.0000
     atom:   22    charge:    3.1199    magn:    0.0000    constr:    0.0000
     atom:   23    charge:    2.0908    magn:    0.0002    constr:    0.0000
     atom:   24    charge:    2.0754    magn:   -0.0001    constr:    0.0000
     atom:   25    charge:    2.0868    magn:    0.0000    constr:    0.0000
     atom:   26    charge:    3.1127    magn:   -0.0002    constr:    0.0000
     atom:   27    charge:    2.0802    magn:    0.0025    constr:    0.0000
     atom:   28    charge:    2.0839    magn:    0.0006    constr:    0.0000
     atom:   29    charge:    2.0860    magn:    0.0008    constr:    0.0000
     atom:   30    charge:    3.1172    magn:   -0.0008    constr:    0.0000
     atom:   31    charge:    2.0824    magn:    0.0006    constr:    0.0000
     atom:   32    charge:    2.0829    magn:    0.0064    constr:    0.0000
     atom:   33    charge:    2.0624    magn:    0.0016    constr:    0.0000
     atom:   34    charge:    3.1239    magn:   -0.0001    constr:    0.0000
     atom:   35    charge:    2.0876    magn:    0.0001    constr:    0.0000
     atom:   36    charge:    2.0847    magn:    0.0001    constr:    0.0000
     atom:   37    charge:    2.0847    magn:    0.0001    constr:    0.0000
     atom:   38    charge:    3.1200    magn:    0.0000    constr:    0.0000
     atom:   39    charge:    2.0839    magn:    0.0002    constr:    0.0000
     atom:   40    charge:    2.0756    magn:   -0.0002    constr:    0.0000
     atom:   41    charge:    2.0870    magn:   -0.0000    constr:    0.0000
     atom:   42    charge:    3.1151    magn:   -0.0002    constr:    0.0000
     atom:   43    charge:    2.0803    magn:    0.0031    constr:    0.0000
     atom:   44    charge:    2.0851    magn:    0.0009    constr:    0.0000
     atom:   45    charge:    2.0858    magn:    0.0004    constr:    0.0000
     atom:   46    charge:    3.1148    magn:   -0.0007    constr:    0.0000
     atom:   47    charge:    2.0800    magn:    0.0047    constr:    0.0000
     atom:   48    charge:    2.0836    magn:    0.0138    constr:    0.0000
     atom:   49    charge:    2.0517    magn:    0.2400    constr:    0.0000
     atom:   50    charge:    0.6746    magn:    0.0546    constr:    0.0000
     atom:   51    charge:    0.4309    magn:    0.0009    constr:    0.0000
     atom:   52    charge:    0.4219    magn:    0.0008    constr:    0.0000
     atom:   53    charge:    0.3677    magn:    0.0228    constr:    0.0000
     atom:   54    charge:    0.4233    magn:    0.0005    constr:    0.0000

     total cpu time spent up to now is     1646.6 secs

     total energy              =   -3021.14950375 Ry
     Harris-Foulkes estimate   =   -3021.14979320 Ry
     estimated scf accuracy    <       0.00176088 Ry

     total magnetization       =     1.06 Bohr mag/cell
     absolute magnetization    =     1.23 Bohr mag/cell

     iteration #  4     ecut=    40.42 Ry     beta=0.10
     Davidson diagonalization with overlap
     ethr =  4.24E-07,  avg # of iterations =  3.0

     negative rho (up, down):  1.190E-02 1.196E-02
 
     Magnetic moment per site:
     atom:    1    charge:    3.1244    magn:   -0.0003    constr:    0.0000
     atom:    2    charge:    2.0897    magn:    0.0003    constr:    0.0000
     atom:    3    charge:    3.1198    magn:   -0.0000    constr:    0.0000
     atom:    4    charge:    2.0867    magn:   -0.0001    constr:    0.0000
     atom:    5    charge:    3.1161    magn:   -0.0002    constr:    0.0000
     atom:    6    charge:    2.0795    magn:    0.0021    constr:    0.0000
     atom:    7    charge:    3.1167    magn:   -0.0054    constr:    0.0000
     atom:    8    charge:    2.0794    magn:    0.0251    constr:    0.0000
     atom:    9    charge:    3.1244    magn:   -0.0003    constr:    0.0000
     atom:   10    charge:    2.0898    magn:    0.0003    constr:    0.0000
     atom:   11    charge:    3.1198    magn:   -0.0000    constr:    0.0000
     atom:   12    charge:    2.0870    magn:   -0.0000    constr:    0.0000
     atom:   13    charge:    3.1150    magn:   -0.0002    constr:    0.0000
     atom:   14    charge:    2.0939    magn:    0.0023    constr:    0.0000
     atom:   15    charge:    3.1184    magn:   -0.0008    constr:    0.0000
     atom:   16    charge:    2.0828    magn:    0.0046    constr:    0.0000
     atom:   17    charge:    2.0625    magn:    0.0015    constr:    0.0000
     atom:   18    charge:    3.1240    magn:   -0.0001    constr:    0.0000
     atom:   19    charge:    2.0875    magn:    0.0001    constr:    0.0000
     atom:   20    charge:    2.0847    magn:    0.0001    constr:    0.0000
     atom:   21    charge:    2.0847    magn:    0.0001    constr:    0.0000
     atom:   22    charge:    3.1199    magn:    0.0000    constr:    0.0000
     atom:   23    charge:    2.0908    magn:    0.0002    constr:    0.0000
     atom:   24    charge:    2.0754    magn:   -0.0001    constr:    0.0000
     atom:   25    charge:    2.0867    magn:    0.0000    constr:    0.0000
     atom:   26    charge:    3.1127    magn:   -0.0002    constr:    0.0000
     atom:   27    charge:    2.0802    magn:    0.0025    constr:    0.0000
     atom:   28    charge:    2.0839    magn:    0.0006    constr:    0.0000
     atom:   29    charge:    2.0860    magn:    0.0008    constr:    0.0000
     atom:   30    charge:    3.1171    magn:   -0.0008    constr:    0.0000
     atom:   31    charge:    2.0825    magn:    0.0006    constr:    0.0000
     atom:   32    charge:    2.0829    magn:    0.0065    constr:    0.0000
     atom:   33    charge:    2.0625    magn:    0.0015    constr:    0.0000
     atom:   34    charge:    3.1239    magn:   -0.0001    constr:    0.0000
     atom:   35    charge:    2.0876    magn:    0.0001    constr:    0.0000
     atom:   36    charge:    2.0847    magn:    0.0001    constr:    0.0000
     atom:   37    charge:    2.0847    magn:    0.0001    constr:    0.0000
     atom:   38    charge:    3.1200    magn:    0.0000    constr:    0.0000
     atom:   39    charge:    2.0839    magn:    0.0002    constr:    0.0000
     atom:   40    charge:    2.0756    magn:   -0.0002    constr:    0.0000
     atom:   41    charge:    2.0870    magn:   -0.0000    constr:    0.0000
     atom:   42    charge:    3.1151    magn:   -0.0002    constr:    0.0000
     atom:   43    charge:    2.0803    magn:    0.0031    constr:    0.0000
     atom:   44    charge:    2.0851    magn:    0.0009    constr:    0.0000
     atom:   45    charge:    2.0858    magn:    0.0004    constr:    0.0000
     atom:   46    charge:    3.1147    magn:   -0.0007    constr:    0.0000
     atom:   47    charge:    2.0804    magn:    0.0047    constr:    0.0000
     atom:   48    charge:    2.0838    magn:    0.0137    constr:    0.0000
     atom:   49    charge:    2.0518    magn:    0.2399    constr:    0.0000
     atom:   50    charge:    0.6744    magn:    0.0546    constr:    0.0000
     atom:   51    charge:    0.4311    magn:    0.0010    constr:    0.0000
     atom:   52    charge:    0.4219    magn:    0.0008    constr:    0.0000
     atom:   53    charge:    0.3675    magn:    0.0229    constr:    0.0000
     atom:   54    charge:    0.4234    magn:    0.0005    constr:    0.0000

     total cpu time spent up to now is     1883.8 secs

     total energy              =   -3021.14958960 Ry
     Harris-Foulkes estimate   =   -3021.14961338 Ry
     estimated scf accuracy    <       0.00026204 Ry

     total magnetization       =     1.06 Bohr mag/cell
     absolute magnetization    =     1.23 Bohr mag/cell

     iteration #  5     ecut=    40.42 Ry     beta=0.10
     Davidson diagonalization with overlap
     ethr =  6.58E-08,  avg # of iterations =  2.0

     negative rho (up, down):  1.190E-02 1.196E-02
 
     Magnetic moment per site:
     atom:    1    charge:    3.1244    magn:   -0.0002    constr:    0.0000
     atom:    2    charge:    2.0897    magn:    0.0002    constr:    0.0000
     atom:    3    charge:    3.1198    magn:   -0.0000    constr:    0.0000
     atom:    4    charge:    2.0867    magn:   -0.0001    constr:    0.0000
     atom:    5    charge:    3.1161    magn:   -0.0002    constr:    0.0000
     atom:    6    charge:    2.0795    magn:    0.0021    constr:    0.0000
     atom:    7    charge:    3.1167    magn:   -0.0053    constr:    0.0000
     atom:    8    charge:    2.0794    magn:    0.0250    constr:    0.0000
     atom:    9    charge:    3.1244    magn:   -0.0002    constr:    0.0000
     atom:   10    charge:    2.0898    magn:    0.0002    constr:    0.0000
     atom:   11    charge:    3.1198    magn:   -0.0000    constr:    0.0000
     atom:   12    charge:    2.0870    magn:   -0.0000    constr:    0.0000
     atom:   13    charge:    3.1150    magn:   -0.0002    constr:    0.0000
     atom:   14    charge:    2.0939    magn:    0.0023    constr:    0.0000
     atom:   15    charge:    3.1183    magn:   -0.0008    constr:    0.0000
     atom:   16    charge:    2.0828    magn:    0.0046    constr:    0.0000
     atom:   17    charge:    2.0625    magn:    0.0014    constr:    0.0000
     atom:   18    charge:    3.1240    magn:   -0.0001    constr:    0.0000
     atom:   19    charge:    2.0875    magn:    0.0001    constr:    0.0000
     atom:   20    charge:    2.0847    magn:    0.0001    constr:    0.0000
     atom:   21    charge:    2.0847    magn:    0.0001    constr:    0.0000
     atom:   22    charge:    3.1199    magn:    0.0000    constr:    0.0000
     atom:   23    charge:    2.0908    magn:    0.0002    constr:    0.0000
     atom:   24    charge:    2.0754    magn:   -0.0001    constr:    0.0000
     atom:   25    charge:    2.0867    magn:    0.0000    constr:    0.0000
     atom:   26    charge:    3.1127    magn:   -0.0002    constr:    0.0000
     atom:   27    charge:    2.0802    magn:    0.0026    constr:    0.0000
     atom:   28    charge:    2.0839    magn:    0.0007    constr:    0.0000
     atom:   29    charge:    2.0860    magn:    0.0008    constr:    0.0000
     atom:   30    charge:    3.1171    magn:   -0.0008    constr:    0.0000
     atom:   31    charge:    2.0825    magn:    0.0006    constr:    0.0000
     atom:   32    charge:    2.0829    magn:    0.0065    constr:    0.0000
     atom:   33    charge:    2.0624    magn:    0.0014    constr:    0.0000
     atom:   34    charge:    3.1239    magn:   -0.0001    constr:    0.0000
     atom:   35    charge:    2.0876    magn:    0.0001    constr:    0.0000
     atom:   36    charge:    2.0847    magn:    0.0001    constr:    0.0000
     atom:   37    charge:    2.0847    magn:    0.0001    constr:    0.0000
     atom:   38    charge:    3.1200    magn:    0.0000    constr:    0.0000
     atom:   39    charge:    2.0839    magn:    0.0002    constr:    0.0000
     atom:   40    charge:    2.0756    magn:   -0.0002    constr:    0.0000
     atom:   41    charge:    2.0870    magn:   -0.0000    constr:    0.0000
     atom:   42    charge:    3.1151    magn:   -0.0002    constr:    0.0000
     atom:   43    charge:    2.0803    magn:    0.0031    constr:    0.0000
     atom:   44    charge:    2.0851    magn:    0.0009    constr:    0.0000
     atom:   45    charge:    2.0858    magn:    0.0005    constr:    0.0000
     atom:   46    charge:    3.1147    magn:   -0.0007    constr:    0.0000
     atom:   47    charge:    2.0808    magn:    0.0047    constr:    0.0000
     atom:   48    charge:    2.0838    magn:    0.0137    constr:    0.0000
     atom:   49    charge:    2.0518    magn:    0.2398    constr:    0.0000
     atom:   50    charge:    0.6743    magn:    0.0547    constr:    0.0000
     atom:   51    charge:    0.4314    magn:    0.0010    constr:    0.0000
     atom:   52    charge:    0.4219    magn:    0.0008    constr:    0.0000
     atom:   53    charge:    0.3675    magn:    0.0231    constr:    0.0000
     atom:   54    charge:    0.4234    magn:    0.0005    constr:    0.0000

     total cpu time spent up to now is     2101.8 secs

     total energy              =   -3021.14958407 Ry
     Harris-Foulkes estimate   =   -3021.14959536 Ry
     estimated scf accuracy    <       0.00013661 Ry

     total magnetization       =     1.06 Bohr mag/cell
     absolute magnetization    =     1.23 Bohr mag/cell

     iteration #  6     ecut=    40.42 Ry     beta=0.10
     Davidson diagonalization with overlap
     ethr =  3.43E-08,  avg # of iterations =  3.0

     negative rho (up, down):  1.190E-02 1.196E-02
 
     Magnetic moment per site:
     atom:    1    charge:    3.1244    magn:   -0.0002    constr:    0.0000
     atom:    2    charge:    2.0897    magn:    0.0002    constr:    0.0000
     atom:    3    charge:    3.1198    magn:   -0.0000    constr:    0.0000
     atom:    4    charge:    2.0867    magn:   -0.0001    constr:    0.0000
     atom:    5    charge:    3.1161    magn:   -0.0003    constr:    0.0000
     atom:    6    charge:    2.0795    magn:    0.0021    constr:    0.0000
     atom:    7    charge:    3.1167    magn:   -0.0053    constr:    0.0000
     atom:    8    charge:    2.0793    magn:    0.0250    constr:    0.0000
     atom:    9    charge:    3.1244    magn:   -0.0002    constr:    0.0000
     atom:   10    charge:    2.0898    magn:    0.0002    constr:    0.0000
     atom:   11    charge:    3.1198    magn:   -0.0000    constr:    0.0000
     atom:   12    charge:    2.0870    magn:   -0.0000    constr:    0.0000
     atom:   13    charge:    3.1150    magn:   -0.0002    constr:    0.0000
     atom:   14    charge:    2.0939    magn:    0.0022    constr:    0.0000
     atom:   15    charge:    3.1184    magn:   -0.0008    constr:    0.0000
     atom:   16    charge:    2.0828    magn:    0.0047    constr:    0.0000
     atom:   17    charge:    2.0624    magn:    0.0013    constr:    0.0000
     atom:   18    charge:    3.1240    magn:   -0.0001    constr:    0.0000
     atom:   19    charge:    2.0875    magn:    0.0000    constr:    0.0000
     atom:   20    charge:    2.0847    magn:    0.0001    constr:    0.0000
     atom:   21    charge:    2.0847    magn:    0.0001    constr:    0.0000
     atom:   22    charge:    3.1199    magn:    0.0000    constr:    0.0000
     atom:   23    charge:    2.0908    magn:    0.0002    constr:    0.0000
     atom:   24    charge:    2.0754    magn:   -0.0001    constr:    0.0000
     atom:   25    charge:    2.0867    magn:    0.0000    constr:    0.0000
     atom:   26    charge:    3.1127    magn:   -0.0002    constr:    0.0000
     atom:   27    charge:    2.0803    magn:    0.0026    constr:    0.0000
     atom:   28    charge:    2.0839    magn:    0.0007    constr:    0.0000
     atom:   29    charge:    2.0860    magn:    0.0008    constr:    0.0000
     atom:   30    charge:    3.1171    magn:   -0.0008    constr:    0.0000
     atom:   31    charge:    2.0826    magn:    0.0006    constr:    0.0000
     atom:   32    charge:    2.0829    magn:    0.0065    constr:    0.0000
     atom:   33    charge:    2.0624    magn:    0.0013    constr:    0.0000
     atom:   34    charge:    3.1239    magn:   -0.0001    constr:    0.0000
     atom:   35    charge:    2.0876    magn:    0.0000    constr:    0.0000
     atom:   36    charge:    2.0847    magn:    0.0001    constr:    0.0000
     atom:   37    charge:    2.0847    magn:    0.0001    constr:    0.0000
     atom:   38    charge:    3.1200    magn:    0.0000    constr:    0.0000
     atom:   39    charge:    2.0839    magn:    0.0002    constr:    0.0000
     atom:   40    charge:    2.0756    magn:   -0.0002    constr:    0.0000
     atom:   41    charge:    2.0870    magn:   -0.0000    constr:    0.0000
     atom:   42    charge:    3.1151    magn:   -0.0002    constr:    0.0000
     atom:   43    charge:    2.0803    magn:    0.0031    constr:    0.0000
     atom:   44    charge:    2.0851    magn:    0.0009    constr:    0.0000
     atom:   45    charge:    2.0858    magn:    0.0005    constr:    0.0000
     atom:   46    charge:    3.1148    magn:   -0.0007    constr:    0.0000
     atom:   47    charge:    2.0808    magn:    0.0047    constr:    0.0000
     atom:   48    charge:    2.0838    magn:    0.0137    constr:    0.0000
     atom:   49    charge:    2.0518    magn:    0.2397    constr:    0.0000
     atom:   50    charge:    0.6741    magn:    0.0547    constr:    0.0000
     atom:   51    charge:    0.4317    magn:    0.0010    constr:    0.0000
     atom:   52    charge:    0.4220    magn:    0.0008    constr:    0.0000
     atom:   53    charge:    0.3674    magn:    0.0232    constr:    0.0000
     atom:   54    charge:    0.4235    magn:    0.0005    constr:    0.0000

     total cpu time spent up to now is     2336.6 secs

     total energy              =   -3021.14959021 Ry
     Harris-Foulkes estimate   =   -3021.14958890 Ry
     estimated scf accuracy    <       0.00004404 Ry

     total magnetization       =     1.06 Bohr mag/cell
     absolute magnetization    =     1.23 Bohr mag/cell

     iteration #  7     ecut=    40.42 Ry     beta=0.10
     Davidson diagonalization with overlap
     ethr =  1.11E-08,  avg # of iterations =  3.0

     negative rho (up, down):  1.190E-02 1.196E-02
 
     Magnetic moment per site:
     atom:    1    charge:    3.1244    magn:   -0.0002    constr:    0.0000
     atom:    2    charge:    2.0897    magn:    0.0002    constr:    0.0000
     atom:    3    charge:    3.1198    magn:   -0.0000    constr:    0.0000
     atom:    4    charge:    2.0867    magn:   -0.0001    constr:    0.0000
     atom:    5    charge:    3.1161    magn:   -0.0003    constr:    0.0000
     atom:    6    charge:    2.0795    magn:    0.0021    constr:    0.0000
     atom:    7    charge:    3.1167    magn:   -0.0053    constr:    0.0000
     atom:    8    charge:    2.0793    magn:    0.0250    constr:    0.0000
     atom:    9    charge:    3.1244    magn:   -0.0002    constr:    0.0000
     atom:   10    charge:    2.0898    magn:    0.0002    constr:    0.0000
     atom:   11    charge:    3.1198    magn:   -0.0000    constr:    0.0000
     atom:   12    charge:    2.0870    magn:   -0.0000    constr:    0.0000
     atom:   13    charge:    3.1150    magn:   -0.0002    constr:    0.0000
     atom:   14    charge:    2.0939    magn:    0.0022    constr:    0.0000
     atom:   15    charge:    3.1184    magn:   -0.0008    constr:    0.0000
     atom:   16    charge:    2.0828    magn:    0.0047    constr:    0.0000
     atom:   17    charge:    2.0624    magn:    0.0012    constr:    0.0000
     atom:   18    charge:    3.1240    magn:   -0.0000    constr:    0.0000
     atom:   19    charge:    2.0875    magn:    0.0000    constr:    0.0000
     atom:   20    charge:    2.0847    magn:    0.0001    constr:    0.0000
     atom:   21    charge:    2.0847    magn:    0.0001    constr:    0.0000
     atom:   22    charge:    3.1199    magn:    0.0000    constr:    0.0000
     atom:   23    charge:    2.0908    magn:    0.0003    constr:    0.0000
     atom:   24    charge:    2.0754    magn:   -0.0001    constr:    0.0000
     atom:   25    charge:    2.0867    magn:    0.0000    constr:    0.0000
     atom:   26    charge:    3.1127    magn:   -0.0003    constr:    0.0000
     atom:   27    charge:    2.0803    magn:    0.0026    constr:    0.0000
     atom:   28    charge:    2.0839    magn:    0.0007    constr:    0.0000
     atom:   29    charge:    2.0860    magn:    0.0009    constr:    0.0000
     atom:   30    charge:    3.1171    magn:   -0.0008    constr:    0.0000
     atom:   31    charge:    2.0826    magn:    0.0006    constr:    0.0000
     atom:   32    charge:    2.0829    magn:    0.0065    constr:    0.0000
     atom:   33    charge:    2.0624    magn:    0.0012    constr:    0.0000
     atom:   34    charge:    3.1239    magn:   -0.0000    constr:    0.0000
     atom:   35    charge:    2.0876    magn:    0.0000    constr:    0.0000
     atom:   36    charge:    2.0847    magn:    0.0001    constr:    0.0000
     atom:   37    charge:    2.0847    magn:    0.0001    constr:    0.0000
     atom:   38    charge:    3.1200    magn:    0.0000    constr:    0.0000
     atom:   39    charge:    2.0839    magn:    0.0002    constr:    0.0000
     atom:   40    charge:    2.0756    magn:   -0.0001    constr:    0.0000
     atom:   41    charge:    2.0870    magn:   -0.0000    constr:    0.0000
     atom:   42    charge:    3.1151    magn:   -0.0002    constr:    0.0000
     atom:   43    charge:    2.0803    magn:    0.0031    constr:    0.0000
     atom:   44    charge:    2.0851    magn:    0.0010    constr:    0.0000
     atom:   45    charge:    2.0858    magn:    0.0005    constr:    0.0000
     atom:   46    charge:    3.1148    magn:   -0.0007    constr:    0.0000
     atom:   47    charge:    2.0807    magn:    0.0047    constr:    0.0000
     atom:   48    charge:    2.0837    magn:    0.0136    constr:    0.0000
     atom:   49    charge:    2.0518    magn:    0.2397    constr:    0.0000
     atom:   50    charge:    0.6737    magn:    0.0547    constr:    0.0000
     atom:   51    charge:    0.4318    magn:    0.0010    constr:    0.0000
     atom:   52    charge:    0.4222    magn:    0.0008    constr:    0.0000
     atom:   53    charge:    0.3674    magn:    0.0233    constr:    0.0000
     atom:   54    charge:    0.4234    magn:    0.0005    constr:    0.0000

     total cpu time spent up to now is     2574.1 secs

     total energy              =   -3021.14958991 Ry
     Harris-Foulkes estimate   =   -3021.14959243 Ry
     estimated scf accuracy    <       0.00001228 Ry

     total magnetization       =     1.06 Bohr mag/cell
     absolute magnetization    =     1.23 Bohr mag/cell

     iteration #  8     ecut=    40.42 Ry     beta=0.10
     Davidson diagonalization with overlap
     ethr =  3.08E-09,  avg # of iterations =  3.0

     negative rho (up, down):  1.189E-02 1.196E-02
 
     Magnetic moment per site:
     atom:    1    charge:    3.1244    magn:   -0.0002    constr:    0.0000
     atom:    2    charge:    2.0897    magn:    0.0002    constr:    0.0000
     atom:    3    charge:    3.1198    magn:   -0.0000    constr:    0.0000
     atom:    4    charge:    2.0867    magn:   -0.0001    constr:    0.0000
     atom:    5    charge:    3.1161    magn:   -0.0003    constr:    0.0000
     atom:    6    charge:    2.0795    magn:    0.0022    constr:    0.0000
     atom:    7    charge:    3.1167    magn:   -0.0053    constr:    0.0000
     atom:    8    charge:    2.0793    magn:    0.0250    constr:    0.0000
     atom:    9    charge:    3.1244    magn:   -0.0002    constr:    0.0000
     atom:   10    charge:    2.0898    magn:    0.0002    constr:    0.0000
     atom:   11    charge:    3.1198    magn:   -0.0000    constr:    0.0000
     atom:   12    charge:    2.0870    magn:   -0.0000    constr:    0.0000
     atom:   13    charge:    3.1150    magn:   -0.0002    constr:    0.0000
     atom:   14    charge:    2.0939    magn:    0.0022    constr:    0.0000
     atom:   15    charge:    3.1184    magn:   -0.0008    constr:    0.0000
     atom:   16    charge:    2.0828    magn:    0.0047    constr:    0.0000
     atom:   17    charge:    2.0624    magn:    0.0011    constr:    0.0000
     atom:   18    charge:    3.1239    magn:   -0.0000    constr:    0.0000
     atom:   19    charge:    2.0875    magn:    0.0000    constr:    0.0000
     atom:   20    charge:    2.0847    magn:    0.0001    constr:    0.0000
     atom:   21    charge:    2.0847    magn:    0.0001    constr:    0.0000
     atom:   22    charge:    3.1199    magn:    0.0000    constr:    0.0000
     atom:   23    charge:    2.0908    magn:    0.0003    constr:    0.0000
     atom:   24    charge:    2.0754    magn:   -0.0000    constr:    0.0000
     atom:   25    charge:    2.0867    magn:    0.0000    constr:    0.0000
     atom:   26    charge:    3.1127    magn:   -0.0003    constr:    0.0000
     atom:   27    charge:    2.0802    magn:    0.0027    constr:    0.0000
     atom:   28    charge:    2.0839    magn:    0.0007    constr:    0.0000
     atom:   29    charge:    2.0860    magn:    0.0009    constr:    0.0000
     atom:   30    charge:    3.1171    magn:   -0.0008    constr:    0.0000
     atom:   31    charge:    2.0825    magn:    0.0006    constr:    0.0000
     atom:   32    charge:    2.0829    magn:    0.0065    constr:    0.0000
     atom:   33    charge:    2.0624    magn:    0.0011    constr:    0.0000
     atom:   34    charge:    3.1239    magn:   -0.0000    constr:    0.0000
     atom:   35    charge:    2.0876    magn:    0.0000    constr:    0.0000
     atom:   36    charge:    2.0847    magn:    0.0001    constr:    0.0000
     atom:   37    charge:    2.0847    magn:    0.0001    constr:    0.0000
     atom:   38    charge:    3.1200    magn:    0.0000    constr:    0.0000
     atom:   39    charge:    2.0839    magn:    0.0002    constr:    0.0000
     atom:   40    charge:    2.0756    magn:   -0.0001    constr:    0.0000
     atom:   41    charge:    2.0870    magn:   -0.0000    constr:    0.0000
     atom:   42    charge:    3.1151    magn:   -0.0002    constr:    0.0000
     atom:   43    charge:    2.0803    magn:    0.0032    constr:    0.0000
     atom:   44    charge:    2.0851    magn:    0.0010    constr:    0.0000
     atom:   45    charge:    2.0858    magn:    0.0005    constr:    0.0000
     atom:   46    charge:    3.1148    magn:   -0.0007    constr:    0.0000
     atom:   47    charge:    2.0806    magn:    0.0047    constr:    0.0000
     atom:   48    charge:    2.0837    magn:    0.0136    constr:    0.0000
     atom:   49    charge:    2.0517    magn:    0.2397    constr:    0.0000
     atom:   50    charge:    0.6736    magn:    0.0547    constr:    0.0000
     atom:   51    charge:    0.4318    magn:    0.0010    constr:    0.0000
     atom:   52    charge:    0.4223    magn:    0.0009    constr:    0.0000
     atom:   53    charge:    0.3675    magn:    0.0233    constr:    0.0000
     atom:   54    charge:    0.4234    magn:    0.0005    constr:    0.0000

     total cpu time spent up to now is     2812.6 secs

     total energy              =   -3021.14959073 Ry
     Harris-Foulkes estimate   =   -3021.14959101 Ry
     estimated scf accuracy    <       0.00000422 Ry

     total magnetization       =     1.06 Bohr mag/cell
     absolute magnetization    =     1.23 Bohr mag/cell

     iteration #  9     ecut=    40.42 Ry     beta=0.10
     Davidson diagonalization with overlap
     ethr =  1.06E-09,  avg # of iterations =  3.0

     negative rho (up, down):  1.189E-02 1.196E-02
 
     Magnetic moment per site:
     atom:    1    charge:    3.1244    magn:   -0.0001    constr:    0.0000
     atom:    2    charge:    2.0897    magn:    0.0001    constr:    0.0000
     atom:    3    charge:    3.1198    magn:   -0.0000    constr:    0.0000
     atom:    4    charge:    2.0867    magn:   -0.0001    constr:    0.0000
     atom:    5    charge:    3.1161    magn:   -0.0003    constr:    0.0000
     atom:    6    charge:    2.0795    magn:    0.0022    constr:    0.0000
     atom:    7    charge:    3.1167    magn:   -0.0053    constr:    0.0000
     atom:    8    charge:    2.0793    magn:    0.0249    constr:    0.0000
     atom:    9    charge:    3.1244    magn:   -0.0001    constr:    0.0000
     atom:   10    charge:    2.0898    magn:    0.0001    constr:    0.0000
     atom:   11    charge:    3.1198    magn:   -0.0000    constr:    0.0000
     atom:   12    charge:    2.0870    magn:   -0.0000    constr:    0.0000
     atom:   13    charge:    3.1150    magn:   -0.0002    constr:    0.0000
     atom:   14    charge:    2.0939    magn:    0.0022    constr:    0.0000
     atom:   15    charge:    3.1184    magn:   -0.0008    constr:    0.0000
     atom:   16    charge:    2.0828    magn:    0.0047    constr:    0.0000
     atom:   17    charge:    2.0625    magn:    0.0008    constr:    0.0000
     atom:   18    charge:    3.1240    magn:   -0.0000    constr:    0.0000
     atom:   19    charge:    2.0875    magn:    0.0000    constr:    0.0000
     atom:   20    charge:    2.0847    magn:    0.0001    constr:    0.0000
     atom:   21    charge:    2.0847    magn:    0.0001    constr:    0.0000
     atom:   22    charge:    3.1199    magn:    0.0000    constr:    0.0000
     atom:   23    charge:    2.0908    magn:    0.0003    constr:    0.0000
     atom:   24    charge:    2.0754    magn:   -0.0000    constr:    0.0000
     atom:   25    charge:    2.0867    magn:    0.0000    constr:    0.0000
     atom:   26    charge:    3.1126    magn:   -0.0003    constr:    0.0000
     atom:   27    charge:    2.0803    magn:    0.0027    constr:    0.0000
     atom:   28    charge:    2.0839    magn:    0.0008    constr:    0.0000
     atom:   29    charge:    2.0860    magn:    0.0009    constr:    0.0000
     atom:   30    charge:    3.1171    magn:   -0.0008    constr:    0.0000
     atom:   31    charge:    2.0824    magn:    0.0006    constr:    0.0000
     atom:   32    charge:    2.0829    magn:    0.0065    constr:    0.0000
     atom:   33    charge:    2.0624    magn:    0.0008    constr:    0.0000
     atom:   34    charge:    3.1239    magn:   -0.0000    constr:    0.0000
     atom:   35    charge:    2.0875    magn:    0.0000    constr:    0.0000
     atom:   36    charge:    2.0847    magn:    0.0001    constr:    0.0000
     atom:   37    charge:    2.0847    magn:    0.0001    constr:    0.0000
     atom:   38    charge:    3.1200    magn:    0.0000    constr:    0.0000
     atom:   39    charge:    2.0839    magn:    0.0002    constr:    0.0000
     atom:   40    charge:    2.0756    magn:   -0.0001    constr:    0.0000
     atom:   41    charge:    2.0870    magn:   -0.0000    constr:    0.0000
     atom:   42    charge:    3.1151    magn:   -0.0003    constr:    0.0000
     atom:   43    charge:    2.0803    magn:    0.0032    constr:    0.0000
     atom:   44    charge:    2.0851    magn:    0.0010    constr:    0.0000
     atom:   45    charge:    2.0858    magn:    0.0006    constr:    0.0000
     atom:   46    charge:    3.1148    magn:   -0.0007    constr:    0.0000
     atom:   47    charge:    2.0805    magn:    0.0047    constr:    0.0000
     atom:   48    charge:    2.0838    magn:    0.0136    constr:    0.0000
     atom:   49    charge:    2.0518    magn:    0.2397    constr:    0.0000
     atom:   50    charge:    0.6736    magn:    0.0547    constr:    0.0000
     atom:   51    charge:    0.4319    magn:    0.0010    constr:    0.0000
     atom:   52    charge:    0.4223    magn:    0.0009    constr:    0.0000
     atom:   53    charge:    0.3675    magn:    0.0233    constr:    0.0000
     atom:   54    charge:    0.4234    magn:    0.0005    constr:    0.0000

     total cpu time spent up to now is     3052.8 secs

     End of self-consistent calculation

 ------ SPIN UP ------------


          k = 0.0000 0.0000 0.0000 ( 34665 PWs)   bands (ev):

   -58.3054 -58.2704 -57.3873 -57.3816 -57.3485 -57.3109 -57.2595 -57.0907
   -57.0640 -57.0583 -57.0199 -56.9216 -56.8972 -56.8863 -56.7996 -56.7612
   -34.7506 -34.5740 -34.5452 -34.5120 -34.4170 -34.3602 -33.8822 -33.8700
   -33.7519 -33.6788 -33.6368 -33.5940 -33.5615 -33.5548 -33.5488 -33.5422
   -33.5308 -33.5159 -33.4904 -33.4891 -33.4746 -33.4731 -33.4702 -33.4514
   -33.3410 -33.3345 -33.3311 -33.3287 -33.3158 -33.2877 -33.2819 -33.2623
   -33.2418 -33.2367 -33.2359 -33.2267 -33.1986 -33.1760 -33.1417 -33.1402
   -33.1023 -33.0776 -33.0502 -33.0279 -33.0143 -32.9885 -32.9485 -32.8807
   -18.4706 -18.0378 -17.8135 -17.7130 -17.5526 -17.5311 -17.4873 -17.3853
   -17.3586 -17.2586 -17.0466 -17.0258 -17.0180 -16.9869 -16.9263 -16.8558
   -16.8362 -16.7992 -16.7415 -16.7097 -16.6907 -16.6584 -16.5938 -16.5899
   -16.4670 -16.4194 -16.4000 -16.3634 -16.3269 -16.1460 -16.0848 -15.6010
   -15.5402 -11.2316  -6.0492  -5.4980  -5.2838  -5.2040  -5.0952  -4.9937
    -4.9832  -4.9259  -4.8799  -4.7341  -4.6512  -4.6008  -4.5868  -4.5117
    -4.4304  -4.4150  -4.3538  -4.3176  -4.2347  -4.2199  -4.1976  -4.1431
    -4.0323  -4.0257  -3.9821  -3.9096  -3.8934  -3.8873  -3.8849  -3.8370
    -3.7779  -3.7577  -3.7251  -3.6783  -3.6330  -3.5841  -3.5429  -3.5291
    -3.5193  -3.4191  -3.4085  -3.3622  -3.2741  -3.2335  -3.1893  -3.0880
    -2.9231  -2.8979  -2.8522  -2.8044  -2.7467  -2.6948  -2.6732  -2.6622
    -2.6345  -2.5377  -2.4890  -2.4398  -2.3787  -2.3342  -2.2498  -2.2303
    -2.2259  -2.1611  -2.0695  -2.0423  -2.0001  -1.9602  -1.9309  -1.9000
    -1.8545  -1.7384  -1.6948  -1.6694  -1.6416  -1.6315  -1.5873  -1.5050
    -1.4217  -1.3680  -1.3536  -1.3384  -1.3134  -1.2693  -1.2248  -1.1714
    -1.1606  -1.1117  -1.1089  -1.0936  -1.0641  -0.9807  -0.8741  -0.8334
    -0.8092  -0.6942  -0.6879  -0.6251  -0.5532  -0.5116  -0.4839  -0.1874
     1.0254   1.1222   1.4171   1.6955   1.8037   1.9216   1.9692   2.0157
     2.0458   2.1331   2.2097   2.2306   2.2766   2.3956   2.4708   2.4844
     2.4917   2.5188   2.6215   2.6667   2.6718   2.6886   2.7104   2.8271
     2.8422   2.8867   2.9010   2.9544   2.9686   3.0216   3.0298   3.0519
     3.1055   3.1611   3.1993   3.2003   3.2479   3.2558   3.4114   3.4475
     3.4787   3.5207   3.5978   3.6266   3.6702   3.7144   3.8291   3.9565
     4.1044   4.1348   4.3269   4.4724   4.5950   4.7067   4.7847   4.8350
     5.0853   5.1331   5.2105   5.3534   5.3980   5.4034   5.4258   5.4330
     5.4473   5.5227   5.5551   5.6628   5.7190   5.7351   5.9064   5.9198
     5.9552   6.0751   6.0942   6.1367   6.2172   6.2955   6.4229   6.4898
     6.5426   6.5641   6.7830   6.8150   7.2116   7.9158   8.1525   8.1767
     8.3455   8.3898   8.6442   8.7130   8.7528   8.9648   9.1484   9.2441
     9.2945   9.4498   9.6199

          k = 0.0000 0.0280 0.0000 ( 34717 PWs)   bands (ev):

   -58.3031 -58.2727 -57.3855 -57.3799 -57.3508 -57.3119 -57.2591 -57.0905
   -57.0640 -57.0566 -57.0219 -56.9192 -56.8974 -56.8887 -56.7971 -56.7637
   -34.7252 -34.5720 -34.5471 -34.5058 -34.4235 -34.3872 -33.8568 -33.8445
   -33.7311 -33.6725 -33.6306 -33.5915 -33.5686 -33.5511 -33.5431 -33.5349
   -33.5300 -33.5177 -33.5145 -33.4974 -33.4896 -33.4729 -33.4648 -33.4451
   -33.3351 -33.3291 -33.3160 -33.3136 -33.3084 -33.3042 -33.2794 -33.2606
   -33.2465 -33.2385 -33.2365 -33.2260 -33.2023 -33.2005 -33.1480 -33.1342
   -33.1142 -33.0742 -33.0564 -33.0278 -33.0140 -32.9933 -32.9760 -32.9094
   -18.4123 -17.9781 -17.7636 -17.6828 -17.6074 -17.5080 -17.4383 -17.3733
   -17.3274 -17.2892 -17.0976 -17.0050 -16.9966 -16.9760 -16.9286 -16.8772
   -16.7969 -16.7747 -16.7622 -16.7372 -16.7088 -16.6837 -16.6192 -16.5673
   -16.4811 -16.4447 -16.4069 -16.3867 -16.3591 -16.1647 -16.1265 -15.6151
   -15.5657 -11.2326  -5.9637  -5.4138  -5.2045  -5.1334  -5.0253  -4.9588
    -4.9269  -4.9028  -4.8089  -4.7305  -4.6697  -4.6549  -4.5278  -4.5171
    -4.4180  -4.3780  -4.3642  -4.3244  -4.2590  -4.2144  -4.2003  -4.1782
    -4.1008  -4.0693  -4.0185  -4.0051  -3.9796  -3.9722  -3.9234  -3.8619
    -3.8160  -3.7805  -3.7549  -3.7236  -3.7077  -3.6480  -3.5582  -3.4403
    -3.4049  -3.3214  -3.3070  -3.3016  -3.2689  -3.1254  -3.1052  -2.9458
    -2.9045  -2.8834  -2.8033  -2.7498  -2.7452  -2.7223  -2.6904  -2.6525
    -2.5996  -2.5184  -2.4590  -2.4447  -2.4172  -2.2806  -2.2563  -2.2243
    -2.2133  -2.1540  -2.1458  -2.0288  -1.9849  -1.9587  -1.9265  -1.9144
    -1.8747  -1.7683  -1.7590  -1.7200  -1.6813  -1.6117  -1.5833  -1.5730
    -1.5025  -1.4609  -1.3922  -1.3782  -1.3754  -1.3591  -1.2856  -1.2725
    -1.2360  -1.1756  -1.1468  -1.0704  -0.9942  -0.9541  -0.9290  -0.8977
    -0.8772  -0.8402  -0.7304  -0.6001  -0.5740  -0.5602  -0.5399  -0.2284
     1.1581   1.1632   1.4183   1.8318   1.8761   1.8935   1.9261   2.0025
     2.0611   2.0791   2.3000   2.3084   2.3410   2.4582   2.4942   2.5147
     2.5224   2.5444   2.5492   2.5978   2.7148   2.7329   2.8028   2.8139
     2.8359   2.9001   2.9368   2.9649   2.9817   2.9945   3.0157   3.0664
     3.0868   3.1232   3.1763   3.2351   3.2476   3.3281   3.4361   3.4770
     3.5129   3.5437   3.5666   3.5891   3.6440   3.6673   3.7874   3.9086
     4.0588   4.2019   4.2833   4.5258   4.7057   4.7080   4.8147   4.9101
     5.1122   5.1735   5.2563   5.3029   5.3727   5.4123   5.4350   5.4789
     5.5072   5.5356   5.5498   5.6619   5.7050   5.7145   5.8232   5.8840
     5.9464   5.9920   6.0366   6.0515   6.1804   6.2512   6.3888   6.4342
     6.4514   6.5546   6.7247   6.8175   7.3171   7.4535   7.9921   8.0650
     8.3432   8.4982   8.5239   8.7069   8.7795   8.9911   9.1131   9.3101
     9.3681   9.4514   9.5227

          k = 0.0000 0.0560 0.0000 ( 34721 PWs)   bands (ev):

   -58.2967 -58.2791 -57.3822 -57.3747 -57.3572 -57.3142 -57.2584 -57.0901
   -57.0645 -57.0520 -57.0268 -56.9128 -56.8979 -56.8952 -56.7905 -56.7704
   -34.6553 -34.5668 -34.5523 -34.4886 -34.4603 -34.4411 -33.7870 -33.7751
   -33.6804 -33.6556 -33.6139 -33.5918 -33.5910 -33.5852 -33.5705 -33.5670
   -33.5390 -33.5301 -33.5127 -33.4944 -33.4709 -33.4661 -33.4629 -33.4109
   -33.3697 -33.3249 -33.3226 -33.3077 -33.2809 -33.2710 -33.2560 -33.2556
   -33.2543 -33.2463 -33.2432 -33.2248 -33.2165 -33.2098 -33.1655 -33.1335
   -33.1180 -33.0730 -33.0713 -33.0499 -33.0272 -33.0140 -33.0054 -32.9799
   -18.2511 -17.8134 -17.7911 -17.6338 -17.6001 -17.4101 -17.3911 -17.3729
   -17.3078 -17.2651 -17.2306 -17.0444 -16.9886 -16.9208 -16.9170 -16.8999
   -16.8417 -16.8164 -16.7279 -16.7044 -16.6990 -16.6730 -16.6235 -16.5604
   -16.5139 -16.5083 -16.4532 -16.4409 -16.4139 -16.2293 -16.2075 -15.6436
   -15.6194 -11.2344  -5.7243  -5.1809  -5.0452  -4.9885  -4.9533  -4.9220
    -4.8479  -4.8320  -4.8146  -4.7714  -4.7327  -4.5532  -4.5078  -4.4649
    -4.3932  -4.3922  -4.3505  -4.3195  -4.3051  -4.2869  -4.2494  -4.2127
    -4.2082  -4.1913  -4.1297  -4.0594  -4.0150  -3.9825  -3.9646  -3.9087
    -3.8828  -3.8189  -3.7835  -3.7048  -3.6359  -3.5470  -3.4124  -3.4051
    -3.3647  -3.2868  -3.2468  -3.1353  -3.0893  -3.0703  -3.0390  -3.0103
    -2.9672  -2.9570  -2.8266  -2.7963  -2.7398  -2.6958  -2.6505  -2.5580
    -2.4826  -2.4745  -2.4397  -2.3547  -2.3015  -2.2959  -2.2209  -2.1877
    -2.1523  -2.1385  -2.1186  -2.0864  -2.0534  -2.0094  -1.9947  -1.9688
    -1.9328  -1.8910  -1.8806  -1.8602  -1.8123  -1.7516  -1.6564  -1.6068
    -1.5942  -1.5772  -1.5117  -1.4729  -1.4500  -1.4447  -1.4308  -1.3760
    -1.2914  -1.2707  -1.2140  -1.1939  -1.0890  -1.0029  -0.9775  -0.9435
    -0.8589  -0.8356  -0.7367  -0.7154  -0.6202  -0.5816  -0.5640  -0.3318
     1.2870   1.4287   1.5014   1.7226   1.7993   1.8923   1.9630   2.0608
     2.1414   2.2771   2.2822   2.3340   2.4181   2.4870   2.5063   2.5326
     2.5737   2.6127   2.6632   2.7103   2.7538   2.7709   2.8021   2.8507
     2.8661   2.8849   2.8945   2.9646   3.0109   3.0290   3.0380   3.0647
     3.1259   3.1590   3.1823   3.2605   3.3091   3.3405   3.3873   3.4347
     3.4728   3.4884   3.5643   3.6122   3.6755   3.6878   3.7276   3.8032
     3.9256   4.1606   4.3240   4.6533   4.7436   4.8441   4.9359   5.0735
     5.0795   5.1767   5.2833   5.3347   5.4029   5.4382   5.4714   5.5007
     5.5011   5.5632   5.5828   5.6491   5.6541   5.7549   5.7731   5.8137
     5.8485   5.8687   5.8894   5.9317   6.1184   6.1593   6.2975   6.3701
     6.4254   6.4435   6.7208   6.7491   6.9963   7.2087   7.6101   7.7453
     8.1995   8.3769   8.7033   8.8226   8.8421   8.8904   9.1808   9.3504
     9.4303   9.6018   9.7095

          k = 0.0000-0.0840 0.0000 ( 34678 PWs)   bands (ev):

   -58.2886 -58.2873 -57.3806 -57.3684 -57.3641 -57.3154 -57.2580 -57.0899
   -57.0648 -57.0487 -57.0303 -56.9043 -56.9036 -56.8981 -56.7837 -56.7772
   -34.5604 -34.5594 -34.5585 -34.5579 -34.4655 -34.4643 -33.7033 -33.6900
   -33.6864 -33.6477 -33.6464 -33.6406 -33.6089 -33.5928 -33.5887 -33.5780
   -33.5375 -33.5319 -33.5122 -33.5036 -33.4680 -33.4616 -33.3997 -33.3849
   -33.3796 -33.3637 -33.3264 -33.3217 -33.3046 -33.2731 -33.2601 -33.2512
   -33.2498 -33.2493 -33.2246 -33.2231 -33.1747 -33.1495 -33.1487 -33.1412
   -33.1255 -33.1231 -33.0959 -33.0953 -33.0275 -33.0191 -33.0163 -33.0104
   -18.0261 -18.0253 -17.5936 -17.5844 -17.5107 -17.4868 -17.4866 -17.3962
   -17.2593 -17.2188 -17.1314 -17.1059 -17.0735 -17.0385 -16.8945 -16.8460
   -16.8090 -16.8086 -16.8072 -16.6758 -16.6138 -16.6105 -16.6042 -16.5800
   -16.5494 -16.5266 -16.5085 -16.4757 -16.4668 -16.2716 -16.2488 -15.6529
   -15.6529 -11.2353  -5.3848  -5.3845  -4.9189  -4.8886  -4.8876  -4.8749
    -4.8526  -4.7711  -4.7594  -4.7205  -4.6597  -4.6052  -4.5684  -4.5613
    -4.4930  -4.4702  -4.4470  -4.3927  -4.3770  -4.2668  -4.2547  -4.2468
    -4.1595  -4.1173  -4.0676  -4.0364  -3.9935  -3.9094  -3.8902  -3.8835
    -3.7890  -3.7592  -3.6826  -3.6746  -3.6681  -3.6495  -3.6243  -3.4135
    -3.3625  -3.3492  -3.1528  -3.0781  -3.0724  -3.0352  -2.9282  -2.9276
    -2.9182  -2.8506  -2.8275  -2.7924  -2.7748  -2.6953  -2.6700  -2.6462
    -2.5238  -2.5029  -2.4210  -2.4047  -2.3965  -2.3744  -2.3117  -2.2442
    -2.2284  -2.1663  -2.1199  -2.0576  -2.0065  -1.9805  -1.9764  -1.9709
    -1.9665  -1.9426  -1.8394  -1.7992  -1.7789  -1.7289  -1.6928  -1.6578
    -1.6419  -1.6107  -1.5917  -1.5170  -1.5082  -1.4660  -1.4463  -1.4223
    -1.3819  -1.3313  -1.2792  -1.1783  -1.1382  -1.1167  -1.0913  -1.0635
    -0.8389  -0.8151  -0.6180  -0.6090  -0.6037  -0.5959  -0.5466  -0.4983
     1.4832   1.4859   1.6355   1.6362   1.7151   1.7160   2.0862   2.0870
     2.1502   2.2052   2.3760   2.4105   2.4471   2.4932   2.5410   2.5488
     2.6555   2.6672   2.6765   2.6904   2.7426   2.7528   2.8108   2.8134
     2.9132   2.9484   2.9919   3.0197   3.0246   3.0277   3.0341   3.0375
     3.0449   3.2259   3.2353   3.2659   3.2985   3.3404   3.3666   3.3967
     3.4338   3.4487   3.5041   3.6259   3.6975   3.7365   3.7510   3.7933
     3.8467   4.0379   4.3763   4.7577   4.8333   4.8668   4.8675   5.0531
     5.1451   5.2248   5.3155   5.3313   5.3659   5.4090   5.4694   5.5437
     5.5657   5.5975   5.6004   5.6880   5.7007   5.7199   5.7302   5.7437
     5.7696   5.8104   5.8431   5.9441   6.0260   6.1587   6.2845   6.3846
     6.4613   6.4775   6.5877   6.6077   6.9326   6.9823   7.4491   7.6137
     8.0304   8.2380   8.7147   8.9548   9.1344   9.2238   9.3474   9.3489
     9.4485   9.6152   9.7017

          k = 0.0253 0.0000 0.0000 ( 34707 PWs)   bands (ev):

   -58.3054 -58.2704 -57.3869 -57.3819 -57.3485 -57.3109 -57.2595 -57.0907
   -57.0637 -57.0585 -57.0199 -56.9216 -56.8972 -56.8863 -56.7996 -56.7612
   -34.7510 -34.5740 -34.5452 -34.5112 -34.4171 -34.3602 -33.8824 -33.8719
   -33.7520 -33.6710 -33.6367 -33.5941 -33.5649 -33.5551 -33.5510 -33.5425
   -33.5309 -33.5192 -33.4901 -33.4892 -33.4741 -33.4707 -33.4686 -33.4516
   -33.3409 -33.3356 -33.3291 -33.3277 -33.3127 -33.2877 -33.2820 -33.2635
   -33.2471 -33.2362 -33.2359 -33.2265 -33.1986 -33.1762 -33.1402 -33.1402
   -33.1018 -33.0777 -33.0503 -33.0320 -33.0133 -32.9885 -32.9487 -32.8809
   -18.4260 -17.9999 -17.7916 -17.7858 -17.5623 -17.4584 -17.4502 -17.3846
   -17.3631 -17.3224 -17.1077 -17.0394 -17.0145 -16.9811 -16.9289 -16.8931
   -16.8584 -16.7963 -16.7656 -16.7436 -16.6396 -16.5972 -16.5883 -16.5805
   -16.4653 -16.4445 -16.4006 -16.3852 -16.3245 -16.1443 -16.0850 -15.6000
   -15.5401 -11.2316  -5.9243  -5.3915  -5.2156  -5.2006  -5.0751  -5.0255
    -4.9718  -4.9287  -4.8819  -4.7361  -4.6991  -4.5847  -4.5809  -4.5135
    -4.4856  -4.4102  -4.3288  -4.2645  -4.2593  -4.1995  -4.1947  -4.1060
    -4.0307  -3.9980  -3.9908  -3.9167  -3.9007  -3.8590  -3.8494  -3.8149
    -3.7589  -3.7188  -3.6749  -3.6030  -3.5684  -3.5548  -3.5242  -3.5042
    -3.4467  -3.4143  -3.3197  -3.3171  -3.2748  -3.2588  -3.2385  -3.1525
    -3.0136  -2.9035  -2.8391  -2.8188  -2.7730  -2.7441  -2.7005  -2.6713
    -2.6126  -2.5592  -2.5414  -2.5008  -2.4364  -2.3824  -2.3333  -2.2670
    -2.2487  -2.1996  -2.0917  -2.0465  -2.0054  -1.9563  -1.8841  -1.8514
    -1.8280  -1.7992  -1.7137  -1.6256  -1.5797  -1.5717  -1.5460  -1.5096
    -1.4782  -1.4336  -1.4295  -1.3939  -1.3350  -1.3026  -1.2913  -1.2219
    -1.1869  -1.1561  -1.1066  -1.0824  -1.0423  -1.0232  -0.9568  -0.9121
    -0.8351  -0.8274  -0.6714  -0.6445  -0.6072  -0.5897  -0.5582  -0.2469
     1.1080   1.1226   1.4162   1.7831   1.8192   1.9044   1.9307   2.0499
     2.0859   2.1177   2.2042   2.2449   2.3383   2.3836   2.4420   2.5059
     2.5282   2.5967   2.6290   2.6483   2.6785   2.7042   2.8126   2.8266
     2.8472   2.8503   2.8916   2.9007   2.9456   3.0269   3.0759   3.1341
     3.1912   3.2030   3.2161   3.2182   3.2425   3.3100   3.4072   3.4442
     3.4892   3.5446   3.5934   3.6352   3.6998   3.7643   3.7859   3.9097
     4.0531   4.1907   4.2650   4.4259   4.5814   4.6247   4.8100   4.8286
     4.9601   4.9844   5.0876   5.1718   5.3043   5.3170   5.4284   5.5296
     5.5589   5.7098   5.7423   5.9057   5.9138   5.9387   5.9632   5.9862
     6.0241   6.0334   6.0704   6.1699   6.2287   6.2610   6.4411   6.4963
     6.5433   6.6164   6.7405   6.8122   7.2576   7.6724   7.7593   8.0207
     8.2268   8.3009   8.3777   8.6911   8.7590   8.9700   9.1035   9.2151
     9.4064   9.4988   9.7801

          k = 0.0253 0.0280 0.0000 ( 34687 PWs)   bands (ev):

   -58.3031 -58.2727 -57.3852 -57.3802 -57.3508 -57.3119 -57.2591 -57.0905
   -57.0639 -57.0568 -57.0219 -56.9192 -56.8974 -56.8887 -56.7972 -56.7637
   -34.7255 -34.5720 -34.5471 -34.5050 -34.4235 -34.3872 -33.8570 -33.8465
   -33.7312 -33.6649 -33.6306 -33.5916 -33.5657 -33.5515 -33.5482 -33.5383
   -33.5305 -33.5186 -33.5169 -33.4969 -33.4897 -33.4669 -33.4651 -33.4457
   -33.3353 -33.3250 -33.3159 -33.3148 -33.3052 -33.3040 -33.2794 -33.2616
   -33.2508 -33.2380 -33.2366 -33.2276 -33.2019 -33.2004 -33.1461 -33.1342
   -33.1145 -33.0742 -33.0564 -33.0300 -33.0143 -32.9933 -32.9759 -32.9094
   -18.3686 -17.9416 -17.7741 -17.7381 -17.5216 -17.5193 -17.4118 -17.3665
   -17.3497 -17.3180 -17.1121 -17.0690 -16.9983 -16.9673 -16.9181 -16.8758
   -16.8287 -16.8040 -16.7944 -16.7320 -16.6689 -16.6651 -16.6131 -16.5482
   -16.4867 -16.4643 -16.4091 -16.4046 -16.3561 -16.1629 -16.1271 -15.6141
   -15.5657 -11.2325  -5.8393  -5.3080  -5.1425  -5.1268  -4.9919  -4.9563
    -4.9298  -4.9069  -4.8211  -4.6965  -4.6756  -4.6343  -4.5323  -4.4967
    -4.4381  -4.4003  -4.3118  -4.2929  -4.2429  -4.2067  -4.1817  -4.1543
    -4.1255  -4.0938  -4.0309  -3.9964  -3.9540  -3.9417  -3.8977  -3.8273
    -3.7991  -3.7724  -3.7229  -3.7011  -3.6419  -3.6121  -3.5287  -3.4030
    -3.3446  -3.3239  -3.3143  -3.2656  -3.2354  -3.1908  -3.1161  -3.0951
    -2.9284  -2.8935  -2.8389  -2.7782  -2.7489  -2.7103  -2.6787  -2.6389
    -2.6095  -2.5229  -2.4994  -2.4698  -2.4513  -2.3820  -2.3287  -2.3041
    -2.2273  -2.1880  -2.1282  -2.0640  -2.0145  -1.9529  -1.9362  -1.9082
    -1.8423  -1.8314  -1.7728  -1.7484  -1.6956  -1.6114  -1.5977  -1.5532
    -1.5428  -1.4872  -1.4419  -1.4101  -1.3722  -1.3563  -1.3467  -1.3115
    -1.2482  -1.2261  -1.1625  -1.1024  -1.0106  -0.9676  -0.9395  -0.9215
    -0.8864  -0.8499  -0.8180  -0.6564  -0.6121  -0.5972  -0.5334  -0.2737
     1.1541   1.2478   1.4319   1.8210   1.8605   1.9277   1.9639   2.0309
     2.0447   2.1635   2.3108   2.3438   2.3913   2.4287   2.4604   2.5091
     2.5218   2.5627   2.5925   2.6457   2.6950   2.7224   2.7873   2.8336
     2.8891   2.9102   2.9302   2.9700   2.9927   3.0249   3.0492   3.0998
     3.1764   3.1956   3.2183   3.2331   3.2711   3.2997   3.4305   3.4587
     3.4891   3.5611   3.5953   3.6386   3.6492   3.7175   3.7535   3.8648
     4.0094   4.2022   4.2791   4.4380   4.6229   4.7240   4.8348   4.8598
     5.0104   5.0215   5.1151   5.1892   5.2335   5.3354   5.4629   5.5506
     5.6169   5.6951   5.7075   5.8076   5.8513   5.8813   5.8965   5.9311
     5.9731   5.9921   6.0784   6.1019   6.1788   6.2653   6.3989   6.4483
     6.4633   6.5760   6.7450   6.8018   7.3655   7.4858   7.7500   7.8640
     8.0990   8.2995   8.4631   8.5608   8.7601   8.8856   9.2361   9.3109
     9.4095   9.4649   9.6578

          k = 0.0253 0.0560 0.0000 ( 34699 PWs)   bands (ev):

   -58.2967 -58.2791 -57.3820 -57.3749 -57.3572 -57.3142 -57.2584 -57.0901
   -57.0644 -57.0521 -57.0269 -56.9128 -56.8978 -56.8952 -56.7905 -56.7704
   -34.6556 -34.5668 -34.5523 -34.4880 -34.4604 -34.4409 -33.7872 -33.7773
   -33.6805 -33.6496 -33.6138 -33.5902 -33.5862 -33.5851 -33.5739 -33.5671
   -33.5408 -33.5300 -33.5174 -33.4944 -33.4811 -33.4638 -33.4544 -33.4118
   -33.3699 -33.3227 -33.3188 -33.3061 -33.2814 -33.2717 -33.2570 -33.2567
   -33.2542 -33.2462 -33.2429 -33.2285 -33.2169 -33.2094 -33.1651 -33.1321
   -33.1180 -33.0731 -33.0712 -33.0498 -33.0280 -33.0158 -33.0055 -32.9798
   -18.2109 -17.8010 -17.7812 -17.6161 -17.5992 -17.4562 -17.3930 -17.3721
   -17.2781 -17.2541 -17.2176 -17.0600 -16.9941 -16.9365 -16.9180 -16.8821
   -16.8483 -16.8067 -16.7450 -16.7345 -16.7186 -16.6953 -16.6261 -16.5499
   -16.5388 -16.5062 -16.4583 -16.4385 -16.4144 -16.2286 -16.2066 -15.6430
   -15.6196 -11.2343  -5.6041  -5.0807  -5.0230  -4.9588  -4.9348  -4.9081
    -4.8163  -4.7941  -4.7554  -4.6865  -4.6663  -4.5250  -4.5080  -4.4451
    -4.3922  -4.3771  -4.3660  -4.3206  -4.2798  -4.2502  -4.2424  -4.1966
    -4.1678  -4.1405  -4.1152  -4.0470  -4.0314  -3.9967  -3.9417  -3.8933
    -3.8613  -3.8410  -3.7667  -3.6989  -3.6242  -3.5416  -3.4656  -3.3876
    -3.3751  -3.2820  -3.1929  -3.1636  -3.1381  -3.1119  -3.0676  -3.0253
    -2.9887  -2.9387  -2.8522  -2.8224  -2.7645  -2.7346  -2.6596  -2.6036
    -2.5407  -2.5270  -2.4905  -2.4161  -2.3963  -2.3691  -2.3004  -2.2882
    -2.2059  -2.1442  -2.1240  -2.1165  -2.0695  -2.0311  -1.9990  -1.9650
    -1.9466  -1.9254  -1.8968  -1.8818  -1.8247  -1.7763  -1.7050  -1.6682
    -1.6181  -1.5650  -1.5450  -1.5286  -1.4872  -1.4475  -1.4153  -1.3724
    -1.3004  -1.2510  -1.2227  -1.1484  -1.1198  -1.0005  -0.9545  -0.9403
    -0.8678  -0.8197  -0.7517  -0.7056  -0.6428  -0.6139  -0.5575  -0.3680
     1.2885   1.4704   1.5657   1.7596   1.7750   1.9134   1.9801   2.0617
     2.2663   2.2748   2.3340   2.3598   2.4184   2.4844   2.5327   2.5510
     2.5734   2.6030   2.6577   2.7172   2.7260   2.7611   2.8108   2.8426
     2.8867   2.9140   2.9751   2.9921   3.0371   3.0555   3.0778   3.1200
     3.1562   3.1967   3.2116   3.2875   3.3006   3.3374   3.3628   3.4544
     3.4820   3.5139   3.5526   3.6236   3.6292   3.7223   3.7380   3.7955
     3.8908   4.0940   4.3816   4.5026   4.7149   4.8614   4.9113   4.9434
     4.9966   5.1050   5.1686   5.2065   5.3051   5.3782   5.4349   5.5290
     5.5667   5.6111   5.6468   5.7125   5.7390   5.8042   5.8192   5.8556
     5.8973   5.9379   5.9705   6.0886   6.1279   6.2003   6.3275   6.4268
     6.4457   6.4758   6.7134   6.7703   7.0571   7.3068   7.6568   7.8162
     8.0712   8.2070   8.3736   8.5571   8.7795   8.8872   8.9999   9.0897
     9.3765   9.5787   9.6317

          k = 0.0253-0.0840 0.0000 ( 34722 PWs)   bands (ev):

   -58.2886 -58.2873 -57.3805 -57.3684 -57.3641 -57.3154 -57.2580 -57.0899
   -57.0647 -57.0487 -57.0303 -56.9043 -56.9037 -56.8981 -56.7837 -56.7772
   -34.5604 -34.5596 -34.5586 -34.5582 -34.4651 -34.4639 -33.7056 -33.6908
   -33.6871 -33.6539 -33.6470 -33.6299 -33.6005 -33.5927 -33.5886 -33.5782
   -33.5409 -33.5319 -33.5176 -33.5037 -33.4685 -33.4617 -33.3997 -33.3857
   -33.3822 -33.3622 -33.3265 -33.3131 -33.3031 -33.2731 -33.2623 -33.2512
   -33.2500 -33.2495 -33.2297 -33.2237 -33.1750 -33.1495 -33.1487 -33.1396
[...]
    -1.7287  -1.5064  -1.4637  -1.4527  -1.4348  -1.3974  -1.3181  -1.1545
    -1.1436  -1.0872  -1.0694  -1.0542  -0.9704  -0.9102  -0.8714  -0.7867
    -0.7331  -0.7262  -0.6972  -0.6698  -0.5952  -0.5731  -0.5594   0.2981
     1.6022   1.6056   1.6182   1.6236   1.9660   1.9669   2.0958   2.0968
     2.2795   2.3004   2.3136   2.3953   2.4184   2.4883   2.5752   2.6343
     2.6563   2.7009   2.7843   2.8178   2.8742   2.9262   2.9484   2.9764
     2.9909   2.9996   3.0407   3.0985   3.1128   3.2099   3.2357   3.2446
     3.2603   3.2845   3.3416   3.3876   3.4015   3.4065   3.4634   3.4742
     3.4845   3.5123   3.5268   3.5800   3.6373   3.6557   3.7773   3.8790
     3.9139   3.9251   4.1409   4.1413   4.5909   4.6206   4.6430   4.7285
     4.8837   4.8996   4.9321   5.0824   5.1617   5.1667   5.1855   5.4467
     5.6746   5.6836   5.6943   5.9269   5.9323   5.9662   6.0173   6.0201
     6.0952   6.1065   6.1762   6.2671   6.2713   6.2794   6.3837   6.4611
     6.5009   6.6076   7.0675   7.2309   7.3356   7.3983   7.5537   7.5905
     7.7178   7.7703   7.9196   8.1107   8.2978   8.3417   8.4512   8.8681
     9.0185   9.0705   9.2150

          k =-0.0253 0.0280 0.0000 ( 34687 PWs)   bands (ev):

   -58.3033 -58.2729 -57.3852 -57.3802 -57.3508 -57.3120 -57.2600 -57.0946
   -57.0651 -57.0580 -57.0231 -56.9217 -56.9201 -56.8895 -56.8007 -56.7673
   -34.7257 -34.5723 -34.5474 -34.5052 -34.4236 -34.3874 -33.8570 -33.8465
   -33.7320 -33.6649 -33.6305 -33.5917 -33.5657 -33.5515 -33.5482 -33.5390
   -33.5313 -33.5187 -33.5169 -33.4970 -33.4907 -33.4675 -33.4667 -33.4480
   -33.3361 -33.3266 -33.3192 -33.3167 -33.3097 -33.3054 -33.2809 -33.2624
   -33.2514 -33.2387 -33.2380 -33.2293 -33.2135 -33.2025 -33.1663 -33.1350
   -33.1329 -33.0775 -33.0572 -33.0375 -33.0184 -32.9966 -32.9768 -32.9121
   -18.3684 -17.9392 -17.7738 -17.7318 -17.5209 -17.5144 -17.3734 -17.3663
   -17.3431 -17.3133 -17.1096 -17.0668 -16.9820 -16.9370 -16.8708 -16.8279
   -16.7899 -16.7487 -16.7307 -16.6672 -16.6606 -16.5812 -16.5414 -16.4831
   -16.4590 -16.4029 -16.3641 -16.3462 -16.1526 -16.1175 -15.8818 -15.6102
   -15.5615 -10.8334  -5.8392  -5.3078  -5.1416  -5.1236  -4.9917  -4.9506
    -4.9118  -4.8231  -4.6965  -4.6757  -4.6344  -4.5343  -4.4963  -4.4398
    -4.4063  -4.3116  -4.2882  -4.2484  -4.1978  -4.1807  -4.1399  -4.1252
    -4.0921  -4.0461  -4.0093  -3.9900  -3.9533  -3.9117  -3.8827  -3.7986
    -3.7827  -3.7221  -3.7130  -3.6409  -3.6147  -3.5657  -3.5084  -3.3924
    -3.3429  -3.3187  -3.2942  -3.2615  -3.2226  -3.1809  -3.1111  -3.0944
    -2.9180  -2.8810  -2.8208  -2.7760  -2.7201  -2.6850  -2.6727  -2.6156
    -2.5864  -2.5073  -2.4978  -2.4407  -2.4093  -2.3567  -2.2863  -2.2639
    -2.2122  -2.1904  -2.1028  -2.0409  -1.9577  -1.9390  -1.9147  -1.8487
    -1.8377  -1.7896  -1.7441  -1.6833  -1.6341  -1.5935  -1.5607  -1.5095
    -1.4751  -1.4340  -1.4052  -1.3792  -1.3596  -1.3445  -1.3128  -1.2893
    -1.2036  -1.1227  -1.0626  -1.0091  -0.9855  -0.9521  -0.9278  -0.8832
    -0.8415  -0.8187  -0.6300  -0.6083  -0.5840  -0.5207  -0.2637   0.3219
     1.1540   1.2477   1.4317   1.8209   1.8605   1.9275   1.9640   2.0315
     2.0425   2.1918   2.3025   2.3483   2.3898   2.4326   2.4562   2.5062
     2.5263   2.5507   2.5915   2.6518   2.7000   2.7241   2.7802   2.8340
     2.8791   2.9158   2.9324   2.9755   2.9930   3.0168   3.0431   3.0957
     3.1729   3.1934   3.2358   3.2611   3.2966   3.3389   3.4318   3.4669
     3.4971   3.5611   3.6142   3.6450   3.6658   3.7463   3.8227   3.8678
     4.0150   4.2107   4.2865   4.4379   4.6265   4.7254   4.8460   4.8632
     5.0036   5.0275   5.1148   5.2002   5.2434   5.3586   5.4626   5.5508
     5.6621   5.6968   5.7167   5.8052   5.8517   5.8852   5.9113   5.9336
     5.9688   5.9918   6.0667   6.1258   6.1772   6.2839   6.4002   6.4509
     6.4642   6.5835   6.7532   6.8104   7.3748   7.4859   7.7943   7.8910
     8.0914   8.2313   8.4892   8.5334   8.7857   8.8923   9.0833   9.3084
     9.3778   9.5391   9.6127

          k =-0.0253 0.0560 0.0000 ( 34699 PWs)   bands (ev):

   -58.2969 -58.2794 -57.3820 -57.3749 -57.3572 -57.3143 -57.2592 -57.0941
   -57.0657 -57.0533 -57.0280 -56.9222 -56.9136 -56.8960 -56.7940 -56.7741
   -34.6558 -34.5670 -34.5526 -34.4882 -34.4606 -34.4410 -33.7872 -33.7773
   -33.6813 -33.6496 -33.6138 -33.5902 -33.5862 -33.5853 -33.5739 -33.5670
   -33.5407 -33.5309 -33.5174 -33.4956 -33.4824 -33.4652 -33.4544 -33.4140
   -33.3710 -33.3240 -33.3204 -33.3119 -33.2828 -33.2733 -33.2574 -33.2568
   -33.2558 -33.2471 -33.2437 -33.2300 -33.2194 -33.2151 -33.1817 -33.1622
   -33.1187 -33.0746 -33.0739 -33.0507 -33.0345 -33.0208 -33.0087 -32.9827
   -18.2106 -17.8007 -17.7790 -17.6103 -17.5989 -17.4548 -17.3922 -17.3685
   -17.2475 -17.2402 -17.2027 -17.0567 -16.9470 -16.9181 -16.8800 -16.8393
   -16.7964 -16.7425 -16.7317 -16.7164 -16.6820 -16.5971 -16.5466 -16.5299
   -16.4987 -16.4403 -16.4098 -16.4055 -16.2138 -16.1989 -15.8806 -15.6389
   -15.6153 -10.8354  -5.6040  -5.0804  -5.0229  -4.9547  -4.9225  -4.8160
    -4.7940  -4.7566  -4.6865  -4.6723  -4.5247  -4.5080  -4.4448  -4.3943
    -4.3764  -4.3680  -4.3195  -4.2757  -4.2488  -4.2388  -4.2040  -4.1723
    -4.1306  -4.1202  -4.0551  -4.0205  -3.9930  -3.9557  -3.9278  -3.8885
    -3.8295  -3.8019  -3.7265  -3.6226  -3.5650  -3.5354  -3.4619  -3.3834
    -3.3652  -3.2912  -3.1866  -3.1597  -3.1207  -3.1106  -3.0584  -3.0229
    -2.9820  -2.9256  -2.8426  -2.7923  -2.7609  -2.7033  -2.6087  -2.5898
    -2.5234  -2.5090  -2.4564  -2.3902  -2.3746  -2.3167  -2.2989  -2.2579
    -2.1868  -2.1341  -2.1198  -2.0880  -2.0474  -2.0053  -1.9838  -1.9472
    -1.9297  -1.9045  -1.8917  -1.8452  -1.7665  -1.7010  -1.6886  -1.5928
    -1.5711  -1.5431  -1.5173  -1.4835  -1.4421  -1.4116  -1.3826  -1.3238
    -1.2882  -1.2210  -1.1536  -1.0324  -1.0032  -0.9688  -0.9360  -0.8560
    -0.7621  -0.7344  -0.7036  -0.6387  -0.6079  -0.5543  -0.3610   0.3029
     1.2883   1.4703   1.5656   1.7596   1.7750   1.9133   1.9801   2.0597
     2.2668   2.2774   2.3441   2.3803   2.4168   2.4890   2.5242   2.5495
     2.5744   2.5978   2.6552   2.7078   2.7227   2.7664   2.8087   2.8584
     2.8842   2.9191   2.9634   3.0089   3.0345   3.0479   3.0578   3.1113
     3.1608   3.2005   3.2198   3.2904   3.3193   3.3478   3.3797   3.4593
     3.5113   3.5363   3.6142   3.6357   3.6697   3.7293   3.7481   3.8018
     3.8977   4.1013   4.3933   4.5024   4.7175   4.8607   4.9116   4.9629
     4.9973   5.0915   5.1887   5.2094   5.3376   5.3895   5.4356   5.5301
     5.5663   5.6011   5.6535   5.7112   5.7405   5.8056   5.8219   5.8622
     5.9291   5.9452   5.9974   6.0918   6.1345   6.2135   6.3300   6.4333
     6.4592   6.4770   6.7204   6.7705   7.0732   7.2929   7.6698   7.8301
     8.0980   8.2343   8.3206   8.4907   8.7760   8.8972   9.0077   9.1957
     9.3747   9.5532   9.6509

          k =-0.0506 0.0280 0.0000 ( 34685 PWs)   bands (ev):

   -58.3033 -58.2729 -57.3844 -57.3811 -57.3508 -57.3120 -57.2599 -57.0946
   -57.0648 -57.0583 -57.0231 -56.9217 -56.9201 -56.8895 -56.8008 -56.7673
   -34.7265 -34.5722 -34.5474 -34.5036 -34.4236 -34.3875 -33.8574 -33.8506
   -33.7323 -33.6453 -33.6303 -33.5919 -33.5708 -33.5534 -33.5521 -33.5444
   -33.5315 -33.5261 -33.5158 -33.4968 -33.4908 -33.4679 -33.4552 -33.4491
   -33.3363 -33.3197 -33.3183 -33.3166 -33.3059 -33.3050 -33.2811 -33.2644
   -33.2614 -33.2381 -33.2377 -33.2322 -33.2137 -33.2020 -33.1623 -33.1350
   -33.1332 -33.0776 -33.0572 -33.0444 -33.0168 -32.9966 -32.9768 -32.9122
   -18.2600 -17.8619 -17.8496 -17.6990 -17.5856 -17.4535 -17.4359 -17.3423
   -17.3150 -17.2489 -17.1782 -17.0842 -16.9946 -16.9495 -16.9207 -16.8930
   -16.8088 -16.7654 -16.7542 -16.6942 -16.6310 -16.5474 -16.5212 -16.4871
   -16.4591 -16.4039 -16.3881 -16.3509 -16.1490 -16.1179 -15.8826 -15.6083
   -15.5616 -10.8332  -5.5379  -5.1852  -5.1520  -5.1189  -4.9472  -4.8676
    -4.7657  -4.7076  -4.6806  -4.6503  -4.5994  -4.5853  -4.5312  -4.4054
    -4.3614  -4.3213  -4.2396  -4.2136  -4.1780  -4.1629  -4.1463  -4.0544
    -4.0315  -4.0103  -3.9726  -3.9272  -3.8871  -3.8372  -3.8161  -3.7923
    -3.7218  -3.6727  -3.6641  -3.6031  -3.5694  -3.5348  -3.4867  -3.4554
    -3.3808  -3.3674  -3.3055  -3.2634  -3.2024  -3.1494  -3.1169  -3.0563
    -3.0078  -2.9787  -2.8998  -2.8348  -2.7566  -2.6968  -2.6875  -2.6655
    -2.6150  -2.5921  -2.5797  -2.5238  -2.5151  -2.3925  -2.3395  -2.3308
    -2.2686  -2.1995  -2.1838  -2.1573  -2.0790  -2.0087  -2.0025  -1.9412
    -1.9223  -1.8924  -1.8092  -1.7204  -1.7072  -1.6830  -1.6134  -1.5843
    -1.5226  -1.4748  -1.4522  -1.3917  -1.3771  -1.3251  -1.3095  -1.2590
    -1.2427  -1.1194  -1.0561  -1.0333  -1.0091  -0.9550  -0.9232  -0.8749
    -0.8265  -0.7949  -0.7191  -0.6799  -0.6586  -0.5345  -0.3897   0.3067
     1.1410   1.3409   1.4660   1.5668   1.9348   1.9449   1.9673   2.0591
     2.1254   2.2001   2.2550   2.3309   2.4071   2.4410   2.5295   2.5471
     2.5936   2.6518   2.6886   2.7022   2.7561   2.8296   2.8524   2.8829
     2.9415   2.9474   2.9808   2.9857   2.9922   3.1030   3.1104   3.1389
     3.1867   3.2157   3.2915   3.3115   3.3567   3.3834   3.4075   3.4560
     3.4704   3.5490   3.6033   3.6684   3.7435   3.7803   3.8003   3.9018
     3.9591   4.0627   4.1102   4.4075   4.5113   4.6572   4.7489   4.8105
     4.8426   4.9149   4.9672   5.2900   5.3303   5.4130   5.5280   5.5607
     5.6417   5.7678   5.7877   5.8546   5.8996   5.9140   5.9671   6.0565
     6.0947   6.1666   6.2512   6.3354   6.3877   6.4013   6.4442   6.4913
     6.5425   6.5529   6.7133   6.9176   7.0733   7.2194   7.5515   7.6097
     7.7235   8.2211   8.4101   8.4851   8.8666   8.9421   9.0648   9.2215
     9.4299   9.6085   9.6785

          k =-0.0506 0.0560 0.0000 ( 34596 PWs)   bands (ev):

   -58.2969 -58.2794 -57.3816 -57.3752 -57.3572 -57.3143 -57.2592 -57.0941
   -57.0655 -57.0535 -57.0281 -56.9222 -56.9136 -56.8960 -56.7941 -56.7741
   -34.6564 -34.5670 -34.5525 -34.4868 -34.4608 -34.4406 -33.7875 -33.7819
   -33.6815 -33.6338 -33.6136 -33.5894 -33.5878 -33.5851 -33.5682 -33.5670
   -33.5440 -33.5311 -33.5295 -33.4959 -33.4917 -33.4653 -33.4428 -33.4156
   -33.3713 -33.3238 -33.3094 -33.3067 -33.2854 -33.2755 -33.2586 -33.2566
   -33.2555 -33.2469 -33.2432 -33.2400 -33.2202 -33.2153 -33.1810 -33.1579
   -33.1187 -33.0746 -33.0738 -33.0506 -33.0387 -33.0214 -33.0086 -32.9825
   -18.1075 -17.8185 -17.7011 -17.6131 -17.5969 -17.5571 -17.3800 -17.3685
   -17.2184 -17.2059 -17.1171 -17.0947 -16.9772 -16.9116 -16.8671 -16.8420
   -16.8232 -16.8074 -16.7611 -16.7354 -16.7205 -16.6275 -16.5962 -16.5059
   -16.4957 -16.4378 -16.4206 -16.4102 -16.2133 -16.1952 -15.8806 -15.6377
   -15.6157 -10.8352  -5.3014  -4.9914  -4.9408  -4.9328  -4.7828  -4.7751
    -4.7161  -4.6392  -4.5261  -4.5061  -4.5003  -4.4175  -4.4032  -4.3804
    -4.3607  -4.3271  -4.3089  -4.2476  -4.1999  -4.1756  -4.1662  -4.1126
    -4.1023  -4.0587  -4.0451  -3.9930  -3.9789  -3.9041  -3.8855  -3.8329
    -3.7838  -3.7371  -3.6896  -3.6115  -3.6024  -3.5532  -3.5057  -3.4348
    -3.3983  -3.3203  -3.2611  -3.2306  -3.1335  -3.1314  -3.0799  -3.0532
    -2.9948  -2.9772  -2.9576  -2.9044  -2.8007  -2.7638  -2.7489  -2.7055
    -2.6294  -2.5872  -2.5457  -2.5031  -2.4777  -2.4138  -2.3891  -2.3694
    -2.3506  -2.2893  -2.1948  -2.1720  -2.1469  -2.1282  -2.1022  -2.0474
    -2.0125  -1.9705  -1.9441  -1.8703  -1.8475  -1.7813  -1.7305  -1.6562
    -1.5653  -1.5484  -1.5381  -1.4956  -1.4423  -1.3846  -1.3524  -1.3054
    -1.2437  -1.1750  -1.0765  -1.0211  -0.9879  -0.9025  -0.8517  -0.8444
    -0.7926  -0.7059  -0.6918  -0.6705  -0.6552  -0.5525  -0.4749   0.3053
     1.3089   1.4986   1.6473   1.6691   1.8537   2.0048   2.0334   2.0687
     2.2445   2.2573   2.3616   2.3777   2.4340   2.4627   2.5494   2.5864
     2.6517   2.6969   2.7308   2.7454   2.8126   2.8436   2.8721   2.9045
     2.9350   2.9520   3.0078   3.0430   3.0736   3.1146   3.1462   3.1917
     3.1967   3.2521   3.2859   3.3259   3.3351   3.3781   3.4176   3.4681
     3.4827   3.5503   3.5792   3.6421   3.6689   3.7465   3.8059   3.8419
     3.8843   3.9611   4.1536   4.5041   4.5977   4.6171   4.7557   4.8232
     4.8897   4.9662   5.0115   5.1878   5.3030   5.3773   5.4128   5.4447
     5.5962   5.6174   5.6692   5.7179   5.8804   5.8979   5.9884   6.0074
     6.0698   6.1097   6.1717   6.2086   6.3139   6.3378   6.4132   6.4247
     6.5420   6.6159   6.7633   6.8089   7.1839   7.3572   7.5046   7.6191
     7.9356   8.0138   8.1026   8.3808   8.6051   8.7216   8.8062   9.0402
     9.1958   9.3324   9.4364

     the Fermi energy is    -0.2902 ev

!    total energy              =   -3021.14959101 Ry
     Harris-Foulkes estimate   =   -3021.14959106 Ry
     estimated scf accuracy    <       0.00000071 Ry

     The total energy is the sum of the following terms:

     one-electron contribution =  -40438.56100568 Ry
     hartree contribution      =   20290.64525344 Ry
     xc contribution           =    -553.22056231 Ry
     ewald contribution        =   17680.00652739 Ry
     smearing contrib. (-TS)   =      -0.01980385 Ry

     total magnetization       =     1.06 Bohr mag/cell
     absolute magnetization    =     1.23 Bohr mag/cell

     convergence has been achieved in   9 iterations

     Forces acting on atoms (Ry/au):


     negative rho (up, down):  1.189E-02 1.196E-02
     atom    1 type  1   force =     0.00018422   -0.00089659   -0.10471287
     atom    2 type  2   force =     0.00014433    0.00068499    0.04003890
     atom    3 type  1   force =     0.00074854   -0.00174965   -0.02053841
     atom    4 type  2   force =    -0.00326721    0.00312619   -0.00323303
     atom    5 type  1   force =     0.00034327    0.00006811    0.00030726
     atom    6 type  2   force =    -0.00013073   -0.00009125    0.00022780
     atom    7 type  1   force =    -0.00029072   -0.00002363   -0.00029618
     atom    8 type  2   force =    -0.00011883   -0.00017923   -0.00018569
     atom    9 type  1   force =    -0.00003343    0.00056869   -0.10484691
     atom   10 type  2   force =     0.00034743   -0.00020908    0.03601119
     atom   11 type  1   force =     0.00067968    0.00183985    0.00262125
     atom   12 type  2   force =    -0.00519685   -0.00266738   -0.00519662
     atom   13 type  1   force =     0.00041424    0.00009188   -0.00026718
     atom   14 type  2   force =     0.00012970   -0.00007262   -0.00006225
     atom   15 type  1   force =    -0.00015475   -0.00002737   -0.00013945
     atom   16 type  2   force =    -0.00014801    0.00002564   -0.00033240
     atom   17 type  2   force =     0.00000828   -0.00001112    0.06653719
     atom   18 type  1   force =     0.00005748    0.00003247    0.13144749
     atom   19 type  2   force =     0.00017720   -0.00052667   -0.08521286
     atom   20 type  2   force =    -0.05792534    0.00014474   -0.03608398
     atom   21 type  2   force =     0.05781622   -0.00004603   -0.03604730
     atom   22 type  1   force =    -0.00043035    0.00075081    0.08017609
     atom   23 type  2   force =     0.00019842   -0.00004791    0.00003622
     atom   24 type  2   force =     0.00064037    0.00186096   -0.03468235
     atom   25 type  2   force =     0.00413811    0.00332939   -0.00509941
     atom   26 type  1   force =     0.00040711   -0.00004993    0.00008718
     atom   27 type  2   force =    -0.00010357   -0.00012625    0.00000984
     atom   28 type  2   force =     0.00005854   -0.00019707   -0.00003663
     atom   29 type  2   force =    -0.00000324   -0.00007606    0.00005724
     atom   30 type  1   force =    -0.00022832   -0.00025087    0.00023775
     atom   31 type  2   force =     0.00009909   -0.00007546   -0.00005979
     atom   32 type  2   force =    -0.00014829   -0.00004611    0.00013599
     atom   33 type  2   force =    -0.00016772    0.00005181    0.06627158
     atom   34 type  1   force =     0.00007739   -0.00003128    0.13122846
     atom   35 type  2   force =     0.00018827   -0.00012767   -0.08482137
     atom   36 type  2   force =    -0.05782134    0.00006794   -0.03569830
     atom   37 type  2   force =     0.05799116   -0.00017240   -0.03609489
     atom   38 type  1   force =    -0.00037727   -0.00020220    0.07984521
     atom   39 type  2   force =     0.00007734   -0.00026296   -0.00008657
     atom   40 type  2   force =     0.00048760    0.00124337   -0.03529118
     atom   41 type  2   force =     0.00588738   -0.00243066   -0.00722422
     atom   42 type  1   force =     0.00024497   -0.00006434    0.00003898
     atom   43 type  2   force =    -0.00020102   -0.00009289   -0.00002277
     atom   44 type  2   force =     0.00001110   -0.00015185   -0.00004916
     atom   45 type  2   force =    -0.00000187   -0.00016369    0.00004082
     atom   46 type  1   force =    -0.00018109    0.00002061    0.00024447
     atom   47 type  2   force =    -0.00017649   -0.00018529    0.00006965
     atom   48 type  2   force =    -0.00014270    0.00004184    0.00039753
     atom   49 type  2   force =    -0.00043750   -0.00051601   -0.00022689
     atom   50 type  3   force =    -0.01540068   -0.01076656    0.01129037
     atom   51 type  4   force =     0.01402199    0.01071991   -0.01203860
     atom   52 type  4   force =     0.00069813    0.00126030   -0.00112404
     atom   53 type  4   force =    -0.00138007   -0.00140521    0.00094794
     atom   54 type  4   force =    -0.00181016   -0.00198620    0.00140490

     Total force =     0.343668     Total SCF correction =     0.001423
 !ASE

     Writing output data file calc.save
 
     init_run     :     65.08s CPU     76.37s WALL (       1 calls)
     electrons    :   2576.10s CPU   2976.17s WALL (       1 calls)
     forces       :     49.34s CPU     50.65s WALL (       1 calls)

     Called by init_run:
     wfcinit      :     57.36s CPU     67.79s WALL (       1 calls)
     potinit      :      1.32s CPU      1.61s WALL (       1 calls)

     Called by electrons:
     c_bands      :   2268.82s CPU   2612.75s WALL (      10 calls)
     sum_band     :    267.22s CPU    318.77s WALL (      10 calls)
     v_of_rho     :     10.21s CPU     12.31s WALL (      10 calls)
     newd         :     33.36s CPU     36.19s WALL (      10 calls)
     mix_rho      :      0.34s CPU      0.44s WALL (      10 calls)
     vdW_energy   :      2.31s CPU      2.67s WALL (      11 calls)
     vdW_ffts     :      2.77s CPU      3.42s WALL (      22 calls)
     vdW_v        :      1.05s CPU      1.20s WALL (      11 calls)

     Called by c_bands:
     init_us_2    :      6.32s CPU      6.83s WALL (     880 calls)
     cegterg      :   2229.17s CPU   2570.74s WALL (     400 calls)

     Called by *egterg:
     h_psi        :    873.05s CPU   1136.53s WALL (    1867 calls)
     s_psi        :    150.71s CPU    156.33s WALL (    1867 calls)
     g_psi        :      4.46s CPU      4.56s WALL (    1427 calls)
     cdiaghg      :    703.02s CPU    721.61s WALL (    1787 calls)

     Called by h_psi:
     add_vuspsi   :    152.37s CPU    158.40s WALL (    1867 calls)

     General routines
     calbec       :    223.59s CPU    229.58s WALL (    2307 calls)
     fft          :      5.39s CPU      6.79s WALL (     875 calls)
     ffts         :      0.04s CPU      0.06s WALL (      40 calls)
     fftw         :    481.55s CPU    776.43s WALL (  717940 calls)
     interpolate  :      0.30s CPU      0.49s WALL (      40 calls)
     davcio       :      0.00s CPU      0.42s WALL (      40 calls)
 
     Parallel routines
     fft_scatter  :    237.29s CPU    399.39s WALL (  718855 calls)
 
     PWSCF        : 44m54.40s CPU    51m48.02s WALL

 
   This run was terminated on:   7:22:33  26Feb2018            

=------------------------------------------------------------------------------=
   JOB DONE.
=------------------------------------------------------------------------------=
