  python dir          : /home/vossj/suncat/lib/python2.7/site-packages/espresso
  espresso dir        : /home/vossj/suncat/esdld/espresso-dynpy-beef/bin
  pseudo dir          : /home/alatimer/bin/psp/esp_psp_w_gbrvRu/
  ase-espresso py git : ffa2778-git



     Program PWSCF v.5.1rc2 (svn rev. ) starts on 27Feb2018 at  3:17:42 

     This program is part of the open-source Quantum ESPRESSO suite
     for quantum simulation of materials; please cite
         "P. Giannozzi et al., J. Phys.:Condens. Matter 21 395502 (2009);
          URL http://www.quantum-espresso.org", 
     in publications or presentations arising from this work. More details at
     http://www.quantum-espresso.org/quote

     Parallel version (MPI), running on    16 processors
     R & G space division:  proc/nbgrp/npool/nimage =      16
     Reading input from pw.inp
     Message from routine read_cards :
     DEPRECATED: no units specified in CELL_PARAMETERS card

     Current dimensions of program PWSCF are:
     Max number of different atomic species (ntypx) = 10
     Max number of k-points (npk) =  40000
     Max angular momentum in pseudopotentials (lmaxx) =  3

     **************************************************************************
     Initializing libbeef V0.1.1 with the BEEF-vdW functional.
     Citation: Wellendorff et al., PRB 85, 235149 (2012).
     **************************************************************************


     IMPORTANT: XC functional enforced from input :
     Exchange-correlation      = BEEF ( 1  4 27 13 2)
     Any further DFT definition will be discarded
     Please, verify this is what you really want


     Subspace diagonalization in iterative solution of the eigenvalue problem:
     a serial algorithm will be used

 
     Parallelization info
     --------------------
     sticks:   dense  smooth     PW     G-vecs:    dense   smooth      PW
     Min         281     112     31                68535    17318    2565
     Max         282     113     32                68545    17369    2582
     Sum        4501    1795    503              1096637   277353   41113
 
     Generating pointlists ...
     new r_m :   0.4125 (alat units)  0.7795 (a.u.) for type    1
     new r_m :   0.4125 (alat units)  0.7795 (a.u.) for type    2
     new r_m :   0.4125 (alat units)  0.7795 (a.u.) for type    3
     new r_m :   0.4125 (alat units)  0.7795 (a.u.) for type    4


     bravais-lattice index     =            0
     lattice parameter (alat)  =       1.8897  a.u.
     unit-cell volume          =    7990.9933 (a.u.)^3
     number of atoms/cell      =           54
     number of atomic types    =            4
     number of electrons       =       398.00
     number of Kohn-Sham states=          299
     kinetic-energy cutoff     =      40.4243  Ry
     charge density cutoff     =     404.2426  Ry
     convergence threshold     =      7.3E-07
     mixing beta               =       0.1000
     number of iterations used =           10  plain     mixing
     Exchange-correlation      = BEEF ( 1  4 27 13 2)
     nstep                     =           50


     celldm(1)=   1.889726  celldm(2)=   0.000000  celldm(3)=   0.000000
     celldm(4)=   0.000000  celldm(5)=   0.000000  celldm(6)=   0.000000

     crystal axes: (cart. coord. in units of alat)
               a(1) = (   6.590708   0.000000   0.000000 )  
               a(2) = (   0.000000   5.950229   0.000000 )  
               a(3) = (   0.000000   0.000000  30.195235 )  

     reciprocal axes: (cart. coord. in units 2 pi/alat)
               b(1) = (  0.151729  0.000000  0.000000 )  
               b(2) = (  0.000000  0.168061  0.000000 )  
               b(3) = (  0.000000  0.000000  0.033118 )  


     PseudoPot. # 1 for Ti read from file:
     /home/alatimer/bin/psp/esp_psp_w_gbrvRu/Ti.UPF
     MD5 check sum: 8e4df49b7f0d34bbd5052bf3f5ea0213
     Pseudo is Ultrasoft, Zval = 12.0
     Generated by new atomic code, or converted to UPF format
     Using radial grid of  851 points,  6 beta functions with: 
                l(1) =   0
                l(2) =   0
                l(3) =   1
                l(4) =   1
                l(5) =   2
                l(6) =   2
     Q(r) pseudized with  8 coefficients,  rinner =    1.000   1.000   1.000
                                                       1.000   1.000

     PseudoPot. # 2 for  O read from file:
     /home/alatimer/bin/psp/esp_psp_w_gbrvRu/O.UPF
     MD5 check sum: e057bbcf3229fb5d8c36c0c92f9568b4
     Pseudo is Ultrasoft + core correction, Zval =  6.0
     Generated using "atomic" code by A. Dal Corso  v.5.0.2 svn rev. 9415
     Using radial grid of 1095 points,  4 beta functions with: 
                l(1) =   0
                l(2) =   0
                l(3) =   1
                l(4) =   1
     Q(r) pseudized with 0 coefficients 


     PseudoPot. # 3 for  C read from file:
     /home/alatimer/bin/psp/esp_psp_w_gbrvRu/C.UPF
     MD5 check sum: ab446d787031eba755f1d5ee46644bb0
     Pseudo is Ultrasoft + core correction, Zval =  4.0
     Generated using "atomic" code by A. Dal Corso  v.5.0.2 svn rev. 9415
     Using radial grid of 1073 points,  4 beta functions with: 
                l(1) =   0
                l(2) =   0
                l(3) =   1
                l(4) =   1
     Q(r) pseudized with 0 coefficients 


     PseudoPot. # 4 for  H read from file:
     /home/alatimer/bin/psp/esp_psp_w_gbrvRu/H.UPF
     MD5 check sum: bd57da0722753ddfd9833a65b40bb853
     Pseudo is Ultrasoft, Zval =  1.0
     Generated using "atomic" code by A. Dal Corso  v.5.0.2 svn rev. 9415
     Using radial grid of  929 points,  2 beta functions with: 
                l(1) =   0
                l(2) =   0
     Q(r) pseudized with 0 coefficients 


     vdW kernel table read from file vdW_kernel_table
     MD5 check sum: 095c7af220d748ca6e76c0b4c6cfb241

     atomic species   valence    mass     pseudopotential
        Ti1           12.00    47.88000     Ti( 1.00)
        O1             6.00    15.99940      O( 1.00)
        C1             4.00    12.01100      C( 1.00)
        H1             1.00     1.00794      H( 1.00)

     Starting magnetic structure 
     atomic species   magnetization
        Ti1          0.250
        O1           0.500
        C1           0.750
        H1           0.000

     No symmetry found



   Cartesian axes

     site n.     atom                  positions (alat units)
         1           Ti1 tau(   1) = (   1.6476770   0.7437786   2.6545865  )
         2           O1  tau(   2) = (   1.6476770   2.2313359   3.9361215  )
         3           Ti1 tau(   3) = (   1.6476770   2.2313359   5.9499405  )
         4           O1  tau(   4) = (   0.3661420   0.7437786   5.9499405  )
         5           Ti1 tau(   5) = (   1.6407309   0.9134410   9.3139491  )
         6           O1  tau(   6) = (   1.6648823   2.2608486  10.4895904  )
         7           Ti1 tau(   7) = (   1.7578240   2.2899216  13.0472362  )
         8           O1  tau(   8) = (   0.4801583   0.7600008  12.7739736  )
         9           Ti1 tau(   9) = (   1.6476770   3.7188931   2.6545865  )
        10           O1  tau(  10) = (   1.6476770   5.2064503   3.9361215  )
        11           Ti1 tau(  11) = (   1.6476770   5.2064503   5.9499405  )
        12           O1  tau(  12) = (   0.3661420   3.7188931   5.9499405  )
        13           Ti1 tau(  13) = (   1.6336050   3.7786827   9.1566831  )
        14           O1  tau(  14) = (   1.6678212   5.2513959  10.5409436  )
        15           Ti1 tau(  15) = (   1.7144009   5.2558216  12.3462911  )
        16           O1  tau(  16) = (   0.4635505   3.7986228  12.7318280  )
        17           O1  tau(  17) = (   1.6476770   2.2313359   1.3730516  )
        18           Ti1 tau(  18) = (   4.9430310   2.2313359   2.6545865  )
        19           O1  tau(  19) = (   4.9430310   2.2313359   4.6684056  )
        20           O1  tau(  20) = (   6.2245660   0.7437786   2.6545865  )
        21           O1  tau(  21) = (   3.6614961   0.7437786   2.6545865  )
        22           Ti1 tau(  22) = (   4.9430310   0.7437786   5.9499405  )
        23           O1  tau(  23) = (   1.6683653   2.2752577   7.9427336  )
        24           O1  tau(  24) = (   4.9430310   2.2313359   7.2314755  )
        25           O1  tau(  25) = (   2.9292120   0.7437786   5.9499405  )
        26           Ti1 tau(  26) = (   4.9404121   2.2664794   9.4552217  )
        27           O1  tau(  27) = (   5.0099888   2.2616732  11.2946145  )
        28           O1  tau(  28) = (   6.2612001   0.7714827   9.2659748  )
        29           O1  tau(  29) = (   3.6791272   0.7744986   9.2965846  )
        30           Ti1 tau(  30) = (   5.0117873   0.7976728  12.8161605  )
        31           O1  tau(  31) = (   4.9963122   2.2836652  13.8750618  )
        32           O1  tau(  32) = (   2.9819382   0.7448324  12.7109220  )
        33           O1  tau(  33) = (   1.6476770   5.2064503   1.3730516  )
        34           Ti1 tau(  34) = (   4.9430310   5.2064503   2.6545865  )
        35           O1  tau(  35) = (   4.9430310   5.2064503   4.6684056  )
        36           O1  tau(  36) = (   6.2245660   3.7188931   2.6545865  )
        37           O1  tau(  37) = (   3.6614961   3.7188931   2.6545865  )
        38           Ti1 tau(  38) = (   4.9430310   3.7188931   5.9499405  )
        39           O1  tau(  39) = (   1.6664207   5.2035600   7.9365221  )
        40           O1  tau(  40) = (   4.9430310   5.2064503   7.2314755  )
        41           O1  tau(  41) = (   2.9292120   3.7188931   5.9499405  )
        42           Ti1 tau(  42) = (   4.9524353   5.2460635   9.4426343  )
        43           O1  tau(  43) = (   5.0107556   5.2394944  11.2927493  )
        44           O1  tau(  44) = (   6.2663940   3.7551737   9.2646230  )
        45           O1  tau(  45) = (   3.6780957   3.7542261   9.2971476  )
        46           Ti1 tau(  46) = (   5.0587989   3.7766986  12.8010349  )
        47           O1  tau(  47) = (   5.0196089   5.2502198  13.8813978  )
        48           O1  tau(  48) = (   2.9624133   3.7943242  12.7299881  )
        49           O1  tau(  49) = (   1.7427453   2.2533568  14.8370015  )
        50           C1  tau(  50) = (   2.7196098   4.2826273  16.2318421  )
        51           H1  tau(  51) = (   3.3037454   4.9255546  15.5827400  )
        52           H1  tau(  52) = (   3.3286606   3.7870117  16.9822022  )
        53           H1  tau(  53) = (   2.3125587   3.4026405  15.5729816  )
        54           H1  tau(  54) = (   1.8391288   4.7650601  16.6148379  )

     number of k points=    40  Fermi-Dirac smearing, width (Ry)=  0.0073
                       cart. coord. in units 2pi/alat
        k(    1) = (   0.0000000   0.0000000   0.0000000), wk =   0.0277778
        k(    2) = (   0.0000000   0.0280101   0.0000000), wk =   0.0555556
        k(    3) = (   0.0000000   0.0560203   0.0000000), wk =   0.0555556
        k(    4) = (   0.0000000  -0.0840304   0.0000000), wk =   0.0277778
        k(    5) = (   0.0252881   0.0000000   0.0000000), wk =   0.0555556
        k(    6) = (   0.0252881   0.0280101   0.0000000), wk =   0.0555556
        k(    7) = (   0.0252881   0.0560203   0.0000000), wk =   0.0555556
        k(    8) = (   0.0252881  -0.0840304   0.0000000), wk =   0.0555556
        k(    9) = (   0.0505763   0.0000000   0.0000000), wk =   0.0555556
        k(   10) = (   0.0505763   0.0280101   0.0000000), wk =   0.0555556
        k(   11) = (   0.0505763   0.0560203   0.0000000), wk =   0.0555556
        k(   12) = (   0.0505763  -0.0840304   0.0000000), wk =   0.0555556
        k(   13) = (  -0.0758644   0.0000000   0.0000000), wk =   0.0277778
        k(   14) = (  -0.0758644   0.0280101   0.0000000), wk =   0.0555556
        k(   15) = (  -0.0758644   0.0560203   0.0000000), wk =   0.0555556
        k(   16) = (  -0.0758644  -0.0840304   0.0000000), wk =   0.0277778
        k(   17) = (  -0.0252881   0.0280101   0.0000000), wk =   0.0555556
        k(   18) = (  -0.0252881   0.0560203   0.0000000), wk =   0.0555556
        k(   19) = (  -0.0505763   0.0280101   0.0000000), wk =   0.0555556
        k(   20) = (  -0.0505763   0.0560203   0.0000000), wk =   0.0555556
        k(   21) = (   0.0000000   0.0000000   0.0000000), wk =   0.0277778
        k(   22) = (   0.0000000   0.0280101   0.0000000), wk =   0.0555556
        k(   23) = (   0.0000000   0.0560203   0.0000000), wk =   0.0555556
        k(   24) = (   0.0000000  -0.0840304   0.0000000), wk =   0.0277778
        k(   25) = (   0.0252881   0.0000000   0.0000000), wk =   0.0555556
        k(   26) = (   0.0252881   0.0280101   0.0000000), wk =   0.0555556
        k(   27) = (   0.0252881   0.0560203   0.0000000), wk =   0.0555556
        k(   28) = (   0.0252881  -0.0840304   0.0000000), wk =   0.0555556
        k(   29) = (   0.0505763   0.0000000   0.0000000), wk =   0.0555556
        k(   30) = (   0.0505763   0.0280101   0.0000000), wk =   0.0555556
        k(   31) = (   0.0505763   0.0560203   0.0000000), wk =   0.0555556
        k(   32) = (   0.0505763  -0.0840304   0.0000000), wk =   0.0555556
        k(   33) = (  -0.0758644   0.0000000   0.0000000), wk =   0.0277778
        k(   34) = (  -0.0758644   0.0280101   0.0000000), wk =   0.0555556
        k(   35) = (  -0.0758644   0.0560203   0.0000000), wk =   0.0555556
        k(   36) = (  -0.0758644  -0.0840304   0.0000000), wk =   0.0277778
        k(   37) = (  -0.0252881   0.0280101   0.0000000), wk =   0.0555556
        k(   38) = (  -0.0252881   0.0560203   0.0000000), wk =   0.0555556
        k(   39) = (  -0.0505763   0.0280101   0.0000000), wk =   0.0555556
        k(   40) = (  -0.0505763   0.0560203   0.0000000), wk =   0.0555556

     Dense  grid:  1096637 G-vectors     FFT dimensions: (  80,  72, 375)

     Smooth grid:   277353 G-vectors     FFT dimensions: (  54,  45, 240)

     Largest allocated arrays     est. size (Mb)     dimensions
        Kohn-Sham Wavefunctions         9.95 Mb     (    2180,  299)
        NL pseudopotentials            18.89 Mb     (    2180,  568)
        Each V/rho on FFT grid          4.22 Mb     (  138240,   2)
        Each G-vector array             0.52 Mb     (   68538)
        G-vector shells                 0.25 Mb     (   33046)
     Largest temporary arrays     est. size (Mb)     dimensions
        Auxiliary wavefunctions        39.78 Mb     (    2180, 1196)
        Each subspace H/S matrix       21.83 Mb     (    1196, 1196)
        Each <psi_i|beta_j> matrix      2.59 Mb     (     568,  299)
        Arrays for rho mixing          21.09 Mb     (  138240,   10)

     Check: negative/imaginary core charge=   -0.000049    0.000000

     The initial density is read from file :
     ./calc.save/charge-density.dat


     negative rho (up, down):  1.189E-02 1.196E-02


     ************************************************************************
     *
     * You are using vdW-DF for exchange-correlation in this calculation.
     * Please cite the following three references that made this development
     * possible:
     *
     *   M. Dion, H. Rydberg, E. Schroder, D. C. Langreth, and
     *   B. I. Lundqvist, Phys. Rev. Lett. 92, 246401 (2004).
     *
     *   T. Thonhauser, V. R. Cooper, S. Li, A. Puzder, P. Hyldgaard, and
     *   D. C. Langreth, Phys. Rev. B 76, 125112 (2007).
     *
     *   G. Roman-Perez and J. M. Soler, Phys. Rev. Lett. 103, 096102 (2009).
     *
     *
     * If you are using vdW-DF2, please also cite:
     *
     *   K. Lee, E. D. Murray, L. Kong, B. I. Lundqvist, and
     *   D. C. Langreth, Phys. Rev. B 82, 081101(R) (2010).
     *
     *
     * If you are calculating the stress with vdW-DF, please also cite:
     *
     *   R. Sabatini, E. Kucukbenli, B. Kolb, T. Thonhauser, and
     *   S. de Gironcoli, J. Phys.: Condens. Matter 24, 424209 (2012).
     *
     ************************************************************************

     Carrying out vdW-DF run using the following parameters:

     Nqs =      20    Nr_points =    1024   r_max =   100.000
     q_mesh =
               0.00001000     0.04494208     0.09755937     0.15916263
               0.23128650     0.31572767     0.41458969     0.53033537
               0.66584808     0.82450364     1.01025438     1.22772762
               1.48234092     1.78043706     2.12944203     2.53805004
               3.01644009     3.57652955     4.23227104     5.00000000

     Gradients computed in reciprocal space

     ************************************************************************


     Starting wfc are  300 randomized atomic wfcs

     total cpu time spent up to now is       79.0 secs

     Self-consistent Calculation

     iteration #  1     ecut=    40.42 Ry     beta=0.10
     Davidson diagonalization with overlap
     ethr =  1.00E-05,  avg # of iterations = 15.1

     negative rho (up, down):  1.189E-02 1.196E-02
 
     Magnetic moment per site:
     atom:    1    charge:    3.1244    magn:   -0.0003    constr:    0.0000
     atom:    2    charge:    2.0895    magn:    0.0003    constr:    0.0000
     atom:    3    charge:    3.1198    magn:   -0.0000    constr:    0.0000
     atom:    4    charge:    2.0867    magn:   -0.0001    constr:    0.0000
     atom:    5    charge:    3.1161    magn:   -0.0002    constr:    0.0000
     atom:    6    charge:    2.0797    magn:    0.0020    constr:    0.0000
     atom:    7    charge:    3.1167    magn:   -0.0053    constr:    0.0000
     atom:    8    charge:    2.0794    magn:    0.0249    constr:    0.0000
     atom:    9    charge:    3.1244    magn:   -0.0003    constr:    0.0000
     atom:   10    charge:    2.0897    magn:    0.0003    constr:    0.0000
     atom:   11    charge:    3.1198    magn:   -0.0000    constr:    0.0000
     atom:   12    charge:    2.0870    magn:   -0.0000    constr:    0.0000
     atom:   13    charge:    3.1150    magn:   -0.0002    constr:    0.0000
     atom:   14    charge:    2.0939    magn:    0.0022    constr:    0.0000
     atom:   15    charge:    3.1184    magn:   -0.0008    constr:    0.0000
     atom:   16    charge:    2.0830    magn:    0.0046    constr:    0.0000
     atom:   17    charge:    2.0617    magn:    0.0018    constr:    0.0000
     atom:   18    charge:    3.1239    magn:   -0.0001    constr:    0.0000
     atom:   19    charge:    2.0875    magn:    0.0001    constr:    0.0000
     atom:   20    charge:    2.0847    magn:    0.0002    constr:    0.0000
     atom:   21    charge:    2.0847    magn:    0.0002    constr:    0.0000
     atom:   22    charge:    3.1199    magn:    0.0000    constr:    0.0000
     atom:   23    charge:    2.0908    magn:    0.0002    constr:    0.0000
     atom:   24    charge:    2.0754    magn:   -0.0002    constr:    0.0000
     atom:   25    charge:    2.0867    magn:    0.0000    constr:    0.0000
     atom:   26    charge:    3.1126    magn:   -0.0002    constr:    0.0000
     atom:   27    charge:    2.0805    magn:    0.0024    constr:    0.0000
     atom:   28    charge:    2.0840    magn:    0.0006    constr:    0.0000
     atom:   29    charge:    2.0861    magn:    0.0008    constr:    0.0000
     atom:   30    charge:    3.1171    magn:   -0.0008    constr:    0.0000
     atom:   31    charge:    2.0826    magn:    0.0006    constr:    0.0000
     atom:   32    charge:    2.0831    magn:    0.0064    constr:    0.0000
     atom:   33    charge:    2.0617    magn:    0.0018    constr:    0.0000
     atom:   34    charge:    3.1239    magn:   -0.0001    constr:    0.0000
     atom:   35    charge:    2.0875    magn:    0.0001    constr:    0.0000
     atom:   36    charge:    2.0847    magn:    0.0002    constr:    0.0000
     atom:   37    charge:    2.0847    magn:    0.0002    constr:    0.0000
     atom:   38    charge:    3.1200    magn:    0.0000    constr:    0.0000
     atom:   39    charge:    2.0839    magn:    0.0002    constr:    0.0000
     atom:   40    charge:    2.0757    magn:   -0.0003    constr:    0.0000
     atom:   41    charge:    2.0870    magn:   -0.0000    constr:    0.0000
     atom:   42    charge:    3.1151    magn:   -0.0002    constr:    0.0000
     atom:   43    charge:    2.0805    magn:    0.0030    constr:    0.0000
     atom:   44    charge:    2.0852    magn:    0.0008    constr:    0.0000
     atom:   45    charge:    2.0859    magn:    0.0004    constr:    0.0000
     atom:   46    charge:    3.1148    magn:   -0.0007    constr:    0.0000
     atom:   47    charge:    2.0808    magn:    0.0046    constr:    0.0000
     atom:   48    charge:    2.0838    magn:    0.0136    constr:    0.0000
     atom:   49    charge:    2.0519    magn:    0.2397    constr:    0.0000
     atom:   50    charge:    0.6719    magn:    0.0547    constr:    0.0000
     atom:   51    charge:    0.4221    magn:    0.0009    constr:    0.0000
     atom:   52    charge:    0.4225    magn:    0.0008    constr:    0.0000
     atom:   53    charge:    0.3676    magn:    0.0232    constr:    0.0000
     atom:   54    charge:    0.4286    magn:    0.0005    constr:    0.0000

     total cpu time spent up to now is     1046.3 secs

     total energy              =   -3021.14908915 Ry
     Harris-Foulkes estimate   =   -3021.15014467 Ry
     estimated scf accuracy    <       0.00643818 Ry

     total magnetization       =     1.05 Bohr mag/cell
     absolute magnetization    =     1.22 Bohr mag/cell

     iteration #  2     ecut=    40.42 Ry     beta=0.10
     Davidson diagonalization with overlap
     c_bands:  1 eigenvalues not converged
     c_bands:  1 eigenvalues not converged
     ethr =  1.62E-06,  avg # of iterations =  7.8

     negative rho (up, down):  1.190E-02 1.196E-02
 
     Magnetic moment per site:
     atom:    1    charge:    3.1244    magn:   -0.0003    constr:    0.0000
     atom:    2    charge:    2.0897    magn:    0.0003    constr:    0.0000
     atom:    3    charge:    3.1198    magn:   -0.0000    constr:    0.0000
     atom:    4    charge:    2.0867    magn:   -0.0001    constr:    0.0000
     atom:    5    charge:    3.1161    magn:   -0.0002    constr:    0.0000
     atom:    6    charge:    2.0795    magn:    0.0021    constr:    0.0000
     atom:    7    charge:    3.1167    magn:   -0.0053    constr:    0.0000
     atom:    8    charge:    2.0793    magn:    0.0249    constr:    0.0000
     atom:    9    charge:    3.1244    magn:   -0.0003    constr:    0.0000
     atom:   10    charge:    2.0898    magn:    0.0003    constr:    0.0000
     atom:   11    charge:    3.1198    magn:   -0.0000    constr:    0.0000
     atom:   12    charge:    2.0871    magn:   -0.0000    constr:    0.0000
     atom:   13    charge:    3.1150    magn:   -0.0002    constr:    0.0000
     atom:   14    charge:    2.0939    magn:    0.0022    constr:    0.0000
     atom:   15    charge:    3.1184    magn:   -0.0008    constr:    0.0000
     atom:   16    charge:    2.0829    magn:    0.0046    constr:    0.0000
     atom:   17    charge:    2.0623    magn:    0.0018    constr:    0.0000
     atom:   18    charge:    3.1239    magn:   -0.0001    constr:    0.0000
     atom:   19    charge:    2.0876    magn:    0.0001    constr:    0.0000
     atom:   20    charge:    2.0847    magn:    0.0002    constr:    0.0000
     atom:   21    charge:    2.0847    magn:    0.0002    constr:    0.0000
     atom:   22    charge:    3.1199    magn:    0.0000    constr:    0.0000
     atom:   23    charge:    2.0908    magn:    0.0002    constr:    0.0000
     atom:   24    charge:    2.0754    magn:   -0.0002    constr:    0.0000
     atom:   25    charge:    2.0868    magn:    0.0000    constr:    0.0000
     atom:   26    charge:    3.1127    magn:   -0.0002    constr:    0.0000
     atom:   27    charge:    2.0803    magn:    0.0025    constr:    0.0000
     atom:   28    charge:    2.0839    magn:    0.0006    constr:    0.0000
     atom:   29    charge:    2.0860    magn:    0.0008    constr:    0.0000
     atom:   30    charge:    3.1171    magn:   -0.0008    constr:    0.0000
     atom:   31    charge:    2.0825    magn:    0.0006    constr:    0.0000
     atom:   32    charge:    2.0829    magn:    0.0064    constr:    0.0000
     atom:   33    charge:    2.0623    magn:    0.0018    constr:    0.0000
     atom:   34    charge:    3.1239    magn:   -0.0001    constr:    0.0000
     atom:   35    charge:    2.0876    magn:    0.0001    constr:    0.0000
     atom:   36    charge:    2.0847    magn:    0.0002    constr:    0.0000
     atom:   37    charge:    2.0847    magn:    0.0002    constr:    0.0000
     atom:   38    charge:    3.1200    magn:    0.0000    constr:    0.0000
     atom:   39    charge:    2.0839    magn:    0.0002    constr:    0.0000
     atom:   40    charge:    2.0756    magn:   -0.0003    constr:    0.0000
     atom:   41    charge:    2.0870    magn:   -0.0000    constr:    0.0000
     atom:   42    charge:    3.1151    magn:   -0.0002    constr:    0.0000
     atom:   43    charge:    2.0803    magn:    0.0030    constr:    0.0000
     atom:   44    charge:    2.0851    magn:    0.0008    constr:    0.0000
     atom:   45    charge:    2.0858    magn:    0.0004    constr:    0.0000
     atom:   46    charge:    3.1148    magn:   -0.0007    constr:    0.0000
     atom:   47    charge:    2.0807    magn:    0.0046    constr:    0.0000
     atom:   48    charge:    2.0837    magn:    0.0136    constr:    0.0000
     atom:   49    charge:    2.0518    magn:    0.2397    constr:    0.0000
     atom:   50    charge:    0.6720    magn:    0.0547    constr:    0.0000
     atom:   51    charge:    0.4221    magn:    0.0009    constr:    0.0000
     atom:   52    charge:    0.4224    magn:    0.0008    constr:    0.0000
     atom:   53    charge:    0.3676    magn:    0.0232    constr:    0.0000
     atom:   54    charge:    0.4286    magn:    0.0005    constr:    0.0000

     total cpu time spent up to now is     1368.7 secs

     total energy              =   -3021.14916316 Ry
     Harris-Foulkes estimate   =   -3021.15078820 Ry
     estimated scf accuracy    <       0.02830074 Ry

     total magnetization       =     1.08 Bohr mag/cell
     absolute magnetization    =     1.24 Bohr mag/cell

     iteration #  3     ecut=    40.42 Ry     beta=0.10
     Davidson diagonalization with overlap
     ethr =  1.62E-06,  avg # of iterations =  6.4

     negative rho (up, down):  1.190E-02 1.197E-02
 
     Magnetic moment per site:
     atom:    1    charge:    3.1244    magn:   -0.0003    constr:    0.0000
     atom:    2    charge:    2.0897    magn:    0.0003    constr:    0.0000
     atom:    3    charge:    3.1198    magn:   -0.0000    constr:    0.0000
     atom:    4    charge:    2.0867    magn:   -0.0001    constr:    0.0000
     atom:    5    charge:    3.1161    magn:   -0.0002    constr:    0.0000
     atom:    6    charge:    2.0795    magn:    0.0021    constr:    0.0000
     atom:    7    charge:    3.1167    magn:   -0.0053    constr:    0.0000
     atom:    8    charge:    2.0793    magn:    0.0249    constr:    0.0000
     atom:    9    charge:    3.1244    magn:   -0.0003    constr:    0.0000
     atom:   10    charge:    2.0899    magn:    0.0003    constr:    0.0000
     atom:   11    charge:    3.1198    magn:   -0.0000    constr:    0.0000
     atom:   12    charge:    2.0870    magn:   -0.0000    constr:    0.0000
     atom:   13    charge:    3.1150    magn:   -0.0002    constr:    0.0000
     atom:   14    charge:    2.0939    magn:    0.0022    constr:    0.0000
     atom:   15    charge:    3.1184    magn:   -0.0008    constr:    0.0000
     atom:   16    charge:    2.0828    magn:    0.0046    constr:    0.0000
     atom:   17    charge:    2.0628    magn:    0.0016    constr:    0.0000
     atom:   18    charge:    3.1239    magn:   -0.0001    constr:    0.0000
     atom:   19    charge:    2.0875    magn:    0.0001    constr:    0.0000
     atom:   20    charge:    2.0847    magn:    0.0001    constr:    0.0000
     atom:   21    charge:    2.0847    magn:    0.0001    constr:    0.0000
     atom:   22    charge:    3.1199    magn:    0.0000    constr:    0.0000
     atom:   23    charge:    2.0907    magn:    0.0002    constr:    0.0000
     atom:   24    charge:    2.0753    magn:   -0.0001    constr:    0.0000
     atom:   25    charge:    2.0867    magn:    0.0000    constr:    0.0000
     atom:   26    charge:    3.1127    magn:   -0.0002    constr:    0.0000
     atom:   27    charge:    2.0802    magn:    0.0025    constr:    0.0000
     atom:   28    charge:    2.0838    magn:    0.0006    constr:    0.0000
     atom:   29    charge:    2.0859    magn:    0.0008    constr:    0.0000
     atom:   30    charge:    3.1171    magn:   -0.0008    constr:    0.0000
     atom:   31    charge:    2.0825    magn:    0.0006    constr:    0.0000
     atom:   32    charge:    2.0829    magn:    0.0064    constr:    0.0000
     atom:   33    charge:    2.0628    magn:    0.0016    constr:    0.0000
     atom:   34    charge:    3.1239    magn:   -0.0001    constr:    0.0000
     atom:   35    charge:    2.0875    magn:    0.0001    constr:    0.0000
     atom:   36    charge:    2.0847    magn:    0.0001    constr:    0.0000
     atom:   37    charge:    2.0847    magn:    0.0001    constr:    0.0000
     atom:   38    charge:    3.1200    magn:    0.0000    constr:    0.0000
     atom:   39    charge:    2.0839    magn:    0.0002    constr:    0.0000
     atom:   40    charge:    2.0755    magn:   -0.0002    constr:    0.0000
     atom:   41    charge:    2.0870    magn:   -0.0000    constr:    0.0000
     atom:   42    charge:    3.1151    magn:   -0.0002    constr:    0.0000
     atom:   43    charge:    2.0802    magn:    0.0030    constr:    0.0000
     atom:   44    charge:    2.0850    magn:    0.0009    constr:    0.0000
     atom:   45    charge:    2.0858    magn:    0.0004    constr:    0.0000
     atom:   46    charge:    3.1148    magn:   -0.0007    constr:    0.0000
     atom:   47    charge:    2.0806    magn:    0.0046    constr:    0.0000
     atom:   48    charge:    2.0837    magn:    0.0136    constr:    0.0000
     atom:   49    charge:    2.0517    magn:    0.2397    constr:    0.0000
     atom:   50    charge:    0.6736    magn:    0.0548    constr:    0.0000
     atom:   51    charge:    0.4223    magn:    0.0008    constr:    0.0000
     atom:   52    charge:    0.4218    magn:    0.0008    constr:    0.0000
     atom:   53    charge:    0.3677    magn:    0.0232    constr:    0.0000
     atom:   54    charge:    0.4289    magn:    0.0006    constr:    0.0000

     total cpu time spent up to now is     1664.0 secs

     total energy              =   -3021.14961135 Ry
     Harris-Foulkes estimate   =   -3021.14988793 Ry
     estimated scf accuracy    <       0.00103563 Ry

     total magnetization       =     1.06 Bohr mag/cell
     absolute magnetization    =     1.23 Bohr mag/cell

     iteration #  4     ecut=    40.42 Ry     beta=0.10
     Davidson diagonalization with overlap
     ethr =  2.60E-07,  avg # of iterations =  3.1

     negative rho (up, down):  1.191E-02 1.197E-02
 
     Magnetic moment per site:
     atom:    1    charge:    3.1245    magn:   -0.0003    constr:    0.0000
     atom:    2    charge:    2.0897    magn:    0.0003    constr:    0.0000
     atom:    3    charge:    3.1198    magn:   -0.0000    constr:    0.0000
     atom:    4    charge:    2.0867    magn:   -0.0001    constr:    0.0000
     atom:    5    charge:    3.1161    magn:   -0.0002    constr:    0.0000
     atom:    6    charge:    2.0794    magn:    0.0021    constr:    0.0000
     atom:    7    charge:    3.1167    magn:   -0.0053    constr:    0.0000
     atom:    8    charge:    2.0793    magn:    0.0249    constr:    0.0000
     atom:    9    charge:    3.1245    magn:   -0.0003    constr:    0.0000
     atom:   10    charge:    2.0899    magn:    0.0003    constr:    0.0000
     atom:   11    charge:    3.1198    magn:   -0.0000    constr:    0.0000
     atom:   12    charge:    2.0870    magn:   -0.0000    constr:    0.0000
     atom:   13    charge:    3.1150    magn:   -0.0002    constr:    0.0000
     atom:   14    charge:    2.0939    magn:    0.0022    constr:    0.0000
     atom:   15    charge:    3.1184    magn:   -0.0008    constr:    0.0000
     atom:   16    charge:    2.0828    magn:    0.0046    constr:    0.0000
     atom:   17    charge:    2.0627    magn:    0.0015    constr:    0.0000
     atom:   18    charge:    3.1239    magn:   -0.0001    constr:    0.0000
     atom:   19    charge:    2.0875    magn:    0.0001    constr:    0.0000
     atom:   20    charge:    2.0847    magn:    0.0001    constr:    0.0000
     atom:   21    charge:    2.0847    magn:    0.0001    constr:    0.0000
     atom:   22    charge:    3.1199    magn:    0.0000    constr:    0.0000
     atom:   23    charge:    2.0908    magn:    0.0002    constr:    0.0000
     atom:   24    charge:    2.0753    magn:   -0.0001    constr:    0.0000
     atom:   25    charge:    2.0867    magn:    0.0000    constr:    0.0000
     atom:   26    charge:    3.1127    magn:   -0.0002    constr:    0.0000
     atom:   27    charge:    2.0802    magn:    0.0025    constr:    0.0000
     atom:   28    charge:    2.0838    magn:    0.0006    constr:    0.0000
     atom:   29    charge:    2.0860    magn:    0.0008    constr:    0.0000
     atom:   30    charge:    3.1171    magn:   -0.0008    constr:    0.0000
     atom:   31    charge:    2.0824    magn:    0.0006    constr:    0.0000
     atom:   32    charge:    2.0829    magn:    0.0064    constr:    0.0000
     atom:   33    charge:    2.0627    magn:    0.0015    constr:    0.0000
     atom:   34    charge:    3.1239    magn:   -0.0001    constr:    0.0000
     atom:   35    charge:    2.0876    magn:    0.0001    constr:    0.0000
     atom:   36    charge:    2.0847    magn:    0.0001    constr:    0.0000
     atom:   37    charge:    2.0847    magn:    0.0001    constr:    0.0000
     atom:   38    charge:    3.1200    magn:    0.0000    constr:    0.0000
     atom:   39    charge:    2.0839    magn:    0.0002    constr:    0.0000
     atom:   40    charge:    2.0756    magn:   -0.0002    constr:    0.0000
     atom:   41    charge:    2.0870    magn:   -0.0000    constr:    0.0000
     atom:   42    charge:    3.1151    magn:   -0.0002    constr:    0.0000
     atom:   43    charge:    2.0802    magn:    0.0030    constr:    0.0000
     atom:   44    charge:    2.0850    magn:    0.0009    constr:    0.0000
     atom:   45    charge:    2.0858    magn:    0.0004    constr:    0.0000
     atom:   46    charge:    3.1148    magn:   -0.0007    constr:    0.0000
     atom:   47    charge:    2.0806    magn:    0.0046    constr:    0.0000
     atom:   48    charge:    2.0837    magn:    0.0136    constr:    0.0000
     atom:   49    charge:    2.0517    magn:    0.2396    constr:    0.0000
     atom:   50    charge:    0.6739    magn:    0.0548    constr:    0.0000
     atom:   51    charge:    0.4223    magn:    0.0008    constr:    0.0000
     atom:   52    charge:    0.4217    magn:    0.0008    constr:    0.0000
     atom:   53    charge:    0.3677    magn:    0.0232    constr:    0.0000
     atom:   54    charge:    0.4290    magn:    0.0007    constr:    0.0000

     total cpu time spent up to now is     1905.7 secs

     total energy              =   -3021.14969261 Ry
     Harris-Foulkes estimate   =   -3021.14975211 Ry
     estimated scf accuracy    <       0.00168422 Ry

     total magnetization       =     1.06 Bohr mag/cell
     absolute magnetization    =     1.23 Bohr mag/cell

     iteration #  5     ecut=    40.42 Ry     beta=0.10
     Davidson diagonalization with overlap
     ethr =  2.60E-07,  avg # of iterations =  1.4

     negative rho (up, down):  1.191E-02 1.197E-02
 
     Magnetic moment per site:
     atom:    1    charge:    3.1245    magn:   -0.0002    constr:    0.0000
     atom:    2    charge:    2.0897    magn:    0.0002    constr:    0.0000
     atom:    3    charge:    3.1198    magn:   -0.0000    constr:    0.0000
     atom:    4    charge:    2.0867    magn:   -0.0001    constr:    0.0000
     atom:    5    charge:    3.1161    magn:   -0.0002    constr:    0.0000
     atom:    6    charge:    2.0795    magn:    0.0021    constr:    0.0000
     atom:    7    charge:    3.1167    magn:   -0.0053    constr:    0.0000
     atom:    8    charge:    2.0793    magn:    0.0249    constr:    0.0000
     atom:    9    charge:    3.1245    magn:   -0.0002    constr:    0.0000
     atom:   10    charge:    2.0898    magn:    0.0003    constr:    0.0000
     atom:   11    charge:    3.1198    magn:   -0.0000    constr:    0.0000
     atom:   12    charge:    2.0871    magn:   -0.0000    constr:    0.0000
     atom:   13    charge:    3.1150    magn:   -0.0002    constr:    0.0000
     atom:   14    charge:    2.0939    magn:    0.0022    constr:    0.0000
     atom:   15    charge:    3.1184    magn:   -0.0008    constr:    0.0000
     atom:   16    charge:    2.0828    magn:    0.0046    constr:    0.0000
     atom:   17    charge:    2.0625    magn:    0.0014    constr:    0.0000
     atom:   18    charge:    3.1240    magn:   -0.0001    constr:    0.0000
     atom:   19    charge:    2.0875    magn:    0.0001    constr:    0.0000
     atom:   20    charge:    2.0847    magn:    0.0001    constr:    0.0000
     atom:   21    charge:    2.0847    magn:    0.0001    constr:    0.0000
     atom:   22    charge:    3.1199    magn:    0.0000    constr:    0.0000
     atom:   23    charge:    2.0908    magn:    0.0002    constr:    0.0000
     atom:   24    charge:    2.0754    magn:   -0.0001    constr:    0.0000
     atom:   25    charge:    2.0868    magn:    0.0000    constr:    0.0000
     atom:   26    charge:    3.1127    magn:   -0.0002    constr:    0.0000
     atom:   27    charge:    2.0802    magn:    0.0026    constr:    0.0000
     atom:   28    charge:    2.0839    magn:    0.0007    constr:    0.0000
     atom:   29    charge:    2.0860    magn:    0.0008    constr:    0.0000
     atom:   30    charge:    3.1171    magn:   -0.0008    constr:    0.0000
     atom:   31    charge:    2.0825    magn:    0.0006    constr:    0.0000
     atom:   32    charge:    2.0829    magn:    0.0064    constr:    0.0000
     atom:   33    charge:    2.0625    magn:    0.0014    constr:    0.0000
     atom:   34    charge:    3.1240    magn:   -0.0001    constr:    0.0000
     atom:   35    charge:    2.0875    magn:    0.0001    constr:    0.0000
     atom:   36    charge:    2.0847    magn:    0.0001    constr:    0.0000
     atom:   37    charge:    2.0847    magn:    0.0001    constr:    0.0000
     atom:   38    charge:    3.1200    magn:    0.0000    constr:    0.0000
     atom:   39    charge:    2.0839    magn:    0.0002    constr:    0.0000
     atom:   40    charge:    2.0757    magn:   -0.0002    constr:    0.0000
     atom:   41    charge:    2.0870    magn:   -0.0000    constr:    0.0000
     atom:   42    charge:    3.1151    magn:   -0.0002    constr:    0.0000
     atom:   43    charge:    2.0803    magn:    0.0031    constr:    0.0000
     atom:   44    charge:    2.0851    magn:    0.0009    constr:    0.0000
     atom:   45    charge:    2.0858    magn:    0.0005    constr:    0.0000
     atom:   46    charge:    3.1147    magn:   -0.0007    constr:    0.0000
     atom:   47    charge:    2.0806    magn:    0.0046    constr:    0.0000
     atom:   48    charge:    2.0837    magn:    0.0136    constr:    0.0000
     atom:   49    charge:    2.0518    magn:    0.2395    constr:    0.0000
     atom:   50    charge:    0.6738    magn:    0.0549    constr:    0.0000
     atom:   51    charge:    0.4224    magn:    0.0008    constr:    0.0000
     atom:   52    charge:    0.4217    magn:    0.0008    constr:    0.0000
     atom:   53    charge:    0.3676    magn:    0.0233    constr:    0.0000
     atom:   54    charge:    0.4292    magn:    0.0007    constr:    0.0000

     total cpu time spent up to now is     2112.4 secs

     total energy              =   -3021.14965382 Ry
     Harris-Foulkes estimate   =   -3021.14970724 Ry
     estimated scf accuracy    <       0.00058479 Ry

     total magnetization       =     1.06 Bohr mag/cell
     absolute magnetization    =     1.23 Bohr mag/cell

     iteration #  6     ecut=    40.42 Ry     beta=0.10
     Davidson diagonalization with overlap
     ethr =  1.47E-07,  avg # of iterations =  2.2

     negative rho (up, down):  1.190E-02 1.197E-02
 
     Magnetic moment per site:
     atom:    1    charge:    3.1244    magn:   -0.0002    constr:    0.0000
     atom:    2    charge:    2.0897    magn:    0.0002    constr:    0.0000
     atom:    3    charge:    3.1198    magn:   -0.0000    constr:    0.0000
     atom:    4    charge:    2.0867    magn:   -0.0001    constr:    0.0000
     atom:    5    charge:    3.1161    magn:   -0.0002    constr:    0.0000
     atom:    6    charge:    2.0795    magn:    0.0021    constr:    0.0000
     atom:    7    charge:    3.1166    magn:   -0.0052    constr:    0.0000
     atom:    8    charge:    2.0793    magn:    0.0248    constr:    0.0000
     atom:    9    charge:    3.1244    magn:   -0.0002    constr:    0.0000
     atom:   10    charge:    2.0898    magn:    0.0002    constr:    0.0000
     atom:   11    charge:    3.1198    magn:   -0.0000    constr:    0.0000
     atom:   12    charge:    2.0870    magn:   -0.0000    constr:    0.0000
     atom:   13    charge:    3.1150    magn:   -0.0002    constr:    0.0000
     atom:   14    charge:    2.0939    magn:    0.0022    constr:    0.0000
     atom:   15    charge:    3.1183    magn:   -0.0008    constr:    0.0000
     atom:   16    charge:    2.0828    magn:    0.0046    constr:    0.0000
     atom:   17    charge:    2.0625    magn:    0.0013    constr:    0.0000
     atom:   18    charge:    3.1240    magn:   -0.0001    constr:    0.0000
     atom:   19    charge:    2.0875    magn:    0.0000    constr:    0.0000
     atom:   20    charge:    2.0847    magn:    0.0001    constr:    0.0000
     atom:   21    charge:    2.0847    magn:    0.0001    constr:    0.0000
     atom:   22    charge:    3.1199    magn:    0.0000    constr:    0.0000
     atom:   23    charge:    2.0908    magn:    0.0002    constr:    0.0000
     atom:   24    charge:    2.0754    magn:   -0.0001    constr:    0.0000
     atom:   25    charge:    2.0867    magn:    0.0000    constr:    0.0000
     atom:   26    charge:    3.1127    magn:   -0.0002    constr:    0.0000
     atom:   27    charge:    2.0803    magn:    0.0026    constr:    0.0000
     atom:   28    charge:    2.0839    magn:    0.0007    constr:    0.0000
     atom:   29    charge:    2.0860    magn:    0.0008    constr:    0.0000
     atom:   30    charge:    3.1171    magn:   -0.0008    constr:    0.0000
     atom:   31    charge:    2.0826    magn:    0.0006    constr:    0.0000
     atom:   32    charge:    2.0829    magn:    0.0064    constr:    0.0000
     atom:   33    charge:    2.0625    magn:    0.0013    constr:    0.0000
     atom:   34    charge:    3.1240    magn:   -0.0001    constr:    0.0000
     atom:   35    charge:    2.0875    magn:    0.0000    constr:    0.0000
     atom:   36    charge:    2.0847    magn:    0.0001    constr:    0.0000
     atom:   37    charge:    2.0847    magn:    0.0001    constr:    0.0000
     atom:   38    charge:    3.1200    magn:    0.0000    constr:    0.0000
     atom:   39    charge:    2.0839    magn:    0.0002    constr:    0.0000
     atom:   40    charge:    2.0756    magn:   -0.0002    constr:    0.0000
     atom:   41    charge:    2.0870    magn:   -0.0000    constr:    0.0000
     atom:   42    charge:    3.1151    magn:   -0.0002    constr:    0.0000
     atom:   43    charge:    2.0803    magn:    0.0031    constr:    0.0000
     atom:   44    charge:    2.0851    magn:    0.0009    constr:    0.0000
     atom:   45    charge:    2.0858    magn:    0.0005    constr:    0.0000
     atom:   46    charge:    3.1147    magn:   -0.0007    constr:    0.0000
     atom:   47    charge:    2.0807    magn:    0.0046    constr:    0.0000
     atom:   48    charge:    2.0837    magn:    0.0135    constr:    0.0000
     atom:   49    charge:    2.0519    magn:    0.2394    constr:    0.0000
     atom:   50    charge:    0.6733    magn:    0.0549    constr:    0.0000
     atom:   51    charge:    0.4224    magn:    0.0008    constr:    0.0000
     atom:   52    charge:    0.4220    magn:    0.0008    constr:    0.0000
     atom:   53    charge:    0.3675    magn:    0.0234    constr:    0.0000
     atom:   54    charge:    0.4295    magn:    0.0007    constr:    0.0000

     total cpu time spent up to now is     2332.8 secs

     total energy              =   -3021.14967588 Ry
     Harris-Foulkes estimate   =   -3021.14969482 Ry
     estimated scf accuracy    <       0.00024881 Ry

     total magnetization       =     1.06 Bohr mag/cell
     absolute magnetization    =     1.23 Bohr mag/cell

     iteration #  7     ecut=    40.42 Ry     beta=0.10
     Davidson diagonalization with overlap
     ethr =  6.25E-08,  avg # of iterations =  2.1

     negative rho (up, down):  1.190E-02 1.197E-02
 
     Magnetic moment per site:
     atom:    1    charge:    3.1244    magn:   -0.0002    constr:    0.0000
     atom:    2    charge:    2.0897    magn:    0.0002    constr:    0.0000
     atom:    3    charge:    3.1198    magn:   -0.0000    constr:    0.0000
     atom:    4    charge:    2.0867    magn:   -0.0001    constr:    0.0000
     atom:    5    charge:    3.1161    magn:   -0.0003    constr:    0.0000
     atom:    6    charge:    2.0795    magn:    0.0021    constr:    0.0000
     atom:    7    charge:    3.1167    magn:   -0.0052    constr:    0.0000
     atom:    8    charge:    2.0793    magn:    0.0248    constr:    0.0000
     atom:    9    charge:    3.1244    magn:   -0.0002    constr:    0.0000
     atom:   10    charge:    2.0898    magn:    0.0002    constr:    0.0000
     atom:   11    charge:    3.1198    magn:   -0.0000    constr:    0.0000
     atom:   12    charge:    2.0871    magn:   -0.0000    constr:    0.0000
     atom:   13    charge:    3.1150    magn:   -0.0002    constr:    0.0000
     atom:   14    charge:    2.0939    magn:    0.0022    constr:    0.0000
     atom:   15    charge:    3.1184    magn:   -0.0008    constr:    0.0000
     atom:   16    charge:    2.0828    magn:    0.0046    constr:    0.0000
     atom:   17    charge:    2.0624    magn:    0.0012    constr:    0.0000
     atom:   18    charge:    3.1239    magn:   -0.0000    constr:    0.0000
     atom:   19    charge:    2.0875    magn:    0.0000    constr:    0.0000
     atom:   20    charge:    2.0847    magn:    0.0001    constr:    0.0000
     atom:   21    charge:    2.0847    magn:    0.0001    constr:    0.0000
     atom:   22    charge:    3.1199    magn:    0.0000    constr:    0.0000
     atom:   23    charge:    2.0908    magn:    0.0002    constr:    0.0000
     atom:   24    charge:    2.0754    magn:   -0.0001    constr:    0.0000
     atom:   25    charge:    2.0867    magn:    0.0000    constr:    0.0000
     atom:   26    charge:    3.1127    magn:   -0.0003    constr:    0.0000
     atom:   27    charge:    2.0803    magn:    0.0026    constr:    0.0000
     atom:   28    charge:    2.0839    magn:    0.0007    constr:    0.0000
     atom:   29    charge:    2.0860    magn:    0.0009    constr:    0.0000
     atom:   30    charge:    3.1171    magn:   -0.0008    constr:    0.0000
     atom:   31    charge:    2.0826    magn:    0.0006    constr:    0.0000
     atom:   32    charge:    2.0829    magn:    0.0064    constr:    0.0000
     atom:   33    charge:    2.0624    magn:    0.0012    constr:    0.0000
     atom:   34    charge:    3.1239    magn:   -0.0000    constr:    0.0000
     atom:   35    charge:    2.0876    magn:    0.0000    constr:    0.0000
     atom:   36    charge:    2.0847    magn:    0.0001    constr:    0.0000
     atom:   37    charge:    2.0847    magn:    0.0001    constr:    0.0000
     atom:   38    charge:    3.1200    magn:    0.0000    constr:    0.0000
     atom:   39    charge:    2.0839    magn:    0.0002    constr:    0.0000
     atom:   40    charge:    2.0756    magn:   -0.0001    constr:    0.0000
     atom:   41    charge:    2.0870    magn:   -0.0000    constr:    0.0000
     atom:   42    charge:    3.1151    magn:   -0.0002    constr:    0.0000
     atom:   43    charge:    2.0803    magn:    0.0031    constr:    0.0000
     atom:   44    charge:    2.0851    magn:    0.0009    constr:    0.0000
     atom:   45    charge:    2.0858    magn:    0.0005    constr:    0.0000
     atom:   46    charge:    3.1148    magn:   -0.0007    constr:    0.0000
     atom:   47    charge:    2.0807    magn:    0.0046    constr:    0.0000
     atom:   48    charge:    2.0837    magn:    0.0135    constr:    0.0000
     atom:   49    charge:    2.0518    magn:    0.2394    constr:    0.0000
     atom:   50    charge:    0.6731    magn:    0.0549    constr:    0.0000
     atom:   51    charge:    0.4224    magn:    0.0008    constr:    0.0000
     atom:   52    charge:    0.4221    magn:    0.0008    constr:    0.0000
     atom:   53    charge:    0.3674    magn:    0.0235    constr:    0.0000
     atom:   54    charge:    0.4296    magn:    0.0007    constr:    0.0000

     total cpu time spent up to now is     2552.6 secs

     total energy              =   -3021.14968771 Ry
     Harris-Foulkes estimate   =   -3021.14968759 Ry
     estimated scf accuracy    <       0.00002302 Ry

     total magnetization       =     1.06 Bohr mag/cell
     absolute magnetization    =     1.23 Bohr mag/cell

     iteration #  8     ecut=    40.42 Ry     beta=0.10
     Davidson diagonalization with overlap
     ethr =  5.78E-09,  avg # of iterations =  3.0

     negative rho (up, down):  1.190E-02 1.197E-02
 
     Magnetic moment per site:
     atom:    1    charge:    3.1244    magn:   -0.0002    constr:    0.0000
     atom:    2    charge:    2.0897    magn:    0.0002    constr:    0.0000
     atom:    3    charge:    3.1198    magn:   -0.0000    constr:    0.0000
     atom:    4    charge:    2.0867    magn:   -0.0001    constr:    0.0000
     atom:    5    charge:    3.1161    magn:   -0.0003    constr:    0.0000
     atom:    6    charge:    2.0795    magn:    0.0021    constr:    0.0000
     atom:    7    charge:    3.1167    magn:   -0.0052    constr:    0.0000
     atom:    8    charge:    2.0792    magn:    0.0248    constr:    0.0000
     atom:    9    charge:    3.1244    magn:   -0.0002    constr:    0.0000
     atom:   10    charge:    2.0898    magn:    0.0002    constr:    0.0000
     atom:   11    charge:    3.1198    magn:   -0.0000    constr:    0.0000
     atom:   12    charge:    2.0870    magn:   -0.0000    constr:    0.0000
     atom:   13    charge:    3.1150    magn:   -0.0002    constr:    0.0000
     atom:   14    charge:    2.0939    magn:    0.0022    constr:    0.0000
     atom:   15    charge:    3.1184    magn:   -0.0008    constr:    0.0000
     atom:   16    charge:    2.0828    magn:    0.0046    constr:    0.0000
     atom:   17    charge:    2.0624    magn:    0.0011    constr:    0.0000
     atom:   18    charge:    3.1239    magn:   -0.0000    constr:    0.0000
     atom:   19    charge:    2.0876    magn:    0.0000    constr:    0.0000
     atom:   20    charge:    2.0847    magn:    0.0001    constr:    0.0000
     atom:   21    charge:    2.0847    magn:    0.0001    constr:    0.0000
     atom:   22    charge:    3.1199    magn:    0.0000    constr:    0.0000
     atom:   23    charge:    2.0908    magn:    0.0003    constr:    0.0000
     atom:   24    charge:    2.0754    magn:   -0.0001    constr:    0.0000
     atom:   25    charge:    2.0867    magn:    0.0000    constr:    0.0000
     atom:   26    charge:    3.1127    magn:   -0.0003    constr:    0.0000
     atom:   27    charge:    2.0802    magn:    0.0026    constr:    0.0000
     atom:   28    charge:    2.0839    magn:    0.0007    constr:    0.0000
     atom:   29    charge:    2.0860    magn:    0.0009    constr:    0.0000
     atom:   30    charge:    3.1171    magn:   -0.0008    constr:    0.0000
     atom:   31    charge:    2.0825    magn:    0.0006    constr:    0.0000
     atom:   32    charge:    2.0829    magn:    0.0064    constr:    0.0000
     atom:   33    charge:    2.0624    magn:    0.0011    constr:    0.0000
     atom:   34    charge:    3.1239    magn:   -0.0000    constr:    0.0000
     atom:   35    charge:    2.0876    magn:    0.0000    constr:    0.0000
     atom:   36    charge:    2.0847    magn:    0.0001    constr:    0.0000
     atom:   37    charge:    2.0847    magn:    0.0001    constr:    0.0000
     atom:   38    charge:    3.1200    magn:    0.0000    constr:    0.0000
     atom:   39    charge:    2.0839    magn:    0.0002    constr:    0.0000
     atom:   40    charge:    2.0756    magn:   -0.0001    constr:    0.0000
     atom:   41    charge:    2.0870    magn:   -0.0000    constr:    0.0000
     atom:   42    charge:    3.1151    magn:   -0.0002    constr:    0.0000
     atom:   43    charge:    2.0803    magn:    0.0031    constr:    0.0000
     atom:   44    charge:    2.0851    magn:    0.0010    constr:    0.0000
     atom:   45    charge:    2.0858    magn:    0.0005    constr:    0.0000
     atom:   46    charge:    3.1148    magn:   -0.0007    constr:    0.0000
     atom:   47    charge:    2.0807    magn:    0.0046    constr:    0.0000
     atom:   48    charge:    2.0837    magn:    0.0135    constr:    0.0000
     atom:   49    charge:    2.0517    magn:    0.2394    constr:    0.0000
     atom:   50    charge:    0.6729    magn:    0.0549    constr:    0.0000
     atom:   51    charge:    0.4223    magn:    0.0007    constr:    0.0000
     atom:   52    charge:    0.4223    magn:    0.0008    constr:    0.0000
     atom:   53    charge:    0.3674    magn:    0.0235    constr:    0.0000
     atom:   54    charge:    0.4297    magn:    0.0007    constr:    0.0000

     total cpu time spent up to now is     2789.2 secs

     total energy              =   -3021.14968750 Ry
     Harris-Foulkes estimate   =   -3021.14968918 Ry
     estimated scf accuracy    <       0.00000958 Ry

     total magnetization       =     1.06 Bohr mag/cell
     absolute magnetization    =     1.23 Bohr mag/cell

     iteration #  9     ecut=    40.42 Ry     beta=0.10
     Davidson diagonalization with overlap
     ethr =  2.41E-09,  avg # of iterations =  3.0

     negative rho (up, down):  1.190E-02 1.197E-02
 
     Magnetic moment per site:
     atom:    1    charge:    3.1244    magn:   -0.0002    constr:    0.0000
     atom:    2    charge:    2.0897    magn:    0.0002    constr:    0.0000
     atom:    3    charge:    3.1198    magn:   -0.0000    constr:    0.0000
     atom:    4    charge:    2.0867    magn:   -0.0001    constr:    0.0000
     atom:    5    charge:    3.1161    magn:   -0.0003    constr:    0.0000
     atom:    6    charge:    2.0795    magn:    0.0021    constr:    0.0000
     atom:    7    charge:    3.1167    magn:   -0.0052    constr:    0.0000
     atom:    8    charge:    2.0793    magn:    0.0249    constr:    0.0000
     atom:    9    charge:    3.1244    magn:   -0.0002    constr:    0.0000
     atom:   10    charge:    2.0898    magn:    0.0002    constr:    0.0000
     atom:   11    charge:    3.1198    magn:   -0.0000    constr:    0.0000
     atom:   12    charge:    2.0870    magn:   -0.0000    constr:    0.0000
     atom:   13    charge:    3.1150    magn:   -0.0002    constr:    0.0000
     atom:   14    charge:    2.0939    magn:    0.0022    constr:    0.0000
     atom:   15    charge:    3.1184    magn:   -0.0008    constr:    0.0000
     atom:   16    charge:    2.0828    magn:    0.0046    constr:    0.0000
     atom:   17    charge:    2.0624    magn:    0.0010    constr:    0.0000
     atom:   18    charge:    3.1239    magn:   -0.0000    constr:    0.0000
     atom:   19    charge:    2.0875    magn:    0.0000    constr:    0.0000
     atom:   20    charge:    2.0847    magn:    0.0001    constr:    0.0000
     atom:   21    charge:    2.0847    magn:    0.0001    constr:    0.0000
     atom:   22    charge:    3.1199    magn:    0.0000    constr:    0.0000
     atom:   23    charge:    2.0908    magn:    0.0003    constr:    0.0000
     atom:   24    charge:    2.0754    magn:   -0.0000    constr:    0.0000
     atom:   25    charge:    2.0867    magn:    0.0000    constr:    0.0000
     atom:   26    charge:    3.1127    magn:   -0.0003    constr:    0.0000
     atom:   27    charge:    2.0802    magn:    0.0027    constr:    0.0000
     atom:   28    charge:    2.0839    magn:    0.0008    constr:    0.0000
     atom:   29    charge:    2.0860    magn:    0.0009    constr:    0.0000
     atom:   30    charge:    3.1171    magn:   -0.0008    constr:    0.0000
     atom:   31    charge:    2.0825    magn:    0.0006    constr:    0.0000
     atom:   32    charge:    2.0829    magn:    0.0065    constr:    0.0000
     atom:   33    charge:    2.0624    magn:    0.0010    constr:    0.0000
     atom:   34    charge:    3.1239    magn:   -0.0000    constr:    0.0000
     atom:   35    charge:    2.0876    magn:    0.0000    constr:    0.0000
     atom:   36    charge:    2.0847    magn:    0.0001    constr:    0.0000
     atom:   37    charge:    2.0847    magn:    0.0001    constr:    0.0000
     atom:   38    charge:    3.1200    magn:    0.0000    constr:    0.0000
     atom:   39    charge:    2.0839    magn:    0.0002    constr:    0.0000
     atom:   40    charge:    2.0756    magn:   -0.0001    constr:    0.0000
     atom:   41    charge:    2.0870    magn:   -0.0000    constr:    0.0000
     atom:   42    charge:    3.1151    magn:   -0.0002    constr:    0.0000
     atom:   43    charge:    2.0803    magn:    0.0032    constr:    0.0000
     atom:   44    charge:    2.0851    magn:    0.0010    constr:    0.0000
     atom:   45    charge:    2.0858    magn:    0.0005    constr:    0.0000
     atom:   46    charge:    3.1148    magn:   -0.0007    constr:    0.0000
     atom:   47    charge:    2.0806    magn:    0.0047    constr:    0.0000
     atom:   48    charge:    2.0837    magn:    0.0135    constr:    0.0000
     atom:   49    charge:    2.0517    magn:    0.2394    constr:    0.0000
     atom:   50    charge:    0.6729    magn:    0.0549    constr:    0.0000
     atom:   51    charge:    0.4223    magn:    0.0007    constr:    0.0000
     atom:   52    charge:    0.4224    magn:    0.0008    constr:    0.0000
     atom:   53    charge:    0.3674    magn:    0.0234    constr:    0.0000
     atom:   54    charge:    0.4298    magn:    0.0007    constr:    0.0000

     total cpu time spent up to now is     3026.7 secs

     total energy              =   -3021.14968838 Ry
     Harris-Foulkes estimate   =   -3021.14968851 Ry
     estimated scf accuracy    <       0.00000491 Ry

     total magnetization       =     1.06 Bohr mag/cell
     absolute magnetization    =     1.23 Bohr mag/cell

     iteration # 10     ecut=    40.42 Ry     beta=0.10
     Davidson diagonalization with overlap
     ethr =  1.23E-09,  avg # of iterations =  2.0

     negative rho (up, down):  1.190E-02 1.197E-02
 
     Magnetic moment per site:
     atom:    1    charge:    3.1244    magn:   -0.0001    constr:    0.0000
     atom:    2    charge:    2.0897    magn:    0.0001    constr:    0.0000
     atom:    3    charge:    3.1198    magn:   -0.0000    constr:    0.0000
     atom:    4    charge:    2.0867    magn:   -0.0001    constr:    0.0000
     atom:    5    charge:    3.1161    magn:   -0.0003    constr:    0.0000
     atom:    6    charge:    2.0795    magn:    0.0022    constr:    0.0000
     atom:    7    charge:    3.1167    magn:   -0.0052    constr:    0.0000
     atom:    8    charge:    2.0793    magn:    0.0249    constr:    0.0000
     atom:    9    charge:    3.1244    magn:   -0.0001    constr:    0.0000
     atom:   10    charge:    2.0898    magn:    0.0001    constr:    0.0000
     atom:   11    charge:    3.1198    magn:   -0.0000    constr:    0.0000
     atom:   12    charge:    2.0870    magn:   -0.0000    constr:    0.0000
     atom:   13    charge:    3.1150    magn:   -0.0002    constr:    0.0000
     atom:   14    charge:    2.0939    magn:    0.0022    constr:    0.0000
     atom:   15    charge:    3.1184    magn:   -0.0008    constr:    0.0000
     atom:   16    charge:    2.0828    magn:    0.0047    constr:    0.0000
     atom:   17    charge:    2.0625    magn:    0.0008    constr:    0.0000
     atom:   18    charge:    3.1239    magn:   -0.0000    constr:    0.0000
     atom:   19    charge:    2.0875    magn:    0.0000    constr:    0.0000
     atom:   20    charge:    2.0847    magn:    0.0001    constr:    0.0000
     atom:   21    charge:    2.0847    magn:    0.0001    constr:    0.0000
     atom:   22    charge:    3.1199    magn:    0.0000    constr:    0.0000
     atom:   23    charge:    2.0908    magn:    0.0003    constr:    0.0000
     atom:   24    charge:    2.0754    magn:   -0.0000    constr:    0.0000
     atom:   25    charge:    2.0867    magn:    0.0000    constr:    0.0000
     atom:   26    charge:    3.1127    magn:   -0.0003    constr:    0.0000
     atom:   27    charge:    2.0802    magn:    0.0027    constr:    0.0000
     atom:   28    charge:    2.0839    magn:    0.0008    constr:    0.0000
     atom:   29    charge:    2.0860    magn:    0.0009    constr:    0.0000
     atom:   30    charge:    3.1171    magn:   -0.0008    constr:    0.0000
     atom:   31    charge:    2.0825    magn:    0.0006    constr:    0.0000
     atom:   32    charge:    2.0829    magn:    0.0065    constr:    0.0000
     atom:   33    charge:    2.0625    magn:    0.0008    constr:    0.0000
     atom:   34    charge:    3.1239    magn:   -0.0000    constr:    0.0000
     atom:   35    charge:    2.0876    magn:    0.0000    constr:    0.0000
     atom:   36    charge:    2.0847    magn:    0.0001    constr:    0.0000
     atom:   37    charge:    2.0847    magn:    0.0001    constr:    0.0000
     atom:   38    charge:    3.1200    magn:    0.0000    constr:    0.0000
     atom:   39    charge:    2.0839    magn:    0.0002    constr:    0.0000
     atom:   40    charge:    2.0756    magn:   -0.0001    constr:    0.0000
     atom:   41    charge:    2.0870    magn:   -0.0000    constr:    0.0000
     atom:   42    charge:    3.1151    magn:   -0.0003    constr:    0.0000
     atom:   43    charge:    2.0803    magn:    0.0032    constr:    0.0000
     atom:   44    charge:    2.0851    magn:    0.0010    constr:    0.0000
     atom:   45    charge:    2.0858    magn:    0.0006    constr:    0.0000
     atom:   46    charge:    3.1147    magn:   -0.0007    constr:    0.0000
     atom:   47    charge:    2.0807    magn:    0.0047    constr:    0.0000
     atom:   48    charge:    2.0837    magn:    0.0135    constr:    0.0000
     atom:   49    charge:    2.0518    magn:    0.2394    constr:    0.0000
     atom:   50    charge:    0.6730    magn:    0.0549    constr:    0.0000
     atom:   51    charge:    0.4223    magn:    0.0007    constr:    0.0000
     atom:   52    charge:    0.4223    magn:    0.0008    constr:    0.0000
     atom:   53    charge:    0.3675    magn:    0.0234    constr:    0.0000
     atom:   54    charge:    0.4298    magn:    0.0007    constr:    0.0000

     total cpu time spent up to now is     3247.2 secs

     End of self-consistent calculation

 ------ SPIN UP ------------


          k = 0.0000 0.0000 0.0000 ( 34665 PWs)   bands (ev):

   -58.3045 -58.2695 -57.3865 -57.3808 -57.3477 -57.3101 -57.2586 -57.0898
   -57.0631 -57.0576 -57.0192 -56.9208 -56.8960 -56.8856 -56.7999 -56.7615
   -34.7497 -34.5731 -34.5443 -34.5111 -34.4161 -34.3593 -33.8815 -33.8692
   -33.7510 -33.6781 -33.6361 -33.5932 -33.5608 -33.5540 -33.5481 -33.5415
   -33.5299 -33.5151 -33.4897 -33.4882 -33.4737 -33.4720 -33.4694 -33.4504
   -33.3402 -33.3349 -33.3303 -33.3278 -33.3149 -33.2868 -33.2812 -33.2616
   -33.2410 -33.2360 -33.2353 -33.2259 -33.1974 -33.1753 -33.1408 -33.1394
   -33.1012 -33.0779 -33.0495 -33.0278 -33.0143 -32.9888 -32.9478 -32.8812
   -18.4699 -18.0369 -17.8126 -17.7124 -17.5517 -17.5304 -17.4862 -17.3846
   -17.3577 -17.2579 -17.0457 -17.0250 -17.0172 -16.9851 -16.9244 -16.8550
   -16.8359 -16.7983 -16.7406 -16.7085 -16.6895 -16.6571 -16.5933 -16.5891
   -16.4663 -16.4185 -16.3996 -16.3620 -16.3260 -16.1468 -16.0860 -15.6002
   -15.5394 -11.2271  -6.0484  -5.4972  -5.2830  -5.2031  -5.0943  -4.9922
    -4.9823  -4.9192  -4.8791  -4.7331  -4.6504  -4.6001  -4.5860  -4.5108
    -4.4295  -4.4142  -4.3529  -4.3167  -4.2330  -4.2192  -4.1959  -4.1425
    -4.0314  -4.0240  -3.9795  -3.9087  -3.8925  -3.8864  -3.8837  -3.8230
    -3.7877  -3.7771  -3.7505  -3.6570  -3.6300  -3.5833  -3.5416  -3.5284
    -3.5147  -3.4192  -3.4081  -3.3608  -3.2733  -3.2327  -3.1883  -3.0872
    -2.9209  -2.8971  -2.8512  -2.8022  -2.7459  -2.6940  -2.6724  -2.6613
    -2.6337  -2.5370  -2.4859  -2.4389  -2.3779  -2.3330  -2.2481  -2.2296
    -2.2251  -2.1602  -2.0690  -2.0414  -1.9993  -1.9594  -1.9300  -1.8989
    -1.8535  -1.7375  -1.6939  -1.6682  -1.6406  -1.6306  -1.5861  -1.5038
    -1.4207  -1.3670  -1.3527  -1.3375  -1.3135  -1.2689  -1.2236  -1.1705
    -1.1597  -1.1108  -1.1080  -1.0919  -1.0633  -0.9798  -0.8733  -0.8317
    -0.8084  -0.6933  -0.6870  -0.6243  -0.5524  -0.5109  -0.4831  -0.1865
     1.0263   1.1231   1.4180   1.6963   1.8045   1.9225   1.9700   2.0165
     2.0466   2.1339   2.2106   2.2313   2.2775   2.3963   2.4716   2.4852
     2.4925   2.5196   2.6223   2.6676   2.6724   2.6889   2.7112   2.8279
     2.8429   2.8874   2.9018   2.9546   2.9694   3.0224   3.0309   3.0526
     3.1064   3.1616   3.2001   3.2009   3.2486   3.2566   3.4122   3.4469
     3.4792   3.5215   3.5986   3.6272   3.6713   3.7152   3.8297   3.9570
     4.1048   4.1357   4.3274   4.4733   4.5953   4.7075   4.7853   4.8359
     5.0860   5.1338   5.2108   5.3543   5.3987   5.4042   5.4266   5.4338
     5.4480   5.5235   5.5556   5.6632   5.7197   5.7356   5.9071   5.9196
     5.9562   6.0759   6.0950   6.1374   6.2178   6.2965   6.4233   6.4906
     6.5433   6.5636   6.7834   6.8150   7.2129   7.9182   8.1519   8.1777
     8.3511   8.3909   8.6423   8.7123   8.7537   8.9656   9.1478   9.2498
     9.2976   9.4492   9.6205

          k = 0.0000 0.0280 0.0000 ( 34717 PWs)   bands (ev):

   -58.3022 -58.2718 -57.3848 -57.3791 -57.3501 -57.3112 -57.2582 -57.0896
   -57.0632 -57.0559 -57.0212 -56.9185 -56.8963 -56.8879 -56.7974 -56.7640
   -34.7243 -34.5711 -34.5462 -34.5049 -34.4227 -34.3863 -33.8561 -33.8437
   -33.7302 -33.6718 -33.6299 -33.5906 -33.5678 -33.5504 -33.5424 -33.5342
   -33.5291 -33.5169 -33.5137 -33.4966 -33.4888 -33.4720 -33.4638 -33.4441
   -33.3342 -33.3283 -33.3153 -33.3128 -33.3086 -33.3034 -33.2788 -33.2599
   -33.2457 -33.2378 -33.2359 -33.2253 -33.2016 -33.1993 -33.1470 -33.1334
   -33.1130 -33.0744 -33.0556 -33.0277 -33.0141 -32.9936 -32.9752 -32.9099
   -18.4116 -17.9773 -17.7627 -17.6822 -17.6067 -17.5071 -17.4372 -17.3726
   -17.3265 -17.2886 -17.0966 -17.0040 -16.9959 -16.9742 -16.9272 -16.8763
   -16.7965 -16.7739 -16.7613 -16.7362 -16.7078 -16.6821 -16.6184 -16.5668
   -16.4804 -16.4438 -16.4064 -16.3853 -16.3582 -16.1656 -16.1276 -15.6143
   -15.5649 -11.2280  -5.9630  -5.4130  -5.2036  -5.1325  -5.0242  -4.9560
    -4.9258  -4.8979  -4.8081  -4.7298  -4.6689  -4.6541  -4.5270  -4.5161
    -4.4170  -4.3772  -4.3634  -4.3235  -4.2581  -4.2127  -4.1993  -4.1776
    -4.1000  -4.0677  -4.0172  -4.0004  -3.9787  -3.9714  -3.9222  -3.8546
    -3.8170  -3.7945  -3.7541  -3.7379  -3.7125  -3.6438  -3.5547  -3.4379
    -3.4029  -3.3213  -3.3025  -3.3009  -3.2682  -3.1241  -3.1046  -2.9451
    -2.9039  -2.8826  -2.8016  -2.7489  -2.7444  -2.7213  -2.6878  -2.6517
    -2.5983  -2.5176  -2.4581  -2.4428  -2.4155  -2.2798  -2.2554  -2.2233
    -2.2125  -2.1532  -2.1447  -2.0282  -1.9841  -1.9578  -1.9257  -1.9133
    -1.8736  -1.7675  -1.7581  -1.7191  -1.6801  -1.6104  -1.5824  -1.5721
    -1.5016  -1.4603  -1.3910  -1.3778  -1.3750  -1.3582  -1.2847  -1.2714
    -1.2351  -1.1748  -1.1442  -1.0699  -0.9934  -0.9533  -0.9275  -0.8969
    -0.8763  -0.8390  -0.7295  -0.5994  -0.5731  -0.5594  -0.5392  -0.2275
     1.1589   1.1641   1.4192   1.8326   1.8769   1.8944   1.9270   2.0034
     2.0619   2.0799   2.3008   2.3091   2.3419   2.4590   2.4950   2.5155
     2.5233   2.5451   2.5499   2.5985   2.7156   2.7333   2.8033   2.8147
     2.8366   2.9010   2.9375   2.9657   2.9824   2.9952   3.0163   3.0672
     3.0875   3.1238   3.1771   3.2359   3.2483   3.3286   3.4369   3.4778
     3.5136   3.5444   3.5664   3.5895   3.6447   3.6681   3.7880   3.9091
     4.0592   4.2029   4.2837   4.5267   4.7060   4.7088   4.8154   4.9109
     5.1129   5.1742   5.2568   5.3037   5.3736   5.4131   5.4358   5.4797
     5.5079   5.5360   5.5503   5.6625   5.7056   5.7150   5.8237   5.8849
     5.9470   5.9927   6.0366   6.0522   6.1815   6.2518   6.3894   6.4346
     6.4522   6.5542   6.7245   6.8179   7.3181   7.4544   7.9911   8.0711
     8.3434   8.4993   8.5298   8.7040   8.7808   8.9901   9.1114   9.3087
     9.3692   9.4472   9.5209

          k = 0.0000 0.0560 0.0000 ( 34721 PWs)   bands (ev):

   -58.2958 -58.2783 -57.3814 -57.3740 -57.3565 -57.3134 -57.2574 -57.0891
   -57.0636 -57.0513 -57.0261 -56.9120 -56.8967 -56.8944 -56.7907 -56.7707
   -34.6544 -34.5659 -34.5514 -34.4877 -34.4594 -34.4402 -33.7863 -33.7743
   -33.6795 -33.6548 -33.6132 -33.5910 -33.5902 -33.5844 -33.5697 -33.5663
   -33.5383 -33.5292 -33.5120 -33.4935 -33.4700 -33.4653 -33.4620 -33.4099
   -33.3688 -33.3241 -33.3217 -33.3068 -33.2802 -33.2703 -33.2552 -33.2549
   -33.2537 -33.2455 -33.2424 -33.2240 -33.2167 -33.2087 -33.1644 -33.1325
   -33.1172 -33.0723 -33.0716 -33.0491 -33.0272 -33.0140 -33.0056 -32.9803
   -18.2505 -17.8126 -17.7904 -17.6328 -17.5994 -17.4093 -17.3903 -17.3722
   -17.3066 -17.2642 -17.2298 -17.0433 -16.9866 -16.9198 -16.9162 -16.8989
   -16.8401 -16.8156 -16.7271 -16.7035 -16.6982 -16.6725 -16.6221 -16.5596
   -16.5130 -16.5076 -16.4518 -16.4399 -16.4132 -16.2312 -16.2081 -15.6428
   -15.6186 -11.2299  -5.7236  -5.1802  -5.0445  -4.9876  -4.9518  -4.9161
    -4.8472  -4.8311  -4.8139  -4.7699  -4.7319  -4.5524  -4.5068  -4.4641
    -4.3925  -4.3914  -4.3497  -4.3187  -4.3042  -4.2861  -4.2484  -4.2119
    -4.2074  -4.1902  -4.1290  -4.0572  -4.0134  -3.9743  -3.9641  -3.9069
    -3.8754  -3.8180  -3.7873  -3.7385  -3.6373  -3.5424  -3.4104  -3.4034
    -3.3628  -3.2843  -3.2450  -3.1339  -3.0877  -3.0692  -3.0376  -3.0097
    -2.9664  -2.9561  -2.8252  -2.7956  -2.7386  -2.6943  -2.6492  -2.5547
    -2.4818  -2.4732  -2.4393  -2.3534  -2.3006  -2.2952  -2.2201  -2.1868
    -2.1517  -2.1376  -2.1174  -2.0851  -2.0524  -2.0086  -1.9937  -1.9680
    -1.9319  -1.8899  -1.8797  -1.8594  -1.8111  -1.7505  -1.6553  -1.6054
    -1.5936  -1.5763  -1.5108  -1.4720  -1.4497  -1.4443  -1.4298  -1.3752
    -1.2906  -1.2698  -1.2131  -1.1917  -1.0881  -1.0011  -0.9764  -0.9427
    -0.8581  -0.8347  -0.7361  -0.7146  -0.6194  -0.5808  -0.5631  -0.3309
     1.2879   1.4296   1.5023   1.7235   1.8002   1.8932   1.9639   2.0616
     2.1421   2.2779   2.2830   2.3347   2.4188   2.4879   2.5072   2.5333
     2.5743   2.6136   2.6640   2.7108   2.7545   2.7717   2.8029   2.8513
     2.8668   2.8856   2.8954   2.9652   3.0116   3.0297   3.0387   3.0655
     3.1266   3.1598   3.1831   3.2614   3.3098   3.3412   3.3880   3.4357
     3.4735   3.4892   3.5650   3.6129   3.6761   3.6879   3.7274   3.8034
     3.9260   4.1610   4.3252   4.6541   4.7444   4.8448   4.9365   5.0743
     5.0803   5.1775   5.2841   5.3355   5.4037   5.4390   5.4723   5.5014
     5.5019   5.5637   5.5834   5.6497   5.6549   5.7554   5.7738   5.8141
     5.8486   5.8695   5.8901   5.9327   6.1191   6.1595   6.2979   6.3703
     6.4254   6.4440   6.7217   6.7500   6.9949   7.2103   7.6110   7.7461
     8.2019   8.3801   8.7048   8.8231   8.8363   8.8883   9.1836   9.3442
     9.4207   9.6048   9.7103

          k = 0.0000-0.0840 0.0000 ( 34678 PWs)   bands (ev):

   -58.2877 -58.2864 -57.3798 -57.3676 -57.3633 -57.3146 -57.2571 -57.0889
   -57.0639 -57.0480 -57.0296 -56.9036 -56.9029 -56.8970 -56.7840 -56.7775
   -34.5595 -34.5585 -34.5576 -34.5570 -34.4646 -34.4634 -33.7025 -33.6893
   -33.6857 -33.6469 -33.6455 -33.6398 -33.6082 -33.5920 -33.5880 -33.5772
   -33.5367 -33.5310 -33.5114 -33.5027 -33.4671 -33.4607 -33.3988 -33.3839
   -33.3789 -33.3630 -33.3256 -33.3209 -33.3037 -33.2724 -33.2594 -33.2505
   -33.2490 -33.2485 -33.2238 -33.2219 -33.1735 -33.1488 -33.1479 -33.1403
   -33.1259 -33.1235 -33.0952 -33.0945 -33.0276 -33.0193 -33.0164 -33.0105
   -18.0254 -18.0246 -17.5927 -17.5836 -17.5098 -17.4862 -17.4859 -17.3954
   -17.2585 -17.2176 -17.1300 -17.1047 -17.0726 -17.0375 -16.8920 -16.8452
   -16.8082 -16.8078 -16.8064 -16.6749 -16.6130 -16.6097 -16.6033 -16.5794
   -16.5478 -16.5253 -16.5075 -16.4752 -16.4661 -16.2736 -16.2495 -15.6521
   -15.6521 -11.2308  -5.3841  -5.3838  -4.9120  -4.8878  -4.8868  -4.8740
    -4.8519  -4.7703  -4.7587  -4.7195  -4.6588  -4.6043  -4.5672  -4.5604
    -4.4918  -4.4694  -4.4462  -4.3919  -4.3761  -4.2659  -4.2538  -4.2459
    -4.1587  -4.1167  -4.0667  -4.0321  -3.9937  -3.9018  -3.8837  -3.8618
    -3.8090  -3.7681  -3.7169  -3.6734  -3.6600  -3.6487  -3.6232  -3.4105
    -3.3613  -3.3469  -3.1491  -3.0773  -3.0716  -3.0304  -2.9285  -2.9268
    -2.9177  -2.8498  -2.8268  -2.7916  -2.7735  -2.6937  -2.6695  -2.6442
    -2.5217  -2.5025  -2.4202  -2.4038  -2.3958  -2.3738  -2.3108  -2.2413
    -2.2272  -2.1653  -2.1190  -2.0566  -2.0052  -1.9798  -1.9756  -1.9702
    -1.9658  -1.9414  -1.8378  -1.7983  -1.7781  -1.7281  -1.6920  -1.6565
    -1.6407  -1.6099  -1.5910  -1.5162  -1.5074  -1.4651  -1.4455  -1.4215
    -1.3814  -1.3309  -1.2778  -1.1778  -1.1375  -1.1160  -1.0903  -1.0604
    -0.8379  -0.8144  -0.6172  -0.6082  -0.6030  -0.5950  -0.5459  -0.4973
     1.4841   1.4868   1.6364   1.6370   1.7160   1.7168   2.0870   2.0878
     2.1510   2.2059   2.3767   2.4113   2.4478   2.4940   2.5418   2.5493
     2.6563   2.6681   2.6774   2.6912   2.7432   2.7537   2.8113   2.8141
     2.9140   2.9491   2.9927   3.0204   3.0253   3.0284   3.0348   3.0383
     3.0456   3.2266   3.2361   3.2667   3.2993   3.3412   3.3674   3.3976
     3.4348   3.4496   3.5048   3.6268   3.6974   3.7366   3.7512   3.7931
     3.8474   4.0382   4.3776   4.7585   4.8340   4.8676   4.8683   5.0539
     5.1459   5.2255   5.3163   5.3321   5.3667   5.4098   5.4702   5.5447
     5.5665   5.5983   5.6011   5.6886   5.7012   5.7204   5.7310   5.7444
     5.7700   5.8107   5.8438   5.9445   6.0266   6.1595   6.2844   6.3847
     6.4620   6.4782   6.5891   6.6093   6.9322   6.9827   7.4472   7.6128
     8.0358   8.2387   8.7193   8.9339   9.1285   9.2309   9.3483   9.3498
     9.4553   9.6156   9.7022

          k = 0.0253 0.0000 0.0000 ( 34707 PWs)   bands (ev):

   -58.3045 -58.2695 -57.3861 -57.3812 -57.3477 -57.3101 -57.2586 -57.0898
   -57.0629 -57.0578 -57.0192 -56.9208 -56.8960 -56.8856 -56.7999 -56.7615
   -34.7501 -34.5731 -34.5443 -34.5103 -34.4162 -34.3593 -33.8817 -33.8711
   -33.7511 -33.6702 -33.6360 -33.5933 -33.5642 -33.5543 -33.5503 -33.5418
   -33.5300 -33.5184 -33.4893 -33.4883 -33.4730 -33.4699 -33.4677 -33.4506
   -33.3401 -33.3359 -33.3283 -33.3269 -33.3119 -33.2868 -33.2813 -33.2627
   -33.2463 -33.2354 -33.2353 -33.2258 -33.1974 -33.1755 -33.1394 -33.1392
   -33.1007 -33.0779 -33.0495 -33.0319 -33.0133 -32.9888 -32.9479 -32.8813
   -18.4253 -17.9991 -17.7910 -17.7848 -17.5614 -17.4572 -17.4495 -17.3839
   -17.3622 -17.3216 -17.1069 -17.0385 -17.0134 -16.9797 -16.9272 -16.8922
   -16.8578 -16.7949 -16.7648 -16.7428 -16.6388 -16.5966 -16.5872 -16.5794
   -16.4645 -16.4436 -16.4002 -16.3839 -16.3236 -16.1451 -16.0861 -15.5992
   -15.5392 -11.2270  -5.9236  -5.3907  -5.2148  -5.1996  -5.0744  -5.0245
    -4.9705  -4.9226  -4.8804  -4.7350  -4.6983  -4.5839  -4.5801  -4.5127
    -4.4847  -4.4092  -4.3279  -4.2633  -4.2584  -4.1985  -4.1928  -4.1055
    -4.0299  -3.9971  -3.9900  -3.9155  -3.9000  -3.8582  -3.8486  -3.7976
    -3.7854  -3.7311  -3.6762  -3.6009  -3.5626  -3.5540  -3.5233  -3.5006
    -3.4436  -3.4152  -3.3188  -3.3152  -3.2740  -3.2578  -3.2376  -3.1516
    -3.0125  -2.9019  -2.8383  -2.8179  -2.7707  -2.7431  -2.7002  -2.6702
    -2.6116  -2.5581  -2.5400  -2.4980  -2.4350  -2.3816  -2.3327  -2.2663
    -2.2477  -2.1986  -2.0908  -2.0456  -2.0045  -1.9552  -1.8831  -1.8506
    -1.8272  -1.7981  -1.7126  -1.6246  -1.5787  -1.5708  -1.5450  -1.5087
    -1.4772  -1.4327  -1.4285  -1.3927  -1.3339  -1.3028  -1.2907  -1.2210
    -1.1860  -1.1553  -1.1058  -1.0809  -1.0413  -1.0220  -0.9560  -0.9112
    -0.8342  -0.8260  -0.6705  -0.6437  -0.6064  -0.5889  -0.5574  -0.2460
     1.1089   1.1234   1.4171   1.7839   1.8200   1.9052   1.9316   2.0507
     2.0867   2.1185   2.2050   2.2458   2.3391   2.3845   2.4428   2.5067
     2.5290   2.5975   2.6298   2.6491   2.6793   2.7044   2.8133   2.8273
     2.8476   2.8508   2.8924   2.9015   2.9464   3.0280   3.0766   3.1351
     3.1919   3.2037   3.2168   3.2187   3.2432   3.3105   3.4079   3.4439
     3.4898   3.5453   3.5939   3.6357   3.7006   3.7653   3.7866   3.9103
     4.0534   4.1916   4.2655   4.4268   4.5822   4.6250   4.8107   4.8293
     4.9609   4.9852   5.0884   5.1723   5.3048   5.3178   5.4291   5.5301
     5.5593   5.7106   5.7427   5.9064   5.9145   5.9395   5.9634   5.9867
     6.0249   6.0341   6.0711   6.1706   6.2293   6.2620   6.4415   6.4971
     6.5441   6.6157   6.7412   6.8116   7.2584   7.6725   7.7611   8.0224
     8.2277   8.3007   8.3785   8.6906   8.7600   8.9674   9.1033   9.2262
     9.4085   9.5024   9.7734

          k = 0.0253 0.0280 0.0000 ( 34687 PWs)   bands (ev):

   -58.3022 -58.2718 -57.3844 -57.3795 -57.3501 -57.3112 -57.2582 -57.0895
   -57.0630 -57.0561 -57.0212 -56.9185 -56.8962 -56.8879 -56.7974 -56.7640
   -34.7247 -34.5711 -34.5462 -34.5041 -34.4226 -34.3863 -33.8563 -33.8457
   -33.7303 -33.6641 -33.6298 -33.5908 -33.5650 -33.5507 -33.5474 -33.5375
   -33.5296 -33.5179 -33.5162 -33.4962 -33.4888 -33.4660 -33.4641 -33.4447
   -33.3344 -33.3242 -33.3152 -33.3144 -33.3049 -33.3032 -33.2788 -33.2609
   -33.2500 -33.2372 -33.2360 -33.2269 -33.2012 -33.1992 -33.1451 -33.1334
   -33.1134 -33.0744 -33.0556 -33.0299 -33.0143 -32.9936 -32.9752 -32.9099
   -18.3680 -17.9407 -17.7734 -17.7372 -17.5209 -17.5185 -17.4107 -17.3658
   -17.3489 -17.3171 -17.1112 -17.0681 -16.9968 -16.9659 -16.9166 -16.8749
   -16.8282 -16.8028 -16.7934 -16.7311 -16.6681 -16.6643 -16.6116 -16.5476
   -16.4859 -16.4635 -16.4084 -16.4036 -16.3552 -16.1638 -16.1283 -15.6133
   -15.5649 -11.2279  -5.8386  -5.3073  -5.1418  -5.1258  -4.9912  -4.9545
    -4.9256  -4.9048  -4.8195  -4.6957  -4.6748  -4.6335  -4.5314  -4.4959
    -4.4372  -4.3994  -4.3110  -4.2919  -4.2419  -4.2046  -4.1809  -4.1533
    -4.1247  -4.0929  -4.0302  -3.9950  -3.9520  -3.9391  -3.8972  -3.8214
    -3.7977  -3.7794  -3.7277  -3.7218  -3.6405  -3.6092  -3.5237  -3.3997
    -3.3435  -3.3221  -3.3124  -3.2650  -3.2343  -3.1895  -3.1153  -3.0942
    -2.9280  -2.8922  -2.8383  -2.7772  -2.7481  -2.7087  -2.6765  -2.6376
    -2.6082  -2.5213  -2.4985  -2.4688  -2.4491  -2.3812  -2.3279  -2.3032
    -2.2266  -2.1869  -2.1273  -2.0630  -2.0133  -1.9522  -1.9352  -1.9072
    -1.8415  -1.8307  -1.7721  -1.7473  -1.6944  -1.6104  -1.5969  -1.5524
[...]
    -1.7281  -1.5057  -1.4637  -1.4527  -1.4340  -1.3966  -1.3177  -1.1537
    -1.1429  -1.0863  -1.0689  -1.0529  -0.9695  -0.9097  -0.8704  -0.7859
    -0.7325  -0.7255  -0.6964  -0.6690  -0.5944  -0.5724  -0.5586   0.3014
     1.6030   1.6065   1.6191   1.6244   1.9669   1.9677   2.0966   2.0976
     2.2803   2.3010   2.3143   2.3961   2.4191   2.4891   2.5756   2.6351
     2.6570   2.7017   2.7851   2.8185   2.8752   2.9271   2.9493   2.9772
     2.9917   3.0004   3.0414   3.0993   3.1137   3.2106   3.2363   3.2453
     3.2611   3.2850   3.3423   3.3884   3.4020   3.4072   3.4637   3.4749
     3.4850   3.5129   3.5273   3.5812   3.6385   3.6556   3.7780   3.8793
     3.9145   3.9253   4.1417   4.1422   4.5920   4.6213   4.6438   4.7293
     4.8843   4.9004   4.9330   5.0832   5.1623   5.1673   5.1864   5.4475
     5.6751   5.6841   5.6951   5.9277   5.9330   5.9669   6.0175   6.0205
     6.0953   6.1072   6.1764   6.2680   6.2721   6.2803   6.3845   6.4619
     6.5010   6.6078   7.0671   7.2263   7.3397   7.3967   7.5544   7.5911
     7.7165   7.7701   7.9217   8.1120   8.3015   8.3468   8.4504   8.8690
     9.0116   9.0804   9.2141

          k =-0.0253 0.0280 0.0000 ( 34687 PWs)   bands (ev):

   -58.3024 -58.2720 -57.3845 -57.3795 -57.3501 -57.3112 -57.2590 -57.0936
   -57.0643 -57.0573 -57.0224 -56.9203 -56.9193 -56.8887 -56.8010 -56.7676
   -34.7248 -34.5714 -34.5464 -34.5043 -34.4227 -34.3865 -33.8563 -33.8457
   -33.7311 -33.6641 -33.6298 -33.5909 -33.5650 -33.5508 -33.5474 -33.5383
   -33.5304 -33.5179 -33.5162 -33.4962 -33.4898 -33.4666 -33.4657 -33.4470
   -33.3352 -33.3259 -33.3185 -33.3159 -33.3098 -33.3045 -33.2803 -33.2616
   -33.2506 -33.2379 -33.2374 -33.2286 -33.2120 -33.2018 -33.1650 -33.1342
   -33.1316 -33.0778 -33.0564 -33.0375 -33.0184 -32.9969 -32.9760 -32.9126
   -18.3677 -17.9384 -17.7731 -17.7309 -17.5202 -17.5137 -17.3726 -17.3656
   -17.3423 -17.3124 -17.1088 -17.0659 -16.9812 -16.9361 -16.8700 -16.8275
   -16.7893 -16.7475 -16.7299 -16.6664 -16.6598 -16.5801 -16.5408 -16.4823
   -16.4582 -16.4025 -16.3630 -16.3452 -16.1534 -16.1189 -15.8807 -15.6096
   -15.5609 -10.8267  -5.8385  -5.3070  -5.1408  -5.1226  -4.9910  -4.9498
    -4.9110  -4.8221  -4.6957  -4.6749  -4.6337  -4.5335  -4.4955  -4.4389
    -4.4054  -4.3108  -4.2874  -4.2474  -4.1970  -4.1796  -4.1389  -4.1242
    -4.0908  -4.0441  -4.0060  -3.9888  -3.9510  -3.9106  -3.8784  -3.7967
    -3.7806  -3.7214  -3.6977  -3.6661  -3.6161  -3.5908  -3.4993  -3.3895
    -3.3424  -3.3178  -3.2857  -3.2606  -3.2214  -3.1790  -3.1100  -3.0937
    -2.9174  -2.8795  -2.8198  -2.7752  -2.7192  -2.6828  -2.6719  -2.6148
    -2.5843  -2.5065  -2.4972  -2.4397  -2.4064  -2.3559  -2.2855  -2.2632
    -2.2112  -2.1899  -2.1019  -2.0402  -1.9572  -1.9383  -1.9139  -1.8477
    -1.8369  -1.7887  -1.7431  -1.6827  -1.6332  -1.5927  -1.5599  -1.5085
    -1.4742  -1.4333  -1.4045  -1.3784  -1.3592  -1.3435  -1.3122  -1.2883
    -1.2029  -1.1225  -1.0617  -1.0084  -0.9848  -0.9513  -0.9270  -0.8825
    -0.8407  -0.8179  -0.6295  -0.6077  -0.5834  -0.5201  -0.2629   0.3255
     1.1549   1.2485   1.4325   1.8218   1.8613   1.9284   1.9648   2.0323
     2.0433   2.1926   2.3033   2.3491   2.3905   2.4335   2.4570   2.5069
     2.5271   2.5514   2.5922   2.6525   2.7006   2.7249   2.7806   2.8348
     2.8797   2.9167   2.9332   2.9765   2.9937   3.0175   3.0437   3.0965
     3.1735   3.1941   3.2365   3.2616   3.2973   3.3395   3.4326   3.4678
     3.4979   3.5610   3.6146   3.6455   3.6666   3.7470   3.8238   3.8683
     4.0154   4.2114   4.2874   4.4388   4.6274   4.7258   4.8467   4.8639
     5.0045   5.0283   5.1156   5.2009   5.2441   5.3591   5.4633   5.5512
     5.6626   5.6976   5.7173   5.8058   5.8526   5.8860   5.9121   5.9344
     5.9696   5.9924   6.0674   6.1257   6.1779   6.2845   6.4009   6.4514
     6.4648   6.5834   6.7535   6.8099   7.3756   7.4869   7.7951   7.8943
     8.0893   8.2367   8.4898   8.5353   8.7838   8.8986   9.0783   9.3095
     9.3844   9.5314   9.6155

          k =-0.0253 0.0560 0.0000 ( 34699 PWs)   bands (ev):

   -58.2960 -58.2785 -57.3812 -57.3741 -57.3564 -57.3135 -57.2583 -57.0931
   -57.0648 -57.0526 -57.0273 -56.9208 -56.9128 -56.8952 -56.7943 -56.7743
   -34.6549 -34.5661 -34.5517 -34.4873 -34.4597 -34.4402 -33.7865 -33.7765
   -33.6804 -33.6488 -33.6131 -33.5895 -33.5855 -33.5845 -33.5731 -33.5663
   -33.5400 -33.5300 -33.5167 -33.4948 -33.4816 -33.4643 -33.4536 -33.4129
   -33.3701 -33.3231 -33.3196 -33.3109 -33.2822 -33.2727 -33.2566 -33.2562
   -33.2552 -33.2463 -33.2429 -33.2292 -33.2195 -33.2136 -33.1803 -33.1609
   -33.1179 -33.0748 -33.0730 -33.0499 -33.0344 -33.0208 -33.0089 -32.9831
   -18.2100 -17.8000 -17.7781 -17.6094 -17.5983 -17.4541 -17.3915 -17.3677
   -17.2466 -17.2393 -17.2018 -17.0559 -16.9462 -16.9173 -16.8792 -16.8384
   -16.7955 -16.7417 -16.7310 -16.7156 -16.6815 -16.5959 -16.5459 -16.5291
   -16.4979 -16.4392 -16.4091 -16.4046 -16.2155 -16.1998 -15.8795 -15.6383
   -15.6147 -10.8286  -5.6033  -5.0796  -5.0222  -4.9539  -4.9216  -4.8153
    -4.7933  -4.7558  -4.6857  -4.6713  -4.5239  -4.5071  -4.4440  -4.3934
    -4.3756  -4.3671  -4.3188  -4.2749  -4.2481  -4.2380  -4.2028  -4.1710
    -4.1293  -4.1194  -4.0533  -4.0181  -3.9898  -3.9524  -3.9256  -3.8881
    -3.8272  -3.7952  -3.6956  -3.6785  -3.5796  -3.5322  -3.4557  -3.3825
    -3.3617  -3.2879  -3.1856  -3.1582  -3.1183  -3.1093  -3.0568  -3.0223
    -2.9802  -2.9248  -2.8412  -2.7910  -2.7603  -2.7020  -2.6071  -2.5876
    -2.5224  -2.5083  -2.4542  -2.3892  -2.3737  -2.3161  -2.2981  -2.2569
    -2.1856  -2.1336  -2.1191  -2.0868  -2.0466  -2.0046  -1.9831  -1.9464
    -1.9290  -1.9038  -1.8910  -1.8441  -1.7657  -1.7002  -1.6878  -1.5917
    -1.5704  -1.5422  -1.5164  -1.4827  -1.4414  -1.4109  -1.3818  -1.3228
    -1.2873  -1.2202  -1.1532  -1.0318  -1.0024  -0.9678  -0.9354  -0.8552
    -0.7614  -0.7340  -0.7029  -0.6381  -0.6073  -0.5536  -0.3602   0.3062
     1.2892   1.4712   1.5664   1.7604   1.7758   1.9141   1.9809   2.0605
     2.2676   2.2782   2.3448   2.3811   2.4176   2.4898   2.5249   2.5504
     2.5751   2.5985   2.6561   2.7084   2.7234   2.7670   2.8095   2.8593
     2.8850   2.9199   2.9642   3.0095   3.0352   3.0486   3.0586   3.1121
     3.1615   3.2012   3.2205   3.2912   3.3200   3.3485   3.3803   3.4601
     3.5119   3.5370   3.6151   3.6366   3.6704   3.7295   3.7484   3.8020
     3.8981   4.1019   4.3944   4.5032   4.7183   4.8614   4.9124   4.9635
     4.9979   5.0923   5.1895   5.2101   5.3383   5.3902   5.4364   5.5309
     5.5667   5.6017   5.6543   5.7120   5.7413   5.8063   5.8226   5.8629
     5.9297   5.9456   5.9973   6.0925   6.1352   6.2140   6.3307   6.4340
     6.4591   6.4771   6.7212   6.7714   7.0717   7.2947   7.6709   7.8313
     8.0973   8.2402   8.3186   8.4964   8.7751   8.8975   9.0092   9.1894
     9.3750   9.5525   9.6558

          k =-0.0506 0.0280 0.0000 ( 34685 PWs)   bands (ev):

   -58.3024 -58.2720 -57.3836 -57.3803 -57.3501 -57.3113 -57.2590 -57.0936
   -57.0639 -57.0577 -57.0224 -56.9203 -56.9193 -56.8887 -56.8010 -56.7676
   -34.7256 -34.5713 -34.5464 -34.5027 -34.4227 -34.3866 -33.8567 -33.8498
   -33.7314 -33.6446 -33.6296 -33.5911 -33.5701 -33.5526 -33.5514 -33.5436
   -33.5307 -33.5253 -33.5150 -33.4961 -33.4899 -33.4669 -33.4543 -33.4481
   -33.3354 -33.3193 -33.3177 -33.3158 -33.3055 -33.3041 -33.2805 -33.2636
   -33.2606 -33.2375 -33.2369 -33.2315 -33.2121 -33.2013 -33.1609 -33.1342
   -33.1319 -33.0779 -33.0564 -33.0444 -33.0168 -32.9968 -32.9760 -32.9126
   -18.2593 -17.8613 -17.8487 -17.6982 -17.5849 -17.4528 -17.4352 -17.3416
   -17.3142 -17.2479 -17.1774 -17.0833 -16.9938 -16.9487 -16.9199 -16.8926
   -16.8076 -16.7646 -16.7534 -16.6935 -16.6304 -16.5466 -16.5201 -16.4864
   -16.4582 -16.4034 -16.3870 -16.3500 -16.1499 -16.1193 -15.8815 -15.6077
   -15.5610 -10.8265  -5.5372  -5.1844  -5.1513  -5.1180  -4.9464  -4.8668
    -4.7649  -4.7068  -4.6798  -4.6496  -4.5986  -4.5844  -4.5303  -4.4046
    -4.3605  -4.3202  -4.2389  -4.2128  -4.1775  -4.1623  -4.1456  -4.0533
    -4.0276  -4.0087  -3.9711  -3.9251  -3.8836  -3.8362  -3.8110  -3.7803
    -3.7191  -3.6914  -3.6615  -3.6220  -3.5827  -3.5303  -3.4846  -3.4545
    -3.3783  -3.3660  -3.2967  -3.2625  -3.2015  -3.1455  -3.1156  -3.0554
    -3.0069  -2.9778  -2.8994  -2.8330  -2.7550  -2.6960  -2.6867  -2.6634
    -2.6142  -2.5915  -2.5779  -2.5229  -2.5141  -2.3907  -2.3385  -2.3300
    -2.2675  -2.1988  -2.1831  -2.1565  -2.0782  -2.0080  -2.0017  -1.9406
    -1.9215  -1.8916  -1.8079  -1.7196  -1.7066  -1.6822  -1.6126  -1.5834
    -1.5216  -1.4737  -1.4511  -1.3915  -1.3764  -1.3250  -1.3091  -1.2582
    -1.2421  -1.1185  -1.0554  -1.0324  -1.0084  -0.9543  -0.9222  -0.8744
    -0.8257  -0.7942  -0.7186  -0.6793  -0.6580  -0.5338  -0.3889   0.3103
     1.1418   1.3418   1.4669   1.5677   1.9356   1.9457   1.9682   2.0600
     2.1262   2.2010   2.2559   2.3317   2.4077   2.4418   2.5303   2.5479
     2.5943   2.6527   2.6893   2.7030   2.7568   2.8303   2.8531   2.8836
     2.9421   2.9481   2.9817   2.9865   2.9930   3.1038   3.1110   3.1397
     3.1874   3.2164   3.2915   3.3120   3.3575   3.3843   3.4083   3.4568
     3.4713   3.5493   3.6038   3.6689   3.7443   3.7810   3.8009   3.9022
     3.9599   4.0632   4.1110   4.4085   4.5121   4.6579   4.7497   4.8110
     4.8434   4.9156   4.9680   5.2904   5.3311   5.4137   5.5288   5.5611
     5.6422   5.7685   5.7885   5.8554   5.9003   5.9149   5.9668   6.0574
     6.0955   6.1671   6.2519   6.3359   6.3882   6.4012   6.4448   6.4918
     6.5431   6.5535   6.7133   6.9162   7.0739   7.2196   7.5525   7.6118
     7.7234   8.2154   8.4125   8.4968   8.8668   8.9410   9.0678   9.2253
     9.4258   9.6081   9.6822

          k =-0.0506 0.0560 0.0000 ( 34596 PWs)   bands (ev):

   -58.2960 -58.2784 -57.3808 -57.3745 -57.3565 -57.3135 -57.2583 -57.0931
   -57.0646 -57.0528 -57.0274 -56.9208 -56.9128 -56.8952 -56.7943 -56.7743
   -34.6555 -34.5661 -34.5516 -34.4859 -34.4599 -34.4397 -33.7868 -33.7811
   -33.6805 -33.6331 -33.6129 -33.5887 -33.5871 -33.5843 -33.5675 -33.5663
   -33.5433 -33.5302 -33.5288 -33.4950 -33.4909 -33.4644 -33.4420 -33.4145
   -33.3704 -33.3229 -33.3085 -33.3059 -33.2847 -33.2748 -33.2578 -33.2560
   -33.2549 -33.2461 -33.2424 -33.2392 -33.2202 -33.2139 -33.1796 -33.1567
   -33.1179 -33.0749 -33.0730 -33.0498 -33.0386 -33.0214 -33.0089 -32.9829
   -18.1068 -17.8178 -17.7002 -17.6124 -17.5962 -17.5563 -17.3792 -17.3678
   -17.2175 -17.2050 -17.1162 -17.0939 -16.9763 -16.9108 -16.8663 -16.8413
   -16.8224 -16.8064 -16.7605 -16.7345 -16.7197 -16.6264 -16.5954 -16.5052
   -16.4948 -16.4368 -16.4197 -16.4096 -16.2149 -16.1963 -15.8794 -15.6370
   -15.6151 -10.8284  -5.3007  -4.9906  -4.9400  -4.9320  -4.7821  -4.7744
    -4.7154  -4.6385  -4.5253  -4.5052  -4.4994  -4.4166  -4.4023  -4.3796
    -4.3599  -4.3262  -4.3081  -4.2467  -4.1990  -4.1749  -4.1650  -4.1116
    -4.1011  -4.0559  -4.0428  -3.9912  -3.9777  -3.9025  -3.8836  -3.8271
    -3.7800  -3.7120  -3.6876  -3.6670  -3.6089  -3.5550  -3.5009  -3.4315
    -3.3944  -3.3185  -3.2591  -3.2298  -3.1331  -3.1289  -3.0786  -3.0503
    -2.9942  -2.9765  -2.9568  -2.9008  -2.7990  -2.7625  -2.7478  -2.7047
    -2.6284  -2.5862  -2.5442  -2.5012  -2.4771  -2.4130  -2.3881  -2.3683
    -2.3496  -2.2885  -2.1936  -2.1708  -2.1458  -2.1273  -2.1016  -2.0467
    -2.0118  -1.9700  -1.9429  -1.8695  -1.8469  -1.7804  -1.7295  -1.6552
    -1.5647  -1.5476  -1.5373  -1.4952  -1.4422  -1.3838  -1.3516  -1.3048
    -1.2427  -1.1742  -1.0756  -1.0205  -0.9871  -0.9017  -0.8511  -0.8437
    -0.7921  -0.7053  -0.6911  -0.6698  -0.6545  -0.5517  -0.4740   0.3088
     1.3098   1.4995   1.6481   1.6699   1.8546   2.0057   2.0342   2.0695
     2.2453   2.2581   2.3622   2.3785   2.4348   2.4634   2.5502   2.5871
     2.6524   2.6976   2.7316   2.7462   2.8134   2.8444   2.8729   2.9053
     2.9359   2.9529   3.0086   3.0437   3.0743   3.1154   3.1470   3.1925
     3.1975   3.2525   3.2866   3.3266   3.3357   3.3789   3.4181   3.4688
     3.4833   3.5510   3.5803   3.6429   3.6696   3.7466   3.8062   3.8422
     3.8848   3.9618   4.1544   4.5052   4.5984   4.6180   4.7564   4.8240
     4.8905   4.9669   5.0121   5.1886   5.3037   5.3779   5.4134   5.4456
     5.5965   5.6183   5.6699   5.7188   5.8812   5.8986   5.9891   6.0080
     6.0700   6.1104   6.1716   6.2080   6.3144   6.3386   6.4141   6.4254
     6.5423   6.6162   6.7631   6.8098   7.1814   7.3580   7.5045   7.6207
     7.9409   8.0123   8.1058   8.3816   8.6098   8.7226   8.8051   9.0422
     9.1911   9.3325   9.4363

     the Fermi energy is    -0.2894 ev

!    total energy              =   -3021.14968848 Ry
     Harris-Foulkes estimate   =   -3021.14968864 Ry
     estimated scf accuracy    <       0.00000040 Ry

     The total energy is the sum of the following terms:

     one-electron contribution =  -40440.18134087 Ry
     hartree contribution      =   20291.45949415 Ry
     xc contribution           =    -553.21785203 Ry
     ewald contribution        =   17680.80980806 Ry
     smearing contrib. (-TS)   =      -0.01979779 Ry

     total magnetization       =     1.06 Bohr mag/cell
     absolute magnetization    =     1.23 Bohr mag/cell

     convergence has been achieved in  10 iterations

     Forces acting on atoms (Ry/au):


     negative rho (up, down):  1.190E-02 1.197E-02
     atom    1 type  1   force =     0.00018415   -0.00089762   -0.10471749
     atom    2 type  2   force =     0.00014353    0.00068449    0.04005659
     atom    3 type  1   force =     0.00074686   -0.00174990   -0.02052903
     atom    4 type  2   force =    -0.00326963    0.00312581   -0.00321579
     atom    5 type  1   force =     0.00034375    0.00007340    0.00032347
     atom    6 type  2   force =    -0.00013501   -0.00009727    0.00019652
     atom    7 type  1   force =    -0.00021469   -0.00003955   -0.00021228
     atom    8 type  2   force =    -0.00016159   -0.00017830   -0.00020822
     atom    9 type  1   force =    -0.00003505    0.00056798   -0.10485167
     atom   10 type  2   force =     0.00034744   -0.00021102    0.03602744
     atom   11 type  1   force =     0.00067912    0.00184080    0.00263031
     atom   12 type  2   force =    -0.00519707   -0.00266667   -0.00517920
     atom   13 type  1   force =     0.00041389    0.00009111   -0.00025267
     atom   14 type  2   force =     0.00012742   -0.00007268   -0.00008832
     atom   15 type  1   force =    -0.00005068   -0.00005033   -0.00009945
     atom   16 type  2   force =    -0.00021750    0.00003381   -0.00034598
     atom   17 type  2   force =     0.00000714   -0.00001209    0.06652445
     atom   18 type  1   force =     0.00005638    0.00003280    0.13143524
     atom   19 type  2   force =     0.00017593   -0.00052702   -0.08519510
     atom   20 type  2   force =    -0.05792502    0.00014553   -0.03607280
     atom   21 type  2   force =     0.05781374   -0.00004569   -0.03603410
     atom   22 type  1   force =    -0.00043037    0.00075123    0.08018302
     atom   23 type  2   force =     0.00019648   -0.00004661    0.00004352
     atom   24 type  2   force =     0.00064147    0.00186098   -0.03467223
     atom   25 type  2   force =     0.00413996    0.00332746   -0.00508336
     atom   26 type  1   force =     0.00040610   -0.00004815    0.00008496
     atom   27 type  2   force =    -0.00009580   -0.00013021    0.00002520
     atom   28 type  2   force =     0.00004591   -0.00019385   -0.00002828
     atom   29 type  2   force =     0.00001142   -0.00007426    0.00006382
     atom   30 type  1   force =    -0.00024248   -0.00015965    0.00007316
     atom   31 type  2   force =     0.00012483   -0.00007702   -0.00000995
     atom   32 type  2   force =    -0.00010046   -0.00002967    0.00006200
     atom   33 type  2   force =    -0.00016750    0.00005230    0.06626134
     atom   34 type  1   force =     0.00007655   -0.00003265    0.13121696
     atom   35 type  2   force =     0.00018792   -0.00012799   -0.08480690
     atom   36 type  2   force =    -0.05782053    0.00006614   -0.03568459
     atom   37 type  2   force =     0.05798936   -0.00017327   -0.03608409
     atom   38 type  1   force =    -0.00037692   -0.00020221    0.07985430
     atom   39 type  2   force =     0.00007472   -0.00026443   -0.00008478
     atom   40 type  2   force =     0.00049038    0.00124280   -0.03527776
     atom   41 type  2   force =     0.00588687   -0.00243302   -0.00720885
     atom   42 type  1   force =     0.00024241   -0.00006506    0.00002155
     atom   43 type  2   force =    -0.00019551   -0.00009524    0.00001968
     atom   44 type  2   force =    -0.00000066   -0.00015906   -0.00003751
     atom   45 type  2   force =     0.00001283   -0.00016777    0.00004544
     atom   46 type  1   force =    -0.00022788   -0.00008636    0.00003183
     atom   47 type  2   force =     0.00000058   -0.00013824    0.00008524
     atom   48 type  2   force =    -0.00012446    0.00000618    0.00026524
     atom   49 type  2   force =    -0.00035339   -0.00028093   -0.00010985
     atom   50 type  3   force =     0.00985055   -0.00500354   -0.00913296
     atom   51 type  4   force =     0.00046516   -0.00171121   -0.00060623
     atom   52 type  4   force =    -0.00266132    0.00110443    0.00139526
     atom   53 type  4   force =     0.00002759   -0.00191912   -0.00041985
     atom   54 type  4   force =    -0.01190691    0.00516044    0.00932277

     Total force =     0.342953     Total SCF correction =     0.001233
 !ASE

     Writing output data file calc.save
 
     init_run     :     65.49s CPU     78.44s WALL (       1 calls)
     electrons    :   2758.69s CPU   3168.50s WALL (       1 calls)
     forces       :     48.55s CPU     50.87s WALL (       1 calls)

     Called by init_run:
     wfcinit      :     57.62s CPU     69.65s WALL (       1 calls)
     potinit      :      1.40s CPU      1.69s WALL (       1 calls)

     Called by electrons:
     c_bands      :   2445.80s CPU   2797.73s WALL (      10 calls)
     sum_band     :    268.28s CPU    320.37s WALL (      10 calls)
     v_of_rho     :     11.36s CPU     13.89s WALL (      11 calls)
     newd         :     36.66s CPU     40.33s WALL (      11 calls)
     mix_rho      :      0.45s CPU      0.58s WALL (      10 calls)
     vdW_energy   :      2.63s CPU      2.97s WALL (      12 calls)
     vdW_ffts     :      2.93s CPU      3.72s WALL (      24 calls)
     vdW_v        :      1.16s CPU      1.30s WALL (      12 calls)

     Called by c_bands:
     init_us_2    :      6.24s CPU      6.81s WALL (     880 calls)
     cegterg      :   2407.46s CPU   2756.69s WALL (     400 calls)

     Called by *egterg:
     h_psi        :    880.11s CPU   1148.29s WALL (    2285 calls)
     s_psi        :    152.89s CPU    158.40s WALL (    2285 calls)
     g_psi        :      4.46s CPU      4.58s WALL (    1845 calls)
     cdiaghg      :    859.09s CPU    880.73s WALL (    2245 calls)

     Called by h_psi:
     add_vuspsi   :    154.58s CPU    159.70s WALL (    2285 calls)

     General routines
     calbec       :    226.12s CPU    231.34s WALL (    2725 calls)
     fft          :      5.87s CPU      7.45s WALL (     948 calls)
     ffts         :      0.08s CPU      0.10s WALL (      42 calls)
     fftw         :    484.45s CPU    784.57s WALL (  718718 calls)
     interpolate  :      0.40s CPU      0.56s WALL (      42 calls)
     davcio       :      0.01s CPU      0.95s WALL (      40 calls)
 
     Parallel routines
     fft_scatter  :    242.02s CPU    407.34s WALL (  719708 calls)
 
     PWSCF        : 47m55.16s CPU    55m 1.97s WALL

 
   This run was terminated on:   4:12:44  27Feb2018            

=------------------------------------------------------------------------------=
   JOB DONE.
=------------------------------------------------------------------------------=
