  python dir          : /home/vossj/suncat/lib/python2.7/site-packages/espresso
  espresso dir        : /home/vossj/suncat/esdld/espresso-dynpy-beef/bin
  pseudo dir          : /home/alatimer/bin/psp/esp_psp_w_gbrvRu/
  ase-espresso py git : ffa2778-git



     Program PWSCF v.5.1rc2 (svn rev. ) starts on 10Mar2018 at 11:19:29 

     This program is part of the open-source Quantum ESPRESSO suite
     for quantum simulation of materials; please cite
         "P. Giannozzi et al., J. Phys.:Condens. Matter 21 395502 (2009);
          URL http://www.quantum-espresso.org", 
     in publications or presentations arising from this work. More details at
     http://www.quantum-espresso.org/quote

     Parallel version (MPI), running on    16 processors
     R & G space division:  proc/nbgrp/npool/nimage =      16
     Reading input from pw.inp
     Message from routine read_cards :
     DEPRECATED: no units specified in CELL_PARAMETERS card

     Current dimensions of program PWSCF are:
     Max number of different atomic species (ntypx) = 10
     Max number of k-points (npk) =  40000
     Max angular momentum in pseudopotentials (lmaxx) =  3

     **************************************************************************
     Initializing libbeef V0.1.1 with the BEEF-vdW functional.
     Citation: Wellendorff et al., PRB 85, 235149 (2012).
     **************************************************************************


     IMPORTANT: XC functional enforced from input :
     Exchange-correlation      = BEEF ( 1  4 27 13 2)
     Any further DFT definition will be discarded
     Please, verify this is what you really want


     Subspace diagonalization in iterative solution of the eigenvalue problem:
     a serial algorithm will be used

 
     Parallelization info
     --------------------
     sticks:   dense  smooth     PW     G-vecs:    dense   smooth      PW
     Min         281     112     31                68535    17318    2565
     Max         282     113     32                68545    17369    2582
     Sum        4501    1795    503              1096637   277353   41113
 
     Generating pointlists ...
     new r_m :   0.4125 (alat units)  0.7795 (a.u.) for type    1
     new r_m :   0.4125 (alat units)  0.7795 (a.u.) for type    2
     new r_m :   0.4125 (alat units)  0.7795 (a.u.) for type    3


     bravais-lattice index     =            0
     lattice parameter (alat)  =       1.8897  a.u.
     unit-cell volume          =    7990.9933 (a.u.)^3
     number of atoms/cell      =           51
     number of atomic types    =            3
     number of electrons       =       400.00
     number of Kohn-Sham states=          300
     kinetic-energy cutoff     =      40.4243  Ry
     charge density cutoff     =     404.2426  Ry
     convergence threshold     =      7.3E-07
     mixing beta               =       0.1000
     number of iterations used =           10  plain     mixing
     Exchange-correlation      = BEEF ( 1  4 27 13 2)
     nstep                     =           50


     celldm(1)=   1.889726  celldm(2)=   0.000000  celldm(3)=   0.000000
     celldm(4)=   0.000000  celldm(5)=   0.000000  celldm(6)=   0.000000

     crystal axes: (cart. coord. in units of alat)
               a(1) = (   6.590708   0.000000   0.000000 )  
               a(2) = (   0.000000   5.950229   0.000000 )  
               a(3) = (   0.000000   0.000000  30.195235 )  

     reciprocal axes: (cart. coord. in units 2 pi/alat)
               b(1) = (  0.151729  0.000000  0.000000 )  
               b(2) = (  0.000000  0.168061  0.000000 )  
               b(3) = (  0.000000  0.000000  0.033118 )  


     PseudoPot. # 1 for Ti read from file:
     /home/alatimer/bin/psp/esp_psp_w_gbrvRu/Ti.UPF
     MD5 check sum: 8e4df49b7f0d34bbd5052bf3f5ea0213
     Pseudo is Ultrasoft, Zval = 12.0
     Generated by new atomic code, or converted to UPF format
     Using radial grid of  851 points,  6 beta functions with: 
                l(1) =   0
                l(2) =   0
                l(3) =   1
                l(4) =   1
                l(5) =   2
                l(6) =   2
     Q(r) pseudized with  8 coefficients,  rinner =    1.000   1.000   1.000
                                                       1.000   1.000

     PseudoPot. # 2 for  O read from file:
     /home/alatimer/bin/psp/esp_psp_w_gbrvRu/O.UPF
     MD5 check sum: e057bbcf3229fb5d8c36c0c92f9568b4
     Pseudo is Ultrasoft + core correction, Zval =  6.0
     Generated using "atomic" code by A. Dal Corso  v.5.0.2 svn rev. 9415
     Using radial grid of 1095 points,  4 beta functions with: 
                l(1) =   0
                l(2) =   0
                l(3) =   1
                l(4) =   1
     Q(r) pseudized with 0 coefficients 


     PseudoPot. # 3 for  N read from file:
     /home/alatimer/bin/psp/esp_psp_w_gbrvRu/N.UPF
     MD5 check sum: ed8b6a90f28a53b7d71920e7015d2dd6
     Pseudo is Ultrasoft + core correction, Zval =  5.0
     Generated using "atomic" code by A. Dal Corso  v.5.0.2 svn rev. 9415
     Using radial grid of 1085 points,  4 beta functions with: 
                l(1) =   0
                l(2) =   0
                l(3) =   1
                l(4) =   1
     Q(r) pseudized with 0 coefficients 


     vdW kernel table read from file vdW_kernel_table
     MD5 check sum: 095c7af220d748ca6e76c0b4c6cfb241

     atomic species   valence    mass     pseudopotential
        Ti1           12.00    47.88000     Ti( 1.00)
        O1             6.00    15.99940      O( 1.00)
        N1             5.00    14.00670      N( 1.00)

     Starting magnetic structure 
     atomic species   magnetization
        Ti1          0.250
        O1           0.500
        N1           0.600

     No symmetry found



   Cartesian axes

     site n.     atom                  positions (alat units)
         1           Ti1 tau(   1) = (   1.6476770   0.7437786   2.6545865  )
         2           O1  tau(   2) = (   1.6476770   2.2313359   3.9361215  )
         3           Ti1 tau(   3) = (   1.6476770   2.2313359   5.9499405  )
         4           O1  tau(   4) = (   0.3661420   0.7437786   5.9499405  )
         5           Ti1 tau(   5) = (   1.5280591   0.7315068   9.1973351  )
         6           O1  tau(   6) = (   1.6613943   2.1836906  10.6091769  )
         7           Ti1 tau(   7) = (   1.6665780   2.2096385  12.4157880  )
         8           O1  tau(   8) = (   0.4439715   0.7264440  12.7601561  )
         9           Ti1 tau(   9) = (   1.6476770   3.7188931   2.6545865  )
        10           O1  tau(  10) = (   1.6476770   5.2064503   3.9361215  )
        11           Ti1 tau(  11) = (   1.6476770   5.2064503   5.9499405  )
        12           O1  tau(  12) = (   0.3661420   3.7188931   5.9499405  )
        13           Ti1 tau(  13) = (   1.5319291   3.7072436   9.2118370  )
        14           O1  tau(  14) = (   1.6575607   5.2126413  10.6087893  )
        15           Ti1 tau(  15) = (   1.6606453   5.1916961  12.4165775  )
        16           O1  tau(  16) = (   0.4123725   3.7022030  12.5882193  )
        17           O1  tau(  17) = (   1.6476770   2.2313359   1.3730516  )
        18           Ti1 tau(  18) = (   4.9430310   2.2313359   2.6545865  )
        19           O1  tau(  19) = (   4.9430310   2.2313359   4.6684056  )
        20           O1  tau(  20) = (   6.2245660   0.7437786   2.6545865  )
        21           O1  tau(  21) = (   3.6614961   0.7437786   2.6545865  )
        22           Ti1 tau(  22) = (   4.9430310   0.7437786   5.9499405  )
        23           O1  tau(  23) = (   1.6517842   2.2287041   8.0298356  )
        24           O1  tau(  24) = (   4.9430310   2.2313359   7.2314755  )
        25           O1  tau(  25) = (   2.9292120   0.7437786   5.9499405  )
        26           Ti1 tau(  26) = (   4.8605205   2.2076595   9.4238065  )
        27           O1  tau(  27) = (   4.9553550   2.1639423  11.2756624  )
        28           O1  tau(  28) = (   6.2690671   0.7288246   9.2688367  )
        29           O1  tau(  29) = (   3.6660957   0.7249325   9.2867299  )
        30           Ti1 tau(  30) = (   4.9284588   0.7282168  12.7798302  )
        31           O1  tau(  31) = (   4.9953437   2.2216212  13.8477397  )
        32           O1  tau(  32) = (   2.9112183   0.7266397  12.7651274  )
        33           O1  tau(  33) = (   1.6476770   5.2064503   1.3730516  )
        34           Ti1 tau(  34) = (   4.9430310   5.2064503   2.6545865  )
        35           O1  tau(  35) = (   4.9430310   5.2064503   4.6684056  )
        36           O1  tau(  36) = (   6.2245660   3.7188931   2.6545865  )
        37           O1  tau(  37) = (   3.6614961   3.7188931   2.6545865  )
        38           Ti1 tau(  38) = (   4.9430310   3.7188931   5.9499405  )
        39           O1  tau(  39) = (   1.6524867   5.1852222   8.0294571  )
        40           O1  tau(  40) = (   4.9430310   5.2064503   7.2314755  )
        41           O1  tau(  41) = (   2.9292120   3.7188931   5.9499405  )
        42           Ti1 tau(  42) = (   4.8610151   5.1886528   9.4241876  )
        43           O1  tau(  43) = (   4.9550983   5.2107439  11.2753448  )
        44           O1  tau(  44) = (   6.2713562   3.7024388   9.3047907  )
        45           O1  tau(  45) = (   3.6650622   3.7005085   9.3135888  )
        46           Ti1 tau(  46) = (   5.0160509   3.7038162  12.7585864  )
        47           O1  tau(  47) = (   4.9984032   5.1727849  13.8485277  )
        48           O1  tau(  48) = (   2.9655234   3.7049164  12.5317472  )
        49           O1  tau(  49) = (   2.2548149   3.7063572  14.5693114  )
        50           N1  tau(  50) = (   2.4320298   3.6667063  16.9651815  )
        51           N1  tau(  51) = (   2.1425646   3.6919273  15.8611024  )

     number of k points=    40  Fermi-Dirac smearing, width (Ry)=  0.0073
                       cart. coord. in units 2pi/alat
        k(    1) = (   0.0000000   0.0000000   0.0000000), wk =   0.0277778
        k(    2) = (   0.0000000   0.0280101   0.0000000), wk =   0.0555556
        k(    3) = (   0.0000000   0.0560203   0.0000000), wk =   0.0555556
        k(    4) = (   0.0000000  -0.0840304   0.0000000), wk =   0.0277778
        k(    5) = (   0.0252881   0.0000000   0.0000000), wk =   0.0555556
        k(    6) = (   0.0252881   0.0280101   0.0000000), wk =   0.0555556
        k(    7) = (   0.0252881   0.0560203   0.0000000), wk =   0.0555556
        k(    8) = (   0.0252881  -0.0840304   0.0000000), wk =   0.0555556
        k(    9) = (   0.0505763   0.0000000   0.0000000), wk =   0.0555556
        k(   10) = (   0.0505763   0.0280101   0.0000000), wk =   0.0555556
        k(   11) = (   0.0505763   0.0560203   0.0000000), wk =   0.0555556
        k(   12) = (   0.0505763  -0.0840304   0.0000000), wk =   0.0555556
        k(   13) = (  -0.0758644   0.0000000   0.0000000), wk =   0.0277778
        k(   14) = (  -0.0758644   0.0280101   0.0000000), wk =   0.0555556
        k(   15) = (  -0.0758644   0.0560203   0.0000000), wk =   0.0555556
        k(   16) = (  -0.0758644  -0.0840304   0.0000000), wk =   0.0277778
        k(   17) = (  -0.0252881   0.0280101   0.0000000), wk =   0.0555556
        k(   18) = (  -0.0252881   0.0560203   0.0000000), wk =   0.0555556
        k(   19) = (  -0.0505763   0.0280101   0.0000000), wk =   0.0555556
        k(   20) = (  -0.0505763   0.0560203   0.0000000), wk =   0.0555556
        k(   21) = (   0.0000000   0.0000000   0.0000000), wk =   0.0277778
        k(   22) = (   0.0000000   0.0280101   0.0000000), wk =   0.0555556
        k(   23) = (   0.0000000   0.0560203   0.0000000), wk =   0.0555556
        k(   24) = (   0.0000000  -0.0840304   0.0000000), wk =   0.0277778
        k(   25) = (   0.0252881   0.0000000   0.0000000), wk =   0.0555556
        k(   26) = (   0.0252881   0.0280101   0.0000000), wk =   0.0555556
        k(   27) = (   0.0252881   0.0560203   0.0000000), wk =   0.0555556
        k(   28) = (   0.0252881  -0.0840304   0.0000000), wk =   0.0555556
        k(   29) = (   0.0505763   0.0000000   0.0000000), wk =   0.0555556
        k(   30) = (   0.0505763   0.0280101   0.0000000), wk =   0.0555556
        k(   31) = (   0.0505763   0.0560203   0.0000000), wk =   0.0555556
        k(   32) = (   0.0505763  -0.0840304   0.0000000), wk =   0.0555556
        k(   33) = (  -0.0758644   0.0000000   0.0000000), wk =   0.0277778
        k(   34) = (  -0.0758644   0.0280101   0.0000000), wk =   0.0555556
        k(   35) = (  -0.0758644   0.0560203   0.0000000), wk =   0.0555556
        k(   36) = (  -0.0758644  -0.0840304   0.0000000), wk =   0.0277778
        k(   37) = (  -0.0252881   0.0280101   0.0000000), wk =   0.0555556
        k(   38) = (  -0.0252881   0.0560203   0.0000000), wk =   0.0555556
        k(   39) = (  -0.0505763   0.0280101   0.0000000), wk =   0.0555556
        k(   40) = (  -0.0505763   0.0560203   0.0000000), wk =   0.0555556

     Dense  grid:  1096637 G-vectors     FFT dimensions: (  80,  72, 375)

     Smooth grid:   277353 G-vectors     FFT dimensions: (  54,  45, 240)

     Largest allocated arrays     est. size (Mb)     dimensions
        Kohn-Sham Wavefunctions         9.98 Mb     (    2180,  300)
        NL pseudopotentials            18.89 Mb     (    2180,  568)
        Each V/rho on FFT grid          4.22 Mb     (  138240,   2)
        Each G-vector array             0.52 Mb     (   68538)
        G-vector shells                 0.25 Mb     (   33046)
     Largest temporary arrays     est. size (Mb)     dimensions
        Auxiliary wavefunctions        39.92 Mb     (    2180, 1200)
        Each subspace H/S matrix       21.97 Mb     (    1200, 1200)
        Each <psi_i|beta_j> matrix      2.60 Mb     (     568,  300)
        Arrays for rho mixing          21.09 Mb     (  138240,   10)

     Check: negative/imaginary core charge=   -0.000049    0.000000

     The initial density is read from file :
     ./calc.save/charge-density.dat


     negative rho (up, down):  1.158E-02 1.158E-02


     ************************************************************************
     *
     * You are using vdW-DF for exchange-correlation in this calculation.
     * Please cite the following three references that made this development
     * possible:
     *
     *   M. Dion, H. Rydberg, E. Schroder, D. C. Langreth, and
     *   B. I. Lundqvist, Phys. Rev. Lett. 92, 246401 (2004).
     *
     *   T. Thonhauser, V. R. Cooper, S. Li, A. Puzder, P. Hyldgaard, and
     *   D. C. Langreth, Phys. Rev. B 76, 125112 (2007).
     *
     *   G. Roman-Perez and J. M. Soler, Phys. Rev. Lett. 103, 096102 (2009).
     *
     *
     * If you are using vdW-DF2, please also cite:
     *
     *   K. Lee, E. D. Murray, L. Kong, B. I. Lundqvist, and
     *   D. C. Langreth, Phys. Rev. B 82, 081101(R) (2010).
     *
     *
     * If you are calculating the stress with vdW-DF, please also cite:
     *
     *   R. Sabatini, E. Kucukbenli, B. Kolb, T. Thonhauser, and
     *   S. de Gironcoli, J. Phys.: Condens. Matter 24, 424209 (2012).
     *
     ************************************************************************

     Carrying out vdW-DF run using the following parameters:

     Nqs =      20    Nr_points =    1024   r_max =   100.000
     q_mesh =
               0.00001000     0.04494208     0.09755937     0.15916263
               0.23128650     0.31572767     0.41458969     0.53033537
               0.66584808     0.82450364     1.01025438     1.22772762
               1.48234092     1.78043706     2.12944203     2.53805004
               3.01644009     3.57652955     4.23227104     5.00000000

     Gradients computed in reciprocal space

     ************************************************************************


     Starting wfc are  300 randomized atomic wfcs

     total cpu time spent up to now is       74.0 secs

     Self-consistent Calculation

     iteration #  1     ecut=    40.42 Ry     beta=0.10
     Davidson diagonalization with overlap
     ethr =  1.00E-05,  avg # of iterations = 14.9

     negative rho (up, down):  1.157E-02 1.158E-02
 
     Magnetic moment per site:
     atom:    1    charge:    3.1250    magn:   -0.0002    constr:    0.0000
     atom:    2    charge:    2.0894    magn:    0.0001    constr:    0.0000
     atom:    3    charge:    3.1196    magn:   -0.0001    constr:    0.0000
     atom:    4    charge:    2.0870    magn:    0.0000    constr:    0.0000
     atom:    5    charge:    3.1170    magn:   -0.0001    constr:    0.0000
     atom:    6    charge:    2.0917    magn:    0.0001    constr:    0.0000
     atom:    7    charge:    3.1184    magn:   -0.0000    constr:    0.0000
     atom:    8    charge:    2.0815    magn:    0.0001    constr:    0.0000
     atom:    9    charge:    3.1250    magn:   -0.0002    constr:    0.0000
     atom:   10    charge:    2.0894    magn:    0.0001    constr:    0.0000
     atom:   11    charge:    3.1196    magn:   -0.0001    constr:    0.0000
     atom:   12    charge:    2.0870    magn:    0.0000    constr:    0.0000
     atom:   13    charge:    3.1148    magn:   -0.0001    constr:    0.0000
     atom:   14    charge:    2.0912    magn:    0.0001    constr:    0.0000
     atom:   15    charge:    3.1194    magn:   -0.0000    constr:    0.0000
     atom:   16    charge:    2.0883    magn:    0.0001    constr:    0.0000
     atom:   17    charge:    2.0624    magn:    0.0004    constr:    0.0000
     atom:   18    charge:    3.1239    magn:   -0.0000    constr:    0.0000
     atom:   19    charge:    2.0878    magn:   -0.0000    constr:    0.0000
     atom:   20    charge:    2.0847    magn:   -0.0001    constr:    0.0000
     atom:   21    charge:    2.0847    magn:   -0.0001    constr:    0.0000
     atom:   22    charge:    3.1197    magn:   -0.0000    constr:    0.0000
     atom:   23    charge:    2.0908    magn:    0.0001    constr:    0.0000
     atom:   24    charge:    2.0777    magn:    0.0001    constr:    0.0000
     atom:   25    charge:    2.0869    magn:    0.0000    constr:    0.0000
     atom:   26    charge:    3.1165    magn:   -0.0001    constr:    0.0000
     atom:   27    charge:    2.0824    magn:    0.0002    constr:    0.0000
     atom:   28    charge:    2.0879    magn:    0.0001    constr:    0.0000
     atom:   29    charge:    2.0877    magn:    0.0001    constr:    0.0000
     atom:   30    charge:    3.1167    magn:   -0.0001    constr:    0.0000
     atom:   31    charge:    2.0817    magn:    0.0003    constr:    0.0000
     atom:   32    charge:    2.0843    magn:    0.0001    constr:    0.0000
     atom:   33    charge:    2.0624    magn:    0.0004    constr:    0.0000
     atom:   34    charge:    3.1239    magn:   -0.0000    constr:    0.0000
     atom:   35    charge:    2.0878    magn:   -0.0000    constr:    0.0000
     atom:   36    charge:    2.0847    magn:   -0.0001    constr:    0.0000
     atom:   37    charge:    2.0847    magn:   -0.0001    constr:    0.0000
     atom:   38    charge:    3.1197    magn:   -0.0000    constr:    0.0000
     atom:   39    charge:    2.0912    magn:    0.0001    constr:    0.0000
     atom:   40    charge:    2.0777    magn:    0.0001    constr:    0.0000
     atom:   41    charge:    2.0869    magn:    0.0000    constr:    0.0000
     atom:   42    charge:    3.1181    magn:   -0.0001    constr:    0.0000
     atom:   43    charge:    2.0838    magn:    0.0002    constr:    0.0000
     atom:   44    charge:    2.0865    magn:    0.0001    constr:    0.0000
     atom:   45    charge:    2.0871    magn:    0.0001    constr:    0.0000
     atom:   46    charge:    3.1171    magn:   -0.0001    constr:    0.0000
     atom:   47    charge:    2.0798    magn:    0.0003    constr:    0.0000
     atom:   48    charge:    2.0836    magn:    0.0002    constr:    0.0000
     atom:   49    charge:    2.0520    magn:   -0.0000    constr:    0.0000
     atom:   50    charge:    1.2572    magn:   -0.0000    constr:    0.0000
     atom:   51    charge:    1.2834    magn:    0.0000    constr:    0.0000

     total cpu time spent up to now is      832.7 secs

     total energy              =   -3044.96715870 Ry
     Harris-Foulkes estimate   =   -3044.97409678 Ry
     estimated scf accuracy    <       0.04878333 Ry

     total magnetization       =     0.00 Bohr mag/cell
     absolute magnetization    =     0.01 Bohr mag/cell

     iteration #  2     ecut=    40.42 Ry     beta=0.10
     Davidson diagonalization with overlap
     ethr =  1.22E-05,  avg # of iterations =  2.0

     negative rho (up, down):  1.157E-02 1.157E-02
 
     Magnetic moment per site:
     atom:    1    charge:    3.1251    magn:   -0.0001    constr:    0.0000
     atom:    2    charge:    2.0894    magn:    0.0001    constr:    0.0000
     atom:    3    charge:    3.1196    magn:   -0.0000    constr:    0.0000
     atom:    4    charge:    2.0870    magn:    0.0000    constr:    0.0000
     atom:    5    charge:    3.1170    magn:   -0.0000    constr:    0.0000
     atom:    6    charge:    2.0917    magn:    0.0000    constr:    0.0000
     atom:    7    charge:    3.1184    magn:   -0.0000    constr:    0.0000
     atom:    8    charge:    2.0815    magn:    0.0001    constr:    0.0000
     atom:    9    charge:    3.1251    magn:   -0.0001    constr:    0.0000
     atom:   10    charge:    2.0894    magn:    0.0001    constr:    0.0000
     atom:   11    charge:    3.1196    magn:   -0.0000    constr:    0.0000
     atom:   12    charge:    2.0870    magn:    0.0000    constr:    0.0000
     atom:   13    charge:    3.1148    magn:   -0.0000    constr:    0.0000
     atom:   14    charge:    2.0912    magn:    0.0000    constr:    0.0000
     atom:   15    charge:    3.1194    magn:   -0.0000    constr:    0.0000
     atom:   16    charge:    2.0882    magn:    0.0000    constr:    0.0000
     atom:   17    charge:    2.0623    magn:    0.0003    constr:    0.0000
     atom:   18    charge:    3.1239    magn:   -0.0000    constr:    0.0000
     atom:   19    charge:    2.0878    magn:   -0.0000    constr:    0.0000
     atom:   20    charge:    2.0847    magn:   -0.0001    constr:    0.0000
     atom:   21    charge:    2.0847    magn:   -0.0001    constr:    0.0000
     atom:   22    charge:    3.1197    magn:   -0.0000    constr:    0.0000
     atom:   23    charge:    2.0909    magn:    0.0001    constr:    0.0000
     atom:   24    charge:    2.0778    magn:    0.0001    constr:    0.0000
     atom:   25    charge:    2.0869    magn:    0.0000    constr:    0.0000
     atom:   26    charge:    3.1165    magn:   -0.0001    constr:    0.0000
     atom:   27    charge:    2.0824    magn:    0.0001    constr:    0.0000
     atom:   28    charge:    2.0879    magn:    0.0001    constr:    0.0000
     atom:   29    charge:    2.0877    magn:    0.0001    constr:    0.0000
     atom:   30    charge:    3.1168    magn:   -0.0001    constr:    0.0000
     atom:   31    charge:    2.0817    magn:    0.0002    constr:    0.0000
     atom:   32    charge:    2.0843    magn:    0.0001    constr:    0.0000
     atom:   33    charge:    2.0623    magn:    0.0003    constr:    0.0000
     atom:   34    charge:    3.1239    magn:   -0.0000    constr:    0.0000
     atom:   35    charge:    2.0878    magn:   -0.0000    constr:    0.0000
     atom:   36    charge:    2.0847    magn:   -0.0001    constr:    0.0000
     atom:   37    charge:    2.0847    magn:   -0.0001    constr:    0.0000
     atom:   38    charge:    3.1197    magn:   -0.0000    constr:    0.0000
     atom:   39    charge:    2.0912    magn:    0.0001    constr:    0.0000
     atom:   40    charge:    2.0778    magn:    0.0001    constr:    0.0000
     atom:   41    charge:    2.0869    magn:    0.0000    constr:    0.0000
     atom:   42    charge:    3.1181    magn:   -0.0001    constr:    0.0000
     atom:   43    charge:    2.0838    magn:    0.0001    constr:    0.0000
     atom:   44    charge:    2.0865    magn:    0.0001    constr:    0.0000
     atom:   45    charge:    2.0871    magn:    0.0001    constr:    0.0000
     atom:   46    charge:    3.1171    magn:   -0.0001    constr:    0.0000
     atom:   47    charge:    2.0798    magn:    0.0002    constr:    0.0000
     atom:   48    charge:    2.0836    magn:    0.0001    constr:    0.0000
     atom:   49    charge:    2.0525    magn:   -0.0000    constr:    0.0000
     atom:   50    charge:    1.2592    magn:   -0.0000    constr:    0.0000
     atom:   51    charge:    1.2774    magn:    0.0000    constr:    0.0000

     total cpu time spent up to now is     1022.3 secs

     total energy              =   -3044.95166917 Ry
     Harris-Foulkes estimate   =   -3044.96755850 Ry
     estimated scf accuracy    <       0.03173315 Ry

     total magnetization       =     0.00 Bohr mag/cell
     absolute magnetization    =     0.01 Bohr mag/cell

     iteration #  3     ecut=    40.42 Ry     beta=0.10
     Davidson diagonalization with overlap
     ethr =  7.93E-06,  avg # of iterations =  3.1

     negative rho (up, down):  1.157E-02 1.157E-02
 
     Magnetic moment per site:
     atom:    1    charge:    3.1250    magn:   -0.0001    constr:    0.0000
     atom:    2    charge:    2.0894    magn:    0.0001    constr:    0.0000
     atom:    3    charge:    3.1196    magn:   -0.0000    constr:    0.0000
     atom:    4    charge:    2.0870    magn:    0.0000    constr:    0.0000
     atom:    5    charge:    3.1170    magn:   -0.0000    constr:    0.0000
     atom:    6    charge:    2.0916    magn:    0.0000    constr:    0.0000
     atom:    7    charge:    3.1185    magn:   -0.0000    constr:    0.0000
     atom:    8    charge:    2.0816    magn:    0.0000    constr:    0.0000
     atom:    9    charge:    3.1250    magn:   -0.0001    constr:    0.0000
     atom:   10    charge:    2.0894    magn:    0.0001    constr:    0.0000
     atom:   11    charge:    3.1196    magn:   -0.0000    constr:    0.0000
     atom:   12    charge:    2.0870    magn:    0.0000    constr:    0.0000
     atom:   13    charge:    3.1148    magn:   -0.0000    constr:    0.0000
     atom:   14    charge:    2.0911    magn:    0.0000    constr:    0.0000
     atom:   15    charge:    3.1195    magn:   -0.0000    constr:    0.0000
     atom:   16    charge:    2.0884    magn:    0.0000    constr:    0.0000
     atom:   17    charge:    2.0624    magn:    0.0003    constr:    0.0000
     atom:   18    charge:    3.1239    magn:   -0.0000    constr:    0.0000
     atom:   19    charge:    2.0878    magn:   -0.0000    constr:    0.0000
     atom:   20    charge:    2.0847    magn:   -0.0000    constr:    0.0000
     atom:   21    charge:    2.0847    magn:   -0.0000    constr:    0.0000
     atom:   22    charge:    3.1197    magn:   -0.0000    constr:    0.0000
     atom:   23    charge:    2.0909    magn:    0.0000    constr:    0.0000
     atom:   24    charge:    2.0777    magn:    0.0000    constr:    0.0000
     atom:   25    charge:    2.0869    magn:    0.0000    constr:    0.0000
     atom:   26    charge:    3.1165    magn:   -0.0000    constr:    0.0000
     atom:   27    charge:    2.0824    magn:    0.0001    constr:    0.0000
     atom:   28    charge:    2.0879    magn:    0.0001    constr:    0.0000
     atom:   29    charge:    2.0877    magn:    0.0001    constr:    0.0000
     atom:   30    charge:    3.1169    magn:   -0.0001    constr:    0.0000
     atom:   31    charge:    2.0814    magn:    0.0002    constr:    0.0000
     atom:   32    charge:    2.0842    magn:    0.0000    constr:    0.0000
     atom:   33    charge:    2.0624    magn:    0.0003    constr:    0.0000
     atom:   34    charge:    3.1239    magn:   -0.0000    constr:    0.0000
     atom:   35    charge:    2.0878    magn:   -0.0000    constr:    0.0000
     atom:   36    charge:    2.0847    magn:   -0.0000    constr:    0.0000
     atom:   37    charge:    2.0847    magn:   -0.0000    constr:    0.0000
     atom:   38    charge:    3.1197    magn:   -0.0000    constr:    0.0000
     atom:   39    charge:    2.0912    magn:    0.0000    constr:    0.0000
     atom:   40    charge:    2.0777    magn:    0.0000    constr:    0.0000
     atom:   41    charge:    2.0869    magn:    0.0000    constr:    0.0000
     atom:   42    charge:    3.1181    magn:   -0.0000    constr:    0.0000
     atom:   43    charge:    2.0838    magn:    0.0001    constr:    0.0000
     atom:   44    charge:    2.0865    magn:    0.0001    constr:    0.0000
     atom:   45    charge:    2.0871    magn:    0.0001    constr:    0.0000
     atom:   46    charge:    3.1171    magn:   -0.0001    constr:    0.0000
     atom:   47    charge:    2.0795    magn:    0.0002    constr:    0.0000
     atom:   48    charge:    2.0830    magn:    0.0001    constr:    0.0000
     atom:   49    charge:    2.0522    magn:   -0.0000    constr:    0.0000
     atom:   50    charge:    1.2562    magn:   -0.0000    constr:    0.0000
     atom:   51    charge:    1.2809    magn:    0.0000    constr:    0.0000

     total cpu time spent up to now is     1234.8 secs

     total energy              =   -3044.95440504 Ry
     Harris-Foulkes estimate   =   -3044.95567268 Ry
     estimated scf accuracy    <       0.00319158 Ry

     total magnetization       =     0.00 Bohr mag/cell
     absolute magnetization    =     0.00 Bohr mag/cell

     iteration #  4     ecut=    40.42 Ry     beta=0.10
     Davidson diagonalization with overlap
     ethr =  7.98E-07,  avg # of iterations =  4.8

     negative rho (up, down):  1.157E-02 1.157E-02
 
     Magnetic moment per site:
     atom:    1    charge:    3.1250    magn:   -0.0001    constr:    0.0000
     atom:    2    charge:    2.0894    magn:    0.0001    constr:    0.0000
     atom:    3    charge:    3.1196    magn:   -0.0000    constr:    0.0000
     atom:    4    charge:    2.0870    magn:    0.0000    constr:    0.0000
     atom:    5    charge:    3.1170    magn:   -0.0000    constr:    0.0000
     atom:    6    charge:    2.0917    magn:    0.0000    constr:    0.0000
     atom:    7    charge:    3.1185    magn:   -0.0000    constr:    0.0000
     atom:    8    charge:    2.0816    magn:    0.0000    constr:    0.0000
     atom:    9    charge:    3.1250    magn:   -0.0001    constr:    0.0000
     atom:   10    charge:    2.0894    magn:    0.0001    constr:    0.0000
     atom:   11    charge:    3.1196    magn:   -0.0000    constr:    0.0000
     atom:   12    charge:    2.0870    magn:    0.0000    constr:    0.0000
     atom:   13    charge:    3.1148    magn:   -0.0000    constr:    0.0000
     atom:   14    charge:    2.0911    magn:    0.0000    constr:    0.0000
     atom:   15    charge:    3.1194    magn:   -0.0000    constr:    0.0000
     atom:   16    charge:    2.0884    magn:    0.0000    constr:    0.0000
     atom:   17    charge:    2.0624    magn:    0.0002    constr:    0.0000
     atom:   18    charge:    3.1239    magn:   -0.0000    constr:    0.0000
     atom:   19    charge:    2.0878    magn:   -0.0000    constr:    0.0000
     atom:   20    charge:    2.0847    magn:   -0.0000    constr:    0.0000
     atom:   21    charge:    2.0847    magn:   -0.0000    constr:    0.0000
     atom:   22    charge:    3.1197    magn:   -0.0000    constr:    0.0000
     atom:   23    charge:    2.0909    magn:    0.0000    constr:    0.0000
     atom:   24    charge:    2.0777    magn:    0.0000    constr:    0.0000
     atom:   25    charge:    2.0869    magn:    0.0000    constr:    0.0000
     atom:   26    charge:    3.1165    magn:   -0.0000    constr:    0.0000
     atom:   27    charge:    2.0824    magn:    0.0001    constr:    0.0000
     atom:   28    charge:    2.0879    magn:    0.0001    constr:    0.0000
     atom:   29    charge:    2.0878    magn:    0.0000    constr:    0.0000
     atom:   30    charge:    3.1168    magn:   -0.0001    constr:    0.0000
     atom:   31    charge:    2.0814    magn:    0.0002    constr:    0.0000
     atom:   32    charge:    2.0842    magn:    0.0000    constr:    0.0000
     atom:   33    charge:    2.0624    magn:    0.0002    constr:    0.0000
     atom:   34    charge:    3.1239    magn:   -0.0000    constr:    0.0000
     atom:   35    charge:    2.0878    magn:   -0.0000    constr:    0.0000
     atom:   36    charge:    2.0847    magn:   -0.0000    constr:    0.0000
     atom:   37    charge:    2.0847    magn:   -0.0000    constr:    0.0000
     atom:   38    charge:    3.1197    magn:   -0.0000    constr:    0.0000
     atom:   39    charge:    2.0912    magn:    0.0000    constr:    0.0000
     atom:   40    charge:    2.0777    magn:    0.0000    constr:    0.0000
     atom:   41    charge:    2.0869    magn:    0.0000    constr:    0.0000
     atom:   42    charge:    3.1181    magn:   -0.0000    constr:    0.0000
     atom:   43    charge:    2.0838    magn:    0.0001    constr:    0.0000
     atom:   44    charge:    2.0865    magn:    0.0001    constr:    0.0000
     atom:   45    charge:    2.0871    magn:    0.0000    constr:    0.0000
     atom:   46    charge:    3.1171    magn:   -0.0001    constr:    0.0000
     atom:   47    charge:    2.0795    magn:    0.0002    constr:    0.0000
     atom:   48    charge:    2.0832    magn:    0.0001    constr:    0.0000
     atom:   49    charge:    2.0514    magn:   -0.0000    constr:    0.0000
     atom:   50    charge:    1.2563    magn:   -0.0000    constr:    0.0000
     atom:   51    charge:    1.2815    magn:    0.0000    constr:    0.0000

     total cpu time spent up to now is     1468.7 secs

     total energy              =   -3044.95465704 Ry
     Harris-Foulkes estimate   =   -3044.95476275 Ry
     estimated scf accuracy    <       0.00034401 Ry

     total magnetization       =     0.00 Bohr mag/cell
     absolute magnetization    =     0.00 Bohr mag/cell

     iteration #  5     ecut=    40.42 Ry     beta=0.10
     Davidson diagonalization with overlap
     ethr =  8.60E-08,  avg # of iterations =  3.0

     negative rho (up, down):  1.157E-02 1.157E-02
 
     Magnetic moment per site:
     atom:    1    charge:    3.1250    magn:   -0.0001    constr:    0.0000
     atom:    2    charge:    2.0894    magn:    0.0001    constr:    0.0000
     atom:    3    charge:    3.1196    magn:   -0.0000    constr:    0.0000
     atom:    4    charge:    2.0870    magn:    0.0000    constr:    0.0000
     atom:    5    charge:    3.1170    magn:   -0.0000    constr:    0.0000
     atom:    6    charge:    2.0917    magn:    0.0000    constr:    0.0000
     atom:    7    charge:    3.1185    magn:   -0.0000    constr:    0.0000
     atom:    8    charge:    2.0816    magn:    0.0000    constr:    0.0000
     atom:    9    charge:    3.1250    magn:   -0.0001    constr:    0.0000
     atom:   10    charge:    2.0894    magn:    0.0001    constr:    0.0000
     atom:   11    charge:    3.1196    magn:   -0.0000    constr:    0.0000
     atom:   12    charge:    2.0870    magn:    0.0000    constr:    0.0000
     atom:   13    charge:    3.1148    magn:   -0.0000    constr:    0.0000
     atom:   14    charge:    2.0911    magn:    0.0000    constr:    0.0000
     atom:   15    charge:    3.1194    magn:   -0.0000    constr:    0.0000
     atom:   16    charge:    2.0884    magn:    0.0000    constr:    0.0000
     atom:   17    charge:    2.0624    magn:    0.0002    constr:    0.0000
     atom:   18    charge:    3.1239    magn:   -0.0000    constr:    0.0000
     atom:   19    charge:    2.0878    magn:   -0.0000    constr:    0.0000
     atom:   20    charge:    2.0847    magn:   -0.0000    constr:    0.0000
     atom:   21    charge:    2.0847    magn:   -0.0000    constr:    0.0000
     atom:   22    charge:    3.1197    magn:   -0.0000    constr:    0.0000
     atom:   23    charge:    2.0909    magn:    0.0000    constr:    0.0000
     atom:   24    charge:    2.0777    magn:    0.0000    constr:    0.0000
     atom:   25    charge:    2.0869    magn:    0.0000    constr:    0.0000
     atom:   26    charge:    3.1165    magn:   -0.0000    constr:    0.0000
     atom:   27    charge:    2.0824    magn:    0.0001    constr:    0.0000
     atom:   28    charge:    2.0879    magn:    0.0001    constr:    0.0000
     atom:   29    charge:    2.0877    magn:    0.0000    constr:    0.0000
     atom:   30    charge:    3.1168    magn:   -0.0001    constr:    0.0000
     atom:   31    charge:    2.0814    magn:    0.0001    constr:    0.0000
     atom:   32    charge:    2.0842    magn:    0.0000    constr:    0.0000
     atom:   33    charge:    2.0624    magn:    0.0002    constr:    0.0000
     atom:   34    charge:    3.1239    magn:   -0.0000    constr:    0.0000
     atom:   35    charge:    2.0878    magn:   -0.0000    constr:    0.0000
     atom:   36    charge:    2.0847    magn:   -0.0000    constr:    0.0000
     atom:   37    charge:    2.0847    magn:   -0.0000    constr:    0.0000
     atom:   38    charge:    3.1197    magn:   -0.0000    constr:    0.0000
     atom:   39    charge:    2.0912    magn:    0.0000    constr:    0.0000
     atom:   40    charge:    2.0777    magn:    0.0000    constr:    0.0000
     atom:   41    charge:    2.0869    magn:    0.0000    constr:    0.0000
     atom:   42    charge:    3.1181    magn:   -0.0000    constr:    0.0000
     atom:   43    charge:    2.0838    magn:    0.0001    constr:    0.0000
     atom:   44    charge:    2.0865    magn:    0.0001    constr:    0.0000
     atom:   45    charge:    2.0871    magn:    0.0000    constr:    0.0000
     atom:   46    charge:    3.1171    magn:   -0.0001    constr:    0.0000
     atom:   47    charge:    2.0795    magn:    0.0001    constr:    0.0000
     atom:   48    charge:    2.0833    magn:    0.0001    constr:    0.0000
     atom:   49    charge:    2.0514    magn:   -0.0000    constr:    0.0000
     atom:   50    charge:    1.2559    magn:   -0.0000    constr:    0.0000
     atom:   51    charge:    1.2822    magn:    0.0000    constr:    0.0000

     total cpu time spent up to now is     1674.7 secs

     total energy              =   -3044.95467359 Ry
     Harris-Foulkes estimate   =   -3044.95470594 Ry
     estimated scf accuracy    <       0.00012465 Ry

     total magnetization       =     0.00 Bohr mag/cell
     absolute magnetization    =     0.00 Bohr mag/cell

     iteration #  6     ecut=    40.42 Ry     beta=0.10
     Davidson diagonalization with overlap
     ethr =  3.12E-08,  avg # of iterations =  3.0

     negative rho (up, down):  1.157E-02 1.157E-02
 
     Magnetic moment per site:
     atom:    1    charge:    3.1250    magn:   -0.0001    constr:    0.0000
     atom:    2    charge:    2.0894    magn:    0.0000    constr:    0.0000
     atom:    3    charge:    3.1196    magn:   -0.0000    constr:    0.0000
     atom:    4    charge:    2.0870    magn:    0.0000    constr:    0.0000
     atom:    5    charge:    3.1170    magn:   -0.0000    constr:    0.0000
     atom:    6    charge:    2.0917    magn:    0.0000    constr:    0.0000
     atom:    7    charge:    3.1185    magn:   -0.0000    constr:    0.0000
     atom:    8    charge:    2.0815    magn:    0.0000    constr:    0.0000
     atom:    9    charge:    3.1250    magn:   -0.0001    constr:    0.0000
     atom:   10    charge:    2.0894    magn:    0.0000    constr:    0.0000
     atom:   11    charge:    3.1196    magn:   -0.0000    constr:    0.0000
     atom:   12    charge:    2.0870    magn:    0.0000    constr:    0.0000
     atom:   13    charge:    3.1148    magn:   -0.0000    constr:    0.0000
     atom:   14    charge:    2.0911    magn:    0.0000    constr:    0.0000
     atom:   15    charge:    3.1194    magn:   -0.0000    constr:    0.0000
     atom:   16    charge:    2.0883    magn:    0.0000    constr:    0.0000
     atom:   17    charge:    2.0623    magn:    0.0002    constr:    0.0000
     atom:   18    charge:    3.1239    magn:   -0.0000    constr:    0.0000
     atom:   19    charge:    2.0878    magn:   -0.0000    constr:    0.0000
     atom:   20    charge:    2.0847    magn:   -0.0000    constr:    0.0000
     atom:   21    charge:    2.0847    magn:   -0.0000    constr:    0.0000
     atom:   22    charge:    3.1197    magn:   -0.0000    constr:    0.0000
     atom:   23    charge:    2.0908    magn:    0.0000    constr:    0.0000
     atom:   24    charge:    2.0777    magn:    0.0000    constr:    0.0000
     atom:   25    charge:    2.0869    magn:    0.0000    constr:    0.0000
     atom:   26    charge:    3.1165    magn:   -0.0000    constr:    0.0000
     atom:   27    charge:    2.0824    magn:    0.0001    constr:    0.0000
     atom:   28    charge:    2.0879    magn:    0.0000    constr:    0.0000
     atom:   29    charge:    2.0877    magn:    0.0000    constr:    0.0000
     atom:   30    charge:    3.1168    magn:   -0.0000    constr:    0.0000
     atom:   31    charge:    2.0815    magn:    0.0001    constr:    0.0000
     atom:   32    charge:    2.0843    magn:    0.0000    constr:    0.0000
     atom:   33    charge:    2.0623    magn:    0.0002    constr:    0.0000
     atom:   34    charge:    3.1239    magn:   -0.0000    constr:    0.0000
     atom:   35    charge:    2.0878    magn:   -0.0000    constr:    0.0000
     atom:   36    charge:    2.0847    magn:   -0.0000    constr:    0.0000
     atom:   37    charge:    2.0847    magn:   -0.0000    constr:    0.0000
     atom:   38    charge:    3.1197    magn:   -0.0000    constr:    0.0000
     atom:   39    charge:    2.0912    magn:    0.0000    constr:    0.0000
     atom:   40    charge:    2.0777    magn:    0.0000    constr:    0.0000
     atom:   41    charge:    2.0869    magn:    0.0000    constr:    0.0000
     atom:   42    charge:    3.1181    magn:   -0.0000    constr:    0.0000
     atom:   43    charge:    2.0838    magn:    0.0001    constr:    0.0000
     atom:   44    charge:    2.0865    magn:    0.0000    constr:    0.0000
     atom:   45    charge:    2.0871    magn:    0.0000    constr:    0.0000
     atom:   46    charge:    3.1171    magn:   -0.0000    constr:    0.0000
     atom:   47    charge:    2.0796    magn:    0.0001    constr:    0.0000
     atom:   48    charge:    2.0836    magn:    0.0001    constr:    0.0000
     atom:   49    charge:    2.0517    magn:    0.0000    constr:    0.0000
     atom:   50    charge:    1.2561    magn:   -0.0000    constr:    0.0000
     atom:   51    charge:    1.2821    magn:    0.0000    constr:    0.0000

     total cpu time spent up to now is     1882.0 secs

     total energy              =   -3044.95467745 Ry
     Harris-Foulkes estimate   =   -3044.95468685 Ry
     estimated scf accuracy    <       0.00004720 Ry

     total magnetization       =     0.00 Bohr mag/cell
     absolute magnetization    =     0.00 Bohr mag/cell

     iteration #  7     ecut=    40.42 Ry     beta=0.10
     Davidson diagonalization with overlap
     ethr =  1.18E-08,  avg # of iterations =  3.0

     negative rho (up, down):  1.157E-02 1.157E-02
 
     Magnetic moment per site:
     atom:    1    charge:    3.1250    magn:   -0.0000    constr:    0.0000
     atom:    2    charge:    2.0894    magn:    0.0000    constr:    0.0000
     atom:    3    charge:    3.1196    magn:   -0.0000    constr:    0.0000
     atom:    4    charge:    2.0870    magn:    0.0000    constr:    0.0000
     atom:    5    charge:    3.1170    magn:   -0.0000    constr:    0.0000
     atom:    6    charge:    2.0917    magn:    0.0000    constr:    0.0000
     atom:    7    charge:    3.1185    magn:   -0.0000    constr:    0.0000
     atom:    8    charge:    2.0815    magn:    0.0000    constr:    0.0000
     atom:    9    charge:    3.1250    magn:   -0.0000    constr:    0.0000
     atom:   10    charge:    2.0894    magn:    0.0000    constr:    0.0000
     atom:   11    charge:    3.1196    magn:   -0.0000    constr:    0.0000
     atom:   12    charge:    2.0870    magn:    0.0000    constr:    0.0000
     atom:   13    charge:    3.1148    magn:   -0.0000    constr:    0.0000
     atom:   14    charge:    2.0911    magn:    0.0000    constr:    0.0000
     atom:   15    charge:    3.1194    magn:   -0.0000    constr:    0.0000
     atom:   16    charge:    2.0883    magn:    0.0000    constr:    0.0000
     atom:   17    charge:    2.0624    magn:    0.0001    constr:    0.0000
     atom:   18    charge:    3.1239    magn:   -0.0000    constr:    0.0000
     atom:   19    charge:    2.0878    magn:   -0.0000    constr:    0.0000
     atom:   20    charge:    2.0847    magn:   -0.0000    constr:    0.0000
     atom:   21    charge:    2.0847    magn:   -0.0000    constr:    0.0000
     atom:   22    charge:    3.1197    magn:   -0.0000    constr:    0.0000
     atom:   23    charge:    2.0908    magn:    0.0000    constr:    0.0000
     atom:   24    charge:    2.0777    magn:    0.0000    constr:    0.0000
     atom:   25    charge:    2.0869    magn:    0.0000    constr:    0.0000
     atom:   26    charge:    3.1165    magn:   -0.0000    constr:    0.0000
     atom:   27    charge:    2.0824    magn:    0.0001    constr:    0.0000
     atom:   28    charge:    2.0879    magn:    0.0000    constr:    0.0000
     atom:   29    charge:    2.0877    magn:    0.0000    constr:    0.0000
     atom:   30    charge:    3.1168    magn:   -0.0000    constr:    0.0000
     atom:   31    charge:    2.0815    magn:    0.0001    constr:    0.0000
     atom:   32    charge:    2.0843    magn:    0.0000    constr:    0.0000
     atom:   33    charge:    2.0624    magn:    0.0001    constr:    0.0000
     atom:   34    charge:    3.1239    magn:   -0.0000    constr:    0.0000
     atom:   35    charge:    2.0878    magn:   -0.0000    constr:    0.0000
     atom:   36    charge:    2.0847    magn:   -0.0000    constr:    0.0000
     atom:   37    charge:    2.0847    magn:   -0.0000    constr:    0.0000
     atom:   38    charge:    3.1197    magn:   -0.0000    constr:    0.0000
     atom:   39    charge:    2.0912    magn:    0.0000    constr:    0.0000
     atom:   40    charge:    2.0777    magn:    0.0000    constr:    0.0000
     atom:   41    charge:    2.0869    magn:    0.0000    constr:    0.0000
     atom:   42    charge:    3.1181    magn:   -0.0000    constr:    0.0000
     atom:   43    charge:    2.0838    magn:    0.0001    constr:    0.0000
     atom:   44    charge:    2.0865    magn:    0.0000    constr:    0.0000
     atom:   45    charge:    2.0871    magn:    0.0000    constr:    0.0000
     atom:   46    charge:    3.1171    magn:   -0.0000    constr:    0.0000
     atom:   47    charge:    2.0796    magn:    0.0001    constr:    0.0000
     atom:   48    charge:    2.0835    magn:    0.0000    constr:    0.0000
     atom:   49    charge:    2.0520    magn:    0.0000    constr:    0.0000
     atom:   50    charge:    1.2559    magn:   -0.0000    constr:    0.0000
     atom:   51    charge:    1.2823    magn:    0.0000    constr:    0.0000

     total cpu time spent up to now is     2089.3 secs

     total energy              =   -3044.95467813 Ry
     Harris-Foulkes estimate   =   -3044.95468305 Ry
     estimated scf accuracy    <       0.00001955 Ry

     total magnetization       =     0.00 Bohr mag/cell
     absolute magnetization    =     0.00 Bohr mag/cell

     iteration #  8     ecut=    40.42 Ry     beta=0.10
     Davidson diagonalization with overlap
     ethr =  4.89E-09,  avg # of iterations =  2.0

     negative rho (up, down):  1.157E-02 1.157E-02
 
     Magnetic moment per site:
     atom:    1    charge:    3.1250    magn:   -0.0000    constr:    0.0000
     atom:    2    charge:    2.0894    magn:    0.0000    constr:    0.0000
     atom:    3    charge:    3.1196    magn:   -0.0000    constr:    0.0000
     atom:    4    charge:    2.0870    magn:    0.0000    constr:    0.0000
     atom:    5    charge:    3.1170    magn:   -0.0000    constr:    0.0000
     atom:    6    charge:    2.0917    magn:    0.0000    constr:    0.0000
     atom:    7    charge:    3.1185    magn:   -0.0000    constr:    0.0000
     atom:    8    charge:    2.0815    magn:    0.0000    constr:    0.0000
     atom:    9    charge:    3.1250    magn:   -0.0000    constr:    0.0000
     atom:   10    charge:    2.0894    magn:    0.0000    constr:    0.0000
     atom:   11    charge:    3.1196    magn:   -0.0000    constr:    0.0000
     atom:   12    charge:    2.0870    magn:    0.0000    constr:    0.0000
     atom:   13    charge:    3.1148    magn:   -0.0000    constr:    0.0000
     atom:   14    charge:    2.0911    magn:    0.0000    constr:    0.0000
     atom:   15    charge:    3.1194    magn:   -0.0000    constr:    0.0000
     atom:   16    charge:    2.0883    magn:    0.0000    constr:    0.0000
     atom:   17    charge:    2.0624    magn:    0.0001    constr:    0.0000
     atom:   18    charge:    3.1239    magn:   -0.0000    constr:    0.0000
     atom:   19    charge:    2.0878    magn:   -0.0000    constr:    0.0000
     atom:   20    charge:    2.0847    magn:   -0.0000    constr:    0.0000
     atom:   21    charge:    2.0847    magn:   -0.0000    constr:    0.0000
     atom:   22    charge:    3.1197    magn:   -0.0000    constr:    0.0000
     atom:   23    charge:    2.0909    magn:    0.0000    constr:    0.0000
     atom:   24    charge:    2.0777    magn:    0.0000    constr:    0.0000
     atom:   25    charge:    2.0869    magn:    0.0000    constr:    0.0000
     atom:   26    charge:    3.1165    magn:   -0.0000    constr:    0.0000
     atom:   27    charge:    2.0824    magn:    0.0000    constr:    0.0000
     atom:   28    charge:    2.0879    magn:    0.0000    constr:    0.0000
     atom:   29    charge:    2.0877    magn:    0.0000    constr:    0.0000
     atom:   30    charge:    3.1168    magn:   -0.0000    constr:    0.0000
     atom:   31    charge:    2.0815    magn:    0.0001    constr:    0.0000
     atom:   32    charge:    2.0843    magn:    0.0000    constr:    0.0000
     atom:   33    charge:    2.0624    magn:    0.0001    constr:    0.0000
     atom:   34    charge:    3.1239    magn:   -0.0000    constr:    0.0000
     atom:   35    charge:    2.0878    magn:   -0.0000    constr:    0.0000
     atom:   36    charge:    2.0847    magn:   -0.0000    constr:    0.0000
     atom:   37    charge:    2.0847    magn:   -0.0000    constr:    0.0000
     atom:   38    charge:    3.1197    magn:   -0.0000    constr:    0.0000
     atom:   39    charge:    2.0912    magn:    0.0000    constr:    0.0000
     atom:   40    charge:    2.0777    magn:    0.0000    constr:    0.0000
     atom:   41    charge:    2.0869    magn:    0.0000    constr:    0.0000
     atom:   42    charge:    3.1181    magn:   -0.0000    constr:    0.0000
     atom:   43    charge:    2.0838    magn:    0.0000    constr:    0.0000
     atom:   44    charge:    2.0865    magn:    0.0000    constr:    0.0000
     atom:   45    charge:    2.0871    magn:    0.0000    constr:    0.0000
     atom:   46    charge:    3.1171    magn:   -0.0000    constr:    0.0000
     atom:   47    charge:    2.0796    magn:    0.0001    constr:    0.0000
     atom:   48    charge:    2.0835    magn:    0.0000    constr:    0.0000
     atom:   49    charge:    2.0520    magn:    0.0000    constr:    0.0000
     atom:   50    charge:    1.2559    magn:   -0.0000    constr:    0.0000
     atom:   51    charge:    1.2823    magn:    0.0000    constr:    0.0000

     total cpu time spent up to now is     2282.7 secs

     total energy              =   -3044.95468053 Ry
     Harris-Foulkes estimate   =   -3044.95468048 Ry
     estimated scf accuracy    <       0.00000205 Ry

     total magnetization       =     0.00 Bohr mag/cell
     absolute magnetization    =     0.00 Bohr mag/cell

     iteration #  9     ecut=    40.42 Ry     beta=0.10
     Davidson diagonalization with overlap
     ethr =  5.12E-10,  avg # of iterations =  2.0

     negative rho (up, down):  1.157E-02 1.157E-02
 
     Magnetic moment per site:
     atom:    1    charge:    3.1250    magn:   -0.0000    constr:    0.0000
     atom:    2    charge:    2.0894    magn:    0.0000    constr:    0.0000
     atom:    3    charge:    3.1196    magn:   -0.0000    constr:    0.0000
     atom:    4    charge:    2.0870    magn:    0.0000    constr:    0.0000
     atom:    5    charge:    3.1170    magn:   -0.0000    constr:    0.0000
     atom:    6    charge:    2.0917    magn:    0.0000    constr:    0.0000
     atom:    7    charge:    3.1185    magn:   -0.0000    constr:    0.0000
     atom:    8    charge:    2.0815    magn:    0.0000    constr:    0.0000
     atom:    9    charge:    3.1250    magn:   -0.0000    constr:    0.0000
     atom:   10    charge:    2.0894    magn:    0.0000    constr:    0.0000
     atom:   11    charge:    3.1196    magn:   -0.0000    constr:    0.0000
     atom:   12    charge:    2.0870    magn:    0.0000    constr:    0.0000
     atom:   13    charge:    3.1148    magn:   -0.0000    constr:    0.0000
     atom:   14    charge:    2.0911    magn:    0.0000    constr:    0.0000
     atom:   15    charge:    3.1194    magn:   -0.0000    constr:    0.0000
     atom:   16    charge:    2.0883    magn:    0.0000    constr:    0.0000
     atom:   17    charge:    2.0624    magn:    0.0001    constr:    0.0000
     atom:   18    charge:    3.1239    magn:   -0.0000    constr:    0.0000
     atom:   19    charge:    2.0878    magn:   -0.0000    constr:    0.0000
     atom:   20    charge:    2.0847    magn:   -0.0000    constr:    0.0000
     atom:   21    charge:    2.0847    magn:   -0.0000    constr:    0.0000
     atom:   22    charge:    3.1197    magn:   -0.0000    constr:    0.0000
     atom:   23    charge:    2.0909    magn:    0.0000    constr:    0.0000
     atom:   24    charge:    2.0777    magn:    0.0000    constr:    0.0000
     atom:   25    charge:    2.0869    magn:    0.0000    constr:    0.0000
     atom:   26    charge:    3.1165    magn:   -0.0000    constr:    0.0000
     atom:   27    charge:    2.0824    magn:    0.0000    constr:    0.0000
     atom:   28    charge:    2.0879    magn:    0.0000    constr:    0.0000
     atom:   29    charge:    2.0877    magn:    0.0000    constr:    0.0000
     atom:   30    charge:    3.1168    magn:   -0.0000    constr:    0.0000
     atom:   31    charge:    2.0815    magn:    0.0001    constr:    0.0000
     atom:   32    charge:    2.0843    magn:    0.0000    constr:    0.0000
     atom:   33    charge:    2.0624    magn:    0.0001    constr:    0.0000
     atom:   34    charge:    3.1239    magn:   -0.0000    constr:    0.0000
     atom:   35    charge:    2.0878    magn:   -0.0000    constr:    0.0000
     atom:   36    charge:    2.0847    magn:   -0.0000    constr:    0.0000
     atom:   37    charge:    2.0847    magn:   -0.0000    constr:    0.0000
     atom:   38    charge:    3.1197    magn:   -0.0000    constr:    0.0000
     atom:   39    charge:    2.0912    magn:    0.0000    constr:    0.0000
     atom:   40    charge:    2.0777    magn:    0.0000    constr:    0.0000
     atom:   41    charge:    2.0869    magn:    0.0000    constr:    0.0000
     atom:   42    charge:    3.1181    magn:   -0.0000    constr:    0.0000
     atom:   43    charge:    2.0838    magn:    0.0000    constr:    0.0000
     atom:   44    charge:    2.0865    magn:    0.0000    constr:    0.0000
     atom:   45    charge:    2.0871    magn:    0.0000    constr:    0.0000
     atom:   46    charge:    3.1171    magn:   -0.0000    constr:    0.0000
     atom:   47    charge:    2.0796    magn:    0.0001    constr:    0.0000
     atom:   48    charge:    2.0834    magn:    0.0000    constr:    0.0000
     atom:   49    charge:    2.0520    magn:    0.0000    constr:    0.0000
     atom:   50    charge:    1.2558    magn:   -0.0000    constr:    0.0000
     atom:   51    charge:    1.2823    magn:    0.0000    constr:    0.0000

     total cpu time spent up to now is     2474.6 secs

     total energy              =   -3044.95468058 Ry
     Harris-Foulkes estimate   =   -3044.95468064 Ry
     estimated scf accuracy    <       0.00000090 Ry

     total magnetization       =     0.00 Bohr mag/cell
     absolute magnetization    =     0.00 Bohr mag/cell

     iteration # 10     ecut=    40.42 Ry     beta=0.10
     Davidson diagonalization with overlap
     ethr =  2.24E-10,  avg # of iterations =  2.0

     negative rho (up, down):  1.157E-02 1.157E-02
 
     Magnetic moment per site:
     atom:    1    charge:    3.1250    magn:   -0.0000    constr:    0.0000
     atom:    2    charge:    2.0894    magn:    0.0000    constr:    0.0000
     atom:    3    charge:    3.1196    magn:   -0.0000    constr:    0.0000
     atom:    4    charge:    2.0870    magn:    0.0000    constr:    0.0000
     atom:    5    charge:    3.1170    magn:   -0.0000    constr:    0.0000
     atom:    6    charge:    2.0917    magn:    0.0000    constr:    0.0000
     atom:    7    charge:    3.1185    magn:   -0.0000    constr:    0.0000
     atom:    8    charge:    2.0815    magn:    0.0000    constr:    0.0000
     atom:    9    charge:    3.1250    magn:   -0.0000    constr:    0.0000
     atom:   10    charge:    2.0894    magn:    0.0000    constr:    0.0000
     atom:   11    charge:    3.1196    magn:   -0.0000    constr:    0.0000
     atom:   12    charge:    2.0870    magn:    0.0000    constr:    0.0000
     atom:   13    charge:    3.1148    magn:   -0.0000    constr:    0.0000
     atom:   14    charge:    2.0911    magn:    0.0000    constr:    0.0000
     atom:   15    charge:    3.1194    magn:   -0.0000    constr:    0.0000
     atom:   16    charge:    2.0883    magn:    0.0000    constr:    0.0000
     atom:   17    charge:    2.0624    magn:    0.0000    constr:    0.0000
     atom:   18    charge:    3.1239    magn:   -0.0000    constr:    0.0000
     atom:   19    charge:    2.0878    magn:   -0.0000    constr:    0.0000
     atom:   20    charge:    2.0847    magn:   -0.0000    constr:    0.0000
     atom:   21    charge:    2.0847    magn:   -0.0000    constr:    0.0000
     atom:   22    charge:    3.1197    magn:   -0.0000    constr:    0.0000
     atom:   23    charge:    2.0908    magn:    0.0000    constr:    0.0000
     atom:   24    charge:    2.0777    magn:    0.0000    constr:    0.0000
     atom:   25    charge:    2.0869    magn:    0.0000    constr:    0.0000
     atom:   26    charge:    3.1165    magn:   -0.0000    constr:    0.0000
     atom:   27    charge:    2.0824    magn:    0.0000    constr:    0.0000
     atom:   28    charge:    2.0879    magn:    0.0000    constr:    0.0000
     atom:   29    charge:    2.0877    magn:    0.0000    constr:    0.0000
     atom:   30    charge:    3.1168    magn:   -0.0000    constr:    0.0000
     atom:   31    charge:    2.0815    magn:    0.0000    constr:    0.0000
     atom:   32    charge:    2.0842    magn:    0.0000    constr:    0.0000
     atom:   33    charge:    2.0624    magn:    0.0000    constr:    0.0000
     atom:   34    charge:    3.1239    magn:   -0.0000    constr:    0.0000
     atom:   35    charge:    2.0878    magn:   -0.0000    constr:    0.0000
     atom:   36    charge:    2.0847    magn:   -0.0000    constr:    0.0000
     atom:   37    charge:    2.0847    magn:   -0.0000    constr:    0.0000
     atom:   38    charge:    3.1197    magn:   -0.0000    constr:    0.0000
     atom:   39    charge:    2.0912    magn:    0.0000    constr:    0.0000
     atom:   40    charge:    2.0777    magn:    0.0000    constr:    0.0000
     atom:   41    charge:    2.0869    magn:    0.0000    constr:    0.0000
     atom:   42    charge:    3.1181    magn:   -0.0000    constr:    0.0000
     atom:   43    charge:    2.0838    magn:    0.0000    constr:    0.0000
     atom:   44    charge:    2.0865    magn:    0.0000    constr:    0.0000
     atom:   45    charge:    2.0871    magn:    0.0000    constr:    0.0000
     atom:   46    charge:    3.1171    magn:   -0.0000    constr:    0.0000
     atom:   47    charge:    2.0796    magn:    0.0000    constr:    0.0000
     atom:   48    charge:    2.0835    magn:    0.0000    constr:    0.0000
     atom:   49    charge:    2.0519    magn:    0.0000    constr:    0.0000
     atom:   50    charge:    1.2558    magn:   -0.0000    constr:    0.0000
     atom:   51    charge:    1.2823    magn:    0.0000    constr:    0.0000

     total cpu time spent up to now is     2666.4 secs

     End of self-consistent calculation

 ------ SPIN UP ------------


          k = 0.0000 0.0000 0.0000 ( 34665 PWs)   bands (ev):

   -57.8296 -57.7947 -57.5209 -57.4654 -57.3983 -57.3621 -57.2855 -57.2501
   -57.1880 -57.1527 -57.1253 -57.0899 -56.8911 -56.8192 -56.2915 -56.2562
   -34.2660 -34.1108 -34.0822 -34.0679 -34.0312 -33.9368 -33.8761 -33.8740
   -33.8356 -33.7789 -33.7417 -33.7316 -33.7273 -33.6959 -33.6792 -33.6763
   -33.6571 -33.6476 -33.6277 -33.5640 -33.5349 -33.4693 -33.4668 -33.4461
   -33.4391 -33.4368 -33.3949 -33.3910 -33.3858 -33.3680 -33.3635 -33.3432
   -33.3211 -33.3152 -33.2869 -33.2820 -33.2566 -33.1524 -33.1476 -33.0913
   -33.0465 -32.9454 -32.7102 -32.6426 -32.6166 -32.5141 -32.4224 -32.3141
   -24.1772 -20.9145 -18.1844 -17.9822 -17.7601 -17.6376 -17.5042 -17.5023
   -17.2200 -17.1984 -17.1547 -17.0614 -17.0595 -17.0164 -17.0024 -16.9291
   -16.8816 -16.8693 -16.8488 -16.8073 -16.7435 -16.6975 -16.5809 -16.5562
   -16.5286 -16.5189 -16.4290 -16.3186 -16.2834 -16.2520 -16.1152 -16.0851
   -14.8737 -14.7889  -9.7983  -7.4198  -7.4146  -5.9888  -5.5759  -5.5183
    -5.3689  -5.3607  -5.3025  -5.0057  -4.9455  -4.5963  -4.5916  -4.5564
    -4.5479  -4.4996  -4.3742  -4.2786  -4.2305  -4.2128  -4.1773  -4.1750
    -4.1701  -4.1626  -4.0977  -4.0927  -4.0171  -3.9939  -3.9629  -3.9219
    -3.8875  -3.8165  -3.7809  -3.7567  -3.7278  -3.6507  -3.6297  -3.5533
    -3.5518  -3.5265  -3.4587  -3.3399  -3.2091  -3.1743  -3.0695  -3.0116
    -2.9576  -2.8848  -2.8222  -2.8080  -2.7499  -2.7490  -2.7320  -2.6060
    -2.5696  -2.5142  -2.4416  -2.4064  -2.3785  -2.3603  -2.3304  -2.2903
    -2.2823  -2.2557  -2.2182  -2.1847  -2.1792  -2.0570  -1.9994  -1.9015
    -1.7583  -1.7558  -1.7308  -1.6874  -1.6611  -1.6490  -1.5718  -1.5518
    -1.4500  -1.4409  -1.4178  -1.4080  -1.3915  -1.2920  -1.2408  -1.2303
    -1.2092  -1.1406  -1.0802  -1.0247  -0.9252  -0.7510  -0.7207  -0.7169
    -0.6547  -0.5273  -0.3780  -0.2416  -0.1801  -0.0149   0.1118   0.1269
     1.5123   1.5412   1.8255   1.8607   1.8745   1.8929   2.0609   2.0810
     2.1152   2.2313   2.3510   2.3648   2.4008   2.4193   2.4561   2.4650
     2.5172   2.5354   2.5565   2.6368   2.6596   2.6702   2.7509   2.7957
     2.8586   2.8866   2.9793   2.9879   2.9889   3.0096   3.0574   3.0740
     3.0863   3.0894   3.0977   3.1327   3.2285   3.2745   3.2914   3.2978
     3.3461   3.3767   3.4095   3.5235   3.5263   3.6629   3.8708   3.9766
     3.9807   4.0366   4.0581   4.1723   4.2463   4.4531   4.5312   4.6500
     4.8992   4.9394   5.0045   5.1270   5.1994   5.3834   5.3884   5.4147
     5.4880   5.5755   5.6205   5.6299   5.7072   5.7244   5.7303   5.7592
     5.9153   5.9588   6.0047   6.0111   6.0903   6.1351   6.2035   6.2127
     6.4672   6.6160   6.7630   6.7795   6.8745   7.1572   7.2797   7.3456
     7.9318   7.9899   8.1617   8.4229   8.6977   8.9093   8.9224   8.9527
     9.2181   9.2593   9.2812   9.3569

          k = 0.0000 0.0280 0.0000 ( 34717 PWs)   bands (ev):

   -57.8273 -57.7970 -57.5194 -57.4669 -57.3960 -57.3644 -57.2831 -57.2525
   -57.1856 -57.1550 -57.1229 -57.0923 -56.8898 -56.8204 -56.2891 -56.2585
   -34.2406 -34.1088 -34.0841 -34.0421 -34.0250 -33.9433 -33.9031 -33.8489
   -33.8292 -33.7550 -33.7443 -33.7359 -33.7261 -33.6965 -33.6809 -33.6775
   -33.6539 -33.6236 -33.6213 -33.5570 -33.5437 -33.4946 -33.4647 -33.4558
   -33.4409 -33.4307 -33.4129 -33.3870 -33.3687 -33.3669 -33.3622 -33.3497
   -33.3207 -33.3202 -33.3122 -33.2838 -33.2821 -33.1519 -33.1445 -33.0919
   -33.0508 -32.9737 -32.6845 -32.6409 -32.6184 -32.5080 -32.4287 -32.3416
   -24.1772 -20.9144 -18.1228 -17.9242 -17.7072 -17.5842 -17.4833 -17.4554
   -17.2376 -17.1970 -17.1682 -17.1273 -17.0645 -17.0132 -16.9912 -16.9149
   -16.9005 -16.8532 -16.8374 -16.8078 -16.7742 -16.7550 -16.6051 -16.5491
   -16.5259 -16.5079 -16.4586 -16.3146 -16.3012 -16.2695 -16.1404 -16.1277
   -14.8835 -14.8121  -9.7982  -7.4213  -7.4144  -5.9878  -5.4878  -5.4340
    -5.2912  -5.2808  -5.2251  -4.8878  -4.8705  -4.6207  -4.5912  -4.5227
    -4.4957  -4.4617  -4.3254  -4.2997  -4.2960  -4.2464  -4.2398  -4.2027
    -4.1653  -4.1516  -4.1156  -4.1034  -4.0862  -4.0605  -4.0166  -3.9942
    -3.9368  -3.9309  -3.8691  -3.8106  -3.7444  -3.7292  -3.7087  -3.5745
    -3.4938  -3.4778  -3.3869  -3.3173  -3.1355  -3.0889  -2.9985  -2.9601
    -2.8350  -2.7994  -2.7630  -2.7569  -2.6785  -2.6473  -2.6411  -2.6228
    -2.5769  -2.5653  -2.5272  -2.4603  -2.4212  -2.3532  -2.3295  -2.2881
    -2.2433  -2.2243  -2.2078  -2.1315  -2.0590  -2.0259  -1.9472  -1.8804
    -1.8490  -1.8271  -1.7968  -1.7797  -1.7070  -1.6811  -1.6392  -1.6055
    -1.5653  -1.5046  -1.4719  -1.4160  -1.3967  -1.3653  -1.2849  -1.2446
    -1.1983  -1.1611  -1.0747  -1.0392  -0.9550  -0.9197  -0.8528  -0.7682
    -0.7385  -0.5421  -0.4190  -0.2356  -0.2305  -0.0041   0.0664   0.0913
     1.5979   1.6449   1.8550   1.8632   1.9173   1.9946   2.0388   2.1064
     2.1647   2.2596   2.3138   2.3689   2.3703   2.4337   2.4422   2.4758
     2.4944   2.5152   2.5749   2.5851   2.6610   2.7161   2.7615   2.7760
     2.8170   2.8687   2.9309   2.9483   2.9809   3.0113   3.0363   3.0650
     3.0849   3.0950   3.1810   3.1920   3.2474   3.3060   3.3291   3.3789
     3.4099   3.4596   3.4949   3.5007   3.5600   3.6296   3.8210   3.9360
     3.9827   4.0482   4.1240   4.1533   4.1781   4.3960   4.5886   4.7482
     4.9051   5.0167   5.1025   5.1927   5.2036   5.3995   5.4217   5.4730
     5.4837   5.5567   5.5906   5.6154   5.6629   5.6876   5.7267   5.8149
     5.8599   5.9228   5.9702   6.0096   6.0179   6.0264   6.1098   6.2851
     6.4474   6.5385   6.7159   6.7821   6.8030   7.0631   7.2846   7.3748
     7.6909   7.9766   8.1080   8.2982   8.4142   8.7190   9.0081   9.0232
     9.0766   9.3014   9.3608   9.4111

          k = 0.0000 0.0560 0.0000 ( 34721 PWs)   bands (ev):

   -57.8209 -57.8035 -57.5161 -57.4703 -57.3899 -57.3706 -57.2766 -57.2590
   -57.1793 -57.1614 -57.1165 -57.0987 -56.8872 -56.8231 -56.2827 -56.2650
   -34.1708 -34.1035 -34.0891 -34.0079 -33.9761 -33.9715 -33.9608 -33.8133
   -33.7830 -33.7730 -33.7597 -33.7235 -33.7139 -33.7003 -33.6823 -33.6789
   -33.6038 -33.5840 -33.5839 -33.5550 -33.5456 -33.5375 -33.4862 -33.4798
   -33.4593 -33.4457 -33.4143 -33.3883 -33.3826 -33.3674 -33.3646 -33.3605
   -33.3478 -33.3333 -33.3115 -33.3091 -33.2740 -33.1512 -33.1408 -33.0932
   -33.0643 -33.0413 -32.6362 -32.6232 -32.6137 -32.4915 -32.4456 -32.4158
   -24.1771 -20.9142 -17.9514 -17.7641 -17.5675 -17.4559 -17.4353 -17.4300
   -17.3273 -17.2989 -17.1884 -17.0866 -17.0853 -17.0528 -17.0296 -16.9893
   -16.8700 -16.8678 -16.8578 -16.8220 -16.7587 -16.6933 -16.6692 -16.6262
   -16.5394 -16.4803 -16.4536 -16.3382 -16.3284 -16.2884 -16.2525 -16.1902
   -14.9011 -14.8624  -9.7980  -7.4243  -7.4140  -5.9859  -5.2452  -5.1986
    -5.0839  -5.0515  -5.0166  -4.7449  -4.6713  -4.6349  -4.5599  -4.5495
    -4.5216  -4.5061  -4.4767  -4.3981  -4.3660  -4.3588  -4.3354  -4.3309
    -4.2645  -4.2265  -4.2058  -4.1551  -4.1414  -4.1017  -4.0757  -4.0245
    -3.9626  -3.9348  -3.8647  -3.7893  -3.7330  -3.6109  -3.5836  -3.4887
    -3.4270  -3.3944  -3.3736  -3.2762  -3.1788  -3.0283  -2.9832  -2.9707
    -2.9450  -2.8864  -2.7901  -2.7396  -2.6900  -2.6550  -2.6113  -2.4765
    -2.4619  -2.4551  -2.4218  -2.3985  -2.3462  -2.3098  -2.2870  -2.2828
    -2.2117  -2.1883  -2.1076  -2.0759  -2.0529  -2.0442  -2.0179  -1.9945
    -1.9486  -1.9103  -1.8745  -1.7967  -1.7232  -1.6911  -1.6771  -1.6638
    -1.6486  -1.5796  -1.5257  -1.5093  -1.4893  -1.4514  -1.3801  -1.3646
    -1.2882  -1.2480  -1.1745  -1.1489  -1.0719  -1.0062  -0.9357  -0.9044
    -0.8053  -0.7218  -0.6042  -0.4009  -0.0496   0.0065   0.0374   0.0405
     1.7347   1.8778   1.8972   1.9768   2.0058   2.0489   2.1277   2.1923
     2.2132   2.2502   2.2541   2.2686   2.2931   2.3486   2.3718   2.5007
     2.5149   2.5435   2.5613   2.6404   2.6598   2.7289   2.7463   2.7904
     2.7968   2.8187   2.8397   2.9335   2.9512   3.0033   3.0757   3.0871
     3.1009   3.1637   3.1840   3.2140   3.3158   3.3573   3.4021   3.4309
     3.4788   3.5482   3.6074   3.6587   3.6800   3.7139   3.7352   3.8410
     3.9752   3.9889   4.0044   4.0933   4.2311   4.3152   4.7120   4.8367
     5.0229   5.1614   5.2460   5.2937   5.3236   5.3925   5.4161   5.4685
     5.5178   5.5910   5.6037   5.6124   5.6357   5.6861   5.7191   5.7323
     5.7478   5.7864   5.8232   5.8888   5.9743   6.0169   6.1886   6.3002
     6.3709   6.4076   6.6360   6.6442   6.7712   6.9089   7.0213   7.2605
     7.5274   7.6752   7.7785   8.2747   8.4342   8.6055   8.8881   9.0403
     9.2084   9.3472   9.4442   9.5922

          k = 0.0000-0.0840 0.0000 ( 34678 PWs)   bands (ev):

   -57.8122 -57.8122 -57.5143 -57.4721 -57.3841 -57.3764 -57.2679 -57.2677
   -57.1717 -57.1690 -57.1086 -57.1066 -56.8858 -56.8245 -56.2739 -56.2738
   -34.0963 -34.0963 -34.0742 -34.0742 -33.9844 -33.9844 -33.8887 -33.8560
   -33.7963 -33.7782 -33.7259 -33.7186 -33.7035 -33.6859 -33.6794 -33.6680
   -33.5846 -33.5845 -33.5809 -33.5736 -33.5098 -33.5093 -33.4881 -33.4857
   -33.4639 -33.4562 -33.4525 -33.4521 -33.3919 -33.3896 -33.3632 -33.3601
   -33.3515 -33.3495 -33.3049 -33.3031 -33.2066 -33.1732 -33.1479 -33.0973
   -33.0931 -33.0612 -32.6296 -32.6296 -32.5157 -32.5157 -32.4685 -32.4685
   -24.1771 -20.9141 -17.7134 -17.7017 -17.5435 -17.5427 -17.4287 -17.4099
   -17.2550 -17.2484 -17.1868 -17.1862 -17.1523 -17.1490 -16.9719 -16.9717
   -16.9489 -16.9448 -16.7857 -16.7552 -16.7293 -16.7250 -16.6528 -16.6459
   -16.5598 -16.5154 -16.3857 -16.3841 -16.3394 -16.3381 -16.2582 -16.2572
   -14.8992 -14.8992  -9.7979  -7.4258  -7.4137  -5.9851  -4.9343  -4.9314
    -4.8653  -4.8652  -4.8145  -4.7994  -4.7729  -4.7661  -4.7300  -4.7078
    -4.5365  -4.5180  -4.5041  -4.5016  -4.4318  -4.4303  -4.4258  -4.4231
    -4.2684  -4.2291  -4.1659  -4.1648  -4.1524  -4.1305  -4.0182  -3.9613
    -3.9604  -3.9246  -3.8492  -3.8065  -3.6630  -3.6233  -3.4715  -3.4601
    -3.3069  -3.2981  -3.2362  -3.1608  -3.1397  -3.1114  -2.9748  -2.9553
    -2.9476  -2.8882  -2.8680  -2.8237  -2.7226  -2.6955  -2.6758  -2.6579
    -2.6327  -2.6246  -2.5808  -2.4642  -2.4498  -2.4256  -2.1669  -2.1319
    -2.1094  -2.0599  -2.0226  -1.9903  -1.9427  -1.9421  -1.9362  -1.8870
    -1.8785  -1.8741  -1.8564  -1.8002  -1.7858  -1.7201  -1.6392  -1.6386
    -1.5997  -1.5821  -1.5648  -1.5635  -1.5553  -1.5513  -1.5311  -1.4271
    -1.3827  -1.2729  -1.2594  -1.2310  -1.1371  -1.1315  -1.1078  -1.1028
    -0.6923  -0.6441  -0.6050  -0.6009   0.0062   0.0065   0.0433   0.0436
     1.8997   1.9034   1.9993   2.0019   2.0923   2.0925   2.0958   2.1175
     2.2146   2.2146   2.2184   2.2339   2.3307   2.3724   2.4225   2.4253
     2.5158   2.5206   2.5599   2.5854   2.5874   2.7396   2.7524   2.8144
     2.8217   2.8555   2.8958   2.9377   2.9655   2.9854   3.0390   3.0589
     3.0681   3.1965   3.2438   3.3154   3.3224   3.3234   3.3249   3.4401
     3.6092   3.6119   3.6790   3.6927   3.7201   3.7796   3.7810   3.8604
     3.9152   3.9176   3.9811   3.9815   4.1264   4.4024   4.7850   4.8097
     5.1450   5.1620   5.2797   5.3168   5.3756   5.3756   5.4846   5.5104
     5.5435   5.5609   5.5753   5.6323   5.6507   5.6937   5.6975   5.6989
     5.7487   5.8240   5.8372   5.8559   5.9946   6.0002   6.0335   6.0957
     6.4118   6.4167   6.5477   6.5844   6.8553   6.8626   6.9737   6.9844
     7.4851   7.4997   7.6348   8.1968   8.3358   8.6656   9.0435   9.1367
     9.3750   9.4301   9.6055   9.6553

          k = 0.0253 0.0000 0.0000 ( 34707 PWs)   bands (ev):

   -57.8296 -57.7947 -57.5209 -57.4654 -57.3983 -57.3621 -57.2854 -57.2501
   -57.1880 -57.1527 -57.1253 -57.0899 -56.8911 -56.8192 -56.2915 -56.2562
   -34.2663 -34.1108 -34.0823 -34.0679 -34.0305 -33.9369 -33.8762 -33.8747
   -33.8356 -33.7803 -33.7414 -33.7312 -33.7265 -33.6969 -33.6876 -33.6796
   -33.6572 -33.6337 -33.6259 -33.5584 -33.5353 -33.4694 -33.4667 -33.4458
   -33.4392 -33.4369 -33.3945 -33.3944 -33.3857 -33.3734 -33.3623 -33.3433
   -33.3211 -33.3151 -33.2871 -33.2820 -33.2567 -33.1535 -33.1476 -33.0913
   -33.0465 -32.9456 -32.7101 -32.6437 -32.6161 -32.5141 -32.4224 -32.3143
   -24.1772 -20.9144 -18.1562 -17.9407 -17.7197 -17.5997 -17.5036 -17.4989
   -17.2765 -17.2389 -17.1539 -17.0699 -17.0609 -17.0536 -17.0264 -16.9689
   -16.9235 -16.9057 -16.8277 -16.7976 -16.7120 -16.6163 -16.6146 -16.5294
   -16.5259 -16.5241 -16.4719 -16.3189 -16.2738 -16.2526 -16.1147 -16.0852
   -14.8725 -14.7887  -9.7976  -7.4200  -7.4144  -5.9882  -5.5460  -5.4021
    -5.2597  -5.2469  -5.1949  -4.9975  -4.9442  -4.7895  -4.5880  -4.5749
    -4.5241  -4.5007  -4.4525  -4.4446  -4.3421  -4.2067  -4.1962  -4.1754
    -4.0990  -4.0826  -4.0769  -3.9942  -3.9774  -3.9442  -3.8835  -3.8488
    -3.8413  -3.8194  -3.7822  -3.7377  -3.7094  -3.6280  -3.5879  -3.4976
    -3.4686  -3.4315  -3.3432  -3.2680  -3.2250  -3.1637  -3.1434  -3.0429
    -3.0275  -2.9257  -2.8982  -2.7973  -2.7651  -2.7312  -2.7088  -2.6831
    -2.6587  -2.6172  -2.5092  -2.4982  -2.4575  -2.3821  -2.3679  -2.3234
    -2.2616  -2.2242  -2.2196  -2.1334  -2.1056  -2.0383  -1.9433  -1.9029
    -1.8101  -1.7847  -1.7612  -1.7348  -1.7116  -1.6420  -1.6178  -1.5034
    -1.4933  -1.4834  -1.4398  -1.4141  -1.3744  -1.3481  -1.2799  -1.2634
    -1.2381  -1.1257  -1.1037  -1.0032  -0.9678  -0.9066  -0.8193  -0.7794
    -0.6993  -0.5713  -0.3725  -0.2697  -0.2099  -0.0290   0.0693   0.0703
     1.5295   1.5966   1.8737   1.8915   1.9838   2.0021   2.0495   2.1286
     2.2093   2.2390   2.3083   2.3173   2.3610   2.4112   2.4261   2.4440
     2.4558   2.5175   2.5287   2.5855   2.6096   2.6665   2.6968   2.8199
     2.8357   2.8914   2.9899   2.9957   3.0036   3.0698   3.0807   3.0905
     3.1415   3.1815   3.1993   3.2333   3.2786   3.2915   3.3268   3.3787
     3.3874   3.4258   3.4580   3.4886   3.5858   3.6086   3.8015   3.8825
     4.0309   4.0576   4.0657   4.1641   4.2311   4.4065   4.6369   4.6759
     4.7608   4.9207   4.9348   4.9844   5.0048   5.0590   5.2174   5.4892
     5.5617   5.6297   5.7218   5.7325   5.7882   5.8264   5.9367   5.9476
     5.9765   6.0297   6.0324   6.0648   6.1282   6.1430   6.2436   6.3099
     6.4814   6.6311   6.7374   6.7703   6.8784   7.1000   7.1570   7.3278
     7.6698   8.0339   8.1554   8.3420   8.4039   8.7484   8.8383   8.9281
     8.9759   9.2507   9.2876   9.4207

          k = 0.0253 0.0280 0.0000 ( 34687 PWs)   bands (ev):

   -57.8273 -57.7970 -57.5194 -57.4669 -57.3960 -57.3644 -57.2831 -57.2525
   -57.1857 -57.1550 -57.1229 -57.0923 -56.8898 -56.8204 -56.2891 -56.2585
   -34.2409 -34.1088 -34.0841 -34.0421 -34.0243 -33.9432 -33.9031 -33.8495
   -33.8293 -33.7563 -33.7443 -33.7356 -33.7250 -33.6969 -33.6843 -33.6809
   -33.6542 -33.6196 -33.6147 -33.5516 -33.5438 -33.4947 -33.4646 -33.4545
   -33.4409 -33.4309 -33.4138 -33.3901 -33.3713 -33.3683 -33.3617 -33.3497
   -33.3208 -33.3202 -33.3122 -33.2837 -33.2821 -33.1528 -33.1446 -33.0920
   -33.0508 -32.9737 -32.6844 -32.6418 -32.6179 -32.5081 -32.4287 -32.3416
   -24.1772 -20.9143 -18.0960 -17.8836 -17.6683 -17.5479 -17.4827 -17.4502
   -17.2607 -17.2399 -17.2129 -17.0911 -17.0680 -17.0496 -16.9976 -16.9603
   -16.9323 -16.8678 -16.8464 -16.8307 -16.7561 -16.6670 -16.6369 -16.5527
   -16.5155 -16.5055 -16.4886 -16.3144 -16.2920 -16.2700 -16.1401 -16.1280
   -14.8825 -14.8121  -9.7975  -7.4214  -7.4142  -5.9873  -5.4616  -5.3173
    -5.1798  -5.1680  -5.1168  -4.8824  -4.8689  -4.7361  -4.5776  -4.5286
    -4.4821  -4.4526  -4.4223  -4.3628  -4.3299  -4.2930  -4.2315  -4.2021
    -4.1617  -4.1292  -4.0977  -4.0797  -4.0402  -3.9799  -3.9682  -3.9362
    -3.9211  -3.8633  -3.8518  -3.7641  -3.7436  -3.6885  -3.6832  -3.4886
    -3.4601  -3.3955  -3.3447  -3.2858  -3.1700  -3.1120  -3.0755  -2.9367
    -2.8540  -2.8306  -2.8038  -2.7930  -2.7556  -2.6832  -2.6377  -2.6209
    -2.5970  -2.5820  -2.5550  -2.5226  -2.4628  -2.4034  -2.3589  -2.3328
    -2.2722  -2.2538  -2.2011  -2.1090  -2.0697  -2.0401  -1.9997  -1.9147
    -1.8842  -1.8591  -1.7965  -1.7705  -1.7462  -1.7256  -1.6702  -1.6309
    -1.5744  -1.5170  -1.4886  -1.4700  -1.4247  -1.3847  -1.3336  -1.2386
    -1.2133  -1.2073  -1.0623  -1.0041  -0.9836  -0.9156  -0.8942  -0.8772
    -0.7908  -0.5812  -0.4302  -0.2883  -0.2244   0.0005   0.0423   0.0513
     1.5911   1.7177   1.8862   1.8962   2.0119   2.0284   2.1299   2.1645
     2.2264   2.2713   2.3081   2.3221   2.3705   2.3835   2.4024   2.4174
     2.4985   2.5294   2.5607   2.5878   2.6082   2.6251   2.7651   2.8001
     2.8390   2.8837   2.9687   2.9778   2.9872   2.9922   3.0463   3.0846
     3.1602   3.2139   3.2539   3.2615   3.2926   3.3079   3.3660   3.4130
     3.4515   3.4792   3.5101   3.5262   3.5742   3.6205   3.7567   3.8787
     4.0119   4.0416   4.0843   4.1616   4.2146   4.3559   4.6800   4.7623
     4.8129   4.9323   4.9783   5.0224   5.0320   5.1248   5.2746   5.5178
     5.5560   5.5918   5.6378   5.7191   5.7336   5.8139   5.8724   5.9166
     5.9491   5.9911   6.0185   6.0318   6.0435   6.0860   6.2898   6.3109
     6.4665   6.5461   6.7340   6.7677   6.8083   7.0536   7.1528   7.3733
     7.5579   8.0092   8.1440   8.2353   8.3225   8.5221   8.5775   8.8401
     9.0209   9.2855   9.4038   9.4771

          k = 0.0253 0.0560 0.0000 ( 34699 PWs)   bands (ev):

   -57.8209 -57.8035 -57.5161 -57.4703 -57.3899 -57.3706 -57.2766 -57.2590
   -57.1793 -57.1615 -57.1165 -57.0987 -56.8872 -56.8231 -56.2827 -56.2650
   -34.1711 -34.1035 -34.0892 -34.0074 -33.9762 -33.9715 -33.9606 -33.8133
   -33.7834 -33.7732 -33.7598 -33.7227 -33.7139 -33.7006 -33.6839 -33.6802
   -33.6027 -33.5845 -33.5838 -33.5515 -33.5455 -33.5331 -33.4870 -33.4766
   -33.4593 -33.4457 -33.4144 -33.3885 -33.3845 -33.3679 -33.3674 -33.3616
   -33.3479 -33.3340 -33.3115 -33.3090 -33.2739 -33.1518 -33.1408 -33.0935
   -33.0643 -33.0413 -32.6368 -32.6229 -32.6136 -32.4915 -32.4456 -32.4158
   -24.1771 -20.9141 -17.9290 -17.7270 -17.5346 -17.4499 -17.4271 -17.4059
   -17.3184 -17.3015 -17.1920 -17.1286 -17.0917 -17.0389 -17.0136 -16.9969
   -16.9061 -16.8980 -16.8632 -16.8154 -16.7794 -16.7411 -16.6900 -16.5988
   -16.5824 -16.4749 -16.4392 -16.3314 -16.3260 -16.2894 -16.2533 -16.1898
   -14.9005 -14.8626  -9.7972  -7.4244  -7.4137  -5.9856  -5.2305  -5.0828
    -4.9707  -4.9422  -4.9107  -4.7392  -4.6706  -4.6545  -4.5379  -4.5307
    -4.5107  -4.5024  -4.4004  -4.3610  -4.3548  -4.3241  -4.2939  -4.2766
    -4.2327  -4.2176  -4.1982  -4.1628  -4.0951  -4.0802  -4.0688  -4.0142
    -3.9785  -3.9223  -3.8531  -3.8151  -3.7314  -3.6381  -3.5499  -3.4788
    -3.4394  -3.4214  -3.3839  -3.2092  -3.1780  -3.0416  -2.9972  -2.9776
    -2.9484  -2.8739  -2.8014  -2.7709  -2.7158  -2.6756  -2.6340  -2.5877
    -2.5645  -2.5224  -2.4770  -2.4614  -2.4192  -2.4034  -2.3220  -2.2786
    -2.2634  -2.2346  -2.1790  -2.1418  -2.0972  -2.0834  -2.0194  -2.0055
    -1.9543  -1.9324  -1.8795  -1.8436  -1.8278  -1.7851  -1.7317  -1.6998
    -1.6711  -1.5945  -1.5725  -1.5004  -1.4766  -1.4265  -1.3882  -1.3510
    -1.2646  -1.2367  -1.1665  -1.1017  -1.0765  -0.9764  -0.9511  -0.8822
    -0.8267  -0.7423  -0.6099  -0.4123  -0.0482  -0.0075   0.0177   0.0407
     1.7310   1.9038   1.9220   2.0446   2.0496   2.0723   2.1579   2.1704
[...]
    -2.6788  -2.6362  -2.6280  -2.6204  -2.5859  -2.5457  -2.5114  -2.4943
    -2.4937  -2.4292  -2.3905  -2.3759  -2.3406  -2.3097  -2.2647  -2.2634
    -2.2403  -2.1526  -2.1483  -2.1468  -2.0205  -1.9820  -1.8317  -1.8038
    -1.7422  -1.6941  -1.4403  -1.3948  -1.3303  -1.3291  -1.1732  -1.1590
    -1.1520  -1.1503  -1.1257  -1.0947  -1.0491  -0.9147  -0.8970  -0.7675
    -0.7540  -0.7401  -0.6726  -0.6715  -0.0693  -0.0693   0.0683   0.0686
     1.9802   1.9931   2.0371   2.0439   2.0669   2.0700   2.0808   2.0844
     2.3500   2.3625   2.3685   2.3812   2.4449   2.4508   2.5171   2.5258
     2.5533   2.5538   2.5904   2.6322   2.7171   2.8303   2.8432   2.8607
     2.8715   2.9469   3.0220   3.0973   3.1033   3.1559   3.1862   3.2515
     3.2663   3.2793   3.3274   3.3553   3.3893   3.3925   3.4354   3.4644
     3.5520   3.5712   3.6693   3.7221   3.7862   3.8089   3.8114   3.8120
     3.9429   3.9478   3.9675   3.9675   4.2877   4.5416   4.6537   4.6542
     4.7087   4.7308   4.7680   4.7768   4.7782   4.8003   5.0700   5.0998
     5.2229   5.2553   5.6140   5.6294   5.8044   5.8185   5.9359   6.0410
     6.1627   6.2024   6.2091   6.2390   6.4207   6.4536   6.4694   6.5251
     6.5267   6.5452   6.7025   6.7033   6.7597   6.7611   7.0458   7.1034
     7.6498   7.6899   7.8089   7.8189   8.0428   8.0988   8.3382   8.4040
     8.5447   8.6148   8.6900   9.1809

          k =-0.0253 0.0280 0.0000 ( 34687 PWs)   bands (ev):

   -57.8273 -57.7971 -57.5195 -57.4670 -57.3961 -57.3645 -57.2831 -57.2525
   -57.1857 -57.1551 -57.1230 -57.0923 -56.8899 -56.8206 -56.2893 -56.2587
   -34.2409 -34.1088 -34.0841 -34.0422 -34.0243 -33.9433 -33.9032 -33.8495
   -33.8293 -33.7563 -33.7444 -33.7357 -33.7250 -33.6970 -33.6844 -33.6809
   -33.6542 -33.6196 -33.6147 -33.5516 -33.5439 -33.4947 -33.4647 -33.4545
   -33.4410 -33.4309 -33.4138 -33.3902 -33.3713 -33.3684 -33.3617 -33.3497
   -33.3208 -33.3203 -33.3123 -33.2838 -33.2822 -33.1529 -33.1447 -33.0921
   -33.0509 -32.9738 -32.6845 -32.6420 -32.6180 -32.5082 -32.4288 -32.3418
   -24.1771 -20.9143 -18.0959 -17.8836 -17.6682 -17.5478 -17.4827 -17.4500
   -17.2608 -17.2402 -17.2128 -17.0911 -17.0681 -17.0496 -16.9981 -16.9603
   -16.9323 -16.8677 -16.8464 -16.8302 -16.7551 -16.6669 -16.6372 -16.5528
   -16.5155 -16.5052 -16.4886 -16.3143 -16.2920 -16.2699 -16.1400 -16.1280
   -14.8822 -14.8118  -9.7975  -7.4215  -7.4142  -5.9873  -5.4615  -5.3173
    -5.1796  -5.1676  -5.1168  -4.8827  -4.8690  -4.7369  -4.5765  -4.5290
    -4.4820  -4.4527  -4.4227  -4.3628  -4.3301  -4.2928  -4.2339  -4.2018
    -4.1620  -4.1296  -4.0979  -4.0798  -4.0393  -3.9801  -3.9678  -3.9370
    -3.9205  -3.8632  -3.8533  -3.7639  -3.7438  -3.6887  -3.6822  -3.4870
    -3.4587  -3.3931  -3.3428  -3.2868  -3.1694  -3.1120  -3.0755  -2.9381
    -2.8549  -2.8270  -2.8042  -2.7936  -2.7564  -2.6829  -2.6380  -2.6182
    -2.5999  -2.5811  -2.5549  -2.5230  -2.4645  -2.4029  -2.3570  -2.3339
    -2.2705  -2.2536  -2.2023  -2.1116  -2.0699  -2.0395  -1.9993  -1.9201
    -1.8815  -1.8613  -1.7995  -1.7691  -1.7471  -1.7243  -1.6700  -1.6310
    -1.5710  -1.5144  -1.4886  -1.4680  -1.4257  -1.3850  -1.3355  -1.2388
    -1.2163  -1.2081  -1.0624  -1.0014  -0.9808  -0.9180  -0.8939  -0.8742
    -0.7913  -0.5814  -0.4300  -0.2883  -0.2242   0.0006   0.0426   0.0516
     1.5910   1.7177   1.8861   1.8966   2.0121   2.0300   2.1306   2.1665
     2.2289   2.2703   2.3068   2.3179   2.3719   2.3833   2.4023   2.4195
     2.4975   2.5296   2.5594   2.5878   2.6090   2.6252   2.7616   2.7997
     2.8403   2.8836   2.9673   2.9765   2.9865   2.9916   3.0469   3.0829
     3.1619   3.2162   3.2546   3.2617   3.2927   3.3078   3.3659   3.4097
     3.4536   3.4808   3.5099   3.5263   3.5729   3.6207   3.7568   3.8785
     4.0118   4.0414   4.0844   4.1616   4.2140   4.3558   4.6801   4.7591
     4.8150   4.9317   4.9772   5.0214   5.0322   5.1243   5.2735   5.5174
     5.5548   5.5922   5.6381   5.7188   5.7336   5.8124   5.8783   5.9186
     5.9478   5.9902   6.0175   6.0318   6.0438   6.0856   6.2897   6.3106
     6.4680   6.5463   6.7336   6.7676   6.8083   7.0536   7.1581   7.3719
     7.5573   8.0092   8.1476   8.2309   8.3216   8.5222   8.5751   8.8413
     9.0218   9.2831   9.4071   9.4748

          k =-0.0253 0.0560 0.0000 ( 34699 PWs)   bands (ev):

   -57.8210 -57.8035 -57.5162 -57.4703 -57.3899 -57.3706 -57.2767 -57.2590
   -57.1793 -57.1615 -57.1166 -57.0988 -56.8873 -56.8232 -56.2828 -56.2652
   -34.1711 -34.1035 -34.0892 -34.0074 -33.9762 -33.9716 -33.9606 -33.8133
   -33.7834 -33.7732 -33.7598 -33.7228 -33.7139 -33.7006 -33.6839 -33.6802
   -33.6025 -33.5845 -33.5842 -33.5515 -33.5454 -33.5331 -33.4870 -33.4767
   -33.4593 -33.4457 -33.4144 -33.3885 -33.3845 -33.3679 -33.3675 -33.3616
   -33.3480 -33.3340 -33.3115 -33.3091 -33.2740 -33.1519 -33.1410 -33.0936
   -33.0644 -33.0414 -32.6369 -32.6231 -32.6138 -32.4916 -32.4458 -32.4159
   -24.1771 -20.9141 -17.9288 -17.7270 -17.5345 -17.4500 -17.4271 -17.4059
   -17.3179 -17.3015 -17.1920 -17.1286 -17.0923 -17.0389 -17.0136 -16.9985
   -16.9061 -16.8979 -16.8622 -16.8133 -16.7799 -16.7411 -16.6906 -16.5985
   -16.5825 -16.4748 -16.4391 -16.3313 -16.3259 -16.2893 -16.2532 -16.1896
   -14.9002 -14.8623  -9.7972  -7.4244  -7.4137  -5.9856  -5.2304  -5.0828
    -4.9696  -4.9418  -4.9106  -4.7388  -4.6709  -4.6555  -4.5388  -4.5327
    -4.5096  -4.5019  -4.4025  -4.3620  -4.3545  -4.3240  -4.2919  -4.2763
    -4.2329  -4.2183  -4.1975  -4.1633  -4.0948  -4.0819  -4.0691  -4.0151
    -3.9790  -3.9224  -3.8533  -3.8143  -3.7313  -3.6368  -3.5511  -3.4751
    -3.4380  -3.4194  -3.3816  -3.2099  -3.1800  -3.0407  -2.9970  -2.9773
    -2.9469  -2.8742  -2.8002  -2.7716  -2.7165  -2.6756  -2.6347  -2.5872
    -2.5642  -2.5218  -2.4774  -2.4621  -2.4186  -2.4039  -2.3222  -2.2798
    -2.2636  -2.2358  -2.1795  -2.1431  -2.0966  -2.0858  -2.0180  -2.0044
    -1.9569  -1.9349  -1.8827  -1.8444  -1.8253  -1.7850  -1.7294  -1.7016
    -1.6684  -1.5936  -1.5722  -1.4971  -1.4754  -1.4299  -1.3891  -1.3496
    -1.2650  -1.2362  -1.1651  -1.1012  -1.0763  -0.9762  -0.9506  -0.8835
    -0.8270  -0.7415  -0.6097  -0.4125  -0.0480  -0.0073   0.0179   0.0409
     1.7309   1.9045   1.9220   2.0446   2.0492   2.0745   2.1606   2.1708
     2.2444   2.2614   2.2835   2.2994   2.3444   2.3892   2.4183   2.4957
     2.5457   2.5668   2.5777   2.6411   2.6582   2.6746   2.7357   2.7771
     2.7979   2.8132   2.8630   2.8726   2.9810   3.0482   3.1145   3.1342
     3.1918   3.2028   3.2355   3.2662   3.3158   3.3522   3.4041   3.4299
     3.4981   3.5244   3.6293   3.6574   3.6914   3.7270   3.7486   3.8136
     3.9310   3.9701   4.0061   4.1324   4.2008   4.3584   4.7702   4.8395
     4.9829   5.0188   5.0920   5.1093   5.1329   5.2200   5.3194   5.4239
     5.4505   5.5138   5.5887   5.6203   5.7110   5.7246   5.7867   5.8169
     5.8731   5.9000   5.9439   6.0069   6.0447   6.2172   6.2421   6.3620
     6.4070   6.4470   6.6462   6.6494   6.8110   6.9049   7.0563   7.2833
     7.3953   7.7278   7.8432   8.1104   8.3700   8.5594   8.6364   8.9068
     9.0230   9.0671   9.3023   9.3925

          k =-0.0506 0.0280 0.0000 ( 34685 PWs)   bands (ev):

   -57.8273 -57.7971 -57.5195 -57.4670 -57.3961 -57.3645 -57.2831 -57.2525
   -57.1857 -57.1551 -57.1230 -57.0923 -56.8899 -56.8206 -56.2893 -56.2587
   -34.2416 -34.1088 -34.0841 -34.0424 -34.0229 -33.9432 -33.9032 -33.8508
   -33.8293 -33.7589 -33.7444 -33.7354 -33.7240 -33.6986 -33.6913 -33.6809
   -33.6550 -33.6162 -33.6012 -33.5443 -33.5395 -33.4950 -33.4644 -33.4520
   -33.4410 -33.4311 -33.4168 -33.3967 -33.3806 -33.3677 -33.3602 -33.3497
   -33.3208 -33.3204 -33.3124 -33.2837 -33.2821 -33.1550 -33.1448 -33.0922
   -33.0509 -32.9738 -32.6844 -32.6438 -32.6171 -32.5082 -32.4288 -32.3418
   -24.1771 -20.9141 -18.0374 -17.7849 -17.5751 -17.4849 -17.4810 -17.4068
   -17.3470 -17.2638 -17.2491 -17.1195 -17.0971 -17.0707 -17.0671 -17.0076
   -16.9884 -16.9757 -16.8764 -16.7694 -16.7260 -16.6783 -16.5932 -16.5764
   -16.5428 -16.4981 -16.4675 -16.3132 -16.2806 -16.2710 -16.1399 -16.1289
   -14.8802 -14.8119  -9.7960  -7.4218  -7.4137  -5.9864  -5.4451  -5.0237
    -4.9510  -4.9403  -4.8703  -4.8466  -4.8266  -4.7853  -4.6479  -4.5868
    -4.5694  -4.5166  -4.4579  -4.3668  -4.3194  -4.2337  -4.1824  -4.1622
    -4.1428  -4.1331  -4.0612  -4.0178  -3.9847  -3.9577  -3.9165  -3.8914
    -3.8713  -3.8358  -3.7892  -3.7300  -3.7133  -3.5947  -3.4590  -3.4247
    -3.3989  -3.3404  -3.3115  -3.2622  -3.1934  -3.1111  -3.0665  -3.0101
    -2.9422  -2.9152  -2.8717  -2.8629  -2.8136  -2.7587  -2.7428  -2.6907
    -2.6482  -2.6246  -2.5954  -2.5467  -2.5077  -2.4846  -2.4390  -2.4136
    -2.3495  -2.3189  -2.2379  -2.2097  -2.1439  -2.1128  -2.0997  -2.0560
    -2.0053  -1.9427  -1.9130  -1.8825  -1.8549  -1.7865  -1.7006  -1.6447
    -1.6095  -1.5780  -1.5045  -1.4770  -1.4363  -1.4145  -1.3307  -1.2772
    -1.1941  -1.1537  -1.0431  -1.0298  -0.9615  -0.9329  -0.9005  -0.8647
    -0.8246  -0.6617  -0.4619  -0.4079  -0.2111  -0.0285   0.0022   0.0157
     1.5755   1.7817   1.9130   1.9318   1.9502   2.0263   2.0594   2.1358
     2.2336   2.2493   2.2900   2.3506   2.3997   2.4427   2.4448   2.5105
     2.5253   2.5492   2.5879   2.6016   2.6555   2.7557   2.8131   2.8201
     2.8615   2.9161   2.9379   3.0032   3.0105   3.0571   3.1318   3.1545
     3.2222   3.2531   3.2818   3.3017   3.3659   3.3870   3.4323   3.4673
     3.4887   3.5222   3.5355   3.5810   3.6278   3.6799   3.7285   3.8135
     3.9211   4.0217   4.1264   4.1395   4.2749   4.3437   4.5172   4.6265
     4.6477   4.6742   4.8404   4.8928   4.9862   5.3039   5.3746   5.4658
     5.5108   5.5673   5.6470   5.7011   5.7274   5.7437   5.8763   5.9233
     5.9741   6.0144   6.2529   6.2672   6.3061   6.3635   6.4245   6.5090
     6.5356   6.6198   6.6791   6.7306   6.8185   6.9622   7.0209   7.3818
     7.4549   7.6946   7.8157   8.0751   8.3216   8.4044   8.5280   8.9170
     9.0926   9.1685   9.3824   9.4691

          k =-0.0506 0.0560 0.0000 ( 34596 PWs)   bands (ev):

   -57.8209 -57.8035 -57.5162 -57.4703 -57.3899 -57.3706 -57.2766 -57.2590
   -57.1793 -57.1615 -57.1166 -57.0988 -56.8873 -56.8232 -56.2828 -56.2652
   -34.1716 -34.1035 -34.0892 -34.0062 -33.9764 -33.9717 -33.9602 -33.8133
   -33.7841 -33.7736 -33.7598 -33.7216 -33.7138 -33.7011 -33.6863 -33.6826
   -33.5997 -33.5855 -33.5843 -33.5452 -33.5445 -33.5229 -33.4897 -33.4704
   -33.4592 -33.4457 -33.4145 -33.3888 -33.3879 -33.3753 -33.3675 -33.3637
   -33.3482 -33.3353 -33.3115 -33.3089 -33.2738 -33.1531 -33.1411 -33.0942
   -33.0644 -33.0412 -32.6381 -32.6226 -32.6136 -32.4916 -32.4457 -32.4158
   -24.1771 -20.9140 -17.8805 -17.6338 -17.4605 -17.4390 -17.4202 -17.3474
   -17.3072 -17.2761 -17.2039 -17.1702 -17.1004 -17.0801 -17.0150 -16.9924
   -16.9899 -16.9220 -16.9120 -16.8493 -16.8081 -16.7816 -16.7138 -16.6681
   -16.5672 -16.4644 -16.4201 -16.3219 -16.3202 -16.2921 -16.2549 -16.1892
   -14.8989 -14.8627  -9.7957  -7.4246  -7.4132  -5.9848  -5.2224  -4.7892
    -4.7389  -4.7300  -4.6925  -4.6556  -4.6454  -4.6082  -4.5037  -4.4851
    -4.4603  -4.4435  -4.3521  -4.3002  -4.2826  -4.2777  -4.2360  -4.2156
    -4.1909  -4.1788  -4.1647  -4.1377  -4.0846  -4.0474  -4.0366  -4.0070
    -3.9513  -3.8913  -3.8258  -3.7903  -3.6875  -3.6587  -3.5156  -3.4895
    -3.4719  -3.4042  -3.3857  -3.2073  -3.1185  -3.0828  -3.0330  -2.9916
    -2.9575  -2.9172  -2.8944  -2.8617  -2.8102  -2.7728  -2.7186  -2.7129
    -2.6383  -2.6247  -2.5963  -2.5201  -2.4902  -2.4726  -2.4536  -2.4315
    -2.4057  -2.3635  -2.2940  -2.2812  -2.2572  -2.2308  -2.1847  -2.1693
    -2.0987  -2.0594  -2.0289  -1.9876  -1.9419  -1.8607  -1.7927  -1.7770
    -1.7088  -1.6087  -1.5351  -1.4895  -1.4559  -1.3777  -1.3418  -1.2343
    -1.1805  -1.1422  -1.0989  -1.0373  -0.9933  -0.9298  -0.9169  -0.8408
    -0.8049  -0.7908  -0.6637  -0.4719  -0.0598  -0.0227  -0.0093   0.0467
     1.7338   1.9283   1.9509   2.0106   2.0675   2.1076   2.1161   2.1702
     2.2171   2.2651   2.3787   2.4163   2.4242   2.4505   2.4698   2.4937
     2.5697   2.5957   2.6198   2.6416   2.6628   2.7155   2.7860   2.8154
     2.8863   2.8995   2.9395   2.9698   3.0182   3.0572   3.1835   3.2102
     3.2256   3.2603   3.3035   3.3208   3.3632   3.3823   3.3962   3.4606
     3.5356   3.5679   3.6044   3.6824   3.7349   3.7655   3.7750   3.7912
     3.8334   3.9664   4.0184   4.1451   4.2056   4.4457   4.6411   4.6727
     4.7437   4.7464   4.8918   4.9960   5.0679   5.1363   5.2052   5.2301
     5.3021   5.4594   5.5669   5.6312   5.7116   5.7370   5.8268   5.9671
     6.0095   6.1105   6.1623   6.2062   6.2503   6.2993   6.4632   6.4830
     6.5475   6.5871   6.6572   6.6773   6.8390   6.8873   7.0008   7.3152
     7.3251   7.7496   7.7794   8.0222   8.1040   8.1800   8.5857   8.6796
     8.8464   8.9147   9.1475   9.3679

     the Fermi energy is     0.8601 ev

!    total energy              =   -3044.95468045 Ry
     Harris-Foulkes estimate   =   -3044.95468061 Ry
     estimated scf accuracy    <       0.00000029 Ry

     The total energy is the sum of the following terms:

     one-electron contribution =  -40855.12098205 Ry
     hartree contribution      =   20499.79827336 Ry
     xc contribution           =    -557.14820059 Ry
     ewald contribution        =   17867.51643478 Ry
     smearing contrib. (-TS)   =      -0.00020595 Ry

     total magnetization       =     0.00 Bohr mag/cell
     absolute magnetization    =     0.00 Bohr mag/cell

     convergence has been achieved in  10 iterations

     Forces acting on atoms (Ry/au):


     negative rho (up, down):  1.157E-02 1.157E-02
     atom    1 type  1   force =    -0.00008207    0.00030673   -0.13603432
     atom    2 type  2   force =     0.00010589   -0.00007909    0.07521099
     atom    3 type  1   force =     0.00127158    0.00109104   -0.05992192
     atom    4 type  2   force =     0.00661246   -0.00006564    0.00969875
     atom    5 type  1   force =    -0.00131230   -0.00014247   -0.00009671
     atom    6 type  2   force =    -0.00180106   -0.00349284   -0.00888483
     atom    7 type  1   force =     0.01072264    0.00772667   -0.01636321
     atom    8 type  2   force =     0.00056313   -0.00011925    0.00053598
     atom    9 type  1   force =     0.00013164    0.00035206   -0.13610824
     atom   10 type  2   force =     0.00016666   -0.00003312    0.07515727
     atom   11 type  1   force =     0.00126777   -0.00086592   -0.06005130
     atom   12 type  2   force =     0.00605264   -0.00011106    0.00856771
     atom   13 type  1   force =     0.00012062   -0.00015703   -0.00044460
     atom   14 type  2   force =    -0.00198431    0.00292167   -0.00895519
     atom   15 type  1   force =     0.01088899   -0.00754795   -0.01662797
     atom   16 type  2   force =     0.00708025    0.00009200    0.01055558
     atom   17 type  2   force =    -0.00002377   -0.00005623    0.08004290
     atom   18 type  1   force =    -0.00005997    0.00022680    0.11905484
     atom   19 type  2   force =     0.00039200    0.00018858   -0.06808309
     atom   20 type  2   force =    -0.06269250    0.00005039   -0.03208320
     atom   21 type  2   force =     0.06274264    0.00015231   -0.03255578
     atom   22 type  1   force =    -0.00049299   -0.00012678    0.06424921
     atom   23 type  2   force =     0.00015832    0.00061412   -0.00259119
     atom   24 type  2   force =     0.00049734    0.00003841   -0.02237793
     atom   25 type  2   force =    -0.00645076   -0.00025667    0.00825448
     atom   26 type  1   force =    -0.00011437   -0.00005410    0.00249692
     atom   27 type  2   force =     0.00248391   -0.00140110   -0.00242276
     atom   28 type  2   force =    -0.00002395   -0.00001798   -0.00146462
     atom   29 type  2   force =     0.00010983   -0.00005614   -0.00052682
     atom   30 type  1   force =     0.00577561    0.00035756   -0.00055726
     atom   31 type  2   force =    -0.00216516    0.00161330    0.00097613
     atom   32 type  2   force =     0.00156386   -0.00009711    0.00178940
     atom   33 type  2   force =    -0.00000000    0.00015431    0.08011385
     atom   34 type  1   force =    -0.00007558    0.00023478    0.11906047
     atom   35 type  2   force =     0.00035893    0.00032538   -0.06803654
     atom   36 type  2   force =    -0.06269008    0.00009915   -0.03229217
     atom   37 type  2   force =     0.06285755    0.00017226   -0.03204380
     atom   38 type  1   force =    -0.00069475    0.00000843    0.06408549
     atom   39 type  2   force =     0.00019323   -0.00081653   -0.00257958
     atom   40 type  2   force =     0.00060783   -0.00227803   -0.02253643
     atom   41 type  2   force =    -0.00619284   -0.00030866    0.00765693
     atom   42 type  1   force =    -0.00009915   -0.00008595    0.00248985
     atom   43 type  2   force =     0.00253934    0.00139571   -0.00245737
     atom   44 type  2   force =     0.00037382   -0.00012877   -0.00070756
     atom   45 type  2   force =    -0.00023592   -0.00006350   -0.00093808
     atom   46 type  1   force =    -0.01877807    0.00042551   -0.00485979
     atom   47 type  2   force =    -0.00218094   -0.00147493    0.00098897
     atom   48 type  2   force =    -0.00063657   -0.00044684   -0.02746897
     atom   49 type  2   force =    -0.05070253    0.00067973    0.17670658
     atom   50 type  3   force =    -0.04179772    0.00235349   -0.05830137
     atom   51 type  3   force =     0.07564887   -0.00129671   -0.04931968

     Total force =     0.430333     Total SCF correction =     0.001352
 !ASE

     Writing output data file calc.save
 
     init_run     :     56.63s CPU     73.58s WALL (       1 calls)
     electrons    :   2095.68s CPU   2592.71s WALL (       1 calls)
     forces       :     41.27s CPU     42.41s WALL (       1 calls)

     Called by init_run:
     wfcinit      :     48.56s CPU     64.75s WALL (       1 calls)
     potinit      :      1.31s CPU      1.66s WALL (       1 calls)

     Called by electrons:
     c_bands      :   1813.04s CPU   2241.67s WALL (      10 calls)
     sum_band     :    237.57s CPU    299.81s WALL (      10 calls)
     v_of_rho     :     10.68s CPU     13.55s WALL (      11 calls)
     newd         :     37.90s CPU     41.40s WALL (      11 calls)
     mix_rho      :      0.53s CPU      0.68s WALL (      10 calls)
     vdW_energy   :      1.95s CPU      2.37s WALL (      12 calls)
     vdW_ffts     :      2.85s CPU      3.87s WALL (      24 calls)
     vdW_v        :      1.11s CPU      1.28s WALL (      12 calls)

     Called by c_bands:
     init_us_2    :      5.80s CPU      6.30s WALL (     880 calls)
     cegterg      :   1774.75s CPU   2201.59s WALL (     400 calls)

     Called by *egterg:
     h_psi        :    752.88s CPU   1103.86s WALL (    2030 calls)
     s_psi        :     92.69s CPU     96.99s WALL (    2030 calls)
     g_psi        :      4.86s CPU      5.00s WALL (    1590 calls)
     cdiaghg      :    587.37s CPU    599.26s WALL (    1990 calls)

     Called by h_psi:
     add_vuspsi   :     93.31s CPU     97.69s WALL (    2030 calls)

     General routines
     calbec       :    143.35s CPU    146.68s WALL (    2470 calls)
     fft          :      6.67s CPU      8.62s WALL (     948 calls)
     ffts         :      0.06s CPU      0.09s WALL (      42 calls)
     fftw         :    499.39s CPU    892.03s WALL (  721672 calls)
     interpolate  :      0.34s CPU      0.54s WALL (      42 calls)
     davcio       :      0.13s CPU      3.03s WALL (      40 calls)
 
     Parallel routines
     fft_scatter  :    272.70s CPU    476.93s WALL (  722662 calls)
 
     PWSCF        : 36m34.61s CPU    45m13.48s WALL

 
   This run was terminated on:  12: 4:42  10Mar2018            

=------------------------------------------------------------------------------=
   JOB DONE.
=------------------------------------------------------------------------------=
