  python dir          : /home/vossj/suncat/lib/python2.7/site-packages/espresso
  espresso dir        : /home/vossj/suncat/esdld/espresso-dynpy-beef/bin
  pseudo dir          : /home/alatimer/bin/psp/esp_psp_w_gbrvRu/
  ase-espresso py git : ffa2778-git



     Program PWSCF v.5.1rc2 (svn rev. ) starts on 26Feb2018 at 15:52:31 

     This program is part of the open-source Quantum ESPRESSO suite
     for quantum simulation of materials; please cite
         "P. Giannozzi et al., J. Phys.:Condens. Matter 21 395502 (2009);
          URL http://www.quantum-espresso.org", 
     in publications or presentations arising from this work. More details at
     http://www.quantum-espresso.org/quote

     Parallel version (MPI), running on    16 processors
     R & G space division:  proc/nbgrp/npool/nimage =      16
     Reading input from pw.inp
     Message from routine read_cards :
     DEPRECATED: no units specified in CELL_PARAMETERS card

     Current dimensions of program PWSCF are:
     Max number of different atomic species (ntypx) = 10
     Max number of k-points (npk) =  40000
     Max angular momentum in pseudopotentials (lmaxx) =  3

     **************************************************************************
     Initializing libbeef V0.1.1 with the BEEF-vdW functional.
     Citation: Wellendorff et al., PRB 85, 235149 (2012).
     **************************************************************************


     IMPORTANT: XC functional enforced from input :
     Exchange-correlation      = BEEF ( 1  4 27 13 2)
     Any further DFT definition will be discarded
     Please, verify this is what you really want


     Subspace diagonalization in iterative solution of the eigenvalue problem:
     a serial algorithm will be used

 
     Parallelization info
     --------------------
     sticks:   dense  smooth     PW     G-vecs:    dense   smooth      PW
     Min         281     112     31                68535    17318    2565
     Max         282     113     32                68545    17369    2582
     Sum        4501    1795    503              1096637   277353   41113
 
     Generating pointlists ...
     new r_m :   0.4125 (alat units)  0.7795 (a.u.) for type    1
     new r_m :   0.4125 (alat units)  0.7795 (a.u.) for type    2
     new r_m :   0.4125 (alat units)  0.7795 (a.u.) for type    3
     new r_m :   0.4125 (alat units)  0.7795 (a.u.) for type    4


     bravais-lattice index     =            0
     lattice parameter (alat)  =       1.8897  a.u.
     unit-cell volume          =    7990.9933 (a.u.)^3
     number of atoms/cell      =           54
     number of atomic types    =            4
     number of electrons       =       398.00
     number of Kohn-Sham states=          299
     kinetic-energy cutoff     =      40.4243  Ry
     charge density cutoff     =     404.2426  Ry
     convergence threshold     =      7.3E-07
     mixing beta               =       0.1000
     number of iterations used =           10  plain     mixing
     Exchange-correlation      = BEEF ( 1  4 27 13 2)
     nstep                     =           50


     celldm(1)=   1.889726  celldm(2)=   0.000000  celldm(3)=   0.000000
     celldm(4)=   0.000000  celldm(5)=   0.000000  celldm(6)=   0.000000

     crystal axes: (cart. coord. in units of alat)
               a(1) = (   6.590708   0.000000   0.000000 )  
               a(2) = (   0.000000   5.950229   0.000000 )  
               a(3) = (   0.000000   0.000000  30.195235 )  

     reciprocal axes: (cart. coord. in units 2 pi/alat)
               b(1) = (  0.151729  0.000000  0.000000 )  
               b(2) = (  0.000000  0.168061  0.000000 )  
               b(3) = (  0.000000  0.000000  0.033118 )  


     PseudoPot. # 1 for Ti read from file:
     /home/alatimer/bin/psp/esp_psp_w_gbrvRu/Ti.UPF
     MD5 check sum: 8e4df49b7f0d34bbd5052bf3f5ea0213
     Pseudo is Ultrasoft, Zval = 12.0
     Generated by new atomic code, or converted to UPF format
     Using radial grid of  851 points,  6 beta functions with: 
                l(1) =   0
                l(2) =   0
                l(3) =   1
                l(4) =   1
                l(5) =   2
                l(6) =   2
     Q(r) pseudized with  8 coefficients,  rinner =    1.000   1.000   1.000
                                                       1.000   1.000

     PseudoPot. # 2 for  O read from file:
     /home/alatimer/bin/psp/esp_psp_w_gbrvRu/O.UPF
     MD5 check sum: e057bbcf3229fb5d8c36c0c92f9568b4
     Pseudo is Ultrasoft + core correction, Zval =  6.0
     Generated using "atomic" code by A. Dal Corso  v.5.0.2 svn rev. 9415
     Using radial grid of 1095 points,  4 beta functions with: 
                l(1) =   0
                l(2) =   0
                l(3) =   1
                l(4) =   1
     Q(r) pseudized with 0 coefficients 


     PseudoPot. # 3 for  C read from file:
     /home/alatimer/bin/psp/esp_psp_w_gbrvRu/C.UPF
     MD5 check sum: ab446d787031eba755f1d5ee46644bb0
     Pseudo is Ultrasoft + core correction, Zval =  4.0
     Generated using "atomic" code by A. Dal Corso  v.5.0.2 svn rev. 9415
     Using radial grid of 1073 points,  4 beta functions with: 
                l(1) =   0
                l(2) =   0
                l(3) =   1
                l(4) =   1
     Q(r) pseudized with 0 coefficients 


     PseudoPot. # 4 for  H read from file:
     /home/alatimer/bin/psp/esp_psp_w_gbrvRu/H.UPF
     MD5 check sum: bd57da0722753ddfd9833a65b40bb853
     Pseudo is Ultrasoft, Zval =  1.0
     Generated using "atomic" code by A. Dal Corso  v.5.0.2 svn rev. 9415
     Using radial grid of  929 points,  2 beta functions with: 
                l(1) =   0
                l(2) =   0
     Q(r) pseudized with 0 coefficients 


     vdW kernel table read from file vdW_kernel_table
     MD5 check sum: 095c7af220d748ca6e76c0b4c6cfb241

     atomic species   valence    mass     pseudopotential
        Ti1           12.00    47.88000     Ti( 1.00)
        O1             6.00    15.99940      O( 1.00)
        C1             4.00    12.01100      C( 1.00)
        H1             1.00     1.00794      H( 1.00)

     Starting magnetic structure 
     atomic species   magnetization
        Ti1          0.250
        O1           0.500
        C1           0.750
        H1           0.000

     No symmetry found



   Cartesian axes

     site n.     atom                  positions (alat units)
         1           Ti1 tau(   1) = (   1.6476770   0.7437786   2.6545865  )
         2           O1  tau(   2) = (   1.6476770   2.2313359   3.9361215  )
         3           Ti1 tau(   3) = (   1.6476770   2.2313359   5.9499405  )
         4           O1  tau(   4) = (   0.3661420   0.7437786   5.9499405  )
         5           Ti1 tau(   5) = (   1.6407309   0.9134410   9.3139491  )
         6           O1  tau(   6) = (   1.6648823   2.2608486  10.4895904  )
         7           Ti1 tau(   7) = (   1.7578240   2.2899216  13.0472362  )
         8           O1  tau(   8) = (   0.4801583   0.7600008  12.7739736  )
         9           Ti1 tau(   9) = (   1.6476770   3.7188931   2.6545865  )
        10           O1  tau(  10) = (   1.6476770   5.2064503   3.9361215  )
        11           Ti1 tau(  11) = (   1.6476770   5.2064503   5.9499405  )
        12           O1  tau(  12) = (   0.3661420   3.7188931   5.9499405  )
        13           Ti1 tau(  13) = (   1.6336050   3.7786827   9.1566831  )
        14           O1  tau(  14) = (   1.6678212   5.2513959  10.5409436  )
        15           Ti1 tau(  15) = (   1.7144009   5.2558216  12.3462911  )
        16           O1  tau(  16) = (   0.4635505   3.7986228  12.7318280  )
        17           O1  tau(  17) = (   1.6476770   2.2313359   1.3730516  )
        18           Ti1 tau(  18) = (   4.9430310   2.2313359   2.6545865  )
        19           O1  tau(  19) = (   4.9430310   2.2313359   4.6684056  )
        20           O1  tau(  20) = (   6.2245660   0.7437786   2.6545865  )
        21           O1  tau(  21) = (   3.6614961   0.7437786   2.6545865  )
        22           Ti1 tau(  22) = (   4.9430310   0.7437786   5.9499405  )
        23           O1  tau(  23) = (   1.6683653   2.2752577   7.9427336  )
        24           O1  tau(  24) = (   4.9430310   2.2313359   7.2314755  )
        25           O1  tau(  25) = (   2.9292120   0.7437786   5.9499405  )
        26           Ti1 tau(  26) = (   4.9404121   2.2664794   9.4552217  )
        27           O1  tau(  27) = (   5.0099888   2.2616732  11.2946145  )
        28           O1  tau(  28) = (   6.2612001   0.7714827   9.2659748  )
        29           O1  tau(  29) = (   3.6791272   0.7744986   9.2965846  )
        30           Ti1 tau(  30) = (   5.0117873   0.7976728  12.8161605  )
        31           O1  tau(  31) = (   4.9963122   2.2836652  13.8750618  )
        32           O1  tau(  32) = (   2.9819382   0.7448324  12.7109220  )
        33           O1  tau(  33) = (   1.6476770   5.2064503   1.3730516  )
        34           Ti1 tau(  34) = (   4.9430310   5.2064503   2.6545865  )
        35           O1  tau(  35) = (   4.9430310   5.2064503   4.6684056  )
        36           O1  tau(  36) = (   6.2245660   3.7188931   2.6545865  )
        37           O1  tau(  37) = (   3.6614961   3.7188931   2.6545865  )
        38           Ti1 tau(  38) = (   4.9430310   3.7188931   5.9499405  )
        39           O1  tau(  39) = (   1.6664207   5.2035600   7.9365221  )
        40           O1  tau(  40) = (   4.9430310   5.2064503   7.2314755  )
        41           O1  tau(  41) = (   2.9292120   3.7188931   5.9499405  )
        42           Ti1 tau(  42) = (   4.9524353   5.2460635   9.4426343  )
        43           O1  tau(  43) = (   5.0107556   5.2394944  11.2927493  )
        44           O1  tau(  44) = (   6.2663940   3.7551737   9.2646230  )
        45           O1  tau(  45) = (   3.6780957   3.7542261   9.2971476  )
        46           Ti1 tau(  46) = (   5.0587989   3.7766986  12.8010349  )
        47           O1  tau(  47) = (   5.0196089   5.2502198  13.8813978  )
        48           O1  tau(  48) = (   2.9624133   3.7943242  12.7299881  )
        49           O1  tau(  49) = (   1.7427453   2.2533568  14.8370015  )
        50           C1  tau(  50) = (   2.7196098   4.2826273  16.2318421  )
        51           H1  tau(  51) = (   3.3037454   4.9255546  15.5827400  )
        52           H1  tau(  52) = (   3.3286606   3.7870117  16.9522022  )
        53           H1  tau(  53) = (   2.3125587   3.4026405  15.5729816  )
        54           H1  tau(  54) = (   1.8391288   4.7650601  16.6448379  )

     number of k points=    40  Fermi-Dirac smearing, width (Ry)=  0.0073
                       cart. coord. in units 2pi/alat
        k(    1) = (   0.0000000   0.0000000   0.0000000), wk =   0.0277778
        k(    2) = (   0.0000000   0.0280101   0.0000000), wk =   0.0555556
        k(    3) = (   0.0000000   0.0560203   0.0000000), wk =   0.0555556
        k(    4) = (   0.0000000  -0.0840304   0.0000000), wk =   0.0277778
        k(    5) = (   0.0252881   0.0000000   0.0000000), wk =   0.0555556
        k(    6) = (   0.0252881   0.0280101   0.0000000), wk =   0.0555556
        k(    7) = (   0.0252881   0.0560203   0.0000000), wk =   0.0555556
        k(    8) = (   0.0252881  -0.0840304   0.0000000), wk =   0.0555556
        k(    9) = (   0.0505763   0.0000000   0.0000000), wk =   0.0555556
        k(   10) = (   0.0505763   0.0280101   0.0000000), wk =   0.0555556
        k(   11) = (   0.0505763   0.0560203   0.0000000), wk =   0.0555556
        k(   12) = (   0.0505763  -0.0840304   0.0000000), wk =   0.0555556
        k(   13) = (  -0.0758644   0.0000000   0.0000000), wk =   0.0277778
        k(   14) = (  -0.0758644   0.0280101   0.0000000), wk =   0.0555556
        k(   15) = (  -0.0758644   0.0560203   0.0000000), wk =   0.0555556
        k(   16) = (  -0.0758644  -0.0840304   0.0000000), wk =   0.0277778
        k(   17) = (  -0.0252881   0.0280101   0.0000000), wk =   0.0555556
        k(   18) = (  -0.0252881   0.0560203   0.0000000), wk =   0.0555556
        k(   19) = (  -0.0505763   0.0280101   0.0000000), wk =   0.0555556
        k(   20) = (  -0.0505763   0.0560203   0.0000000), wk =   0.0555556
        k(   21) = (   0.0000000   0.0000000   0.0000000), wk =   0.0277778
        k(   22) = (   0.0000000   0.0280101   0.0000000), wk =   0.0555556
        k(   23) = (   0.0000000   0.0560203   0.0000000), wk =   0.0555556
        k(   24) = (   0.0000000  -0.0840304   0.0000000), wk =   0.0277778
        k(   25) = (   0.0252881   0.0000000   0.0000000), wk =   0.0555556
        k(   26) = (   0.0252881   0.0280101   0.0000000), wk =   0.0555556
        k(   27) = (   0.0252881   0.0560203   0.0000000), wk =   0.0555556
        k(   28) = (   0.0252881  -0.0840304   0.0000000), wk =   0.0555556
        k(   29) = (   0.0505763   0.0000000   0.0000000), wk =   0.0555556
        k(   30) = (   0.0505763   0.0280101   0.0000000), wk =   0.0555556
        k(   31) = (   0.0505763   0.0560203   0.0000000), wk =   0.0555556
        k(   32) = (   0.0505763  -0.0840304   0.0000000), wk =   0.0555556
        k(   33) = (  -0.0758644   0.0000000   0.0000000), wk =   0.0277778
        k(   34) = (  -0.0758644   0.0280101   0.0000000), wk =   0.0555556
        k(   35) = (  -0.0758644   0.0560203   0.0000000), wk =   0.0555556
        k(   36) = (  -0.0758644  -0.0840304   0.0000000), wk =   0.0277778
        k(   37) = (  -0.0252881   0.0280101   0.0000000), wk =   0.0555556
        k(   38) = (  -0.0252881   0.0560203   0.0000000), wk =   0.0555556
        k(   39) = (  -0.0505763   0.0280101   0.0000000), wk =   0.0555556
        k(   40) = (  -0.0505763   0.0560203   0.0000000), wk =   0.0555556

     Dense  grid:  1096637 G-vectors     FFT dimensions: (  80,  72, 375)

     Smooth grid:   277353 G-vectors     FFT dimensions: (  54,  45, 240)

     Largest allocated arrays     est. size (Mb)     dimensions
        Kohn-Sham Wavefunctions         9.95 Mb     (    2180,  299)
        NL pseudopotentials            18.89 Mb     (    2180,  568)
        Each V/rho on FFT grid          4.22 Mb     (  138240,   2)
        Each G-vector array             0.52 Mb     (   68538)
        G-vector shells                 0.25 Mb     (   33046)
     Largest temporary arrays     est. size (Mb)     dimensions
        Auxiliary wavefunctions        39.78 Mb     (    2180, 1196)
        Each subspace H/S matrix       21.83 Mb     (    1196, 1196)
        Each <psi_i|beta_j> matrix      2.59 Mb     (     568,  299)
        Arrays for rho mixing          21.09 Mb     (  138240,   10)

     Check: negative/imaginary core charge=   -0.000049    0.000000

     The initial density is read from file :
     ./calc.save/charge-density.dat


     negative rho (up, down):  1.189E-02 1.196E-02


     ************************************************************************
     *
     * You are using vdW-DF for exchange-correlation in this calculation.
     * Please cite the following three references that made this development
     * possible:
     *
     *   M. Dion, H. Rydberg, E. Schroder, D. C. Langreth, and
     *   B. I. Lundqvist, Phys. Rev. Lett. 92, 246401 (2004).
     *
     *   T. Thonhauser, V. R. Cooper, S. Li, A. Puzder, P. Hyldgaard, and
     *   D. C. Langreth, Phys. Rev. B 76, 125112 (2007).
     *
     *   G. Roman-Perez and J. M. Soler, Phys. Rev. Lett. 103, 096102 (2009).
     *
     *
     * If you are using vdW-DF2, please also cite:
     *
     *   K. Lee, E. D. Murray, L. Kong, B. I. Lundqvist, and
     *   D. C. Langreth, Phys. Rev. B 82, 081101(R) (2010).
     *
     *
     * If you are calculating the stress with vdW-DF, please also cite:
     *
     *   R. Sabatini, E. Kucukbenli, B. Kolb, T. Thonhauser, and
     *   S. de Gironcoli, J. Phys.: Condens. Matter 24, 424209 (2012).
     *
     ************************************************************************

     Carrying out vdW-DF run using the following parameters:

     Nqs =      20    Nr_points =    1024   r_max =   100.000
     q_mesh =
               0.00001000     0.04494208     0.09755937     0.15916263
               0.23128650     0.31572767     0.41458969     0.53033537
               0.66584808     0.82450364     1.01025438     1.22772762
               1.48234092     1.78043706     2.12944203     2.53805004
               3.01644009     3.57652955     4.23227104     5.00000000

     Gradients computed in reciprocal space

     ************************************************************************


     Starting wfc are  300 randomized atomic wfcs

     total cpu time spent up to now is       79.4 secs

     Self-consistent Calculation

     iteration #  1     ecut=    40.42 Ry     beta=0.10
     Davidson diagonalization with overlap
     ethr =  1.00E-05,  avg # of iterations = 15.1

     negative rho (up, down):  1.190E-02 1.196E-02
 
     Magnetic moment per site:
     atom:    1    charge:    3.1244    magn:   -0.0003    constr:    0.0000
     atom:    2    charge:    2.0895    magn:    0.0003    constr:    0.0000
     atom:    3    charge:    3.1198    magn:   -0.0000    constr:    0.0000
     atom:    4    charge:    2.0867    magn:   -0.0001    constr:    0.0000
     atom:    5    charge:    3.1161    magn:   -0.0002    constr:    0.0000
     atom:    6    charge:    2.0796    magn:    0.0020    constr:    0.0000
     atom:    7    charge:    3.1167    magn:   -0.0053    constr:    0.0000
     atom:    8    charge:    2.0793    magn:    0.0250    constr:    0.0000
     atom:    9    charge:    3.1244    magn:   -0.0003    constr:    0.0000
     atom:   10    charge:    2.0897    magn:    0.0003    constr:    0.0000
     atom:   11    charge:    3.1198    magn:   -0.0000    constr:    0.0000
     atom:   12    charge:    2.0870    magn:   -0.0000    constr:    0.0000
     atom:   13    charge:    3.1150    magn:   -0.0002    constr:    0.0000
     atom:   14    charge:    2.0939    magn:    0.0022    constr:    0.0000
     atom:   15    charge:    3.1184    magn:   -0.0008    constr:    0.0000
     atom:   16    charge:    2.0830    magn:    0.0046    constr:    0.0000
     atom:   17    charge:    2.0617    magn:    0.0018    constr:    0.0000
     atom:   18    charge:    3.1239    magn:   -0.0001    constr:    0.0000
     atom:   19    charge:    2.0875    magn:    0.0001    constr:    0.0000
     atom:   20    charge:    2.0847    magn:    0.0002    constr:    0.0000
     atom:   21    charge:    2.0847    magn:    0.0002    constr:    0.0000
     atom:   22    charge:    3.1199    magn:    0.0000    constr:    0.0000
     atom:   23    charge:    2.0908    magn:    0.0002    constr:    0.0000
     atom:   24    charge:    2.0754    magn:   -0.0002    constr:    0.0000
     atom:   25    charge:    2.0867    magn:    0.0000    constr:    0.0000
     atom:   26    charge:    3.1126    magn:   -0.0002    constr:    0.0000
     atom:   27    charge:    2.0805    magn:    0.0024    constr:    0.0000
     atom:   28    charge:    2.0840    magn:    0.0006    constr:    0.0000
     atom:   29    charge:    2.0861    magn:    0.0008    constr:    0.0000
     atom:   30    charge:    3.1171    magn:   -0.0008    constr:    0.0000
     atom:   31    charge:    2.0826    magn:    0.0006    constr:    0.0000
     atom:   32    charge:    2.0831    magn:    0.0064    constr:    0.0000
     atom:   33    charge:    2.0617    magn:    0.0018    constr:    0.0000
     atom:   34    charge:    3.1239    magn:   -0.0001    constr:    0.0000
     atom:   35    charge:    2.0875    magn:    0.0001    constr:    0.0000
     atom:   36    charge:    2.0847    magn:    0.0002    constr:    0.0000
     atom:   37    charge:    2.0847    magn:    0.0002    constr:    0.0000
     atom:   38    charge:    3.1200    magn:    0.0000    constr:    0.0000
     atom:   39    charge:    2.0839    magn:    0.0002    constr:    0.0000
     atom:   40    charge:    2.0757    magn:   -0.0003    constr:    0.0000
     atom:   41    charge:    2.0870    magn:   -0.0000    constr:    0.0000
     atom:   42    charge:    3.1151    magn:   -0.0002    constr:    0.0000
     atom:   43    charge:    2.0805    magn:    0.0030    constr:    0.0000
     atom:   44    charge:    2.0852    magn:    0.0008    constr:    0.0000
     atom:   45    charge:    2.0859    magn:    0.0004    constr:    0.0000
     atom:   46    charge:    3.1148    magn:   -0.0007    constr:    0.0000
     atom:   47    charge:    2.0808    magn:    0.0046    constr:    0.0000
     atom:   48    charge:    2.0838    magn:    0.0136    constr:    0.0000
     atom:   49    charge:    2.0518    magn:    0.2398    constr:    0.0000
     atom:   50    charge:    0.6725    magn:    0.0547    constr:    0.0000
     atom:   51    charge:    0.4220    magn:    0.0009    constr:    0.0000
     atom:   52    charge:    0.4330    magn:    0.0008    constr:    0.0000
     atom:   53    charge:    0.3676    magn:    0.0231    constr:    0.0000
     atom:   54    charge:    0.4229    magn:    0.0006    constr:    0.0000

     total cpu time spent up to now is     1048.0 secs

     total energy              =   -3021.14881516 Ry
     Harris-Foulkes estimate   =   -3021.15000926 Ry
     estimated scf accuracy    <       0.00732748 Ry

     total magnetization       =     1.05 Bohr mag/cell
     absolute magnetization    =     1.22 Bohr mag/cell

     iteration #  2     ecut=    40.42 Ry     beta=0.10
     Davidson diagonalization with overlap
     c_bands:  1 eigenvalues not converged
     c_bands:  1 eigenvalues not converged
     ethr =  1.84E-06,  avg # of iterations =  8.2

     negative rho (up, down):  1.190E-02 1.196E-02
 
     Magnetic moment per site:
     atom:    1    charge:    3.1244    magn:   -0.0003    constr:    0.0000
     atom:    2    charge:    2.0897    magn:    0.0003    constr:    0.0000
     atom:    3    charge:    3.1198    magn:   -0.0000    constr:    0.0000
     atom:    4    charge:    2.0867    magn:   -0.0001    constr:    0.0000
     atom:    5    charge:    3.1161    magn:   -0.0002    constr:    0.0000
     atom:    6    charge:    2.0795    magn:    0.0021    constr:    0.0000
     atom:    7    charge:    3.1167    magn:   -0.0053    constr:    0.0000
     atom:    8    charge:    2.0792    magn:    0.0250    constr:    0.0000
     atom:    9    charge:    3.1244    magn:   -0.0003    constr:    0.0000
     atom:   10    charge:    2.0898    magn:    0.0003    constr:    0.0000
     atom:   11    charge:    3.1198    magn:   -0.0000    constr:    0.0000
     atom:   12    charge:    2.0871    magn:   -0.0000    constr:    0.0000
     atom:   13    charge:    3.1150    magn:   -0.0002    constr:    0.0000
     atom:   14    charge:    2.0939    magn:    0.0023    constr:    0.0000
     atom:   15    charge:    3.1184    magn:   -0.0008    constr:    0.0000
     atom:   16    charge:    2.0829    magn:    0.0046    constr:    0.0000
     atom:   17    charge:    2.0623    magn:    0.0018    constr:    0.0000
     atom:   18    charge:    3.1239    magn:   -0.0001    constr:    0.0000
     atom:   19    charge:    2.0876    magn:    0.0001    constr:    0.0000
     atom:   20    charge:    2.0847    magn:    0.0002    constr:    0.0000
     atom:   21    charge:    2.0847    magn:    0.0002    constr:    0.0000
     atom:   22    charge:    3.1199    magn:    0.0000    constr:    0.0000
     atom:   23    charge:    2.0908    magn:    0.0002    constr:    0.0000
     atom:   24    charge:    2.0754    magn:   -0.0002    constr:    0.0000
     atom:   25    charge:    2.0868    magn:    0.0000    constr:    0.0000
     atom:   26    charge:    3.1127    magn:   -0.0002    constr:    0.0000
     atom:   27    charge:    2.0803    magn:    0.0025    constr:    0.0000
     atom:   28    charge:    2.0839    magn:    0.0006    constr:    0.0000
     atom:   29    charge:    2.0860    magn:    0.0008    constr:    0.0000
     atom:   30    charge:    3.1171    magn:   -0.0008    constr:    0.0000
     atom:   31    charge:    2.0826    magn:    0.0006    constr:    0.0000
     atom:   32    charge:    2.0829    magn:    0.0064    constr:    0.0000
     atom:   33    charge:    2.0623    magn:    0.0018    constr:    0.0000
     atom:   34    charge:    3.1239    magn:   -0.0001    constr:    0.0000
     atom:   35    charge:    2.0876    magn:    0.0001    constr:    0.0000
     atom:   36    charge:    2.0847    magn:    0.0002    constr:    0.0000
     atom:   37    charge:    2.0847    magn:    0.0002    constr:    0.0000
     atom:   38    charge:    3.1200    magn:    0.0000    constr:    0.0000
     atom:   39    charge:    2.0839    magn:    0.0002    constr:    0.0000
     atom:   40    charge:    2.0756    magn:   -0.0003    constr:    0.0000
     atom:   41    charge:    2.0870    magn:   -0.0000    constr:    0.0000
     atom:   42    charge:    3.1151    magn:   -0.0002    constr:    0.0000
     atom:   43    charge:    2.0803    magn:    0.0030    constr:    0.0000
     atom:   44    charge:    2.0851    magn:    0.0008    constr:    0.0000
     atom:   45    charge:    2.0858    magn:    0.0004    constr:    0.0000
     atom:   46    charge:    3.1148    magn:   -0.0007    constr:    0.0000
     atom:   47    charge:    2.0807    magn:    0.0046    constr:    0.0000
     atom:   48    charge:    2.0837    magn:    0.0137    constr:    0.0000
     atom:   49    charge:    2.0517    magn:    0.2398    constr:    0.0000
     atom:   50    charge:    0.6727    magn:    0.0547    constr:    0.0000
     atom:   51    charge:    0.4220    magn:    0.0009    constr:    0.0000
     atom:   52    charge:    0.4330    magn:    0.0008    constr:    0.0000
     atom:   53    charge:    0.3676    magn:    0.0231    constr:    0.0000
     atom:   54    charge:    0.4228    magn:    0.0006    constr:    0.0000

     total cpu time spent up to now is     1377.4 secs

     total energy              =   -3021.14886000 Ry
     Harris-Foulkes estimate   =   -3021.15054434 Ry
     estimated scf accuracy    <       0.02907831 Ry

     total magnetization       =     1.08 Bohr mag/cell
     absolute magnetization    =     1.25 Bohr mag/cell

     iteration #  3     ecut=    40.42 Ry     beta=0.10
     Davidson diagonalization with overlap
     ethr =  1.84E-06,  avg # of iterations =  6.4

     negative rho (up, down):  1.191E-02 1.198E-02
 
     Magnetic moment per site:
     atom:    1    charge:    3.1244    magn:   -0.0003    constr:    0.0000
     atom:    2    charge:    2.0897    magn:    0.0003    constr:    0.0000
     atom:    3    charge:    3.1198    magn:   -0.0000    constr:    0.0000
     atom:    4    charge:    2.0867    magn:   -0.0001    constr:    0.0000
     atom:    5    charge:    3.1161    magn:   -0.0002    constr:    0.0000
     atom:    6    charge:    2.0795    magn:    0.0021    constr:    0.0000
     atom:    7    charge:    3.1167    magn:   -0.0054    constr:    0.0000
     atom:    8    charge:    2.0792    magn:    0.0251    constr:    0.0000
     atom:    9    charge:    3.1244    magn:   -0.0003    constr:    0.0000
     atom:   10    charge:    2.0899    magn:    0.0003    constr:    0.0000
     atom:   11    charge:    3.1198    magn:   -0.0000    constr:    0.0000
     atom:   12    charge:    2.0870    magn:   -0.0000    constr:    0.0000
     atom:   13    charge:    3.1150    magn:   -0.0002    constr:    0.0000
     atom:   14    charge:    2.0939    magn:    0.0023    constr:    0.0000
     atom:   15    charge:    3.1184    magn:   -0.0008    constr:    0.0000
     atom:   16    charge:    2.0828    magn:    0.0046    constr:    0.0000
     atom:   17    charge:    2.0626    magn:    0.0016    constr:    0.0000
     atom:   18    charge:    3.1239    magn:   -0.0001    constr:    0.0000
     atom:   19    charge:    2.0875    magn:    0.0001    constr:    0.0000
     atom:   20    charge:    2.0847    magn:    0.0001    constr:    0.0000
     atom:   21    charge:    2.0847    magn:    0.0001    constr:    0.0000
     atom:   22    charge:    3.1199    magn:    0.0000    constr:    0.0000
     atom:   23    charge:    2.0908    magn:    0.0002    constr:    0.0000
     atom:   24    charge:    2.0753    magn:   -0.0001    constr:    0.0000
     atom:   25    charge:    2.0867    magn:    0.0000    constr:    0.0000
     atom:   26    charge:    3.1127    magn:   -0.0002    constr:    0.0000
     atom:   27    charge:    2.0802    magn:    0.0025    constr:    0.0000
     atom:   28    charge:    2.0838    magn:    0.0006    constr:    0.0000
     atom:   29    charge:    2.0860    magn:    0.0008    constr:    0.0000
     atom:   30    charge:    3.1171    magn:   -0.0008    constr:    0.0000
     atom:   31    charge:    2.0825    magn:    0.0006    constr:    0.0000
     atom:   32    charge:    2.0829    magn:    0.0064    constr:    0.0000
     atom:   33    charge:    2.0626    magn:    0.0016    constr:    0.0000
     atom:   34    charge:    3.1239    magn:   -0.0001    constr:    0.0000
     atom:   35    charge:    2.0876    magn:    0.0001    constr:    0.0000
     atom:   36    charge:    2.0847    magn:    0.0001    constr:    0.0000
     atom:   37    charge:    2.0847    magn:    0.0001    constr:    0.0000
     atom:   38    charge:    3.1200    magn:    0.0000    constr:    0.0000
     atom:   39    charge:    2.0839    magn:    0.0002    constr:    0.0000
     atom:   40    charge:    2.0756    magn:   -0.0002    constr:    0.0000
     atom:   41    charge:    2.0870    magn:   -0.0000    constr:    0.0000
     atom:   42    charge:    3.1151    magn:   -0.0002    constr:    0.0000
     atom:   43    charge:    2.0802    magn:    0.0030    constr:    0.0000
     atom:   44    charge:    2.0850    magn:    0.0009    constr:    0.0000
     atom:   45    charge:    2.0858    magn:    0.0004    constr:    0.0000
     atom:   46    charge:    3.1148    magn:   -0.0007    constr:    0.0000
     atom:   47    charge:    2.0806    magn:    0.0047    constr:    0.0000
     atom:   48    charge:    2.0837    magn:    0.0137    constr:    0.0000
     atom:   49    charge:    2.0516    magn:    0.2400    constr:    0.0000
     atom:   50    charge:    0.6753    magn:    0.0547    constr:    0.0000
     atom:   51    charge:    0.4221    magn:    0.0008    constr:    0.0000
     atom:   52    charge:    0.4334    magn:    0.0008    constr:    0.0000
     atom:   53    charge:    0.3677    magn:    0.0229    constr:    0.0000
     atom:   54    charge:    0.4223    magn:    0.0006    constr:    0.0000

     total cpu time spent up to now is     1672.0 secs

     total energy              =   -3021.14923910 Ry
     Harris-Foulkes estimate   =   -3021.14961735 Ry
     estimated scf accuracy    <       0.00134535 Ry

     total magnetization       =     1.06 Bohr mag/cell
     absolute magnetization    =     1.23 Bohr mag/cell

     iteration #  4     ecut=    40.42 Ry     beta=0.10
     Davidson diagonalization with overlap
     ethr =  3.38E-07,  avg # of iterations =  3.0

     negative rho (up, down):  1.191E-02 1.198E-02
 
     Magnetic moment per site:
     atom:    1    charge:    3.1244    magn:   -0.0003    constr:    0.0000
     atom:    2    charge:    2.0897    magn:    0.0003    constr:    0.0000
     atom:    3    charge:    3.1198    magn:   -0.0000    constr:    0.0000
     atom:    4    charge:    2.0867    magn:   -0.0001    constr:    0.0000
     atom:    5    charge:    3.1161    magn:   -0.0002    constr:    0.0000
     atom:    6    charge:    2.0795    magn:    0.0021    constr:    0.0000
     atom:    7    charge:    3.1167    magn:   -0.0053    constr:    0.0000
     atom:    8    charge:    2.0793    magn:    0.0250    constr:    0.0000
     atom:    9    charge:    3.1244    magn:   -0.0003    constr:    0.0000
     atom:   10    charge:    2.0899    magn:    0.0003    constr:    0.0000
     atom:   11    charge:    3.1198    magn:   -0.0000    constr:    0.0000
     atom:   12    charge:    2.0871    magn:   -0.0000    constr:    0.0000
     atom:   13    charge:    3.1150    magn:   -0.0002    constr:    0.0000
     atom:   14    charge:    2.0939    magn:    0.0023    constr:    0.0000
     atom:   15    charge:    3.1184    magn:   -0.0008    constr:    0.0000
     atom:   16    charge:    2.0828    magn:    0.0046    constr:    0.0000
     atom:   17    charge:    2.0625    magn:    0.0016    constr:    0.0000
     atom:   18    charge:    3.1239    magn:   -0.0001    constr:    0.0000
     atom:   19    charge:    2.0876    magn:    0.0001    constr:    0.0000
     atom:   20    charge:    2.0847    magn:    0.0001    constr:    0.0000
     atom:   21    charge:    2.0847    magn:    0.0001    constr:    0.0000
     atom:   22    charge:    3.1199    magn:    0.0000    constr:    0.0000
     atom:   23    charge:    2.0908    magn:    0.0002    constr:    0.0000
     atom:   24    charge:    2.0754    magn:   -0.0001    constr:    0.0000
     atom:   25    charge:    2.0867    magn:    0.0000    constr:    0.0000
     atom:   26    charge:    3.1127    magn:   -0.0002    constr:    0.0000
     atom:   27    charge:    2.0802    magn:    0.0025    constr:    0.0000
     atom:   28    charge:    2.0839    magn:    0.0006    constr:    0.0000
     atom:   29    charge:    2.0860    magn:    0.0008    constr:    0.0000
     atom:   30    charge:    3.1171    magn:   -0.0008    constr:    0.0000
     atom:   31    charge:    2.0825    magn:    0.0006    constr:    0.0000
     atom:   32    charge:    2.0828    magn:    0.0065    constr:    0.0000
     atom:   33    charge:    2.0625    magn:    0.0016    constr:    0.0000
     atom:   34    charge:    3.1239    magn:   -0.0001    constr:    0.0000
     atom:   35    charge:    2.0876    magn:    0.0001    constr:    0.0000
     atom:   36    charge:    2.0847    magn:    0.0001    constr:    0.0000
     atom:   37    charge:    2.0847    magn:    0.0001    constr:    0.0000
     atom:   38    charge:    3.1200    magn:    0.0000    constr:    0.0000
     atom:   39    charge:    2.0839    magn:    0.0002    constr:    0.0000
     atom:   40    charge:    2.0756    magn:   -0.0002    constr:    0.0000
     atom:   41    charge:    2.0870    magn:   -0.0000    constr:    0.0000
     atom:   42    charge:    3.1151    magn:   -0.0002    constr:    0.0000
     atom:   43    charge:    2.0802    magn:    0.0030    constr:    0.0000
     atom:   44    charge:    2.0851    magn:    0.0009    constr:    0.0000
     atom:   45    charge:    2.0858    magn:    0.0004    constr:    0.0000
     atom:   46    charge:    3.1148    magn:   -0.0007    constr:    0.0000
     atom:   47    charge:    2.0806    magn:    0.0047    constr:    0.0000
     atom:   48    charge:    2.0837    magn:    0.0137    constr:    0.0000
     atom:   49    charge:    2.0516    magn:    0.2400    constr:    0.0000
     atom:   50    charge:    0.6754    magn:    0.0547    constr:    0.0000
     atom:   51    charge:    0.4221    magn:    0.0008    constr:    0.0000
     atom:   52    charge:    0.4335    magn:    0.0008    constr:    0.0000
     atom:   53    charge:    0.3677    magn:    0.0229    constr:    0.0000
     atom:   54    charge:    0.4223    magn:    0.0006    constr:    0.0000

     total cpu time spent up to now is     1912.5 secs

     total energy              =   -3021.14934642 Ry
     Harris-Foulkes estimate   =   -3021.14939744 Ry
     estimated scf accuracy    <       0.00102321 Ry

     total magnetization       =     1.06 Bohr mag/cell
     absolute magnetization    =     1.23 Bohr mag/cell

     iteration #  5     ecut=    40.42 Ry     beta=0.10
     Davidson diagonalization with overlap
     ethr =  2.57E-07,  avg # of iterations =  1.0

     negative rho (up, down):  1.191E-02 1.198E-02
 
     Magnetic moment per site:
     atom:    1    charge:    3.1244    magn:   -0.0003    constr:    0.0000
     atom:    2    charge:    2.0897    magn:    0.0002    constr:    0.0000
     atom:    3    charge:    3.1198    magn:   -0.0000    constr:    0.0000
     atom:    4    charge:    2.0867    magn:   -0.0001    constr:    0.0000
     atom:    5    charge:    3.1161    magn:   -0.0002    constr:    0.0000
     atom:    6    charge:    2.0795    magn:    0.0021    constr:    0.0000
     atom:    7    charge:    3.1167    magn:   -0.0053    constr:    0.0000
     atom:    8    charge:    2.0794    magn:    0.0250    constr:    0.0000
     atom:    9    charge:    3.1245    magn:   -0.0003    constr:    0.0000
     atom:   10    charge:    2.0898    magn:    0.0003    constr:    0.0000
     atom:   11    charge:    3.1198    magn:   -0.0000    constr:    0.0000
     atom:   12    charge:    2.0871    magn:   -0.0000    constr:    0.0000
     atom:   13    charge:    3.1150    magn:   -0.0002    constr:    0.0000
     atom:   14    charge:    2.0939    magn:    0.0022    constr:    0.0000
     atom:   15    charge:    3.1184    magn:   -0.0008    constr:    0.0000
     atom:   16    charge:    2.0828    magn:    0.0046    constr:    0.0000
     atom:   17    charge:    2.0624    magn:    0.0015    constr:    0.0000
     atom:   18    charge:    3.1240    magn:   -0.0001    constr:    0.0000
     atom:   19    charge:    2.0875    magn:    0.0001    constr:    0.0000
     atom:   20    charge:    2.0847    magn:    0.0001    constr:    0.0000
     atom:   21    charge:    2.0847    magn:    0.0001    constr:    0.0000
     atom:   22    charge:    3.1199    magn:    0.0000    constr:    0.0000
     atom:   23    charge:    2.0908    magn:    0.0002    constr:    0.0000
     atom:   24    charge:    2.0754    magn:   -0.0001    constr:    0.0000
     atom:   25    charge:    2.0868    magn:    0.0000    constr:    0.0000
     atom:   26    charge:    3.1127    magn:   -0.0002    constr:    0.0000
     atom:   27    charge:    2.0803    magn:    0.0025    constr:    0.0000
     atom:   28    charge:    2.0839    magn:    0.0007    constr:    0.0000
     atom:   29    charge:    2.0860    magn:    0.0008    constr:    0.0000
     atom:   30    charge:    3.1171    magn:   -0.0008    constr:    0.0000
     atom:   31    charge:    2.0825    magn:    0.0006    constr:    0.0000
     atom:   32    charge:    2.0829    magn:    0.0065    constr:    0.0000
     atom:   33    charge:    2.0624    magn:    0.0015    constr:    0.0000
     atom:   34    charge:    3.1240    magn:   -0.0001    constr:    0.0000
     atom:   35    charge:    2.0875    magn:    0.0001    constr:    0.0000
     atom:   36    charge:    2.0847    magn:    0.0001    constr:    0.0000
     atom:   37    charge:    2.0847    magn:    0.0001    constr:    0.0000
     atom:   38    charge:    3.1200    magn:    0.0000    constr:    0.0000
     atom:   39    charge:    2.0839    magn:    0.0002    constr:    0.0000
     atom:   40    charge:    2.0756    magn:   -0.0002    constr:    0.0000
     atom:   41    charge:    2.0870    magn:   -0.0000    constr:    0.0000
     atom:   42    charge:    3.1151    magn:   -0.0002    constr:    0.0000
     atom:   43    charge:    2.0803    magn:    0.0031    constr:    0.0000
     atom:   44    charge:    2.0851    magn:    0.0009    constr:    0.0000
     atom:   45    charge:    2.0858    magn:    0.0004    constr:    0.0000
     atom:   46    charge:    3.1147    magn:   -0.0007    constr:    0.0000
     atom:   47    charge:    2.0806    magn:    0.0047    constr:    0.0000
     atom:   48    charge:    2.0837    magn:    0.0136    constr:    0.0000
     atom:   49    charge:    2.0518    magn:    0.2398    constr:    0.0000
     atom:   50    charge:    0.6754    magn:    0.0548    constr:    0.0000
     atom:   51    charge:    0.4221    magn:    0.0008    constr:    0.0000
     atom:   52    charge:    0.4338    magn:    0.0009    constr:    0.0000
     atom:   53    charge:    0.3675    magn:    0.0231    constr:    0.0000
     atom:   54    charge:    0.4223    magn:    0.0006    constr:    0.0000

     total cpu time spent up to now is     2113.4 secs

     total energy              =   -3021.14933078 Ry
     Harris-Foulkes estimate   =   -3021.14936344 Ry
     estimated scf accuracy    <       0.00028835 Ry

     total magnetization       =     1.06 Bohr mag/cell
     absolute magnetization    =     1.23 Bohr mag/cell

     iteration #  6     ecut=    40.42 Ry     beta=0.10
     Davidson diagonalization with overlap
     ethr =  7.24E-08,  avg # of iterations =  2.0

     negative rho (up, down):  1.191E-02 1.198E-02
 
     Magnetic moment per site:
     atom:    1    charge:    3.1244    magn:   -0.0002    constr:    0.0000
     atom:    2    charge:    2.0897    magn:    0.0002    constr:    0.0000
     atom:    3    charge:    3.1198    magn:   -0.0000    constr:    0.0000
     atom:    4    charge:    2.0867    magn:   -0.0001    constr:    0.0000
     atom:    5    charge:    3.1161    magn:   -0.0002    constr:    0.0000
     atom:    6    charge:    2.0795    magn:    0.0021    constr:    0.0000
     atom:    7    charge:    3.1167    magn:   -0.0053    constr:    0.0000
     atom:    8    charge:    2.0794    magn:    0.0249    constr:    0.0000
     atom:    9    charge:    3.1244    magn:   -0.0002    constr:    0.0000
     atom:   10    charge:    2.0898    magn:    0.0002    constr:    0.0000
     atom:   11    charge:    3.1198    magn:   -0.0000    constr:    0.0000
     atom:   12    charge:    2.0870    magn:   -0.0000    constr:    0.0000
     atom:   13    charge:    3.1150    magn:   -0.0002    constr:    0.0000
     atom:   14    charge:    2.0939    magn:    0.0022    constr:    0.0000
     atom:   15    charge:    3.1184    magn:   -0.0008    constr:    0.0000
     atom:   16    charge:    2.0829    magn:    0.0046    constr:    0.0000
     atom:   17    charge:    2.0625    magn:    0.0013    constr:    0.0000
     atom:   18    charge:    3.1240    magn:   -0.0001    constr:    0.0000
     atom:   19    charge:    2.0875    magn:    0.0000    constr:    0.0000
     atom:   20    charge:    2.0847    magn:    0.0001    constr:    0.0000
     atom:   21    charge:    2.0847    magn:    0.0001    constr:    0.0000
     atom:   22    charge:    3.1199    magn:    0.0000    constr:    0.0000
     atom:   23    charge:    2.0908    magn:    0.0002    constr:    0.0000
     atom:   24    charge:    2.0754    magn:   -0.0001    constr:    0.0000
     atom:   25    charge:    2.0867    magn:    0.0000    constr:    0.0000
     atom:   26    charge:    3.1127    magn:   -0.0002    constr:    0.0000
     atom:   27    charge:    2.0803    magn:    0.0026    constr:    0.0000
     atom:   28    charge:    2.0839    magn:    0.0007    constr:    0.0000
     atom:   29    charge:    2.0860    magn:    0.0008    constr:    0.0000
     atom:   30    charge:    3.1171    magn:   -0.0008    constr:    0.0000
     atom:   31    charge:    2.0826    magn:    0.0006    constr:    0.0000
     atom:   32    charge:    2.0829    magn:    0.0065    constr:    0.0000
     atom:   33    charge:    2.0625    magn:    0.0013    constr:    0.0000
     atom:   34    charge:    3.1240    magn:   -0.0001    constr:    0.0000
     atom:   35    charge:    2.0875    magn:    0.0000    constr:    0.0000
     atom:   36    charge:    2.0847    magn:    0.0001    constr:    0.0000
     atom:   37    charge:    2.0847    magn:    0.0001    constr:    0.0000
     atom:   38    charge:    3.1200    magn:    0.0000    constr:    0.0000
     atom:   39    charge:    2.0839    magn:    0.0002    constr:    0.0000
     atom:   40    charge:    2.0756    magn:   -0.0002    constr:    0.0000
     atom:   41    charge:    2.0870    magn:   -0.0000    constr:    0.0000
     atom:   42    charge:    3.1151    magn:   -0.0002    constr:    0.0000
     atom:   43    charge:    2.0803    magn:    0.0031    constr:    0.0000
     atom:   44    charge:    2.0851    magn:    0.0009    constr:    0.0000
     atom:   45    charge:    2.0858    magn:    0.0005    constr:    0.0000
     atom:   46    charge:    3.1147    magn:   -0.0007    constr:    0.0000
     atom:   47    charge:    2.0807    magn:    0.0047    constr:    0.0000
     atom:   48    charge:    2.0837    magn:    0.0135    constr:    0.0000
     atom:   49    charge:    2.0520    magn:    0.2396    constr:    0.0000
     atom:   50    charge:    0.6750    magn:    0.0549    constr:    0.0000
     atom:   51    charge:    0.4222    magn:    0.0008    constr:    0.0000
     atom:   52    charge:    0.4342    magn:    0.0009    constr:    0.0000
     atom:   53    charge:    0.3674    magn:    0.0234    constr:    0.0000
     atom:   54    charge:    0.4224    magn:    0.0006    constr:    0.0000

     total cpu time spent up to now is     2333.7 secs

     total energy              =   -3021.14931900 Ry
     Harris-Foulkes estimate   =   -3021.14934675 Ry
     estimated scf accuracy    <       0.00028300 Ry

     total magnetization       =     1.06 Bohr mag/cell
     absolute magnetization    =     1.23 Bohr mag/cell

     iteration #  7     ecut=    40.42 Ry     beta=0.10
     Davidson diagonalization with overlap
     ethr =  7.11E-08,  avg # of iterations =  3.5

     negative rho (up, down):  1.191E-02 1.198E-02
 
     Magnetic moment per site:
     atom:    1    charge:    3.1244    magn:   -0.0002    constr:    0.0000
     atom:    2    charge:    2.0897    magn:    0.0002    constr:    0.0000
     atom:    3    charge:    3.1198    magn:   -0.0000    constr:    0.0000
     atom:    4    charge:    2.0867    magn:   -0.0001    constr:    0.0000
     atom:    5    charge:    3.1161    magn:   -0.0003    constr:    0.0000
     atom:    6    charge:    2.0795    magn:    0.0021    constr:    0.0000
     atom:    7    charge:    3.1167    magn:   -0.0053    constr:    0.0000
     atom:    8    charge:    2.0793    magn:    0.0249    constr:    0.0000
     atom:    9    charge:    3.1244    magn:   -0.0002    constr:    0.0000
     atom:   10    charge:    2.0898    magn:    0.0002    constr:    0.0000
     atom:   11    charge:    3.1198    magn:   -0.0000    constr:    0.0000
     atom:   12    charge:    2.0871    magn:   -0.0000    constr:    0.0000
     atom:   13    charge:    3.1150    magn:   -0.0002    constr:    0.0000
     atom:   14    charge:    2.0939    magn:    0.0022    constr:    0.0000
     atom:   15    charge:    3.1184    magn:   -0.0008    constr:    0.0000
     atom:   16    charge:    2.0829    magn:    0.0047    constr:    0.0000
     atom:   17    charge:    2.0624    magn:    0.0012    constr:    0.0000
     atom:   18    charge:    3.1240    magn:   -0.0000    constr:    0.0000
     atom:   19    charge:    2.0875    magn:    0.0000    constr:    0.0000
     atom:   20    charge:    2.0847    magn:    0.0001    constr:    0.0000
     atom:   21    charge:    2.0847    magn:    0.0001    constr:    0.0000
     atom:   22    charge:    3.1199    magn:    0.0000    constr:    0.0000
     atom:   23    charge:    2.0908    magn:    0.0002    constr:    0.0000
     atom:   24    charge:    2.0754    magn:   -0.0001    constr:    0.0000
     atom:   25    charge:    2.0867    magn:    0.0000    constr:    0.0000
     atom:   26    charge:    3.1127    magn:   -0.0003    constr:    0.0000
     atom:   27    charge:    2.0802    magn:    0.0026    constr:    0.0000
     atom:   28    charge:    2.0839    magn:    0.0007    constr:    0.0000
     atom:   29    charge:    2.0860    magn:    0.0009    constr:    0.0000
     atom:   30    charge:    3.1171    magn:   -0.0008    constr:    0.0000
     atom:   31    charge:    2.0826    magn:    0.0006    constr:    0.0000
     atom:   32    charge:    2.0829    magn:    0.0065    constr:    0.0000
     atom:   33    charge:    2.0624    magn:    0.0012    constr:    0.0000
     atom:   34    charge:    3.1239    magn:   -0.0000    constr:    0.0000
     atom:   35    charge:    2.0876    magn:    0.0000    constr:    0.0000
     atom:   36    charge:    2.0847    magn:    0.0001    constr:    0.0000
     atom:   37    charge:    2.0847    magn:    0.0001    constr:    0.0000
     atom:   38    charge:    3.1200    magn:    0.0000    constr:    0.0000
     atom:   39    charge:    2.0839    magn:    0.0002    constr:    0.0000
     atom:   40    charge:    2.0756    magn:   -0.0001    constr:    0.0000
     atom:   41    charge:    2.0870    magn:   -0.0000    constr:    0.0000
     atom:   42    charge:    3.1151    magn:   -0.0002    constr:    0.0000
     atom:   43    charge:    2.0803    magn:    0.0031    constr:    0.0000
     atom:   44    charge:    2.0851    magn:    0.0009    constr:    0.0000
     atom:   45    charge:    2.0858    magn:    0.0005    constr:    0.0000
     atom:   46    charge:    3.1147    magn:   -0.0007    constr:    0.0000
     atom:   47    charge:    2.0807    magn:    0.0047    constr:    0.0000
     atom:   48    charge:    2.0837    magn:    0.0135    constr:    0.0000
     atom:   49    charge:    2.0519    magn:    0.2396    constr:    0.0000
     atom:   50    charge:    0.6748    magn:    0.0549    constr:    0.0000
     atom:   51    charge:    0.4222    magn:    0.0008    constr:    0.0000
     atom:   52    charge:    0.4345    magn:    0.0009    constr:    0.0000
     atom:   53    charge:    0.3674    magn:    0.0234    constr:    0.0000
     atom:   54    charge:    0.4226    magn:    0.0006    constr:    0.0000

     total cpu time spent up to now is     2577.2 secs

     total energy              =   -3021.14933283 Ry
     Harris-Foulkes estimate   =   -3021.14933812 Ry
     estimated scf accuracy    <       0.00008075 Ry

     total magnetization       =     1.06 Bohr mag/cell
     absolute magnetization    =     1.23 Bohr mag/cell

     iteration #  8     ecut=    40.42 Ry     beta=0.10
     Davidson diagonalization with overlap
     ethr =  2.03E-08,  avg # of iterations =  2.3

     negative rho (up, down):  1.191E-02 1.198E-02
 
     Magnetic moment per site:
     atom:    1    charge:    3.1244    magn:   -0.0002    constr:    0.0000
     atom:    2    charge:    2.0897    magn:    0.0002    constr:    0.0000
     atom:    3    charge:    3.1198    magn:   -0.0000    constr:    0.0000
     atom:    4    charge:    2.0867    magn:   -0.0001    constr:    0.0000
     atom:    5    charge:    3.1161    magn:   -0.0003    constr:    0.0000
     atom:    6    charge:    2.0795    magn:    0.0021    constr:    0.0000
     atom:    7    charge:    3.1167    magn:   -0.0052    constr:    0.0000
     atom:    8    charge:    2.0792    magn:    0.0249    constr:    0.0000
     atom:    9    charge:    3.1244    magn:   -0.0002    constr:    0.0000
     atom:   10    charge:    2.0898    magn:    0.0002    constr:    0.0000
     atom:   11    charge:    3.1198    magn:   -0.0000    constr:    0.0000
     atom:   12    charge:    2.0870    magn:   -0.0000    constr:    0.0000
     atom:   13    charge:    3.1150    magn:   -0.0002    constr:    0.0000
     atom:   14    charge:    2.0939    magn:    0.0022    constr:    0.0000
     atom:   15    charge:    3.1184    magn:   -0.0008    constr:    0.0000
     atom:   16    charge:    2.0828    magn:    0.0047    constr:    0.0000
     atom:   17    charge:    2.0624    magn:    0.0011    constr:    0.0000
     atom:   18    charge:    3.1239    magn:   -0.0000    constr:    0.0000
     atom:   19    charge:    2.0875    magn:    0.0000    constr:    0.0000
     atom:   20    charge:    2.0847    magn:    0.0001    constr:    0.0000
     atom:   21    charge:    2.0847    magn:    0.0001    constr:    0.0000
     atom:   22    charge:    3.1199    magn:    0.0000    constr:    0.0000
     atom:   23    charge:    2.0908    magn:    0.0003    constr:    0.0000
     atom:   24    charge:    2.0754    magn:   -0.0001    constr:    0.0000
     atom:   25    charge:    2.0867    magn:    0.0000    constr:    0.0000
     atom:   26    charge:    3.1127    magn:   -0.0003    constr:    0.0000
     atom:   27    charge:    2.0802    magn:    0.0026    constr:    0.0000
     atom:   28    charge:    2.0839    magn:    0.0007    constr:    0.0000
     atom:   29    charge:    2.0860    magn:    0.0009    constr:    0.0000
     atom:   30    charge:    3.1171    magn:   -0.0008    constr:    0.0000
     atom:   31    charge:    2.0826    magn:    0.0006    constr:    0.0000
     atom:   32    charge:    2.0829    magn:    0.0065    constr:    0.0000
     atom:   33    charge:    2.0624    magn:    0.0011    constr:    0.0000
     atom:   34    charge:    3.1239    magn:   -0.0000    constr:    0.0000
     atom:   35    charge:    2.0876    magn:    0.0000    constr:    0.0000
     atom:   36    charge:    2.0847    magn:    0.0001    constr:    0.0000
     atom:   37    charge:    2.0847    magn:    0.0001    constr:    0.0000
     atom:   38    charge:    3.1200    magn:    0.0000    constr:    0.0000
     atom:   39    charge:    2.0839    magn:    0.0002    constr:    0.0000
     atom:   40    charge:    2.0756    magn:   -0.0001    constr:    0.0000
     atom:   41    charge:    2.0870    magn:   -0.0000    constr:    0.0000
     atom:   42    charge:    3.1151    magn:   -0.0002    constr:    0.0000
     atom:   43    charge:    2.0803    magn:    0.0031    constr:    0.0000
     atom:   44    charge:    2.0851    magn:    0.0010    constr:    0.0000
     atom:   45    charge:    2.0858    magn:    0.0005    constr:    0.0000
     atom:   46    charge:    3.1148    magn:   -0.0007    constr:    0.0000
     atom:   47    charge:    2.0807    magn:    0.0047    constr:    0.0000
     atom:   48    charge:    2.0837    magn:    0.0135    constr:    0.0000
     atom:   49    charge:    2.0517    magn:    0.2396    constr:    0.0000
     atom:   50    charge:    0.6744    magn:    0.0548    constr:    0.0000
     atom:   51    charge:    0.4222    magn:    0.0008    constr:    0.0000
     atom:   52    charge:    0.4346    magn:    0.0009    constr:    0.0000
     atom:   53    charge:    0.3674    magn:    0.0234    constr:    0.0000
     atom:   54    charge:    0.4227    magn:    0.0006    constr:    0.0000

     total cpu time spent up to now is     2797.5 secs

     total energy              =   -3021.14933502 Ry
     Harris-Foulkes estimate   =   -3021.14933784 Ry
     estimated scf accuracy    <       0.00002093 Ry

     total magnetization       =     1.06 Bohr mag/cell
     absolute magnetization    =     1.23 Bohr mag/cell

     iteration #  9     ecut=    40.42 Ry     beta=0.10
     Davidson diagonalization with overlap
     ethr =  5.26E-09,  avg # of iterations =  3.0

     negative rho (up, down):  1.191E-02 1.198E-02
 
     Magnetic moment per site:
     atom:    1    charge:    3.1244    magn:   -0.0002    constr:    0.0000
     atom:    2    charge:    2.0897    magn:    0.0002    constr:    0.0000
     atom:    3    charge:    3.1198    magn:   -0.0000    constr:    0.0000
     atom:    4    charge:    2.0867    magn:   -0.0001    constr:    0.0000
     atom:    5    charge:    3.1161    magn:   -0.0003    constr:    0.0000
     atom:    6    charge:    2.0795    magn:    0.0021    constr:    0.0000
     atom:    7    charge:    3.1167    magn:   -0.0052    constr:    0.0000
     atom:    8    charge:    2.0793    magn:    0.0249    constr:    0.0000
     atom:    9    charge:    3.1244    magn:   -0.0002    constr:    0.0000
     atom:   10    charge:    2.0898    magn:    0.0002    constr:    0.0000
     atom:   11    charge:    3.1198    magn:   -0.0000    constr:    0.0000
     atom:   12    charge:    2.0870    magn:   -0.0000    constr:    0.0000
     atom:   13    charge:    3.1150    magn:   -0.0002    constr:    0.0000
     atom:   14    charge:    2.0939    magn:    0.0022    constr:    0.0000
     atom:   15    charge:    3.1184    magn:   -0.0008    constr:    0.0000
     atom:   16    charge:    2.0828    magn:    0.0047    constr:    0.0000
     atom:   17    charge:    2.0624    magn:    0.0010    constr:    0.0000
     atom:   18    charge:    3.1239    magn:   -0.0000    constr:    0.0000
     atom:   19    charge:    2.0875    magn:    0.0000    constr:    0.0000
     atom:   20    charge:    2.0847    magn:    0.0001    constr:    0.0000
     atom:   21    charge:    2.0847    magn:    0.0001    constr:    0.0000
     atom:   22    charge:    3.1199    magn:    0.0000    constr:    0.0000
     atom:   23    charge:    2.0908    magn:    0.0003    constr:    0.0000
     atom:   24    charge:    2.0754    magn:   -0.0000    constr:    0.0000
     atom:   25    charge:    2.0867    magn:    0.0000    constr:    0.0000
     atom:   26    charge:    3.1127    magn:   -0.0003    constr:    0.0000
     atom:   27    charge:    2.0803    magn:    0.0027    constr:    0.0000
     atom:   28    charge:    2.0839    magn:    0.0007    constr:    0.0000
     atom:   29    charge:    2.0860    magn:    0.0009    constr:    0.0000
     atom:   30    charge:    3.1171    magn:   -0.0008    constr:    0.0000
     atom:   31    charge:    2.0825    magn:    0.0006    constr:    0.0000
     atom:   32    charge:    2.0829    magn:    0.0065    constr:    0.0000
     atom:   33    charge:    2.0624    magn:    0.0010    constr:    0.0000
     atom:   34    charge:    3.1239    magn:   -0.0000    constr:    0.0000
     atom:   35    charge:    2.0876    magn:    0.0000    constr:    0.0000
     atom:   36    charge:    2.0847    magn:    0.0001    constr:    0.0000
     atom:   37    charge:    2.0847    magn:    0.0001    constr:    0.0000
     atom:   38    charge:    3.1200    magn:    0.0000    constr:    0.0000
     atom:   39    charge:    2.0839    magn:    0.0002    constr:    0.0000
     atom:   40    charge:    2.0756    magn:   -0.0001    constr:    0.0000
     atom:   41    charge:    2.0870    magn:   -0.0000    constr:    0.0000
     atom:   42    charge:    3.1151    magn:   -0.0002    constr:    0.0000
     atom:   43    charge:    2.0803    magn:    0.0032    constr:    0.0000
     atom:   44    charge:    2.0851    magn:    0.0010    constr:    0.0000
     atom:   45    charge:    2.0858    magn:    0.0005    constr:    0.0000
     atom:   46    charge:    3.1148    magn:   -0.0007    constr:    0.0000
     atom:   47    charge:    2.0806    magn:    0.0047    constr:    0.0000
     atom:   48    charge:    2.0837    magn:    0.0135    constr:    0.0000
     atom:   49    charge:    2.0517    magn:    0.2396    constr:    0.0000
     atom:   50    charge:    0.6744    magn:    0.0548    constr:    0.0000
     atom:   51    charge:    0.4222    magn:    0.0008    constr:    0.0000
     atom:   52    charge:    0.4346    magn:    0.0009    constr:    0.0000
     atom:   53    charge:    0.3674    magn:    0.0234    constr:    0.0000
     atom:   54    charge:    0.4228    magn:    0.0006    constr:    0.0000

     total cpu time spent up to now is     3034.7 secs

     total energy              =   -3021.14933651 Ry
     Harris-Foulkes estimate   =   -3021.14933692 Ry
     estimated scf accuracy    <       0.00000680 Ry

     total magnetization       =     1.06 Bohr mag/cell
     absolute magnetization    =     1.23 Bohr mag/cell

     iteration # 10     ecut=    40.42 Ry     beta=0.10
     Davidson diagonalization with overlap
     ethr =  1.71E-09,  avg # of iterations =  2.0

     negative rho (up, down):  1.191E-02 1.198E-02
 
     Magnetic moment per site:
     atom:    1    charge:    3.1244    magn:   -0.0002    constr:    0.0000
     atom:    2    charge:    2.0897    magn:    0.0001    constr:    0.0000
     atom:    3    charge:    3.1198    magn:   -0.0000    constr:    0.0000
     atom:    4    charge:    2.0867    magn:   -0.0001    constr:    0.0000
     atom:    5    charge:    3.1161    magn:   -0.0003    constr:    0.0000
     atom:    6    charge:    2.0795    magn:    0.0022    constr:    0.0000
     atom:    7    charge:    3.1167    magn:   -0.0052    constr:    0.0000
     atom:    8    charge:    2.0793    magn:    0.0249    constr:    0.0000
     atom:    9    charge:    3.1244    magn:   -0.0002    constr:    0.0000
     atom:   10    charge:    2.0898    magn:    0.0002    constr:    0.0000
     atom:   11    charge:    3.1198    magn:   -0.0000    constr:    0.0000
     atom:   12    charge:    2.0870    magn:   -0.0000    constr:    0.0000
     atom:   13    charge:    3.1150    magn:   -0.0002    constr:    0.0000
     atom:   14    charge:    2.0939    magn:    0.0022    constr:    0.0000
     atom:   15    charge:    3.1184    magn:   -0.0008    constr:    0.0000
     atom:   16    charge:    2.0828    magn:    0.0047    constr:    0.0000
     atom:   17    charge:    2.0624    magn:    0.0009    constr:    0.0000
     atom:   18    charge:    3.1239    magn:   -0.0000    constr:    0.0000
     atom:   19    charge:    2.0875    magn:    0.0000    constr:    0.0000
     atom:   20    charge:    2.0847    magn:    0.0001    constr:    0.0000
     atom:   21    charge:    2.0847    magn:    0.0001    constr:    0.0000
     atom:   22    charge:    3.1199    magn:    0.0000    constr:    0.0000
     atom:   23    charge:    2.0908    magn:    0.0003    constr:    0.0000
     atom:   24    charge:    2.0754    magn:   -0.0000    constr:    0.0000
     atom:   25    charge:    2.0867    magn:    0.0000    constr:    0.0000
     atom:   26    charge:    3.1127    magn:   -0.0003    constr:    0.0000
     atom:   27    charge:    2.0803    magn:    0.0027    constr:    0.0000
     atom:   28    charge:    2.0839    magn:    0.0008    constr:    0.0000
     atom:   29    charge:    2.0860    magn:    0.0009    constr:    0.0000
     atom:   30    charge:    3.1171    magn:   -0.0008    constr:    0.0000
     atom:   31    charge:    2.0825    magn:    0.0006    constr:    0.0000
     atom:   32    charge:    2.0829    magn:    0.0065    constr:    0.0000
     atom:   33    charge:    2.0624    magn:    0.0009    constr:    0.0000
     atom:   34    charge:    3.1239    magn:   -0.0000    constr:    0.0000
     atom:   35    charge:    2.0876    magn:    0.0000    constr:    0.0000
     atom:   36    charge:    2.0847    magn:    0.0001    constr:    0.0000
     atom:   37    charge:    2.0847    magn:    0.0001    constr:    0.0000
     atom:   38    charge:    3.1200    magn:    0.0000    constr:    0.0000
     atom:   39    charge:    2.0839    magn:    0.0002    constr:    0.0000
     atom:   40    charge:    2.0756    magn:   -0.0001    constr:    0.0000
     atom:   41    charge:    2.0870    magn:   -0.0000    constr:    0.0000
     atom:   42    charge:    3.1151    magn:   -0.0003    constr:    0.0000
     atom:   43    charge:    2.0803    magn:    0.0032    constr:    0.0000
     atom:   44    charge:    2.0851    magn:    0.0010    constr:    0.0000
     atom:   45    charge:    2.0858    magn:    0.0005    constr:    0.0000
     atom:   46    charge:    3.1148    magn:   -0.0007    constr:    0.0000
     atom:   47    charge:    2.0806    magn:    0.0047    constr:    0.0000
     atom:   48    charge:    2.0837    magn:    0.0135    constr:    0.0000
     atom:   49    charge:    2.0517    magn:    0.2395    constr:    0.0000
     atom:   50    charge:    0.6743    magn:    0.0548    constr:    0.0000
     atom:   51    charge:    0.4222    magn:    0.0008    constr:    0.0000
     atom:   52    charge:    0.4347    magn:    0.0009    constr:    0.0000
     atom:   53    charge:    0.3675    magn:    0.0234    constr:    0.0000
     atom:   54    charge:    0.4228    magn:    0.0006    constr:    0.0000

     total cpu time spent up to now is     3253.7 secs

     total energy              =   -3021.14933690 Ry
     Harris-Foulkes estimate   =   -3021.14933688 Ry
     estimated scf accuracy    <       0.00000074 Ry

     total magnetization       =     1.06 Bohr mag/cell
     absolute magnetization    =     1.23 Bohr mag/cell

     iteration # 11     ecut=    40.42 Ry     beta=0.10
     Davidson diagonalization with overlap
     ethr =  1.85E-10,  avg # of iterations =  3.0

     negative rho (up, down):  1.191E-02 1.198E-02
 
     Magnetic moment per site:
     atom:    1    charge:    3.1244    magn:   -0.0001    constr:    0.0000
     atom:    2    charge:    2.0897    magn:    0.0001    constr:    0.0000
     atom:    3    charge:    3.1198    magn:   -0.0000    constr:    0.0000
     atom:    4    charge:    2.0867    magn:   -0.0001    constr:    0.0000
     atom:    5    charge:    3.1161    magn:   -0.0003    constr:    0.0000
     atom:    6    charge:    2.0795    magn:    0.0022    constr:    0.0000
     atom:    7    charge:    3.1167    magn:   -0.0052    constr:    0.0000
     atom:    8    charge:    2.0793    magn:    0.0249    constr:    0.0000
     atom:    9    charge:    3.1244    magn:   -0.0001    constr:    0.0000
     atom:   10    charge:    2.0898    magn:    0.0001    constr:    0.0000
     atom:   11    charge:    3.1198    magn:   -0.0000    constr:    0.0000
     atom:   12    charge:    2.0870    magn:   -0.0000    constr:    0.0000
     atom:   13    charge:    3.1150    magn:   -0.0002    constr:    0.0000
     atom:   14    charge:    2.0939    magn:    0.0022    constr:    0.0000
     atom:   15    charge:    3.1184    magn:   -0.0008    constr:    0.0000
     atom:   16    charge:    2.0828    magn:    0.0047    constr:    0.0000
     atom:   17    charge:    2.0625    magn:    0.0007    constr:    0.0000
     atom:   18    charge:    3.1240    magn:   -0.0000    constr:    0.0000
     atom:   19    charge:    2.0875    magn:    0.0000    constr:    0.0000
     atom:   20    charge:    2.0847    magn:    0.0000    constr:    0.0000
     atom:   21    charge:    2.0847    magn:    0.0000    constr:    0.0000
     atom:   22    charge:    3.1199    magn:    0.0000    constr:    0.0000
     atom:   23    charge:    2.0908    magn:    0.0003    constr:    0.0000
     atom:   24    charge:    2.0754    magn:   -0.0000    constr:    0.0000
     atom:   25    charge:    2.0867    magn:    0.0000    constr:    0.0000
     atom:   26    charge:    3.1127    magn:   -0.0003    constr:    0.0000
     atom:   27    charge:    2.0802    magn:    0.0027    constr:    0.0000
     atom:   28    charge:    2.0839    magn:    0.0008    constr:    0.0000
     atom:   29    charge:    2.0860    magn:    0.0009    constr:    0.0000
     atom:   30    charge:    3.1171    magn:   -0.0008    constr:    0.0000
     atom:   31    charge:    2.0825    magn:    0.0006    constr:    0.0000
     atom:   32    charge:    2.0829    magn:    0.0065    constr:    0.0000
     atom:   33    charge:    2.0625    magn:    0.0007    constr:    0.0000
     atom:   34    charge:    3.1240    magn:   -0.0000    constr:    0.0000
     atom:   35    charge:    2.0875    magn:    0.0000    constr:    0.0000
     atom:   36    charge:    2.0847    magn:    0.0000    constr:    0.0000
     atom:   37    charge:    2.0847    magn:    0.0000    constr:    0.0000
     atom:   38    charge:    3.1200    magn:    0.0000    constr:    0.0000
     atom:   39    charge:    2.0839    magn:    0.0002    constr:    0.0000
     atom:   40    charge:    2.0756    magn:   -0.0001    constr:    0.0000
     atom:   41    charge:    2.0870    magn:   -0.0000    constr:    0.0000
     atom:   42    charge:    3.1151    magn:   -0.0003    constr:    0.0000
     atom:   43    charge:    2.0803    magn:    0.0032    constr:    0.0000
     atom:   44    charge:    2.0851    magn:    0.0010    constr:    0.0000
     atom:   45    charge:    2.0858    magn:    0.0006    constr:    0.0000
     atom:   46    charge:    3.1148    magn:   -0.0007    constr:    0.0000
     atom:   47    charge:    2.0807    magn:    0.0047    constr:    0.0000
     atom:   48    charge:    2.0837    magn:    0.0135    constr:    0.0000
     atom:   49    charge:    2.0518    magn:    0.2395    constr:    0.0000
     atom:   50    charge:    0.6744    magn:    0.0548    constr:    0.0000
     atom:   51    charge:    0.4222    magn:    0.0008    constr:    0.0000
     atom:   52    charge:    0.4347    magn:    0.0009    constr:    0.0000
     atom:   53    charge:    0.3675    magn:    0.0234    constr:    0.0000
     atom:   54    charge:    0.4228    magn:    0.0006    constr:    0.0000

     total cpu time spent up to now is     3495.3 secs

     End of self-consistent calculation

 ------ SPIN UP ------------


          k = 0.0000 0.0000 0.0000 ( 34665 PWs)   bands (ev):

   -58.3046 -58.2696 -57.3861 -57.3804 -57.3474 -57.3097 -57.2583 -57.0894
   -57.0628 -57.0573 -57.0189 -56.9207 -56.8956 -56.8854 -56.8002 -56.7619
   -34.7498 -34.5732 -34.5444 -34.5112 -34.4162 -34.3594 -33.8811 -33.8688
   -33.7507 -33.6777 -33.6357 -33.5928 -33.5606 -33.5536 -33.5477 -33.5412
   -33.5295 -33.5147 -33.4893 -33.4879 -33.4734 -33.4716 -33.4690 -33.4500
   -33.3401 -33.3352 -33.3300 -33.3275 -33.3145 -33.2865 -33.2810 -33.2614
   -33.2406 -33.2358 -33.2351 -33.2257 -33.1970 -33.1751 -33.1403 -33.1392
   -33.1008 -33.0782 -33.0493 -33.0279 -33.0147 -32.9891 -32.9477 -32.8816
   -18.4697 -18.0366 -17.8123 -17.7122 -17.5514 -17.5302 -17.4858 -17.3843
   -17.3574 -17.2577 -17.0454 -17.0246 -17.0169 -16.9852 -16.9245 -16.8546
   -16.8358 -16.7981 -16.7403 -16.7079 -16.6892 -16.6567 -16.5932 -16.5888
   -16.4660 -16.4183 -16.3994 -16.3615 -16.3257 -16.1469 -16.0863 -15.6000
   -15.5392 -11.2456  -6.0483  -5.4968  -5.2827  -5.2028  -5.0939  -4.9921
    -4.9820  -4.9211  -4.8790  -4.7328  -4.6501  -4.6000  -4.5858  -4.5105
    -4.4292  -4.4138  -4.3526  -4.3164  -4.2330  -4.2189  -4.1959  -4.1423
    -4.0312  -4.0238  -3.9797  -3.9083  -3.8921  -3.8861  -3.8834  -3.8249
    -3.7956  -3.7768  -3.7499  -3.6663  -3.6305  -3.5833  -3.5415  -3.5282
    -3.5157  -3.4193  -3.4081  -3.3606  -3.2731  -3.2326  -3.1881  -3.0870
    -2.9211  -2.8967  -2.8509  -2.8025  -2.7457  -2.6938  -2.6722  -2.6615
    -2.6335  -2.5368  -2.4860  -2.4386  -2.3776  -2.3325  -2.2482  -2.2294
    -2.2248  -2.1599  -2.0692  -2.0411  -1.9989  -1.9591  -1.9296  -1.8985
    -1.8532  -1.7372  -1.6937  -1.6680  -1.6402  -1.6303  -1.5858  -1.5035
    -1.4204  -1.3667  -1.3524  -1.3374  -1.3137  -1.2689  -1.2235  -1.1703
    -1.1595  -1.1107  -1.1077  -1.0921  -1.0632  -0.9796  -0.8730  -0.8317
    -0.8081  -0.6931  -0.6867  -0.6241  -0.5522  -0.5107  -0.4830  -0.1862
     1.0263   1.1231   1.4179   1.6966   1.8047   1.9225   1.9703   2.0166
     2.0466   2.1343   2.2110   2.2317   2.2778   2.3967   2.4719   2.4853
     2.4929   2.5199   2.6225   2.6676   2.6726   2.6888   2.7114   2.8281
     2.8432   2.8878   2.9021   2.9545   2.9697   3.0227   3.0313   3.0529
     3.1067   3.1617   3.2003   3.2012   3.2489   3.2569   3.4123   3.4466
     3.4792   3.5217   3.5989   3.6274   3.6715   3.7154   3.8299   3.9571
     4.1051   4.1368   4.3276   4.4741   4.5954   4.7075   4.7856   4.8361
     5.0861   5.1341   5.2110   5.3549   5.3990   5.4042   5.4273   5.4340
     5.4497   5.5239   5.5558   5.6633   5.7198   5.7364   5.9075   5.9193
     5.9568   6.0763   6.0954   6.1377   6.2185   6.2969   6.4234   6.4908
     6.5435   6.5644   6.7835   6.8148   7.2134   7.9164   8.1533   8.1776
     8.3509   8.3907   8.6517   8.7234   8.7536   8.9836   9.1470   9.2484
     9.3055   9.4553   9.6236

          k = 0.0000 0.0280 0.0000 ( 34717 PWs)   bands (ev):

   -58.3023 -58.2719 -57.3844 -57.3788 -57.3497 -57.3108 -57.2579 -57.0892
   -57.0628 -57.0556 -57.0209 -56.9183 -56.8958 -56.8878 -56.7978 -56.7644
   -34.7244 -34.5712 -34.5463 -34.5050 -34.4228 -34.3864 -33.8557 -33.8433
   -33.7298 -33.6714 -33.6295 -33.5903 -33.5675 -33.5500 -33.5420 -33.5339
   -33.5288 -33.5166 -33.5134 -33.4962 -33.4884 -33.4717 -33.4634 -33.4436
   -33.3339 -33.3280 -33.3151 -33.3124 -33.3088 -33.3030 -33.2785 -33.2597
   -33.2454 -33.2376 -33.2357 -33.2250 -33.2013 -33.1989 -33.1465 -33.1333
   -33.1127 -33.0748 -33.0555 -33.0279 -33.0144 -32.9939 -32.9751 -32.9102
   -18.4114 -17.9769 -17.7623 -17.6820 -17.6065 -17.5067 -17.4369 -17.3722
   -17.3262 -17.2884 -17.0963 -17.0037 -16.9955 -16.9743 -16.9271 -16.8760
   -16.7964 -16.7737 -16.7610 -16.7359 -16.7073 -16.6816 -16.6181 -16.5666
   -16.4800 -16.4435 -16.4062 -16.3848 -16.3578 -16.1657 -16.1279 -15.6140
   -15.5646 -11.2465  -5.9629  -5.4126  -5.2033  -5.1322  -5.0239  -4.9564
    -4.9257  -4.8992  -4.8080  -4.7296  -4.6687  -4.6539  -4.5268  -4.5159
    -4.4167  -4.3769  -4.3630  -4.3233  -4.2578  -4.2127  -4.1990  -4.1775
    -4.0997  -4.0676  -4.0168  -4.0006  -3.9784  -3.9711  -3.9219  -3.8565
    -3.8176  -3.7978  -3.7539  -3.7461  -3.7126  -3.6482  -3.5553  -3.4380
    -3.4029  -3.3213  -3.3031  -3.3006  -3.2680  -3.1240  -3.1044  -2.9449
    -2.9038  -2.8824  -2.8017  -2.7487  -2.7441  -2.7211  -2.6880  -2.6514
    -2.5981  -2.5174  -2.4580  -2.4427  -2.4154  -2.2796  -2.2551  -2.2230
    -2.2123  -2.1529  -2.1445  -2.0280  -1.9840  -1.9576  -1.9254  -1.9130
    -1.8733  -1.7672  -1.7578  -1.7188  -1.6801  -1.6100  -1.5821  -1.5718
    -1.5013  -1.4602  -1.3908  -1.3780  -1.3748  -1.3581  -1.2844  -1.2712
    -1.2349  -1.1746  -1.1444  -1.0697  -0.9932  -0.9532  -0.9275  -0.8966
    -0.8760  -0.8389  -0.7292  -0.5992  -0.5729  -0.5591  -0.5390  -0.2273
     1.1589   1.1641   1.4192   1.8328   1.8772   1.8943   1.9270   2.0033
     2.0622   2.0802   2.3012   2.3095   2.3422   2.4594   2.4952   2.5157
     2.5234   2.5454   2.5502   2.5986   2.7158   2.7333   2.8034   2.8150
     2.8367   2.9013   2.9377   2.9660   2.9826   2.9955   3.0165   3.0675
     3.0878   3.1239   3.1774   3.2362   3.2485   3.3288   3.4371   3.4781
     3.5137   3.5447   3.5662   3.5896   3.6449   3.6683   3.7882   3.9092
     4.0593   4.2041   4.2839   4.5274   4.7061   4.7088   4.8157   4.9112
     5.1129   5.1746   5.2570   5.3037   5.3740   5.4133   5.4360   5.4799
     5.5083   5.5380   5.5509   5.6627   5.7060   5.7151   5.8242   5.8853
     5.9469   5.9931   6.0372   6.0525   6.1819   6.2524   6.3896   6.4348
     6.4524   6.5544   6.7255   6.8178   7.3192   7.4543   7.9970   8.0672
     8.3456   8.4995   8.5441   8.7102   8.7825   8.9900   9.1146   9.3084
     9.3677   9.4482   9.5250

          k = 0.0000 0.0560 0.0000 ( 34721 PWs)   bands (ev):

   -58.2959 -58.2784 -57.3810 -57.3736 -57.3561 -57.3130 -57.2571 -57.0887
   -57.0633 -57.0511 -57.0259 -56.9119 -56.8963 -56.8943 -56.7911 -56.7711
   -34.6545 -34.5660 -34.5515 -34.4878 -34.4595 -34.4403 -33.7859 -33.7739
   -33.6792 -33.6545 -33.6128 -33.5906 -33.5899 -33.5840 -33.5693 -33.5659
   -33.5379 -33.5288 -33.5116 -33.4931 -33.4698 -33.4650 -33.4616 -33.4095
   -33.3684 -33.3238 -33.3213 -33.3064 -33.2800 -33.2701 -33.2550 -33.2547
   -33.2535 -33.2454 -33.2423 -33.2237 -33.2169 -33.2083 -33.1639 -33.1322
   -33.1171 -33.0721 -33.0719 -33.0490 -33.0274 -33.0143 -33.0060 -32.9807
   -18.2503 -17.8123 -17.7902 -17.6325 -17.5993 -17.4090 -17.3899 -17.3720
   -17.3062 -17.2639 -17.2294 -17.0431 -16.9866 -16.9196 -16.9158 -16.8987
   -16.8399 -16.8152 -16.7269 -16.7033 -16.6978 -16.6723 -16.6215 -16.5594
   -16.5127 -16.5073 -16.4514 -16.4395 -16.4130 -16.2314 -16.2084 -15.6426
   -15.6183 -11.2483  -5.7235  -5.1798  -5.0443  -4.9873  -4.9518  -4.9184
    -4.8471  -4.8308  -4.8137  -4.7697  -4.7317  -4.5521  -4.5065  -4.4638
    -4.3922  -4.3910  -4.3494  -4.3184  -4.3040  -4.2858  -4.2480  -4.2117
    -4.2071  -4.1900  -4.1287  -4.0570  -4.0133  -3.9753  -3.9639  -3.9067
    -3.8755  -3.8215  -3.7951  -3.7428  -3.6387  -3.5432  -3.4104  -3.4033
    -3.3629  -3.2843  -3.2450  -3.1341  -3.0875  -3.0691  -3.0376  -3.0095
    -2.9663  -2.9559  -2.8251  -2.7954  -2.7385  -2.6941  -2.6490  -2.5549
    -2.4816  -2.4730  -2.4393  -2.3534  -2.3004  -2.2949  -2.2198  -2.1865
    -2.1515  -2.1373  -2.1173  -2.0848  -2.0521  -2.0083  -1.9935  -1.9678
    -1.9317  -1.8898  -1.8795  -1.8591  -1.8108  -1.7503  -1.6551  -1.6052
    -1.5935  -1.5760  -1.5105  -1.4718  -1.4498  -1.4442  -1.4296  -1.3750
    -1.2905  -1.2697  -1.2128  -1.1918  -1.0880  -1.0010  -0.9763  -0.9424
    -0.8578  -0.8344  -0.7359  -0.7143  -0.6191  -0.5806  -0.5629  -0.3306
     1.2879   1.4296   1.5022   1.7235   1.8002   1.8931   1.9640   2.0619
     2.1425   2.2781   2.2831   2.3350   2.4190   2.4882   2.5076   2.5336
     2.5745   2.6139   2.6644   2.7109   2.7547   2.7720   2.8031   2.8514
     2.8671   2.8859   2.8957   2.9654   3.0119   3.0300   3.0390   3.0657
     3.1269   3.1600   3.1833   3.2618   3.3101   3.3415   3.3883   3.4361
     3.4737   3.4895   3.5652   3.6132   3.6762   3.6879   3.7272   3.8034
     3.9261   4.1612   4.3266   4.6545   4.7444   4.8451   4.9367   5.0746
     5.0803   5.1776   5.2845   5.3357   5.4039   5.4393   5.4726   5.5018
     5.5022   5.5638   5.5835   5.6499   5.6551   5.7555   5.7742   5.8142
     5.8512   5.8698   5.8905   5.9331   6.1193   6.1595   6.2984   6.3708
     6.4254   6.4442   6.7220   6.7499   6.9971   7.2157   7.6118   7.7449
     8.2024   8.3801   8.7126   8.8234   8.8449   8.8928   9.1831   9.3472
     9.4228   9.6019   9.7080

          k = 0.0000-0.0840 0.0000 ( 34678 PWs)   bands (ev):

   -58.2878 -58.2865 -57.3794 -57.3673 -57.3630 -57.3142 -57.2568 -57.0885
   -57.0636 -57.0477 -57.0293 -56.9034 -56.9027 -56.8965 -56.7842 -56.7780
   -34.5596 -34.5586 -34.5577 -34.5571 -34.4647 -34.4635 -33.7021 -33.6889
   -33.6853 -33.6465 -33.6452 -33.6394 -33.6078 -33.5917 -33.5876 -33.5769
   -33.5363 -33.5307 -33.5111 -33.5023 -33.4668 -33.4603 -33.3985 -33.3835
   -33.3787 -33.3627 -33.3252 -33.3206 -33.3033 -33.2722 -33.2591 -33.2502
   -33.2489 -33.2484 -33.2235 -33.2214 -33.1731 -33.1486 -33.1478 -33.1400
   -33.1262 -33.1239 -33.0950 -33.0944 -33.0278 -33.0197 -33.0168 -33.0108
   -18.0252 -18.0245 -17.5924 -17.5832 -17.5094 -17.4860 -17.4857 -17.3951
   -17.2581 -17.2173 -17.1298 -17.1043 -17.0723 -17.0372 -16.8922 -16.8449
   -16.8079 -16.8074 -16.8060 -16.6746 -16.6127 -16.6095 -16.6031 -16.5791
   -16.5472 -16.5248 -16.5072 -16.4750 -16.4659 -16.2737 -16.2499 -15.6518
   -15.6518 -11.2491  -5.3839  -5.3837  -4.9152  -4.8877  -4.8867  -4.8737
    -4.8515  -4.7700  -4.7584  -4.7192  -4.6584  -4.6040  -4.5667  -4.5601
    -4.4914  -4.4690  -4.4459  -4.3916  -4.3758  -4.2656  -4.2535  -4.2457
    -4.1585  -4.1165  -4.0665  -4.0323  -3.9934  -3.9016  -3.8837  -3.8660
    -3.8194  -3.7687  -3.7177  -3.6735  -3.6625  -3.6485  -3.6231  -3.4105
    -3.3613  -3.3469  -3.1494  -3.0770  -3.0713  -3.0309  -2.9285  -2.9266
    -2.9176  -2.8495  -2.8265  -2.7914  -2.7732  -2.6936  -2.6693  -2.6443
    -2.5216  -2.5024  -2.4200  -2.4036  -2.3956  -2.3736  -2.3107  -2.2412
    -2.2270  -2.1651  -2.1189  -2.0561  -2.0049  -1.9795  -1.9754  -1.9701
    -1.9657  -1.9411  -1.8376  -1.7980  -1.7778  -1.7278  -1.6917  -1.6563
    -1.6405  -1.6096  -1.5908  -1.5161  -1.5071  -1.4648  -1.4453  -1.4215
    -1.3813  -1.3307  -1.2780  -1.1776  -1.1373  -1.1158  -1.0900  -1.0604
    -0.8376  -0.8141  -0.6170  -0.6080  -0.6027  -0.5948  -0.5456  -0.4970
     1.4841   1.4868   1.6364   1.6370   1.7159   1.7168   2.0871   2.0879
     2.1513   2.2062   2.3769   2.4117   2.4482   2.4943   2.5420   2.5494
     2.6566   2.6684   2.6778   2.6915   2.7435   2.7540   2.8114   2.8144
     2.9143   2.9494   2.9930   3.0206   3.0255   3.0287   3.0351   3.0385
     3.0458   3.2268   3.2363   3.2671   3.2995   3.3416   3.3677   3.3978
     3.4351   3.4500   3.5050   3.6271   3.6972   3.7367   3.7512   3.7929
     3.8476   4.0383   4.3790   4.7588   4.8344   4.8676   4.8683   5.0541
     5.1464   5.2256   5.3164   5.3323   5.3671   5.4100   5.4706   5.5451
     5.5668   5.5986   5.6015   5.6888   5.7014   5.7205   5.7313   5.7447
     5.7698   5.8106   5.8440   5.9445   6.0272   6.1597   6.2878   6.3855
     6.4624   6.4789   6.5920   6.6085   6.9331   6.9836   7.4499   7.6122
[...]
    -1.7279  -1.5056  -1.4636  -1.4528  -1.4337  -1.3963  -1.3174  -1.1534
    -1.1427  -1.0860  -1.0687  -1.0525  -0.9691  -0.9095  -0.8702  -0.7856
    -0.7324  -0.7255  -0.6960  -0.6687  -0.5941  -0.5723  -0.5585   0.3023
     1.6030   1.6065   1.6191   1.6244   1.9669   1.9677   2.0966   2.0976
     2.2806   2.3013   2.3146   2.3963   2.4193   2.4894   2.5756   2.6354
     2.6574   2.7020   2.7854   2.8187   2.8756   2.9275   2.9496   2.9775
     2.9922   3.0006   3.0416   3.0996   3.1140   3.2108   3.2365   3.2457
     3.2614   3.2852   3.3425   3.3886   3.4022   3.4075   3.4639   3.4752
     3.4852   3.5132   3.5276   3.5813   3.6386   3.6554   3.7783   3.8794
     3.9157   3.9254   4.1417   4.1422   4.5928   4.6217   4.6442   4.7296
     4.8845   4.9007   4.9333   5.0835   5.1625   5.1675   5.1869   5.4476
     5.6753   5.6843   5.6956   5.9278   5.9332   5.9671   6.0177   6.0204
     6.0953   6.1075   6.1763   6.2680   6.2723   6.2803   6.3849   6.4622
     6.5010   6.6078   7.0711   7.2397   7.3398   7.4006   7.5555   7.5924
     7.7170   7.7702   7.9266   8.1139   8.2952   8.3413   8.4534   8.8719
     9.0125   9.0654   9.2137

          k =-0.0253 0.0280 0.0000 ( 34687 PWs)   bands (ev):

   -58.3025 -58.2721 -57.3841 -57.3791 -57.3497 -57.3109 -57.2587 -57.0932
   -57.0639 -57.0571 -57.0221 -56.9199 -56.9191 -56.8885 -56.8013 -56.7680
   -34.7249 -34.5714 -34.5465 -34.5043 -34.4228 -34.3866 -33.8559 -33.8454
   -33.7308 -33.6638 -33.6294 -33.5906 -33.5646 -33.5505 -33.5470 -33.5380
   -33.5301 -33.5175 -33.5158 -33.4958 -33.4894 -33.4663 -33.4653 -33.4466
   -33.3349 -33.3256 -33.3182 -33.3157 -33.3099 -33.3042 -33.2801 -33.2614
   -33.2503 -33.2377 -33.2373 -33.2284 -33.2117 -33.2016 -33.1646 -33.1340
   -33.1312 -33.0781 -33.0562 -33.0377 -33.0188 -32.9972 -32.9758 -32.9130
   -18.3675 -17.9381 -17.7730 -17.7305 -17.5201 -17.5134 -17.3722 -17.3653
   -17.3421 -17.3121 -17.1084 -17.0655 -16.9809 -16.9359 -16.8697 -16.8273
   -16.7890 -16.7469 -16.7296 -16.6660 -16.6595 -16.5795 -16.5406 -16.4820
   -16.4578 -16.4023 -16.3625 -16.3447 -16.1535 -16.1191 -15.8803 -15.6096
   -15.5609 -10.8464  -5.8384  -5.3066  -5.1405  -5.1223  -4.9908  -4.9495
    -4.9108  -4.8216  -4.6956  -4.6746  -4.6333  -4.5332  -4.4953  -4.4387
    -4.4052  -4.3105  -4.2871  -4.2471  -4.1970  -4.1793  -4.1388  -4.1240
    -4.0905  -4.0441  -4.0064  -3.9887  -3.9510  -3.9102  -3.8779  -3.7967
    -3.7806  -3.7211  -3.6981  -3.6780  -3.6157  -3.5943  -3.5025  -3.3900
    -3.3423  -3.3176  -3.2872  -3.2604  -3.2213  -3.1791  -3.1099  -3.0935
    -2.9173  -2.8795  -2.8197  -2.7750  -2.7189  -2.6828  -2.6716  -2.6145
    -2.5843  -2.5063  -2.4970  -2.4395  -2.4065  -2.3556  -2.2852  -2.2629
    -2.2109  -2.1897  -2.1015  -2.0398  -1.9569  -1.9381  -1.9137  -1.8477
    -1.8366  -1.7884  -1.7428  -1.6823  -1.6330  -1.5923  -1.5596  -1.5081
    -1.4739  -1.4331  -1.4042  -1.3784  -1.3592  -1.3432  -1.3119  -1.2880
    -1.2026  -1.1223  -1.0616  -1.0082  -0.9845  -0.9511  -0.9267  -0.8822
    -0.8405  -0.8176  -0.6293  -0.6076  -0.5832  -0.5198  -0.2624   0.3256
     1.1549   1.2485   1.4325   1.8218   1.8614   1.9284   1.9649   2.0326
     2.0436   2.1929   2.3037   2.3494   2.3909   2.4339   2.4573   2.5071
     2.5273   2.5516   2.5924   2.6526   2.7008   2.7251   2.7806   2.8351
     2.8799   2.9169   2.9334   2.9768   2.9940   3.0178   3.0439   3.0968
     3.1737   3.1944   3.2368   3.2619   3.2975   3.3398   3.4328   3.4681
     3.4981   3.5609   3.6147   3.6455   3.6667   3.7472   3.8245   3.8684
     4.0155   4.2119   4.2882   4.4388   4.6280   4.7259   4.8471   4.8643
     5.0046   5.0285   5.1159   5.2010   5.2440   5.3593   5.4636   5.5514
     5.6636   5.6978   5.7184   5.8061   5.8531   5.8863   5.9123   5.9347
     5.9697   5.9927   6.0677   6.1264   6.1782   6.2851   6.4012   6.4515
     6.4650   6.5834   6.7547   6.8101   7.3786   7.4868   7.8001   7.8928
     8.0982   8.2339   8.4898   8.5344   8.7849   8.8999   9.0816   9.3122
     9.3799   9.5349   9.6224

          k =-0.0253 0.0560 0.0000 ( 34699 PWs)   bands (ev):

   -58.2961 -58.2786 -57.3809 -57.3738 -57.3561 -57.3131 -57.2580 -57.0927
   -57.0645 -57.0524 -57.0271 -56.9204 -56.9126 -56.8950 -56.7946 -56.7748
   -34.6550 -34.5662 -34.5517 -34.4874 -34.4598 -34.4402 -33.7861 -33.7762
   -33.6801 -33.6485 -33.6127 -33.5891 -33.5851 -33.5841 -33.5727 -33.5659
   -33.5396 -33.5296 -33.5163 -33.4943 -33.4813 -33.4639 -33.4533 -33.4125
   -33.3697 -33.3228 -33.3193 -33.3105 -33.2819 -33.2724 -33.2564 -33.2560
   -33.2550 -33.2461 -33.2427 -33.2290 -33.2197 -33.2133 -33.1799 -33.1606
   -33.1177 -33.0752 -33.0729 -33.0497 -33.0346 -33.0211 -33.0093 -32.9835
   -18.2098 -17.7999 -17.7778 -17.6091 -17.5981 -17.4539 -17.3912 -17.3674
   -17.2462 -17.2390 -17.2014 -17.0555 -16.9459 -16.9170 -16.8789 -16.8379
   -16.7952 -16.7414 -16.7307 -16.7153 -16.6813 -16.5953 -16.5456 -16.5288
   -16.4975 -16.4388 -16.4088 -16.4041 -16.2158 -16.2000 -15.8791 -15.6383
   -15.6147 -10.8483  -5.6032  -5.0793  -5.0220  -4.9536  -4.9213  -4.8152
    -4.7931  -4.7555  -4.6855  -4.6708  -4.5236  -4.5068  -4.4437  -4.3932
    -4.3753  -4.3669  -4.3185  -4.2746  -4.2479  -4.2377  -4.2025  -4.1708
    -4.1291  -4.1192  -4.0531  -4.0182  -3.9900  -3.9531  -3.9259  -3.8879
    -3.8269  -3.7953  -3.7020  -3.6865  -3.5811  -3.5334  -3.4571  -3.3822
    -3.3623  -3.2883  -3.1854  -3.1581  -3.1187  -3.1093  -3.0568  -3.0221
    -2.9802  -2.9246  -2.8411  -2.7909  -2.7600  -2.7019  -2.6069  -2.5875
    -2.5222  -2.5081  -2.4543  -2.3890  -2.3736  -2.3158  -2.2978  -2.2566
    -2.1855  -2.1333  -2.1188  -2.0865  -2.0463  -2.0043  -1.9829  -1.9462
    -1.9287  -1.9036  -1.8907  -1.8438  -1.7654  -1.6999  -1.6876  -1.5913
    -1.5702  -1.5420  -1.5161  -1.4824  -1.4414  -1.4107  -1.3816  -1.3225
    -1.2871  -1.2199  -1.1532  -1.0315  -1.0022  -0.9677  -0.9351  -0.8548
    -0.7611  -0.7336  -0.7028  -0.6380  -0.6070  -0.5535  -0.3597   0.3068
     1.2892   1.4712   1.5664   1.7605   1.7758   1.9141   1.9810   2.0608
     2.2677   2.2785   2.3450   2.3813   2.4179   2.4901   2.5251   2.5507
     2.5754   2.5988   2.6564   2.7085   2.7237   2.7672   2.8097   2.8596
     2.8852   2.9201   2.9645   3.0097   3.0355   3.0489   3.0588   3.1124
     3.1616   3.2014   3.2207   3.2916   3.3203   3.3488   3.3805   3.4603
     3.5121   3.5373   3.6151   3.6366   3.6711   3.7296   3.7486   3.8021
     3.8982   4.1021   4.3955   4.5033   4.7187   4.8617   4.9125   4.9637
     4.9982   5.0925   5.1898   5.2104   5.3383   5.3904   5.4367   5.5312
     5.5668   5.6019   5.6545   5.7122   5.7416   5.8065   5.8229   5.8632
     5.9299   5.9455   5.9993   6.0929   6.1354   6.2141   6.3309   6.4343
     6.4599   6.4770   6.7215   6.7713   7.0750   7.3004   7.6726   7.8297
     8.1059   8.2359   8.3206   8.4929   8.7746   8.9015   9.0099   9.1913
     9.3777   9.5560   9.6565

          k =-0.0506 0.0280 0.0000 ( 34685 PWs)   bands (ev):

   -58.3025 -58.2721 -57.3832 -57.3800 -57.3497 -57.3109 -57.2587 -57.0932
   -57.0636 -57.0574 -57.0221 -56.9199 -56.9191 -56.8885 -56.8014 -56.7680
   -34.7257 -34.5714 -34.5465 -34.5028 -34.4228 -34.3867 -33.8563 -33.8494
   -33.7310 -33.6442 -33.6293 -33.5907 -33.5697 -33.5523 -33.5510 -33.5433
   -33.5303 -33.5249 -33.5147 -33.4957 -33.4895 -33.4665 -33.4540 -33.4477
   -33.3350 -33.3192 -33.3175 -33.3156 -33.3055 -33.3038 -33.2803 -33.2634
   -33.2603 -33.2373 -33.2367 -33.2312 -33.2118 -33.2010 -33.1606 -33.1340
   -33.1315 -33.0782 -33.0562 -33.0446 -33.0171 -32.9972 -32.9758 -32.9130
   -18.2592 -17.8611 -17.8484 -17.6978 -17.5846 -17.4526 -17.4349 -17.3414
   -17.3139 -17.2474 -17.1771 -17.0830 -16.9935 -16.9484 -16.9196 -16.8924
   -16.8070 -16.7642 -16.7530 -16.6931 -16.6301 -16.5463 -16.5195 -16.4861
   -16.4578 -16.4032 -16.3865 -16.3495 -16.1500 -16.1195 -15.8811 -15.6077
   -15.5610 -10.8462  -5.5371  -5.1841  -5.1511  -5.1176  -4.9461  -4.8666
    -4.7645  -4.7065  -4.6795  -4.6495  -4.5983  -4.5840  -4.5299  -4.4044
    -4.3601  -4.3200  -4.2387  -4.2125  -4.1773  -4.1621  -4.1454  -4.0532
    -4.0282  -4.0087  -3.9711  -3.9252  -3.8834  -3.8360  -3.8108  -3.7803
    -3.7186  -3.6983  -3.6627  -3.6275  -3.5844  -3.5313  -3.4850  -3.4549
    -3.3789  -3.3663  -3.2986  -3.2624  -3.2013  -3.1457  -3.1154  -3.0551
    -3.0066  -2.9775  -2.8994  -2.8329  -2.7548  -2.6957  -2.6864  -2.6634
    -2.6139  -2.5912  -2.5778  -2.5226  -2.5139  -2.3904  -2.3381  -2.3299
    -2.2673  -2.1985  -2.1828  -2.1562  -2.0779  -2.0077  -2.0014  -1.9404
    -1.9211  -1.8913  -1.8079  -1.7194  -1.7063  -1.6819  -1.6124  -1.5832
    -1.5213  -1.4735  -1.4512  -1.3915  -1.3762  -1.3249  -1.3090  -1.2579
    -1.2419  -1.1181  -1.0551  -1.0321  -1.0082  -0.9540  -0.9221  -0.8741
    -0.8255  -0.7939  -0.7181  -0.6792  -0.6579  -0.5335  -0.3885   0.3104
     1.1418   1.3418   1.4669   1.5677   1.9359   1.9460   1.9681   2.0600
     2.1265   2.2013   2.2562   2.3320   2.4078   2.4420   2.5304   2.5482
     2.5947   2.6530   2.6896   2.7032   2.7570   2.8305   2.8533   2.8840
     2.9423   2.9483   2.9820   2.9867   2.9933   3.1039   3.1113   3.1399
     3.1876   3.2167   3.2914   3.3121   3.3577   3.3848   3.4085   3.4571
     3.4715   3.5495   3.6039   3.6690   3.7445   3.7811   3.8010   3.9024
     3.9605   4.0635   4.1110   4.4096   4.5125   4.6581   4.7500   4.8111
     4.8438   4.9160   4.9681   5.2905   5.3313   5.4137   5.5292   5.5613
     5.6423   5.7688   5.7888   5.8558   5.9011   5.9154   5.9676   6.0584
     6.0957   6.1672   6.2522   6.3362   6.3887   6.4019   6.4449   6.4920
     6.5434   6.5537   6.7132   6.9191   7.0766   7.2230   7.5524   7.6097
     7.7276   8.2239   8.4121   8.4856   8.8691   8.9457   9.0653   9.2294
     9.4278   9.6141   9.6790

          k =-0.0506 0.0560 0.0000 ( 34596 PWs)   bands (ev):

   -58.2961 -58.2785 -57.3805 -57.3741 -57.3561 -57.3132 -57.2580 -57.0927
   -57.0643 -57.0526 -57.0271 -56.9204 -56.9127 -56.8950 -56.7946 -56.7748
   -34.6556 -34.5662 -34.5517 -34.4860 -34.4600 -34.4398 -33.7864 -33.7807
   -33.6802 -33.6327 -33.6125 -33.5883 -33.5867 -33.5839 -33.5671 -33.5659
   -33.5429 -33.5299 -33.5284 -33.4946 -33.4906 -33.4640 -33.4417 -33.4141
   -33.3700 -33.3226 -33.3081 -33.3056 -33.2845 -33.2746 -33.2576 -33.2558
   -33.2547 -33.2459 -33.2422 -33.2390 -33.2204 -33.2136 -33.1793 -33.1564
   -33.1177 -33.0753 -33.0728 -33.0496 -33.0389 -33.0218 -33.0093 -32.9833
   -18.1066 -17.8177 -17.6998 -17.6121 -17.5960 -17.5560 -17.3788 -17.3675
   -17.2172 -17.2047 -17.1157 -17.0935 -16.9760 -16.9105 -16.8660 -16.8409
   -16.8221 -16.8060 -16.7602 -16.7342 -16.7194 -16.6259 -16.5951 -16.5048
   -16.4945 -16.4364 -16.4193 -16.4093 -16.2152 -16.1965 -15.8791 -15.6370
   -15.6152 -10.8480  -5.3006  -4.9903  -4.9398  -4.9317  -4.7819  -4.7742
    -4.7150  -4.6383  -4.5249  -4.5049  -4.4991  -4.4163  -4.4019  -4.3792
    -4.3596  -4.3260  -4.3078  -4.2464  -4.1988  -4.1746  -4.1647  -4.1117
    -4.1010  -4.0561  -4.0429  -3.9915  -3.9778  -3.9024  -3.8837  -3.8269
    -3.7800  -3.7161  -3.6923  -3.6720  -3.6092  -3.5556  -3.5028  -3.4322
    -3.3953  -3.3183  -3.2592  -3.2296  -3.1330  -3.1292  -3.0785  -3.0505
    -2.9941  -2.9763  -2.9566  -2.9012  -2.7989  -2.7623  -2.7476  -2.7044
    -2.6281  -2.5859  -2.5440  -2.5013  -2.4767  -2.4127  -2.3878  -2.3680
    -2.3493  -2.2882  -2.1933  -2.1706  -2.1456  -2.1270  -2.1012  -2.0464
    -2.0115  -1.9698  -1.9426  -1.8692  -1.8468  -1.7801  -1.7292  -1.6551
    -1.5646  -1.5475  -1.5371  -1.4951  -1.4422  -1.3836  -1.3513  -1.3045
    -1.2425  -1.1740  -1.0753  -1.0202  -0.9868  -0.9015  -0.8508  -0.8435
    -0.7916  -0.7052  -0.6909  -0.6696  -0.6544  -0.5516  -0.4736   0.3093
     1.3098   1.4994   1.6482   1.6699   1.8546   2.0056   2.0343   2.0698
     2.2454   2.2583   2.3624   2.3788   2.4351   2.4637   2.5504   2.5874
     2.6527   2.6978   2.7319   2.7465   2.8137   2.8447   2.8732   2.9056
     2.9363   2.9531   3.0089   3.0439   3.0746   3.1157   3.1472   3.1927
     3.1977   3.2526   3.2868   3.3269   3.3359   3.3791   3.4183   3.4690
     3.4835   3.5512   3.5805   3.6432   3.6697   3.7466   3.8065   3.8424
     3.8853   3.9622   4.1545   4.5061   4.5988   4.6180   4.7567   4.8242
     4.8908   4.9672   5.0124   5.1889   5.3040   5.3781   5.4136   5.4458
     5.5966   5.6183   5.6702   5.7191   5.8814   5.8989   5.9893   6.0082
     6.0701   6.1107   6.1717   6.2084   6.3158   6.3388   6.4146   6.4256
     6.5426   6.6163   6.7635   6.8097   7.1903   7.3620   7.5112   7.6207
     7.9355   8.0136   8.1040   8.3862   8.6095   8.7196   8.8051   9.0421
     9.1922   9.3332   9.4374

     the Fermi energy is    -0.2891 ev

!    total energy              =   -3021.14933667 Ry
     Harris-Foulkes estimate   =   -3021.14933697 Ry
     estimated scf accuracy    <       0.00000042 Ry

     The total energy is the sum of the following terms:

     one-electron contribution =  -40440.17868292 Ry
     hartree contribution      =   20291.45354130 Ry
     xc contribution           =    -553.22464642 Ry
     ewald contribution        =   17680.82024321 Ry
     smearing contrib. (-TS)   =      -0.01979184 Ry

     total magnetization       =     1.06 Bohr mag/cell
     absolute magnetization    =     1.23 Bohr mag/cell

     convergence has been achieved in  11 iterations

     Forces acting on atoms (Ry/au):


     negative rho (up, down):  1.191E-02 1.198E-02
     atom    1 type  1   force =     0.00018480   -0.00089920   -0.10470845
     atom    2 type  2   force =     0.00014565    0.00068365    0.04005906
     atom    3 type  1   force =     0.00074953   -0.00175227   -0.02052587
     atom    4 type  2   force =    -0.00326787    0.00312225   -0.00321422
     atom    5 type  1   force =     0.00034836    0.00007442    0.00032770
     atom    6 type  2   force =    -0.00013101   -0.00010770    0.00018270
     atom    7 type  1   force =    -0.00026134   -0.00000370   -0.00025964
     atom    8 type  2   force =    -0.00016941   -0.00017909   -0.00022183
     atom    9 type  1   force =    -0.00003226    0.00056615   -0.10484076
     atom   10 type  2   force =     0.00034898   -0.00021328    0.03603398
     atom   11 type  1   force =     0.00068148    0.00183832    0.00263505
     atom   12 type  2   force =    -0.00519550   -0.00266934   -0.00517654
     atom   13 type  1   force =     0.00041704    0.00008790   -0.00025281
     atom   14 type  2   force =     0.00013301   -0.00007631   -0.00008408
     atom   15 type  1   force =    -0.00005375   -0.00007795    0.00005993
     atom   16 type  2   force =    -0.00020721    0.00001018   -0.00035224
     atom   17 type  2   force =     0.00000831   -0.00001450    0.06648677
     atom   18 type  1   force =     0.00005820    0.00002982    0.13146737
     atom   19 type  2   force =     0.00017772   -0.00052924   -0.08520053
     atom   20 type  2   force =    -0.05791571    0.00014362   -0.03605906
     atom   21 type  2   force =     0.05780736   -0.00004927   -0.03602127
     atom   22 type  1   force =    -0.00042942    0.00074955    0.08018776
     atom   23 type  2   force =     0.00019904   -0.00004688    0.00005168
     atom   24 type  2   force =     0.00064147    0.00185989   -0.03467681
     atom   25 type  2   force =     0.00414203    0.00332554   -0.00508120
     atom   26 type  1   force =     0.00040337   -0.00004630    0.00006955
     atom   27 type  2   force =    -0.00009611   -0.00013196    0.00004984
     atom   28 type  2   force =     0.00004345   -0.00019616   -0.00002223
     atom   29 type  2   force =     0.00002021   -0.00007381    0.00007412
     atom   30 type  1   force =    -0.00021901   -0.00018979    0.00005647
     atom   31 type  2   force =     0.00011082   -0.00006514    0.00000548
     atom   32 type  2   force =    -0.00010925   -0.00000015    0.00007818
     atom   33 type  2   force =    -0.00016635    0.00004965    0.06622024
     atom   34 type  1   force =     0.00007698   -0.00003337    0.13124546
     atom   35 type  2   force =     0.00018903   -0.00013017   -0.08480921
     atom   36 type  2   force =    -0.05781132    0.00006406   -0.03567322
     atom   37 type  2   force =     0.05798160   -0.00017595   -0.03607188
     atom   38 type  1   force =    -0.00037298   -0.00020416    0.07985958
     atom   39 type  2   force =     0.00007528   -0.00026949   -0.00008096
     atom   40 type  2   force =     0.00048997    0.00123886   -0.03528247
     atom   41 type  2   force =     0.00588919   -0.00243400   -0.00720693
     atom   42 type  1   force =     0.00024063   -0.00006988    0.00000935
     atom   43 type  2   force =    -0.00019444   -0.00009843    0.00004589
     atom   44 type  2   force =    -0.00000572   -0.00015918   -0.00003279
     atom   45 type  2   force =     0.00002209   -0.00017025    0.00005289
     atom   46 type  1   force =    -0.00020093   -0.00005359   -0.00001584
     atom   47 type  2   force =    -0.00001955   -0.00016285    0.00008138
     atom   48 type  2   force =    -0.00012034   -0.00000580    0.00025167
     atom   49 type  2   force =    -0.00031983   -0.00032434   -0.00009109
     atom   50 type  3   force =    -0.01358051    0.01126167   -0.02038793
     atom   51 type  4   force =    -0.00221941    0.00006163   -0.00124582
     atom   52 type  4   force =     0.01343021   -0.01203667    0.02178486
     atom   53 type  4   force =    -0.00207618   -0.00045990   -0.00099151
     atom   54 type  4   force =     0.00015961   -0.00105706    0.00121026

     Total force =     0.344496     Total SCF correction =     0.002443
 !ASE

     Writing output data file calc.save
 
     init_run     :     65.38s CPU     78.93s WALL (       1 calls)
     electrons    :   2975.72s CPU   3416.21s WALL (       1 calls)
     forces       :     49.09s CPU     50.75s WALL (       1 calls)

     Called by init_run:
     wfcinit      :     57.58s CPU     70.35s WALL (       1 calls)
     potinit      :      1.35s CPU      1.65s WALL (       1 calls)

     Called by electrons:
     c_bands      :   2630.56s CPU   3008.32s WALL (      11 calls)
     sum_band     :    295.24s CPU    351.66s WALL (      11 calls)
     v_of_rho     :     12.40s CPU     15.02s WALL (      12 calls)
     newd         :     40.87s CPU     44.90s WALL (      12 calls)
     mix_rho      :      0.45s CPU      0.60s WALL (      11 calls)
     vdW_energy   :      2.73s CPU      3.12s WALL (      13 calls)
     vdW_ffts     :      3.33s CPU      4.17s WALL (      26 calls)
     vdW_v        :      1.23s CPU      1.38s WALL (      13 calls)

     Called by c_bands:
     init_us_2    :      6.76s CPU      7.36s WALL (     960 calls)
     cegterg      :   2589.34s CPU   2964.88s WALL (     440 calls)

     Called by *egterg:
     h_psi        :    955.57s CPU   1248.59s WALL (    2460 calls)
     s_psi        :    165.71s CPU    171.52s WALL (    2460 calls)
     g_psi        :      4.79s CPU      4.85s WALL (    1980 calls)
     cdiaghg      :    909.16s CPU    928.30s WALL (    2420 calls)

     Called by h_psi:
     add_vuspsi   :    167.63s CPU    173.41s WALL (    2460 calls)

     General routines
     calbec       :    245.95s CPU    251.41s WALL (    2940 calls)
     fft          :      6.40s CPU      8.05s WALL (    1029 calls)
     ffts         :      0.07s CPU      0.08s WALL (      46 calls)
     fftw         :    524.77s CPU    852.93s WALL (  779934 calls)
     interpolate  :      0.39s CPU      0.53s WALL (      46 calls)
     davcio       :      0.13s CPU      3.33s WALL (      40 calls)
 
     Parallel routines
     fft_scatter  :    260.22s CPU    442.01s WALL (  781009 calls)
 
     PWSCF        : 51m31.32s CPU    59m10.99s WALL

 
   This run was terminated on:  16:51:42  26Feb2018            

=------------------------------------------------------------------------------=
   JOB DONE.
=------------------------------------------------------------------------------=
