  python dir          : /home/vossj/suncat/lib/python2.7/site-packages/espresso
  espresso dir        : /home/vossj/suncat/esdld/espresso-dynpy-beef/bin
  pseudo dir          : /home/alatimer/bin/psp/esp_psp_w_gbrvRu/
  ase-espresso py git : ffa2778-git



     Program PWSCF v.5.1rc2 (svn rev. ) starts on 10Feb2018 at 16:40: 3 

     This program is part of the open-source Quantum ESPRESSO suite
     for quantum simulation of materials; please cite
         "P. Giannozzi et al., J. Phys.:Condens. Matter 21 395502 (2009);
          URL http://www.quantum-espresso.org", 
     in publications or presentations arising from this work. More details at
     http://www.quantum-espresso.org/quote

     Parallel version (MPI), running on    16 processors
     R & G space division:  proc/nbgrp/npool/nimage =      16
     Reading input from pw.inp
     Message from routine read_cards :
     DEPRECATED: no units specified in CELL_PARAMETERS card

     Current dimensions of program PWSCF are:
     Max number of different atomic species (ntypx) = 10
     Max number of k-points (npk) =  40000
     Max angular momentum in pseudopotentials (lmaxx) =  3

     **************************************************************************
     Initializing libbeef V0.1.1 with the BEEF-vdW functional.
     Citation: Wellendorff et al., PRB 85, 235149 (2012).
     **************************************************************************


     IMPORTANT: XC functional enforced from input :
     Exchange-correlation      = BEEF ( 1  4 27 13 2)
     Any further DFT definition will be discarded
     Please, verify this is what you really want


     Subspace diagonalization in iterative solution of the eigenvalue problem:
     a serial algorithm will be used

 
     Parallelization info
     --------------------
     sticks:   dense  smooth     PW     G-vecs:    dense   smooth      PW
     Min         281     112     31                68535    17318    2565
     Max         282     113     32                68545    17369    2582
     Sum        4501    1795    503              1096637   277353   41113
 
     Generating pointlists ...
     new r_m :   0.4125 (alat units)  0.7795 (a.u.) for type    1
     new r_m :   0.4125 (alat units)  0.7795 (a.u.) for type    2


     bravais-lattice index     =            0
     lattice parameter (alat)  =       1.8897  a.u.
     unit-cell volume          =    7990.9933 (a.u.)^3
     number of atoms/cell      =           49
     number of atomic types    =            2
     number of electrons       =       390.00
     number of Kohn-Sham states=          295
     kinetic-energy cutoff     =      40.4243  Ry
     charge density cutoff     =     404.2426  Ry
     convergence threshold     =      7.3E-07
     mixing beta               =       0.1000
     number of iterations used =           10  plain     mixing
     Exchange-correlation      = BEEF ( 1  4 27 13 2)
     nstep                     =           50


     celldm(1)=   1.889726  celldm(2)=   0.000000  celldm(3)=   0.000000
     celldm(4)=   0.000000  celldm(5)=   0.000000  celldm(6)=   0.000000

     crystal axes: (cart. coord. in units of alat)
               a(1) = (   6.590708   0.000000   0.000000 )  
               a(2) = (   0.000000   5.950229   0.000000 )  
               a(3) = (   0.000000   0.000000  30.195235 )  

     reciprocal axes: (cart. coord. in units 2 pi/alat)
               b(1) = (  0.151729  0.000000  0.000000 )  
               b(2) = (  0.000000  0.168061  0.000000 )  
               b(3) = (  0.000000  0.000000  0.033118 )  


     PseudoPot. # 1 for Ti read from file:
     /home/alatimer/bin/psp/esp_psp_w_gbrvRu/Ti.UPF
     MD5 check sum: 8e4df49b7f0d34bbd5052bf3f5ea0213
     Pseudo is Ultrasoft, Zval = 12.0
     Generated by new atomic code, or converted to UPF format
     Using radial grid of  851 points,  6 beta functions with: 
                l(1) =   0
                l(2) =   0
                l(3) =   1
                l(4) =   1
                l(5) =   2
                l(6) =   2
     Q(r) pseudized with  8 coefficients,  rinner =    1.000   1.000   1.000
                                                       1.000   1.000

     PseudoPot. # 2 for  O read from file:
     /home/alatimer/bin/psp/esp_psp_w_gbrvRu/O.UPF
     MD5 check sum: e057bbcf3229fb5d8c36c0c92f9568b4
     Pseudo is Ultrasoft + core correction, Zval =  6.0
     Generated using "atomic" code by A. Dal Corso  v.5.0.2 svn rev. 9415
     Using radial grid of 1095 points,  4 beta functions with: 
                l(1) =   0
                l(2) =   0
                l(3) =   1
                l(4) =   1
     Q(r) pseudized with 0 coefficients 


     vdW kernel table read from file vdW_kernel_table
     MD5 check sum: 095c7af220d748ca6e76c0b4c6cfb241

     atomic species   valence    mass     pseudopotential
        Ti1           12.00    47.88000     Ti( 1.00)
        O1             6.00    15.99940      O( 1.00)

     Starting magnetic structure 
     atomic species   magnetization
        Ti1          0.250
        O1           0.500

     No symmetry found



   Cartesian axes

     site n.     atom                  positions (alat units)
         1           Ti1 tau(   1) = (   1.6476770   0.7437786   2.6545865  )
         2           O1  tau(   2) = (   1.6476770   2.2313359   3.9361215  )
         3           Ti1 tau(   3) = (   1.6476770   2.2313359   5.9499405  )
         4           O1  tau(   4) = (   0.3661420   0.7437786   5.9499405  )
         5           Ti1 tau(   5) = (   1.5277661   0.7316361   9.1979924  )
         6           O1  tau(   6) = (   1.6632133   2.1793878  10.6093433  )
         7           Ti1 tau(   7) = (   1.6165400   2.1742892  12.4450098  )
         8           O1  tau(   8) = (   0.4211133   0.7189415  12.7146628  )
         9           Ti1 tau(   9) = (   1.6476770   3.7188931   2.6545865  )
        10           O1  tau(  10) = (   1.6476770   5.2064503   3.9361215  )
        11           Ti1 tau(  11) = (   1.6476770   5.2064503   5.9499405  )
        12           O1  tau(  12) = (   0.3661420   3.7188931   5.9499405  )
        13           Ti1 tau(  13) = (   1.5318737   3.7073984   9.2114718  )
        14           O1  tau(  14) = (   1.6603548   5.2054729  10.6082275  )
        15           Ti1 tau(  15) = (   1.6160620   5.2125286  12.4458513  )
        16           O1  tau(  16) = (   0.3672395   3.6890226  12.4512313  )
        17           O1  tau(  17) = (   1.6476770   2.2313359   1.3730516  )
        18           Ti1 tau(  18) = (   4.9430310   2.2313359   2.6545865  )
        19           O1  tau(  19) = (   4.9430310   2.2313359   4.6684056  )
        20           O1  tau(  20) = (   6.2245660   0.7437786   2.6545865  )
        21           O1  tau(  21) = (   3.6614961   0.7437786   2.6545865  )
        22           Ti1 tau(  22) = (   4.9430310   0.7437786   5.9499405  )
        23           O1  tau(  23) = (   1.6494130   2.2266810   8.0229920  )
        24           O1  tau(  24) = (   4.9430310   2.2313359   7.2314755  )
        25           O1  tau(  25) = (   2.9292120   0.7437786   5.9499405  )
        26           Ti1 tau(  26) = (   4.8570045   2.2038353   9.3960648  )
        27           O1  tau(  27) = (   4.9365002   2.1563787  11.2526517  )
        28           O1  tau(  28) = (   6.2661622   0.7265345   9.2570196  )
        29           O1  tau(  29) = (   3.6607207   0.7252434   9.2585875  )
        30           Ti1 tau(  30) = (   4.8804456   0.7009689  12.7500804  )
        31           O1  tau(  31) = (   4.9885443   2.2055297  13.8060867  )
        32           O1  tau(  32) = (   2.8787315   0.7196740  12.7638696  )
        33           O1  tau(  33) = (   1.6476770   5.2064503   1.3730516  )
        34           Ti1 tau(  34) = (   4.9430310   5.2064503   2.6545865  )
        35           O1  tau(  35) = (   4.9430310   5.2064503   4.6684056  )
        36           O1  tau(  36) = (   6.2245660   3.7188931   2.6545865  )
        37           O1  tau(  37) = (   3.6614961   3.7188931   2.6545865  )
        38           Ti1 tau(  38) = (   4.9430310   3.7188931   5.9499405  )
        39           O1  tau(  39) = (   1.6492404   5.1840375   8.0235373  )
        40           O1  tau(  40) = (   4.9430310   5.2064503   7.2314755  )
        41           O1  tau(  41) = (   2.9292120   3.7188931   5.9499405  )
        42           Ti1 tau(  42) = (   4.8583452   5.1875290   9.3946917  )
        43           O1  tau(  43) = (   4.9366536   5.2195535  11.2514306  )
        44           O1  tau(  44) = (   6.2660656   3.7009687   9.2894568  )
        45           O1  tau(  45) = (   3.6605616   3.6984666   9.2954459  )
        46           Ti1 tau(  46) = (   5.1078939   3.6751672  12.7268755  )
        47           O1  tau(  47) = (   4.9880347   5.1576104  13.8055399  )
        48           O1  tau(  48) = (   3.0285069   3.6936269  12.4216869  )
        49           O1  tau(  49) = (   2.3558682   3.6994311  13.7464468  )

     number of k points=    40  Fermi-Dirac smearing, width (Ry)=  0.0073
                       cart. coord. in units 2pi/alat
        k(    1) = (   0.0000000   0.0000000   0.0000000), wk =   0.0277778
        k(    2) = (   0.0000000   0.0280101   0.0000000), wk =   0.0555556
        k(    3) = (   0.0000000   0.0560203   0.0000000), wk =   0.0555556
        k(    4) = (   0.0000000  -0.0840304   0.0000000), wk =   0.0277778
        k(    5) = (   0.0252881   0.0000000   0.0000000), wk =   0.0555556
        k(    6) = (   0.0252881   0.0280101   0.0000000), wk =   0.0555556
        k(    7) = (   0.0252881   0.0560203   0.0000000), wk =   0.0555556
        k(    8) = (   0.0252881  -0.0840304   0.0000000), wk =   0.0555556
        k(    9) = (   0.0505763   0.0000000   0.0000000), wk =   0.0555556
        k(   10) = (   0.0505763   0.0280101   0.0000000), wk =   0.0555556
        k(   11) = (   0.0505763   0.0560203   0.0000000), wk =   0.0555556
        k(   12) = (   0.0505763  -0.0840304   0.0000000), wk =   0.0555556
        k(   13) = (  -0.0758644   0.0000000   0.0000000), wk =   0.0277778
        k(   14) = (  -0.0758644   0.0280101   0.0000000), wk =   0.0555556
        k(   15) = (  -0.0758644   0.0560203   0.0000000), wk =   0.0555556
        k(   16) = (  -0.0758644  -0.0840304   0.0000000), wk =   0.0277778
        k(   17) = (  -0.0252881   0.0280101   0.0000000), wk =   0.0555556
        k(   18) = (  -0.0252881   0.0560203   0.0000000), wk =   0.0555556
        k(   19) = (  -0.0505763   0.0280101   0.0000000), wk =   0.0555556
        k(   20) = (  -0.0505763   0.0560203   0.0000000), wk =   0.0555556
        k(   21) = (   0.0000000   0.0000000   0.0000000), wk =   0.0277778
        k(   22) = (   0.0000000   0.0280101   0.0000000), wk =   0.0555556
        k(   23) = (   0.0000000   0.0560203   0.0000000), wk =   0.0555556
        k(   24) = (   0.0000000  -0.0840304   0.0000000), wk =   0.0277778
        k(   25) = (   0.0252881   0.0000000   0.0000000), wk =   0.0555556
        k(   26) = (   0.0252881   0.0280101   0.0000000), wk =   0.0555556
        k(   27) = (   0.0252881   0.0560203   0.0000000), wk =   0.0555556
        k(   28) = (   0.0252881  -0.0840304   0.0000000), wk =   0.0555556
        k(   29) = (   0.0505763   0.0000000   0.0000000), wk =   0.0555556
        k(   30) = (   0.0505763   0.0280101   0.0000000), wk =   0.0555556
        k(   31) = (   0.0505763   0.0560203   0.0000000), wk =   0.0555556
        k(   32) = (   0.0505763  -0.0840304   0.0000000), wk =   0.0555556
        k(   33) = (  -0.0758644   0.0000000   0.0000000), wk =   0.0277778
        k(   34) = (  -0.0758644   0.0280101   0.0000000), wk =   0.0555556
        k(   35) = (  -0.0758644   0.0560203   0.0000000), wk =   0.0555556
        k(   36) = (  -0.0758644  -0.0840304   0.0000000), wk =   0.0277778
        k(   37) = (  -0.0252881   0.0280101   0.0000000), wk =   0.0555556
        k(   38) = (  -0.0252881   0.0560203   0.0000000), wk =   0.0555556
        k(   39) = (  -0.0505763   0.0280101   0.0000000), wk =   0.0555556
        k(   40) = (  -0.0505763   0.0560203   0.0000000), wk =   0.0555556

     Dense  grid:  1096637 G-vectors     FFT dimensions: (  80,  72, 375)

     Smooth grid:   277353 G-vectors     FFT dimensions: (  54,  45, 240)

     Largest allocated arrays     est. size (Mb)     dimensions
        Kohn-Sham Wavefunctions         9.81 Mb     (    2180,  295)
        NL pseudopotentials            18.36 Mb     (    2180,  552)
        Each V/rho on FFT grid          4.22 Mb     (  138240,   2)
        Each G-vector array             0.52 Mb     (   68538)
        G-vector shells                 0.25 Mb     (   33046)
     Largest temporary arrays     est. size (Mb)     dimensions
        Auxiliary wavefunctions        39.25 Mb     (    2180, 1180)
        Each subspace H/S matrix       21.25 Mb     (    1180, 1180)
        Each <psi_i|beta_j> matrix      2.48 Mb     (     552,  295)
        Arrays for rho mixing          21.09 Mb     (  138240,   10)

     Check: negative/imaginary core charge=   -0.000049    0.000000

     The initial density is read from file :
     ./calc.save/charge-density.dat


     negative rho (up, down):  1.430E-02 1.430E-02


     ************************************************************************
     *
     * You are using vdW-DF for exchange-correlation in this calculation.
     * Please cite the following three references that made this development
     * possible:
     *
     *   M. Dion, H. Rydberg, E. Schroder, D. C. Langreth, and
     *   B. I. Lundqvist, Phys. Rev. Lett. 92, 246401 (2004).
     *
     *   T. Thonhauser, V. R. Cooper, S. Li, A. Puzder, P. Hyldgaard, and
     *   D. C. Langreth, Phys. Rev. B 76, 125112 (2007).
     *
     *   G. Roman-Perez and J. M. Soler, Phys. Rev. Lett. 103, 096102 (2009).
     *
     *
     * If you are using vdW-DF2, please also cite:
     *
     *   K. Lee, E. D. Murray, L. Kong, B. I. Lundqvist, and
     *   D. C. Langreth, Phys. Rev. B 82, 081101(R) (2010).
     *
     *
     * If you are calculating the stress with vdW-DF, please also cite:
     *
     *   R. Sabatini, E. Kucukbenli, B. Kolb, T. Thonhauser, and
     *   S. de Gironcoli, J. Phys.: Condens. Matter 24, 424209 (2012).
     *
     ************************************************************************

     Carrying out vdW-DF run using the following parameters:

     Nqs =      20    Nr_points =    1024   r_max =   100.000
     q_mesh =
               0.00001000     0.04494208     0.09755937     0.15916263
               0.23128650     0.31572767     0.41458969     0.53033537
               0.66584808     0.82450364     1.01025438     1.22772762
               1.48234092     1.78043706     2.12944203     2.53805004
               3.01644009     3.57652955     4.23227104     5.00000000

     Gradients computed in reciprocal space

     ************************************************************************


     Starting wfc are  292 randomized atomic wfcs +    3 random wfc

     total cpu time spent up to now is       69.1 secs

     Self-consistent Calculation

     iteration #  1     ecut=    40.42 Ry     beta=0.10
     Davidson diagonalization with overlap
     ethr =  1.00E-05,  avg # of iterations = 17.2

     negative rho (up, down):  1.430E-02 1.430E-02
 
     Magnetic moment per site:
     atom:    1    charge:    3.1251    magn:   -0.0002    constr:    0.0000
     atom:    2    charge:    2.0894    magn:    0.0000    constr:    0.0000
     atom:    3    charge:    3.1196    magn:   -0.0000    constr:    0.0000
     atom:    4    charge:    2.0871    magn:   -0.0001    constr:    0.0000
     atom:    5    charge:    3.1167    magn:    0.0000    constr:    0.0000
     atom:    6    charge:    2.0886    magn:   -0.0001    constr:    0.0000
     atom:    7    charge:    3.1233    magn:    0.0001    constr:    0.0000
     atom:    8    charge:    2.0874    magn:   -0.0001    constr:    0.0000
     atom:    9    charge:    3.1251    magn:   -0.0002    constr:    0.0000
     atom:   10    charge:    2.0894    magn:    0.0000    constr:    0.0000
     atom:   11    charge:    3.1196    magn:   -0.0000    constr:    0.0000
     atom:   12    charge:    2.0871    magn:   -0.0001    constr:    0.0000
     atom:   13    charge:    3.1147    magn:    0.0000    constr:    0.0000
     atom:   14    charge:    2.0872    magn:   -0.0001    constr:    0.0000
     atom:   15    charge:    3.1192    magn:    0.0001    constr:    0.0000
     atom:   16    charge:    2.1022    magn:   -0.0002    constr:    0.0000
     atom:   17    charge:    2.0622    magn:    0.0006    constr:    0.0000
     atom:   18    charge:    3.1239    magn:   -0.0001    constr:    0.0000
     atom:   19    charge:    2.0878    magn:   -0.0000    constr:    0.0000
     atom:   20    charge:    2.0846    magn:    0.0001    constr:    0.0000
     atom:   21    charge:    2.0846    magn:    0.0001    constr:    0.0000
     atom:   22    charge:    3.1196    magn:    0.0000    constr:    0.0000
     atom:   23    charge:    2.0902    magn:   -0.0001    constr:    0.0000
     atom:   24    charge:    2.0790    magn:   -0.0000    constr:    0.0000
     atom:   25    charge:    2.0869    magn:   -0.0001    constr:    0.0000
     atom:   26    charge:    3.1149    magn:    0.0000    constr:    0.0000
     atom:   27    charge:    2.0818    magn:   -0.0001    constr:    0.0000
     atom:   28    charge:    2.0885    magn:   -0.0001    constr:    0.0000
     atom:   29    charge:    2.0875    magn:   -0.0001    constr:    0.0000
     atom:   30    charge:    3.1184    magn:    0.0000    constr:    0.0000
     atom:   31    charge:    2.0828    magn:   -0.0001    constr:    0.0000
     atom:   32    charge:    2.0852    magn:   -0.0001    constr:    0.0000
     atom:   33    charge:    2.0622    magn:    0.0006    constr:    0.0000
     atom:   34    charge:    3.1239    magn:   -0.0001    constr:    0.0000
     atom:   35    charge:    2.0878    magn:   -0.0000    constr:    0.0000
     atom:   36    charge:    2.0846    magn:    0.0001    constr:    0.0000
     atom:   37    charge:    2.0846    magn:    0.0001    constr:    0.0000
     atom:   38    charge:    3.1196    magn:    0.0000    constr:    0.0000
     atom:   39    charge:    2.0909    magn:   -0.0001    constr:    0.0000
     atom:   40    charge:    2.0790    magn:   -0.0000    constr:    0.0000
     atom:   41    charge:    2.0869    magn:   -0.0001    constr:    0.0000
     atom:   42    charge:    3.1146    magn:    0.0000    constr:    0.0000
     atom:   43    charge:    2.0817    magn:   -0.0001    constr:    0.0000
     atom:   44    charge:    2.0857    magn:   -0.0001    constr:    0.0000
     atom:   45    charge:    2.0874    magn:   -0.0001    constr:    0.0000
     atom:   46    charge:    3.1233    magn:    0.0001    constr:    0.0000
     atom:   47    charge:    2.0837    magn:   -0.0001    constr:    0.0000
     atom:   48    charge:    2.0647    magn:   -0.0001    constr:    0.0000
     atom:   49    charge:    2.0415    magn:   -0.0001    constr:    0.0000

     total cpu time spent up to now is      841.7 secs

     total energy              =   -3004.20118629 Ry
     Harris-Foulkes estimate   =   -3004.21818916 Ry
     estimated scf accuracy    <       0.11070126 Ry

     total magnetization       =     0.00 Bohr mag/cell
     absolute magnetization    =     0.01 Bohr mag/cell

     iteration #  2     ecut=    40.42 Ry     beta=0.10
     Davidson diagonalization with overlap
     ethr =  2.84E-05,  avg # of iterations =  1.0

     negative rho (up, down):  1.430E-02 1.430E-02
 
     Magnetic moment per site:
     atom:    1    charge:    3.1251    magn:   -0.0002    constr:    0.0000
     atom:    2    charge:    2.0894    magn:    0.0000    constr:    0.0000
     atom:    3    charge:    3.1196    magn:   -0.0000    constr:    0.0000
     atom:    4    charge:    2.0870    magn:   -0.0000    constr:    0.0000
     atom:    5    charge:    3.1167    magn:    0.0000    constr:    0.0000
     atom:    6    charge:    2.0886    magn:   -0.0001    constr:    0.0000
     atom:    7    charge:    3.1239    magn:    0.0001    constr:    0.0000
     atom:    8    charge:    2.0875    magn:   -0.0001    constr:    0.0000
     atom:    9    charge:    3.1251    magn:   -0.0002    constr:    0.0000
     atom:   10    charge:    2.0894    magn:    0.0000    constr:    0.0000
     atom:   11    charge:    3.1197    magn:   -0.0000    constr:    0.0000
     atom:   12    charge:    2.0870    magn:   -0.0000    constr:    0.0000
     atom:   13    charge:    3.1148    magn:    0.0000    constr:    0.0000
     atom:   14    charge:    2.0873    magn:   -0.0001    constr:    0.0000
     atom:   15    charge:    3.1198    magn:    0.0001    constr:    0.0000
     atom:   16    charge:    2.1037    magn:   -0.0001    constr:    0.0000
     atom:   17    charge:    2.0622    magn:    0.0005    constr:    0.0000
     atom:   18    charge:    3.1239    magn:   -0.0001    constr:    0.0000
     atom:   19    charge:    2.0877    magn:   -0.0000    constr:    0.0000
     atom:   20    charge:    2.0846    magn:    0.0001    constr:    0.0000
     atom:   21    charge:    2.0846    magn:    0.0001    constr:    0.0000
     atom:   22    charge:    3.1196    magn:    0.0000    constr:    0.0000
     atom:   23    charge:    2.0902    magn:   -0.0001    constr:    0.0000
     atom:   24    charge:    2.0789    magn:   -0.0000    constr:    0.0000
     atom:   25    charge:    2.0869    magn:   -0.0000    constr:    0.0000
     atom:   26    charge:    3.1150    magn:    0.0000    constr:    0.0000
     atom:   27    charge:    2.0817    magn:   -0.0001    constr:    0.0000
     atom:   28    charge:    2.0884    magn:   -0.0001    constr:    0.0000
     atom:   29    charge:    2.0876    magn:   -0.0001    constr:    0.0000
     atom:   30    charge:    3.1184    magn:    0.0000    constr:    0.0000
     atom:   31    charge:    2.0822    magn:   -0.0001    constr:    0.0000
     atom:   32    charge:    2.0852    magn:   -0.0001    constr:    0.0000
     atom:   33    charge:    2.0622    magn:    0.0005    constr:    0.0000
     atom:   34    charge:    3.1239    magn:   -0.0001    constr:    0.0000
     atom:   35    charge:    2.0878    magn:   -0.0000    constr:    0.0000
     atom:   36    charge:    2.0846    magn:    0.0001    constr:    0.0000
     atom:   37    charge:    2.0846    magn:    0.0001    constr:    0.0000
     atom:   38    charge:    3.1196    magn:    0.0000    constr:    0.0000
     atom:   39    charge:    2.0909    magn:   -0.0001    constr:    0.0000
     atom:   40    charge:    2.0790    magn:   -0.0000    constr:    0.0000
     atom:   41    charge:    2.0869    magn:   -0.0000    constr:    0.0000
     atom:   42    charge:    3.1147    magn:    0.0000    constr:    0.0000
     atom:   43    charge:    2.0817    magn:   -0.0001    constr:    0.0000
     atom:   44    charge:    2.0857    magn:   -0.0001    constr:    0.0000
     atom:   45    charge:    2.0875    magn:   -0.0001    constr:    0.0000
     atom:   46    charge:    3.1231    magn:    0.0000    constr:    0.0000
     atom:   47    charge:    2.0832    magn:   -0.0000    constr:    0.0000
     atom:   48    charge:    2.0597    magn:   -0.0001    constr:    0.0000
     atom:   49    charge:    2.0431    magn:   -0.0001    constr:    0.0000

     total cpu time spent up to now is     1016.5 secs

     total energy              =   -3004.17869477 Ry
     Harris-Foulkes estimate   =   -3004.20274920 Ry
     estimated scf accuracy    <       0.06368739 Ry

     total magnetization       =     0.00 Bohr mag/cell
     absolute magnetization    =     0.01 Bohr mag/cell

     iteration #  3     ecut=    40.42 Ry     beta=0.10
     Davidson diagonalization with overlap
     ethr =  1.63E-05,  avg # of iterations =  2.0

     negative rho (up, down):  1.431E-02 1.431E-02
 
     Magnetic moment per site:
     atom:    1    charge:    3.1251    magn:   -0.0001    constr:    0.0000
     atom:    2    charge:    2.0895    magn:    0.0000    constr:    0.0000
     atom:    3    charge:    3.1196    magn:   -0.0000    constr:    0.0000
     atom:    4    charge:    2.0871    magn:   -0.0000    constr:    0.0000
     atom:    5    charge:    3.1167    magn:    0.0000    constr:    0.0000
     atom:    6    charge:    2.0896    magn:   -0.0001    constr:    0.0000
     atom:    7    charge:    3.1211    magn:    0.0001    constr:    0.0000
     atom:    8    charge:    2.0873    magn:   -0.0001    constr:    0.0000
     atom:    9    charge:    3.1251    magn:   -0.0001    constr:    0.0000
     atom:   10    charge:    2.0895    magn:    0.0000    constr:    0.0000
     atom:   11    charge:    3.1196    magn:   -0.0000    constr:    0.0000
     atom:   12    charge:    2.0870    magn:   -0.0000    constr:    0.0000
     atom:   13    charge:    3.1147    magn:    0.0000    constr:    0.0000
     atom:   14    charge:    2.0883    magn:   -0.0001    constr:    0.0000
     atom:   15    charge:    3.1169    magn:    0.0001    constr:    0.0000
     atom:   16    charge:    2.1000    magn:   -0.0001    constr:    0.0000
     atom:   17    charge:    2.0623    magn:    0.0004    constr:    0.0000
     atom:   18    charge:    3.1239    magn:   -0.0001    constr:    0.0000
     atom:   19    charge:    2.0877    magn:   -0.0000    constr:    0.0000
     atom:   20    charge:    2.0846    magn:    0.0001    constr:    0.0000
     atom:   21    charge:    2.0846    magn:    0.0001    constr:    0.0000
     atom:   22    charge:    3.1196    magn:    0.0000    constr:    0.0000
     atom:   23    charge:    2.0904    magn:   -0.0001    constr:    0.0000
     atom:   24    charge:    2.0789    magn:   -0.0000    constr:    0.0000
     atom:   25    charge:    2.0869    magn:   -0.0000    constr:    0.0000
     atom:   26    charge:    3.1148    magn:    0.0000    constr:    0.0000
     atom:   27    charge:    2.0819    magn:   -0.0000    constr:    0.0000
     atom:   28    charge:    2.0884    magn:   -0.0001    constr:    0.0000
     atom:   29    charge:    2.0877    magn:   -0.0001    constr:    0.0000
     atom:   30    charge:    3.1180    magn:    0.0000    constr:    0.0000
     atom:   31    charge:    2.0830    magn:   -0.0000    constr:    0.0000
     atom:   32    charge:    2.0876    magn:   -0.0001    constr:    0.0000
     atom:   33    charge:    2.0623    magn:    0.0004    constr:    0.0000
     atom:   34    charge:    3.1239    magn:   -0.0001    constr:    0.0000
     atom:   35    charge:    2.0877    magn:   -0.0000    constr:    0.0000
     atom:   36    charge:    2.0846    magn:    0.0001    constr:    0.0000
     atom:   37    charge:    2.0846    magn:    0.0001    constr:    0.0000
     atom:   38    charge:    3.1196    magn:    0.0000    constr:    0.0000
     atom:   39    charge:    2.0911    magn:   -0.0001    constr:    0.0000
     atom:   40    charge:    2.0790    magn:   -0.0000    constr:    0.0000
     atom:   41    charge:    2.0869    magn:   -0.0000    constr:    0.0000
     atom:   42    charge:    3.1145    magn:    0.0000    constr:    0.0000
     atom:   43    charge:    2.0819    magn:   -0.0000    constr:    0.0000
     atom:   44    charge:    2.0857    magn:   -0.0000    constr:    0.0000
     atom:   45    charge:    2.0876    magn:   -0.0001    constr:    0.0000
     atom:   46    charge:    3.1248    magn:    0.0000    constr:    0.0000
     atom:   47    charge:    2.0840    magn:   -0.0000    constr:    0.0000
     atom:   48    charge:    2.0657    magn:   -0.0001    constr:    0.0000
     atom:   49    charge:    2.0439    magn:   -0.0001    constr:    0.0000

     total cpu time spent up to now is     1208.1 secs

     total energy              =   -3004.17430905 Ry
     Harris-Foulkes estimate   =   -3004.18330851 Ry
     estimated scf accuracy    <       0.01733468 Ry

     total magnetization       =     0.00 Bohr mag/cell
     absolute magnetization    =     0.01 Bohr mag/cell

     iteration #  4     ecut=    40.42 Ry     beta=0.10
     Davidson diagonalization with overlap
     ethr =  4.44E-06,  avg # of iterations =  4.5

     negative rho (up, down):  1.431E-02 1.431E-02
 
     Magnetic moment per site:
     atom:    1    charge:    3.1251    magn:   -0.0001    constr:    0.0000
     atom:    2    charge:    2.0895    magn:    0.0000    constr:    0.0000
     atom:    3    charge:    3.1196    magn:   -0.0000    constr:    0.0000
     atom:    4    charge:    2.0871    magn:   -0.0000    constr:    0.0000
     atom:    5    charge:    3.1167    magn:    0.0000    constr:    0.0000
     atom:    6    charge:    2.0893    magn:   -0.0001    constr:    0.0000
     atom:    7    charge:    3.1208    magn:    0.0001    constr:    0.0000
     atom:    8    charge:    2.0872    magn:   -0.0001    constr:    0.0000
     atom:    9    charge:    3.1251    magn:   -0.0001    constr:    0.0000
     atom:   10    charge:    2.0895    magn:    0.0000    constr:    0.0000
     atom:   11    charge:    3.1196    magn:   -0.0000    constr:    0.0000
     atom:   12    charge:    2.0871    magn:   -0.0000    constr:    0.0000
     atom:   13    charge:    3.1146    magn:    0.0000    constr:    0.0000
     atom:   14    charge:    2.0880    magn:   -0.0001    constr:    0.0000
     atom:   15    charge:    3.1167    magn:    0.0000    constr:    0.0000
     atom:   16    charge:    2.0990    magn:   -0.0001    constr:    0.0000
     atom:   17    charge:    2.0622    magn:    0.0003    constr:    0.0000
     atom:   18    charge:    3.1239    magn:   -0.0001    constr:    0.0000
     atom:   19    charge:    2.0877    magn:   -0.0000    constr:    0.0000
     atom:   20    charge:    2.0846    magn:    0.0000    constr:    0.0000
     atom:   21    charge:    2.0846    magn:    0.0000    constr:    0.0000
     atom:   22    charge:    3.1196    magn:    0.0000    constr:    0.0000
     atom:   23    charge:    2.0903    magn:   -0.0000    constr:    0.0000
     atom:   24    charge:    2.0789    magn:   -0.0000    constr:    0.0000
     atom:   25    charge:    2.0869    magn:   -0.0000    constr:    0.0000
     atom:   26    charge:    3.1148    magn:    0.0000    constr:    0.0000
     atom:   27    charge:    2.0819    magn:   -0.0000    constr:    0.0000
     atom:   28    charge:    2.0885    magn:   -0.0000    constr:    0.0000
     atom:   29    charge:    2.0876    magn:   -0.0001    constr:    0.0000
     atom:   30    charge:    3.1181    magn:    0.0000    constr:    0.0000
     atom:   31    charge:    2.0836    magn:   -0.0000    constr:    0.0000
     atom:   32    charge:    2.0872    magn:   -0.0001    constr:    0.0000
     atom:   33    charge:    2.0622    magn:    0.0003    constr:    0.0000
     atom:   34    charge:    3.1239    magn:   -0.0001    constr:    0.0000
     atom:   35    charge:    2.0877    magn:   -0.0000    constr:    0.0000
     atom:   36    charge:    2.0846    magn:    0.0000    constr:    0.0000
     atom:   37    charge:    2.0846    magn:    0.0000    constr:    0.0000
     atom:   38    charge:    3.1196    magn:    0.0000    constr:    0.0000
     atom:   39    charge:    2.0910    magn:   -0.0000    constr:    0.0000
     atom:   40    charge:    2.0790    magn:   -0.0000    constr:    0.0000
     atom:   41    charge:    2.0869    magn:   -0.0000    constr:    0.0000
     atom:   42    charge:    3.1145    magn:    0.0000    constr:    0.0000
     atom:   43    charge:    2.0818    magn:   -0.0000    constr:    0.0000
     atom:   44    charge:    2.0857    magn:   -0.0000    constr:    0.0000
     atom:   45    charge:    2.0874    magn:   -0.0000    constr:    0.0000
     atom:   46    charge:    3.1248    magn:    0.0000    constr:    0.0000
     atom:   47    charge:    2.0846    magn:   -0.0000    constr:    0.0000
     atom:   48    charge:    2.0685    magn:   -0.0001    constr:    0.0000
     atom:   49    charge:    2.0440    magn:   -0.0001    constr:    0.0000

     total cpu time spent up to now is     1439.3 secs

     total energy              =   -3004.17573911 Ry
     Harris-Foulkes estimate   =   -3004.17628971 Ry
     estimated scf accuracy    <       0.00147061 Ry

     total magnetization       =     0.00 Bohr mag/cell
     absolute magnetization    =     0.00 Bohr mag/cell

     iteration #  5     ecut=    40.42 Ry     beta=0.10
     Davidson diagonalization with overlap
     ethr =  3.77E-07,  avg # of iterations =  2.2

     negative rho (up, down):  1.431E-02 1.431E-02
 
     Magnetic moment per site:
     atom:    1    charge:    3.1251    magn:   -0.0001    constr:    0.0000
     atom:    2    charge:    2.0895    magn:    0.0000    constr:    0.0000
     atom:    3    charge:    3.1196    magn:   -0.0000    constr:    0.0000
     atom:    4    charge:    2.0871    magn:   -0.0000    constr:    0.0000
     atom:    5    charge:    3.1167    magn:    0.0000    constr:    0.0000
     atom:    6    charge:    2.0890    magn:   -0.0001    constr:    0.0000
     atom:    7    charge:    3.1212    magn:    0.0000    constr:    0.0000
     atom:    8    charge:    2.0872    magn:   -0.0001    constr:    0.0000
     atom:    9    charge:    3.1251    magn:   -0.0001    constr:    0.0000
     atom:   10    charge:    2.0895    magn:    0.0000    constr:    0.0000
     atom:   11    charge:    3.1196    magn:   -0.0000    constr:    0.0000
     atom:   12    charge:    2.0871    magn:   -0.0000    constr:    0.0000
     atom:   13    charge:    3.1147    magn:    0.0000    constr:    0.0000
     atom:   14    charge:    2.0876    magn:   -0.0000    constr:    0.0000
     atom:   15    charge:    3.1171    magn:    0.0000    constr:    0.0000
     atom:   16    charge:    2.0995    magn:   -0.0001    constr:    0.0000
     atom:   17    charge:    2.0622    magn:    0.0003    constr:    0.0000
     atom:   18    charge:    3.1239    magn:   -0.0001    constr:    0.0000
     atom:   19    charge:    2.0877    magn:   -0.0000    constr:    0.0000
     atom:   20    charge:    2.0846    magn:    0.0000    constr:    0.0000
     atom:   21    charge:    2.0846    magn:    0.0000    constr:    0.0000
     atom:   22    charge:    3.1196    magn:    0.0000    constr:    0.0000
     atom:   23    charge:    2.0903    magn:   -0.0000    constr:    0.0000
     atom:   24    charge:    2.0789    magn:   -0.0000    constr:    0.0000
     atom:   25    charge:    2.0869    magn:   -0.0000    constr:    0.0000
     atom:   26    charge:    3.1149    magn:    0.0000    constr:    0.0000
     atom:   27    charge:    2.0818    magn:   -0.0000    constr:    0.0000
     atom:   28    charge:    2.0885    magn:   -0.0000    constr:    0.0000
     atom:   29    charge:    2.0875    magn:   -0.0000    constr:    0.0000
     atom:   30    charge:    3.1182    magn:    0.0000    constr:    0.0000
     atom:   31    charge:    2.0836    magn:   -0.0000    constr:    0.0000
     atom:   32    charge:    2.0865    magn:   -0.0001    constr:    0.0000
     atom:   33    charge:    2.0622    magn:    0.0003    constr:    0.0000
     atom:   34    charge:    3.1239    magn:   -0.0001    constr:    0.0000
     atom:   35    charge:    2.0878    magn:   -0.0000    constr:    0.0000
     atom:   36    charge:    2.0846    magn:    0.0000    constr:    0.0000
     atom:   37    charge:    2.0846    magn:    0.0000    constr:    0.0000
     atom:   38    charge:    3.1196    magn:    0.0000    constr:    0.0000
     atom:   39    charge:    2.0910    magn:   -0.0000    constr:    0.0000
     atom:   40    charge:    2.0790    magn:   -0.0000    constr:    0.0000
     atom:   41    charge:    2.0869    magn:   -0.0000    constr:    0.0000
     atom:   42    charge:    3.1146    magn:    0.0000    constr:    0.0000
     atom:   43    charge:    2.0817    magn:   -0.0000    constr:    0.0000
     atom:   44    charge:    2.0857    magn:   -0.0000    constr:    0.0000
     atom:   45    charge:    2.0873    magn:   -0.0000    constr:    0.0000
     atom:   46    charge:    3.1245    magn:    0.0000    constr:    0.0000
     atom:   47    charge:    2.0846    magn:   -0.0000    constr:    0.0000
     atom:   48    charge:    2.0688    magn:   -0.0001    constr:    0.0000
     atom:   49    charge:    2.0441    magn:   -0.0001    constr:    0.0000

     total cpu time spent up to now is     1636.0 secs

     total energy              =   -3004.17581366 Ry
     Harris-Foulkes estimate   =   -3004.17588374 Ry
     estimated scf accuracy    <       0.00033515 Ry

     total magnetization       =     0.00 Bohr mag/cell
     absolute magnetization    =     0.00 Bohr mag/cell

     iteration #  6     ecut=    40.42 Ry     beta=0.10
     Davidson diagonalization with overlap
     ethr =  8.59E-08,  avg # of iterations =  2.0

     negative rho (up, down):  1.431E-02 1.431E-02
 
     Magnetic moment per site:
     atom:    1    charge:    3.1251    magn:   -0.0001    constr:    0.0000
     atom:    2    charge:    2.0894    magn:    0.0000    constr:    0.0000
     atom:    3    charge:    3.1196    magn:   -0.0000    constr:    0.0000
     atom:    4    charge:    2.0871    magn:   -0.0000    constr:    0.0000
     atom:    5    charge:    3.1167    magn:    0.0000    constr:    0.0000
     atom:    6    charge:    2.0889    magn:   -0.0000    constr:    0.0000
     atom:    7    charge:    3.1215    magn:    0.0000    constr:    0.0000
     atom:    8    charge:    2.0874    magn:   -0.0000    constr:    0.0000
     atom:    9    charge:    3.1251    magn:   -0.0001    constr:    0.0000
     atom:   10    charge:    2.0894    magn:    0.0000    constr:    0.0000
     atom:   11    charge:    3.1196    magn:   -0.0000    constr:    0.0000
     atom:   12    charge:    2.0870    magn:   -0.0000    constr:    0.0000
     atom:   13    charge:    3.1147    magn:    0.0000    constr:    0.0000
     atom:   14    charge:    2.0876    magn:   -0.0000    constr:    0.0000
     atom:   15    charge:    3.1174    magn:    0.0000    constr:    0.0000
     atom:   16    charge:    2.1002    magn:   -0.0001    constr:    0.0000
     atom:   17    charge:    2.0622    magn:    0.0002    constr:    0.0000
     atom:   18    charge:    3.1239    magn:   -0.0000    constr:    0.0000
     atom:   19    charge:    2.0877    magn:   -0.0000    constr:    0.0000
     atom:   20    charge:    2.0846    magn:    0.0000    constr:    0.0000
     atom:   21    charge:    2.0846    magn:    0.0000    constr:    0.0000
     atom:   22    charge:    3.1196    magn:    0.0000    constr:    0.0000
     atom:   23    charge:    2.0903    magn:   -0.0000    constr:    0.0000
     atom:   24    charge:    2.0789    magn:   -0.0000    constr:    0.0000
     atom:   25    charge:    2.0869    magn:   -0.0000    constr:    0.0000
     atom:   26    charge:    3.1149    magn:    0.0000    constr:    0.0000
     atom:   27    charge:    2.0818    magn:   -0.0000    constr:    0.0000
     atom:   28    charge:    2.0885    magn:   -0.0000    constr:    0.0000
     atom:   29    charge:    2.0876    magn:   -0.0000    constr:    0.0000
     atom:   30    charge:    3.1182    magn:    0.0000    constr:    0.0000
     atom:   31    charge:    2.0834    magn:   -0.0000    constr:    0.0000
     atom:   32    charge:    2.0861    magn:   -0.0000    constr:    0.0000
     atom:   33    charge:    2.0622    magn:    0.0002    constr:    0.0000
     atom:   34    charge:    3.1239    magn:   -0.0000    constr:    0.0000
     atom:   35    charge:    2.0878    magn:   -0.0000    constr:    0.0000
     atom:   36    charge:    2.0846    magn:    0.0000    constr:    0.0000
     atom:   37    charge:    2.0846    magn:    0.0000    constr:    0.0000
     atom:   38    charge:    3.1196    magn:    0.0000    constr:    0.0000
     atom:   39    charge:    2.0909    magn:   -0.0000    constr:    0.0000
     atom:   40    charge:    2.0790    magn:   -0.0000    constr:    0.0000
     atom:   41    charge:    2.0869    magn:   -0.0000    constr:    0.0000
     atom:   42    charge:    3.1146    magn:    0.0000    constr:    0.0000
     atom:   43    charge:    2.0817    magn:   -0.0000    constr:    0.0000
     atom:   44    charge:    2.0857    magn:   -0.0000    constr:    0.0000
     atom:   45    charge:    2.0874    magn:   -0.0000    constr:    0.0000
     atom:   46    charge:    3.1242    magn:    0.0000    constr:    0.0000
     atom:   47    charge:    2.0844    magn:   -0.0000    constr:    0.0000
     atom:   48    charge:    2.0686    magn:   -0.0000    constr:    0.0000
     atom:   49    charge:    2.0445    magn:   -0.0000    constr:    0.0000

     total cpu time spent up to now is     1824.8 secs

     total energy              =   -3004.17579032 Ry
     Harris-Foulkes estimate   =   -3004.17582852 Ry
     estimated scf accuracy    <       0.00014954 Ry

     total magnetization       =     0.00 Bohr mag/cell
     absolute magnetization    =     0.00 Bohr mag/cell

     iteration #  7     ecut=    40.42 Ry     beta=0.10
     Davidson diagonalization with overlap
     ethr =  3.83E-08,  avg # of iterations =  2.0

     negative rho (up, down):  1.432E-02 1.432E-02
 
     Magnetic moment per site:
     atom:    1    charge:    3.1251    magn:   -0.0001    constr:    0.0000
     atom:    2    charge:    2.0895    magn:    0.0000    constr:    0.0000
     atom:    3    charge:    3.1196    magn:   -0.0000    constr:    0.0000
     atom:    4    charge:    2.0871    magn:   -0.0000    constr:    0.0000
     atom:    5    charge:    3.1167    magn:    0.0000    constr:    0.0000
     atom:    6    charge:    2.0890    magn:   -0.0000    constr:    0.0000
     atom:    7    charge:    3.1217    magn:    0.0000    constr:    0.0000
     atom:    8    charge:    2.0875    magn:   -0.0000    constr:    0.0000
     atom:    9    charge:    3.1251    magn:   -0.0001    constr:    0.0000
     atom:   10    charge:    2.0894    magn:    0.0000    constr:    0.0000
     atom:   11    charge:    3.1196    magn:   -0.0000    constr:    0.0000
     atom:   12    charge:    2.0870    magn:   -0.0000    constr:    0.0000
     atom:   13    charge:    3.1147    magn:    0.0000    constr:    0.0000
     atom:   14    charge:    2.0876    magn:   -0.0000    constr:    0.0000
     atom:   15    charge:    3.1176    magn:    0.0000    constr:    0.0000
     atom:   16    charge:    2.1006    magn:   -0.0000    constr:    0.0000
     atom:   17    charge:    2.0622    magn:    0.0002    constr:    0.0000
     atom:   18    charge:    3.1239    magn:   -0.0000    constr:    0.0000
     atom:   19    charge:    2.0877    magn:   -0.0000    constr:    0.0000
     atom:   20    charge:    2.0846    magn:    0.0000    constr:    0.0000
     atom:   21    charge:    2.0846    magn:    0.0000    constr:    0.0000
     atom:   22    charge:    3.1196    magn:    0.0000    constr:    0.0000
     atom:   23    charge:    2.0903    magn:   -0.0000    constr:    0.0000
     atom:   24    charge:    2.0789    magn:   -0.0000    constr:    0.0000
     atom:   25    charge:    2.0869    magn:   -0.0000    constr:    0.0000
     atom:   26    charge:    3.1149    magn:    0.0000    constr:    0.0000
     atom:   27    charge:    2.0818    magn:   -0.0000    constr:    0.0000
     atom:   28    charge:    2.0885    magn:   -0.0000    constr:    0.0000
     atom:   29    charge:    2.0876    magn:   -0.0000    constr:    0.0000
     atom:   30    charge:    3.1182    magn:    0.0000    constr:    0.0000
     atom:   31    charge:    2.0833    magn:   -0.0000    constr:    0.0000
     atom:   32    charge:    2.0860    magn:   -0.0000    constr:    0.0000
     atom:   33    charge:    2.0622    magn:    0.0002    constr:    0.0000
     atom:   34    charge:    3.1239    magn:   -0.0000    constr:    0.0000
     atom:   35    charge:    2.0878    magn:   -0.0000    constr:    0.0000
     atom:   36    charge:    2.0846    magn:    0.0000    constr:    0.0000
     atom:   37    charge:    2.0846    magn:    0.0000    constr:    0.0000
     atom:   38    charge:    3.1196    magn:    0.0000    constr:    0.0000
     atom:   39    charge:    2.0910    magn:   -0.0000    constr:    0.0000
     atom:   40    charge:    2.0790    magn:   -0.0000    constr:    0.0000
     atom:   41    charge:    2.0869    magn:   -0.0000    constr:    0.0000
     atom:   42    charge:    3.1146    magn:    0.0000    constr:    0.0000
     atom:   43    charge:    2.0817    magn:   -0.0000    constr:    0.0000
     atom:   44    charge:    2.0857    magn:   -0.0000    constr:    0.0000
     atom:   45    charge:    2.0874    magn:   -0.0000    constr:    0.0000
     atom:   46    charge:    3.1241    magn:    0.0000    constr:    0.0000
     atom:   47    charge:    2.0843    magn:   -0.0000    constr:    0.0000
     atom:   48    charge:    2.0682    magn:   -0.0000    constr:    0.0000
     atom:   49    charge:    2.0448    magn:   -0.0000    constr:    0.0000

     total cpu time spent up to now is     2017.2 secs

     total energy              =   -3004.17579172 Ry
     Harris-Foulkes estimate   =   -3004.17579833 Ry
     estimated scf accuracy    <       0.00003713 Ry

     total magnetization       =     0.00 Bohr mag/cell
     absolute magnetization    =     0.00 Bohr mag/cell

     iteration #  8     ecut=    40.42 Ry     beta=0.10
     Davidson diagonalization with overlap
     ethr =  9.52E-09,  avg # of iterations =  2.0

     negative rho (up, down):  1.431E-02 1.431E-02
 
     Magnetic moment per site:
     atom:    1    charge:    3.1251    magn:   -0.0001    constr:    0.0000
     atom:    2    charge:    2.0895    magn:    0.0000    constr:    0.0000
     atom:    3    charge:    3.1196    magn:   -0.0000    constr:    0.0000
     atom:    4    charge:    2.0871    magn:   -0.0000    constr:    0.0000
     atom:    5    charge:    3.1167    magn:    0.0000    constr:    0.0000
     atom:    6    charge:    2.0890    magn:   -0.0000    constr:    0.0000
     atom:    7    charge:    3.1218    magn:    0.0000    constr:    0.0000
     atom:    8    charge:    2.0874    magn:   -0.0000    constr:    0.0000
     atom:    9    charge:    3.1251    magn:   -0.0001    constr:    0.0000
     atom:   10    charge:    2.0894    magn:    0.0000    constr:    0.0000
     atom:   11    charge:    3.1196    magn:   -0.0000    constr:    0.0000
     atom:   12    charge:    2.0871    magn:   -0.0000    constr:    0.0000
     atom:   13    charge:    3.1147    magn:    0.0000    constr:    0.0000
     atom:   14    charge:    2.0876    magn:   -0.0000    constr:    0.0000
     atom:   15    charge:    3.1177    magn:    0.0000    constr:    0.0000
     atom:   16    charge:    2.1007    magn:   -0.0000    constr:    0.0000
     atom:   17    charge:    2.0622    magn:    0.0002    constr:    0.0000
     atom:   18    charge:    3.1239    magn:   -0.0000    constr:    0.0000
     atom:   19    charge:    2.0877    magn:   -0.0000    constr:    0.0000
     atom:   20    charge:    2.0846    magn:    0.0000    constr:    0.0000
     atom:   21    charge:    2.0846    magn:    0.0000    constr:    0.0000
     atom:   22    charge:    3.1196    magn:    0.0000    constr:    0.0000
     atom:   23    charge:    2.0903    magn:   -0.0000    constr:    0.0000
     atom:   24    charge:    2.0789    magn:   -0.0000    constr:    0.0000
     atom:   25    charge:    2.0869    magn:   -0.0000    constr:    0.0000
     atom:   26    charge:    3.1149    magn:    0.0000    constr:    0.0000
     atom:   27    charge:    2.0818    magn:   -0.0000    constr:    0.0000
     atom:   28    charge:    2.0885    magn:   -0.0000    constr:    0.0000
     atom:   29    charge:    2.0876    magn:   -0.0000    constr:    0.0000
     atom:   30    charge:    3.1182    magn:    0.0000    constr:    0.0000
     atom:   31    charge:    2.0832    magn:   -0.0000    constr:    0.0000
     atom:   32    charge:    2.0861    magn:   -0.0000    constr:    0.0000
     atom:   33    charge:    2.0622    magn:    0.0002    constr:    0.0000
     atom:   34    charge:    3.1239    magn:   -0.0000    constr:    0.0000
     atom:   35    charge:    2.0878    magn:   -0.0000    constr:    0.0000
     atom:   36    charge:    2.0846    magn:    0.0000    constr:    0.0000
     atom:   37    charge:    2.0846    magn:    0.0000    constr:    0.0000
     atom:   38    charge:    3.1196    magn:    0.0000    constr:    0.0000
     atom:   39    charge:    2.0910    magn:   -0.0000    constr:    0.0000
     atom:   40    charge:    2.0790    magn:   -0.0000    constr:    0.0000
     atom:   41    charge:    2.0869    magn:   -0.0000    constr:    0.0000
     atom:   42    charge:    3.1146    magn:    0.0000    constr:    0.0000
     atom:   43    charge:    2.0817    magn:   -0.0000    constr:    0.0000
     atom:   44    charge:    2.0857    magn:   -0.0000    constr:    0.0000
     atom:   45    charge:    2.0874    magn:   -0.0000    constr:    0.0000
     atom:   46    charge:    3.1240    magn:    0.0000    constr:    0.0000
     atom:   47    charge:    2.0842    magn:   -0.0000    constr:    0.0000
     atom:   48    charge:    2.0680    magn:   -0.0000    constr:    0.0000
     atom:   49    charge:    2.0448    magn:   -0.0000    constr:    0.0000

     total cpu time spent up to now is     2210.0 secs

     total energy              =   -3004.17579498 Ry
     Harris-Foulkes estimate   =   -3004.17579437 Ry
     estimated scf accuracy    <       0.00000789 Ry

     total magnetization       =     0.00 Bohr mag/cell
     absolute magnetization    =     0.00 Bohr mag/cell

     iteration #  9     ecut=    40.42 Ry     beta=0.10
     Davidson diagonalization with overlap
     ethr =  2.02E-09,  avg # of iterations =  2.0

     negative rho (up, down):  1.431E-02 1.431E-02
 
     Magnetic moment per site:
     atom:    1    charge:    3.1251    magn:   -0.0000    constr:    0.0000
     atom:    2    charge:    2.0895    magn:    0.0000    constr:    0.0000
     atom:    3    charge:    3.1196    magn:   -0.0000    constr:    0.0000
     atom:    4    charge:    2.0871    magn:   -0.0000    constr:    0.0000
     atom:    5    charge:    3.1167    magn:    0.0000    constr:    0.0000
     atom:    6    charge:    2.0890    magn:   -0.0000    constr:    0.0000
     atom:    7    charge:    3.1218    magn:    0.0000    constr:    0.0000
     atom:    8    charge:    2.0874    magn:   -0.0000    constr:    0.0000
     atom:    9    charge:    3.1251    magn:   -0.0000    constr:    0.0000
     atom:   10    charge:    2.0894    magn:    0.0000    constr:    0.0000
     atom:   11    charge:    3.1196    magn:   -0.0000    constr:    0.0000
     atom:   12    charge:    2.0871    magn:   -0.0000    constr:    0.0000
     atom:   13    charge:    3.1147    magn:    0.0000    constr:    0.0000
     atom:   14    charge:    2.0876    magn:   -0.0000    constr:    0.0000
     atom:   15    charge:    3.1177    magn:    0.0000    constr:    0.0000
     atom:   16    charge:    2.1006    magn:   -0.0000    constr:    0.0000
     atom:   17    charge:    2.0622    magn:    0.0001    constr:    0.0000
     atom:   18    charge:    3.1239    magn:   -0.0000    constr:    0.0000
     atom:   19    charge:    2.0877    magn:   -0.0000    constr:    0.0000
     atom:   20    charge:    2.0846    magn:    0.0000    constr:    0.0000
     atom:   21    charge:    2.0846    magn:    0.0000    constr:    0.0000
     atom:   22    charge:    3.1196    magn:    0.0000    constr:    0.0000
     atom:   23    charge:    2.0903    magn:   -0.0000    constr:    0.0000
     atom:   24    charge:    2.0789    magn:   -0.0000    constr:    0.0000
     atom:   25    charge:    2.0869    magn:   -0.0000    constr:    0.0000
     atom:   26    charge:    3.1149    magn:    0.0000    constr:    0.0000
     atom:   27    charge:    2.0818    magn:   -0.0000    constr:    0.0000
     atom:   28    charge:    2.0885    magn:   -0.0000    constr:    0.0000
     atom:   29    charge:    2.0876    magn:   -0.0000    constr:    0.0000
     atom:   30    charge:    3.1182    magn:    0.0000    constr:    0.0000
     atom:   31    charge:    2.0832    magn:   -0.0000    constr:    0.0000
     atom:   32    charge:    2.0862    magn:   -0.0000    constr:    0.0000
     atom:   33    charge:    2.0622    magn:    0.0001    constr:    0.0000
     atom:   34    charge:    3.1239    magn:   -0.0000    constr:    0.0000
     atom:   35    charge:    2.0878    magn:   -0.0000    constr:    0.0000
     atom:   36    charge:    2.0846    magn:    0.0000    constr:    0.0000
     atom:   37    charge:    2.0846    magn:    0.0000    constr:    0.0000
     atom:   38    charge:    3.1196    magn:    0.0000    constr:    0.0000
     atom:   39    charge:    2.0910    magn:   -0.0000    constr:    0.0000
     atom:   40    charge:    2.0790    magn:   -0.0000    constr:    0.0000
     atom:   41    charge:    2.0869    magn:   -0.0000    constr:    0.0000
     atom:   42    charge:    3.1146    magn:    0.0000    constr:    0.0000
     atom:   43    charge:    2.0817    magn:   -0.0000    constr:    0.0000
     atom:   44    charge:    2.0857    magn:   -0.0000    constr:    0.0000
     atom:   45    charge:    2.0874    magn:   -0.0000    constr:    0.0000
     atom:   46    charge:    3.1241    magn:    0.0000    constr:    0.0000
     atom:   47    charge:    2.0842    magn:   -0.0000    constr:    0.0000
     atom:   48    charge:    2.0680    magn:   -0.0000    constr:    0.0000
     atom:   49    charge:    2.0448    magn:   -0.0000    constr:    0.0000

     total cpu time spent up to now is     2399.2 secs

     total energy              =   -3004.17579565 Ry
     Harris-Foulkes estimate   =   -3004.17579532 Ry
     estimated scf accuracy    <       0.00000296 Ry

     total magnetization       =     0.00 Bohr mag/cell
     absolute magnetization    =     0.00 Bohr mag/cell

     iteration # 10     ecut=    40.42 Ry     beta=0.10
     Davidson diagonalization with overlap
     ethr =  7.58E-10,  avg # of iterations =  2.0

     negative rho (up, down):  1.431E-02 1.431E-02
 
     Magnetic moment per site:
     atom:    1    charge:    3.1251    magn:   -0.0000    constr:    0.0000
     atom:    2    charge:    2.0895    magn:    0.0000    constr:    0.0000
     atom:    3    charge:    3.1196    magn:   -0.0000    constr:    0.0000
     atom:    4    charge:    2.0871    magn:   -0.0000    constr:    0.0000
     atom:    5    charge:    3.1167    magn:    0.0000    constr:    0.0000
     atom:    6    charge:    2.0890    magn:   -0.0000    constr:    0.0000
     atom:    7    charge:    3.1218    magn:    0.0000    constr:    0.0000
     atom:    8    charge:    2.0874    magn:   -0.0000    constr:    0.0000
     atom:    9    charge:    3.1251    magn:   -0.0000    constr:    0.0000
     atom:   10    charge:    2.0894    magn:    0.0000    constr:    0.0000
     atom:   11    charge:    3.1196    magn:   -0.0000    constr:    0.0000
     atom:   12    charge:    2.0871    magn:   -0.0000    constr:    0.0000
     atom:   13    charge:    3.1147    magn:    0.0000    constr:    0.0000
     atom:   14    charge:    2.0876    magn:   -0.0000    constr:    0.0000
     atom:   15    charge:    3.1177    magn:    0.0000    constr:    0.0000
     atom:   16    charge:    2.1006    magn:   -0.0000    constr:    0.0000
     atom:   17    charge:    2.0622    magn:    0.0001    constr:    0.0000
     atom:   18    charge:    3.1239    magn:   -0.0000    constr:    0.0000
     atom:   19    charge:    2.0877    magn:   -0.0000    constr:    0.0000
     atom:   20    charge:    2.0846    magn:    0.0000    constr:    0.0000
     atom:   21    charge:    2.0846    magn:    0.0000    constr:    0.0000
     atom:   22    charge:    3.1196    magn:    0.0000    constr:    0.0000
     atom:   23    charge:    2.0903    magn:   -0.0000    constr:    0.0000
     atom:   24    charge:    2.0789    magn:   -0.0000    constr:    0.0000
     atom:   25    charge:    2.0869    magn:   -0.0000    constr:    0.0000
     atom:   26    charge:    3.1149    magn:    0.0000    constr:    0.0000
     atom:   27    charge:    2.0818    magn:   -0.0000    constr:    0.0000
     atom:   28    charge:    2.0885    magn:   -0.0000    constr:    0.0000
     atom:   29    charge:    2.0876    magn:   -0.0000    constr:    0.0000
     atom:   30    charge:    3.1182    magn:    0.0000    constr:    0.0000
     atom:   31    charge:    2.0832    magn:   -0.0000    constr:    0.0000
     atom:   32    charge:    2.0862    magn:   -0.0000    constr:    0.0000
     atom:   33    charge:    2.0622    magn:    0.0001    constr:    0.0000
     atom:   34    charge:    3.1239    magn:   -0.0000    constr:    0.0000
     atom:   35    charge:    2.0878    magn:   -0.0000    constr:    0.0000
     atom:   36    charge:    2.0846    magn:    0.0000    constr:    0.0000
     atom:   37    charge:    2.0846    magn:    0.0000    constr:    0.0000
     atom:   38    charge:    3.1196    magn:    0.0000    constr:    0.0000
     atom:   39    charge:    2.0910    magn:   -0.0000    constr:    0.0000
     atom:   40    charge:    2.0790    magn:   -0.0000    constr:    0.0000
     atom:   41    charge:    2.0869    magn:   -0.0000    constr:    0.0000
     atom:   42    charge:    3.1146    magn:    0.0000    constr:    0.0000
     atom:   43    charge:    2.0817    magn:   -0.0000    constr:    0.0000
     atom:   44    charge:    2.0857    magn:   -0.0000    constr:    0.0000
     atom:   45    charge:    2.0874    magn:   -0.0000    constr:    0.0000
     atom:   46    charge:    3.1241    magn:    0.0000    constr:    0.0000
     atom:   47    charge:    2.0842    magn:   -0.0000    constr:    0.0000
     atom:   48    charge:    2.0680    magn:   -0.0000    constr:    0.0000
     atom:   49    charge:    2.0448    magn:   -0.0000    constr:    0.0000

     total cpu time spent up to now is     2591.1 secs

     total energy              =   -3004.17579659 Ry
     Harris-Foulkes estimate   =   -3004.17579586 Ry
     estimated scf accuracy    <       0.00000077 Ry

     total magnetization       =     0.00 Bohr mag/cell
     absolute magnetization    =     0.00 Bohr mag/cell

     iteration # 11     ecut=    40.42 Ry     beta=0.10
     Davidson diagonalization with overlap
     ethr =  1.99E-10,  avg # of iterations =  2.0

     negative rho (up, down):  1.430E-02 1.430E-02
 
     Magnetic moment per site:
     atom:    1    charge:    3.1251    magn:   -0.0000    constr:    0.0000
     atom:    2    charge:    2.0895    magn:    0.0000    constr:    0.0000
     atom:    3    charge:    3.1196    magn:   -0.0000    constr:    0.0000
     atom:    4    charge:    2.0871    magn:   -0.0000    constr:    0.0000
     atom:    5    charge:    3.1167    magn:    0.0000    constr:    0.0000
     atom:    6    charge:    2.0890    magn:   -0.0000    constr:    0.0000
     atom:    7    charge:    3.1218    magn:    0.0000    constr:    0.0000
     atom:    8    charge:    2.0874    magn:   -0.0000    constr:    0.0000
     atom:    9    charge:    3.1251    magn:   -0.0000    constr:    0.0000
     atom:   10    charge:    2.0895    magn:    0.0000    constr:    0.0000
     atom:   11    charge:    3.1196    magn:   -0.0000    constr:    0.0000
     atom:   12    charge:    2.0871    magn:   -0.0000    constr:    0.0000
     atom:   13    charge:    3.1147    magn:    0.0000    constr:    0.0000
     atom:   14    charge:    2.0876    magn:   -0.0000    constr:    0.0000
     atom:   15    charge:    3.1176    magn:    0.0000    constr:    0.0000
     atom:   16    charge:    2.1006    magn:   -0.0000    constr:    0.0000
     atom:   17    charge:    2.0622    magn:    0.0001    constr:    0.0000
     atom:   18    charge:    3.1239    magn:   -0.0000    constr:    0.0000
     atom:   19    charge:    2.0877    magn:    0.0000    constr:    0.0000
     atom:   20    charge:    2.0846    magn:    0.0000    constr:    0.0000
     atom:   21    charge:    2.0846    magn:    0.0000    constr:    0.0000
     atom:   22    charge:    3.1196    magn:    0.0000    constr:    0.0000
     atom:   23    charge:    2.0903    magn:   -0.0000    constr:    0.0000
     atom:   24    charge:    2.0789    magn:   -0.0000    constr:    0.0000
     atom:   25    charge:    2.0869    magn:   -0.0000    constr:    0.0000
     atom:   26    charge:    3.1149    magn:    0.0000    constr:    0.0000
     atom:   27    charge:    2.0818    magn:   -0.0000    constr:    0.0000
     atom:   28    charge:    2.0885    magn:   -0.0000    constr:    0.0000
     atom:   29    charge:    2.0876    magn:   -0.0000    constr:    0.0000
     atom:   30    charge:    3.1182    magn:    0.0000    constr:    0.0000
     atom:   31    charge:    2.0832    magn:   -0.0000    constr:    0.0000
     atom:   32    charge:    2.0862    magn:   -0.0000    constr:    0.0000
     atom:   33    charge:    2.0622    magn:    0.0001    constr:    0.0000
     atom:   34    charge:    3.1239    magn:   -0.0000    constr:    0.0000
     atom:   35    charge:    2.0878    magn:    0.0000    constr:    0.0000
     atom:   36    charge:    2.0846    magn:    0.0000    constr:    0.0000
     atom:   37    charge:    2.0846    magn:    0.0000    constr:    0.0000
     atom:   38    charge:    3.1196    magn:    0.0000    constr:    0.0000
     atom:   39    charge:    2.0910    magn:   -0.0000    constr:    0.0000
     atom:   40    charge:    2.0790    magn:   -0.0000    constr:    0.0000
     atom:   41    charge:    2.0869    magn:   -0.0000    constr:    0.0000
     atom:   42    charge:    3.1146    magn:    0.0000    constr:    0.0000
     atom:   43    charge:    2.0817    magn:   -0.0000    constr:    0.0000
     atom:   44    charge:    2.0857    magn:   -0.0000    constr:    0.0000
     atom:   45    charge:    2.0874    magn:   -0.0000    constr:    0.0000
     atom:   46    charge:    3.1241    magn:    0.0000    constr:    0.0000
     atom:   47    charge:    2.0842    magn:   -0.0000    constr:    0.0000
     atom:   48    charge:    2.0680    magn:   -0.0000    constr:    0.0000
     atom:   49    charge:    2.0449    magn:   -0.0000    constr:    0.0000

     total cpu time spent up to now is     2781.5 secs

     End of self-consistent calculation

 ------ SPIN UP ------------


          k = 0.0000 0.0000 0.0000 ( 34665 PWs)   bands (ev):

   -58.2572 -58.2222 -58.0912 -58.0521 -57.9292 -57.8810 -57.7091 -57.6737
   -57.6530 -57.6177 -57.5786 -57.5423 -57.3922 -57.2263 -56.7039 -56.6687
   -34.6925 -34.6616 -34.5394 -34.5110 -34.4751 -34.4579 -34.4000 -34.3637
   -34.3566 -34.3108 -34.3028 -34.2866 -34.2133 -34.2044 -34.1977 -34.1463
   -34.1457 -34.1103 -34.1022 -34.0892 -34.0656 -33.9945 -33.9044 -33.8872
   -33.8710 -33.8611 -33.8565 -33.8413 -33.8258 -33.8219 -33.8113 -33.8092
   -33.7762 -33.7668 -33.7539 -33.7365 -33.7088 -33.6961 -33.6315 -33.6052
   -33.4578 -33.3902 -33.1224 -33.0562 -33.0301 -32.9266 -32.8349 -32.7262
   -22.4091 -18.6029 -18.4153 -18.3067 -18.0868 -17.9420 -17.8943 -17.8233
   -17.6577 -17.6204 -17.5487 -17.5199 -17.5105 -17.4630 -17.4384 -17.4037
   -17.3703 -17.3017 -17.2633 -17.1654 -17.1304 -17.0120 -17.0111 -16.9748
   -16.8619 -16.7735 -16.7503 -16.7298 -16.5967 -16.5680 -15.8131 -15.2832
   -15.1980  -6.9304  -6.5117  -6.2439  -5.9757  -5.9325  -5.7923  -5.7288
    -5.4669  -5.4177  -5.3621  -5.0873  -5.0428  -4.9981  -4.9777  -4.8878
    -4.8618  -4.7928  -4.7244  -4.6630  -4.6572  -4.6388  -4.5831  -4.5731
    -4.5292  -4.5157  -4.4972  -4.4340  -4.3467  -4.2997  -4.2482  -4.1963
    -4.1698  -4.1064  -4.0946  -4.0657  -4.0195  -3.9639  -3.9601  -3.9394
    -3.8481  -3.6510  -3.5997  -3.5465  -3.4677  -3.4652  -3.4337  -3.2924
    -3.1980  -3.1838  -3.1671  -3.1481  -3.0040  -2.9753  -2.9398  -2.9263
    -2.8649  -2.8269  -2.7926  -2.7688  -2.7627  -2.6919  -2.6784  -2.6075
    -2.5380  -2.4867  -2.4030  -2.3397  -2.2196  -2.1477  -2.1402  -2.0735
    -2.0583  -1.9975  -1.9308  -1.9002  -1.8884  -1.8825  -1.8303  -1.7795
    -1.7622  -1.7194  -1.6724  -1.6396  -1.6154  -1.5631  -1.5265  -1.3755
    -1.2553  -1.2005  -1.1616  -1.1406  -1.0392  -0.7831  -0.6523  -0.6384
    -0.4272  -0.3010  -0.2871   1.0853   1.1115   1.2020   1.3907   1.4448
     1.4519   1.5337   1.6211   1.6628   1.7839   1.8741   1.8864   1.9442
     1.9602   1.9745   2.0056   2.0651   2.0924   2.1050   2.1517   2.1564
     2.2429   2.2542   2.3033   2.3136   2.5049   2.5084   2.5474   2.5560
     2.5623   2.6163   2.6267   2.6386   2.6712   2.7068   2.7618   2.8433
     2.8452   2.8767   2.9077   2.9715   3.0528   3.0536   3.1338   3.3867
     3.5242   3.5300   3.6239   3.6514   3.6735   3.7847   3.8319   4.0367
     4.0863   4.2152   4.4988   4.5133   4.6162   4.6568   4.7739   4.9182
     4.9355   5.0165   5.1364   5.1909   5.2024   5.2466   5.2671   5.2745
     5.3274   5.3848   5.4917   5.5480   5.5894   5.6411   5.6787   5.7821
     5.9004   5.9848   6.0296   6.3639   6.4104   6.4637   6.5605   6.7451
     7.1852   7.8069   7.9777   8.3156   8.5655   8.5934   8.8150   8.8596
     8.9289   9.1858   9.2322   9.3149   9.3479   9.5709   9.6707

          k = 0.0000 0.0280 0.0000 ( 34717 PWs)   bands (ev):

   -58.2549 -58.2246 -58.0888 -58.0545 -57.9275 -57.8827 -57.7067 -57.6760
   -57.6506 -57.6201 -57.5763 -57.5446 -57.3917 -57.2268 -56.7016 -56.6710
   -34.6672 -34.6343 -34.5374 -34.5128 -34.4518 -34.4501 -34.3933 -34.3702
   -34.3529 -34.3298 -34.3149 -34.2960 -34.2399 -34.1944 -34.1787 -34.1429
   -34.1209 -34.1122 -34.0971 -34.0919 -34.0747 -33.9875 -33.8985 -33.8849
   -33.8827 -33.8629 -33.8384 -33.8374 -33.8317 -33.8230 -33.8203 -33.8156
   -33.7828 -33.7722 -33.7716 -33.7388 -33.7343 -33.6958 -33.6300 -33.6053
   -33.4611 -33.4164 -33.0967 -33.0545 -33.0319 -32.9205 -32.8411 -32.7537
   -22.4033 -18.5442 -18.3603 -18.2657 -18.0342 -17.8945 -17.8856 -17.8259
   -17.6321 -17.6286 -17.5902 -17.5615 -17.5412 -17.4747 -17.4487 -17.3577
   -17.3492 -17.3008 -17.2721 -17.1961 -17.1894 -17.0346 -16.9942 -16.9451
   -16.8915 -16.7915 -16.7595 -16.7326 -16.6216 -16.6147 -15.8136 -15.2929
   -15.2212  -6.8940  -6.4949  -6.2240  -5.8879  -5.8487  -5.7178  -5.6528
    -5.4177  -5.3534  -5.3399  -5.0679  -5.0542  -4.9756  -4.9467  -4.8831
    -4.8400  -4.8052  -4.7227  -4.7173  -4.7007  -4.6588  -4.6436  -4.6141
    -4.5925  -4.5413  -4.5059  -4.4833  -4.4273  -4.3807  -4.2953  -4.2542
    -4.1993  -4.1831  -4.1568  -4.0609  -4.0138  -3.9348  -3.9084  -3.8164
    -3.7639  -3.6065  -3.5632  -3.5103  -3.4462  -3.3653  -3.3190  -3.1878
    -3.1836  -3.1106  -3.0856  -3.0624  -3.0229  -3.0014  -2.9869  -2.8963
    -2.8599  -2.8520  -2.8326  -2.8177  -2.7275  -2.6943  -2.6123  -2.5777
    -2.4954  -2.4433  -2.3857  -2.3723  -2.3291  -2.2476  -2.1526  -2.1166
    -2.1119  -2.0619  -2.0432  -2.0071  -1.9485  -1.8683  -1.8582  -1.8498
    -1.7849  -1.7607  -1.7496  -1.6665  -1.6210  -1.5827  -1.4901  -1.3946
    -1.3505  -1.3132  -1.2690  -1.1889  -1.0678  -0.8289  -0.6994  -0.6380
    -0.4129  -0.3473  -0.3209   1.1670   1.2176   1.2451   1.4230   1.4478
     1.5359   1.5607   1.6490   1.7020   1.7713   1.8398   1.8680   1.9043
     1.9425   1.9955   1.9982   2.0480   2.0718   2.1035   2.1224   2.1760
     2.2569   2.2953   2.3754   2.4210   2.4318   2.4699   2.5016   2.5289
     2.5562   2.5650   2.6290   2.6560   2.7308   2.7563   2.8025   2.8452
     2.8734   2.9764   2.9904   3.0279   3.0725   3.0915   3.1233   3.3334
     3.4401   3.5663   3.6098   3.6137   3.7117   3.7632   3.8263   3.9799
     4.1419   4.3095   4.4955   4.5574   4.6906   4.6965   4.7785   4.9245
     4.9539   5.0799   5.0971   5.1329   5.1875   5.2138   5.2345   5.2546
     5.3053   5.3915   5.4815   5.5173   5.5750   5.5941   5.6110   5.6791
     5.9467   6.0180   6.0545   6.1925   6.3932   6.4064   6.6265   6.6833
     7.3025   7.6098   7.9709   8.0877   8.2385   8.7019   8.7279   8.8390
     8.9434   9.0257   9.2971   9.3387   9.4466   9.4972   9.7542

          k = 0.0000 0.0560 0.0000 ( 34721 PWs)   bands (ev):

   -58.2485 -58.2310 -58.0827 -58.0607 -57.9236 -57.8867 -57.7003 -57.6825
   -57.6443 -57.6265 -57.5702 -57.5507 -57.3907 -57.2279 -56.6951 -56.6775
   -34.5974 -34.5606 -34.5321 -34.5178 -34.4347 -34.4027 -34.3876 -34.3851
   -34.3761 -34.3501 -34.3344 -34.3214 -34.2888 -34.1958 -34.1526 -34.1360
   -34.1281 -34.1047 -34.1018 -34.0510 -34.0072 -33.9679 -33.9117 -33.9090
   -33.8842 -33.8774 -33.8676 -33.8553 -33.8337 -33.8333 -33.8200 -33.8170
   -33.7997 -33.7847 -33.7735 -33.7654 -33.7361 -33.6951 -33.6287 -33.6047
   -33.4920 -33.4585 -33.0497 -33.0367 -33.0259 -32.9040 -32.8580 -32.8279
   -22.3915 -18.3843 -18.2182 -18.1507 -17.9318 -17.8891 -17.8395 -17.7690
   -17.7596 -17.7245 -17.6151 -17.5936 -17.5073 -17.4894 -17.4607 -17.4247
   -17.3061 -17.2798 -17.2760 -17.2248 -17.1919 -17.0988 -16.9792 -16.9723
   -16.8802 -16.8234 -16.7843 -16.7476 -16.7355 -16.6691 -15.8148 -15.3103
   -15.2714  -6.8192  -6.4557  -6.1948  -5.6449  -5.6165  -5.5278  -5.5019
    -5.4373  -5.1493  -5.1407  -5.0819  -5.0314  -4.9784  -4.9528  -4.9440
    -4.9363  -4.8935  -4.8643  -4.8267  -4.7781  -4.7720  -4.7680  -4.6730
    -4.6395  -4.6165  -4.5102  -4.4930  -4.4569  -4.4047  -4.3685  -4.3065
    -4.1662  -4.1561  -4.0751  -3.9904  -3.9514  -3.8611  -3.8302  -3.7460
    -3.6668  -3.6104  -3.4843  -3.4412  -3.4277  -3.3843  -3.3437  -3.2488
    -3.1854  -3.1038  -3.0758  -3.0491  -2.9380  -2.9001  -2.8833  -2.8598
    -2.7831  -2.7709  -2.7447  -2.7201  -2.7046  -2.6636  -2.6194  -2.5901
    -2.5009  -2.4927  -2.4763  -2.4136  -2.4029  -2.3532  -2.3079  -2.2027
    -2.1831  -2.1333  -2.1119  -2.0719  -2.0112  -1.9900  -1.9432  -1.9318
    -1.8773  -1.8253  -1.8088  -1.7124  -1.7093  -1.6464  -1.6113  -1.5470
    -1.4565  -1.3581  -1.3161  -1.2188  -1.1887  -1.1317  -0.8762  -0.4576
    -0.4087  -0.3712  -0.3699   1.3042   1.3333   1.4673   1.5052   1.5306
     1.5512   1.6406   1.6855   1.7375   1.7611   1.8045   1.8196   1.8395
     1.8994   1.9446   1.9508   2.0371   2.1314   2.1933   2.2218   2.2280
     2.2454   2.2739   2.3434   2.3719   2.3826   2.4125   2.4797   2.5119
     2.5726   2.6261   2.6519   2.6772   2.7695   2.7775   2.8697   2.9252
     2.9700   2.9914   3.0065   3.1592   3.1874   3.2169   3.2654   3.3033
     3.3188   3.4725   3.5699   3.5788   3.6214   3.8008   3.8146   3.8904
     4.2738   4.4172   4.5708   4.6099   4.7734   4.8216   4.8497   4.9066
     4.9193   4.9802   5.0212   5.1676   5.1721   5.1828   5.1933   5.2734
     5.2916   5.3216   5.3667   5.3990   5.4582   5.5812   5.6029   5.7150
     5.8792   6.0016   6.0147   6.2318   6.2604   6.4126   6.5645   6.8970
     6.9544   7.2917   7.6659   7.8130   8.3031   8.4032   8.5822   8.9655
     9.0262   9.1023   9.2993   9.3795   9.6939   9.7669   9.8240

          k = 0.0000-0.0840 0.0000 ( 34678 PWs)   bands (ev):

   -58.2398 -58.2397 -58.0776 -58.0658 -57.9213 -57.8890 -57.6918 -57.6910
   -57.6367 -57.6340 -57.5646 -57.5563 -57.3902 -57.2284 -56.6863 -56.6863
   -34.5250 -34.5249 -34.5008 -34.5008 -34.4851 -34.4175 -34.4112 -34.4112
   -34.3564 -34.3504 -34.3286 -34.3187 -34.2800 -34.2605 -34.1628 -34.1346
   -34.1311 -34.1068 -34.0103 -34.0096 -33.9551 -33.9528 -33.9402 -33.9393
   -33.9177 -33.9066 -33.8751 -33.8740 -33.8575 -33.8554 -33.8186 -33.8160
   -33.8051 -33.7982 -33.7631 -33.7554 -33.7005 -33.6975 -33.6334 -33.6028
   -33.5397 -33.4635 -33.0432 -33.0432 -32.9279 -32.9278 -32.8810 -32.8810
   -22.3857 -18.2208 -18.1158 -18.0558 -17.9759 -17.9540 -17.9067 -17.7522
   -17.7338 -17.6343 -17.6218 -17.6192 -17.5876 -17.5818 -17.3939 -17.3937
   -17.3849 -17.3811 -17.1900 -17.1859 -17.0852 -17.0794 -17.0727 -17.0444
   -16.8597 -16.8568 -16.7832 -16.7816 -16.7397 -16.7273 -15.8155 -15.3082
   -15.3082  -6.7818  -6.4311  -6.1861  -5.5623  -5.3207  -5.3098  -5.2872
    -5.2868  -5.2407  -5.2321  -5.1903  -5.1863  -5.0685  -4.9694  -4.9565
    -4.9473  -4.9209  -4.8899  -4.8812  -4.8598  -4.8489  -4.7748  -4.6592
    -4.6349  -4.5957  -4.5443  -4.4905  -4.4733  -4.4011  -4.3811  -4.2834
    -4.1256  -4.0918  -4.0884  -3.9215  -3.9196  -3.8577  -3.7766  -3.6319
    -3.5773  -3.5584  -3.4369  -3.4124  -3.3975  -3.3087  -3.3002  -3.2674
    -3.2384  -3.1890  -3.1664  -3.1447  -3.0900  -3.0665  -3.0115  -2.9698
    -2.8969  -2.8039  -2.7345  -2.6939  -2.6215  -2.5488  -2.5315  -2.4527
    -2.4155  -2.3936  -2.3705  -2.3665  -2.3332  -2.3035  -2.2952  -2.2715
    -2.2613  -2.2180  -2.1349  -2.0699  -2.0691  -2.0020  -1.9986  -1.9926
    -1.9838  -1.9134  -1.8528  -1.7921  -1.6955  -1.6526  -1.6457  -1.5984
    -1.5499  -1.5318  -1.4583  -1.2163  -1.1947  -1.0577  -1.0534  -0.4079
    -0.4076  -0.3642  -0.3638   1.4242   1.4483   1.4671   1.5103   1.5587
     1.6416   1.6631   1.6633   1.7405   1.7496   1.7899   1.7900   1.8311
     1.9085   1.9812   1.9865   2.0375   2.0593   2.1494   2.1568   2.2003
     2.2816   2.2894   2.3566   2.3749   2.4239   2.4474   2.4583   2.5084
     2.5562   2.5863   2.6415   2.7765   2.8177   2.8695   2.8744   2.8769
     2.8928   3.0220   3.1161   3.1907   3.2145   3.2596   3.3066   3.3493
     3.3556   3.4928   3.5030   3.5645   3.5651   3.6254   3.8707   3.8968
     4.3566   4.4002   4.6254   4.6752   4.7753   4.8187   4.8797   4.9076
     4.9518   4.9519   5.0367   5.0650   5.0783   5.1804   5.2150   5.2671
     5.2676   5.2967   5.3862   5.4542   5.4794   5.4940   5.5958   5.6101
     5.9017   6.0023   6.0616   6.0987   6.4619   6.5153   6.5157   6.6695
     6.9750   7.0554   7.4850   7.5911   8.1800   8.2929   8.9416   9.0483
     9.2298   9.3160   9.4792   9.5500   9.5505   9.7331   9.7708

          k = 0.0253 0.0000 0.0000 ( 34707 PWs)   bands (ev):

   -58.2572 -58.2222 -58.0912 -58.0521 -57.9292 -57.8810 -57.7091 -57.6737
   -57.6530 -57.6177 -57.5786 -57.5423 -57.3922 -57.2263 -56.7039 -56.6687
   -34.6928 -34.6622 -34.5394 -34.5110 -34.4752 -34.4572 -34.3987 -34.3638
   -34.3564 -34.3109 -34.3028 -34.2868 -34.2134 -34.2059 -34.1977 -34.1466
   -34.1439 -34.1230 -34.1055 -34.0713 -34.0657 -33.9880 -33.9042 -33.8874
   -33.8707 -33.8611 -33.8563 -33.8452 -33.8297 -33.8230 -33.8112 -33.8092
   -33.7762 -33.7667 -33.7541 -33.7365 -33.7089 -33.6970 -33.6316 -33.6053
   -33.4578 -33.3903 -33.1223 -33.0572 -33.0296 -32.9266 -32.8349 -32.7263
   -22.4064 -18.5747 -18.3772 -18.2853 -18.0480 -17.9451 -17.8940 -17.8356
   -17.6984 -17.6771 -17.5757 -17.5476 -17.5102 -17.4675 -17.4641 -17.3997
   -17.3573 -17.3476 -17.2496 -17.1557 -17.0547 -17.0477 -17.0128 -16.9452
   -16.9052 -16.7625 -16.7497 -16.7314 -16.5955 -16.5680 -15.8049 -15.2820
   -15.1978  -6.8556  -6.4906  -6.2807  -5.9232  -5.8228  -5.6822  -5.6322
    -5.4554  -5.4117  -5.3055  -5.2238  -5.0705  -5.0396  -4.9963  -4.9639
    -4.8861  -4.8071  -4.7569  -4.6534  -4.6315  -4.6042  -4.5640  -4.5095
    -4.4999  -4.4687  -4.4140  -4.3928  -4.3068  -4.2912  -4.2745  -4.1754
    -4.1529  -4.1275  -4.0932  -4.0758  -4.0075  -3.9165  -3.9110  -3.8389
    -3.7306  -3.6512  -3.6310  -3.6081  -3.5278  -3.4527  -3.4285  -3.3889
    -3.2758  -3.2112  -3.1473  -3.1292  -3.0951  -3.0599  -2.9603  -2.9237
    -2.9204  -2.8334  -2.8146  -2.7644  -2.7458  -2.7303  -2.6498  -2.6335
    -2.5574  -2.4688  -2.3579  -2.2728  -2.2440  -2.1979  -2.1778  -2.1220
    -2.1010  -2.0517  -1.9965  -1.9385  -1.9326  -1.8885  -1.8802  -1.8052
    -1.7541  -1.7309  -1.7033  -1.6591  -1.5950  -1.5926  -1.4817  -1.4199
    -1.3960  -1.3073  -1.2241  -1.1184  -1.0550  -0.7777  -0.7170  -0.6294
    -0.4412  -0.3433  -0.3427   1.0991   1.1672   1.3053   1.4439   1.4565
     1.5272   1.5586   1.6767   1.7549   1.7928   1.8174   1.8575   1.9041
     1.9237   1.9699   1.9849   2.0210   2.0681   2.0787   2.1107   2.1721
     2.1996   2.2630   2.2952   2.3428   2.5168   2.5583   2.5637   2.5703
     2.6114   2.6171   2.6348   2.7152   2.7294   2.7843   2.8293   2.8612
     2.8928   2.9344   2.9796   3.0140   3.0366   3.0700   3.1593   3.3314
     3.4402   3.5595   3.6179   3.6193   3.7490   3.7523   3.8173   3.9872
     4.1743   4.2401   4.2931   4.3738   4.5089   4.5239   4.5620   4.7338
     5.0673   5.0922   5.1569   5.2530   5.2656   5.2808   5.3112   5.4026
     5.4820   5.5503   5.5790   5.5896   5.6284   5.6647   5.7118   5.8924
     5.9340   6.0250   6.0445   6.3594   6.3689   6.4677   6.6157   6.7450
     7.2477   7.7818   7.8382   8.0541   8.1169   8.3660   8.4187   8.9074
     8.9311   9.0844   9.1852   9.2935   9.5208   9.7795  10.0306

          k = 0.0253 0.0280 0.0000 ( 34687 PWs)   bands (ev):

   -58.2548 -58.2246 -58.0888 -58.0545 -57.9275 -57.8827 -57.7067 -57.6760
   -57.6507 -57.6201 -57.5763 -57.5446 -57.3917 -57.2268 -56.7016 -56.6710
   -34.6675 -34.6349 -34.5375 -34.5128 -34.4511 -34.4502 -34.3922 -34.3701
   -34.3527 -34.3298 -34.3149 -34.2959 -34.2399 -34.1944 -34.1802 -34.1409
   -34.1212 -34.1152 -34.1076 -34.0919 -34.0595 -33.9812 -33.8982 -33.8852
   -33.8809 -33.8628 -33.8416 -33.8405 -33.8316 -33.8257 -33.8208 -33.8156
   -33.7829 -33.7722 -33.7717 -33.7387 -33.7342 -33.6965 -33.6301 -33.6054
   -33.4611 -33.4164 -33.0966 -33.0554 -33.0314 -32.9206 -32.8411 -32.7537
   -22.4007 -18.5175 -18.3236 -18.2431 -17.9967 -17.8981 -17.8857 -17.8338
   -17.6825 -17.6523 -17.6362 -17.5810 -17.5329 -17.4755 -17.4338 -17.3896
   -17.3646 -17.3260 -17.2686 -17.2028 -17.1003 -17.0769 -16.9901 -16.9456
   -16.9123 -16.7812 -16.7600 -16.7324 -16.6218 -16.6136 -15.8057 -15.2919
   -15.2212  -6.8237  -6.4711  -6.2479  -5.8402  -5.7382  -5.6075  -5.5540
    -5.3629  -5.3360  -5.3339  -5.1688  -5.0775  -5.0018  -4.9671  -4.9121
    -4.8311  -4.7890  -4.7608  -4.7120  -4.6879  -4.6538  -4.6377  -4.5842
    -4.5444  -4.5340  -4.4628  -4.4154  -4.4016  -4.3742  -4.2937  -4.2382
    -4.1912  -4.1288  -4.1203  -4.0926  -3.9587  -3.9274  -3.8571  -3.8048
    -3.7443  -3.6394  -3.5634  -3.5325  -3.4882  -3.4126  -3.3336  -3.2376
    -3.2192  -3.1654  -3.1219  -3.0728  -3.0309  -3.0148  -3.0101  -2.9455
    -2.9212  -2.8672  -2.8303  -2.7828  -2.7512  -2.7227  -2.6481  -2.5718
    -2.5280  -2.4455  -2.4372  -2.3707  -2.3195  -2.2572  -2.1945  -2.1683
    -2.1587  -2.1253  -2.0835  -2.0297  -1.9705  -1.9471  -1.9248  -1.8594
    -1.8491  -1.7398  -1.7049  -1.6724  -1.6464  -1.5853  -1.4655  -1.4447
    -1.3595  -1.3319  -1.3166  -1.2458  -1.0655  -0.8418  -0.7457  -0.6322
    -0.4096  -0.3708  -0.3607   1.1601   1.2873   1.3294   1.4578   1.4851
     1.5333   1.6881   1.6964   1.7728   1.8010   1.8196   1.8597   1.8875
     1.9113   1.9504   1.9750   2.0119   2.0645   2.1056   2.1420   2.1642
     2.1908   2.2917   2.3938   2.4365   2.4512   2.4554   2.5133   2.5499
     2.5659   2.6384   2.6657   2.7387   2.7989   2.8085   2.8480   2.8874
     2.8994   2.9689   3.0008   3.0731   3.0993   3.1069   3.1705   3.2853
     3.3885   3.5516   3.6116   3.6211   3.7304   3.7477   3.8183   3.9372
     4.2090   4.2934   4.3580   4.4329   4.5148   4.5664   4.5871   4.7673
     4.9719   5.0951   5.1366   5.1924   5.2378   5.2578   5.3267   5.3353
     5.4764   5.5139   5.5401   5.5507   5.6061   5.6112   5.6598   5.8726
     5.9596   6.0377   6.1055   6.2020   6.3857   6.3984   6.6389   6.7221
     7.3605   7.6410   7.8756   7.9818   8.1866   8.2398   8.3709   8.5649
     8.9154   9.0431   9.2222   9.3364   9.4085   9.7818   9.8171

          k = 0.0253 0.0560 0.0000 ( 34699 PWs)   bands (ev):

   -58.2485 -58.2310 -58.0827 -58.0607 -57.9236 -57.8867 -57.7002 -57.6825
   -57.6443 -57.6265 -57.5702 -57.5507 -57.3907 -57.2279 -56.6952 -56.6775
   -34.5977 -34.5611 -34.5321 -34.5179 -34.4342 -34.4028 -34.3874 -34.3851
[...]
    -4.7306  -4.7148  -4.7110  -4.6638  -4.6540  -4.5860  -4.5856  -4.5835
    -4.5436  -4.5251  -4.4985  -4.4797  -4.4484  -4.4391  -4.4277  -4.3491
    -4.2639  -4.1876  -4.0680  -4.0526  -4.0389  -3.9808  -3.9553  -3.9431
    -3.9032  -3.9024  -3.6796  -3.6640  -3.5957  -3.5266  -3.4301  -3.4186
    -3.3746  -3.3450  -3.3080  -3.2222  -3.1858  -3.1188  -3.0979  -3.0683
    -3.0364  -2.9656  -2.9511  -2.9334  -2.9296  -2.9121  -2.8729  -2.8379
    -2.8020  -2.7025  -2.6986  -2.6010  -2.5930  -2.5762  -2.5006  -2.4762
    -2.3937  -2.3070  -2.2167  -2.1191  -2.0758  -1.9108  -1.8972  -1.8172
    -1.7615  -1.7495  -1.7439  -1.6822  -1.6155  -1.5824  -1.5653  -1.5017
    -1.4928  -1.3641  -1.1804  -1.1769  -1.1710  -1.1280  -0.9914  -0.4817
    -0.4816  -0.3396  -0.3392   1.5057   1.5400   1.5656   1.6001   1.6071
     1.6439   1.6467   1.7263   1.8476   1.8746   1.9303   1.9435   1.9976
     2.0125   2.0501   2.0695   2.1171   2.1251   2.1313   2.2177   2.2766
     2.3746   2.3840   2.4061   2.4432   2.4463   2.6076   2.6332   2.7009
     2.7045   2.8069   2.8104   2.8549   2.8647   2.9091   2.9233   2.9419
     2.9451   3.0568   3.0807   3.1822   3.2475   3.3336   3.3985   3.3987
     3.3995   3.5178   3.5287   3.5507   3.5509   3.7013   3.8415   3.8697
     4.0768   4.1642   4.2303   4.2304   4.2812   4.3202   4.3366   4.3400
     4.6606   4.6758   4.7889   4.8223   5.1979   5.2200   5.3590   5.3618
     5.4601   5.5904   5.7404   5.7424   5.7691   5.7860   6.0158   6.0785
     6.1158   6.1159   6.2894   6.2901   6.3905   6.3923   6.7683   7.2596
     7.4997   7.5690   7.6910   7.7230   7.8811   7.9012   7.9939   8.0859
     8.4226   8.4480   8.5694   8.6956   9.1790   9.2164   9.3252

          k =-0.0253 0.0280 0.0000 ( 34687 PWs)   bands (ev):

   -58.2549 -58.2247 -58.0888 -58.0545 -57.9275 -57.8827 -57.7067 -57.6760
   -57.6507 -57.6201 -57.5762 -57.5446 -57.3917 -57.2268 -56.7018 -56.6712
   -34.6675 -34.6349 -34.5376 -34.5129 -34.4512 -34.4502 -34.3921 -34.3702
   -34.3526 -34.3299 -34.3148 -34.2959 -34.2399 -34.1944 -34.1802 -34.1409
   -34.1212 -34.1151 -34.1075 -34.0918 -34.0595 -33.9812 -33.8982 -33.8852
   -33.8809 -33.8629 -33.8416 -33.8405 -33.8315 -33.8257 -33.8208 -33.8156
   -33.7828 -33.7722 -33.7716 -33.7387 -33.7342 -33.6965 -33.6300 -33.6053
   -33.4611 -33.4164 -33.0967 -33.0556 -33.0316 -32.9207 -32.8413 -32.7539
   -22.4007 -18.5175 -18.3236 -18.2432 -17.9967 -17.8987 -17.8852 -17.8337
   -17.6825 -17.6524 -17.6367 -17.5809 -17.5329 -17.4756 -17.4342 -17.3895
   -17.3646 -17.3258 -17.2685 -17.2022 -17.1003 -17.0771 -16.9902 -16.9456
   -16.9123 -16.7812 -16.7600 -16.7324 -16.6217 -16.6138 -15.8057 -15.2916
   -15.2208  -6.8238  -6.4712  -6.2492  -5.8399  -5.7382  -5.6075  -5.5540
    -5.3616  -5.3362  -5.3322  -5.1684  -5.0769  -4.9996  -4.9665  -4.9121
    -4.8311  -4.7872  -4.7624  -4.7155  -4.6890  -4.6538  -4.6408  -4.5850
    -4.5452  -4.5340  -4.4617  -4.4154  -4.4021  -4.3754  -4.2938  -4.2374
    -4.1914  -4.1283  -4.1203  -4.0890  -3.9609  -3.9259  -3.8593  -3.8045
    -3.7441  -3.6394  -3.5631  -3.5333  -3.4872  -3.4147  -3.3324  -3.2370
    -3.2195  -3.1643  -3.1228  -3.0718  -3.0302  -3.0141  -3.0061  -2.9456
    -2.9190  -2.8669  -2.8322  -2.7813  -2.7534  -2.7219  -2.6476  -2.5736
    -2.5300  -2.4477  -2.4373  -2.3704  -2.3222  -2.2576  -2.1963  -2.1693
    -2.1581  -2.1244  -2.0843  -2.0297  -1.9684  -1.9437  -1.9248  -1.8605
    -1.8449  -1.7446  -1.7032  -1.6723  -1.6490  -1.5868  -1.4674  -1.4436
    -1.3575  -1.3313  -1.3172  -1.2433  -1.0658  -0.8418  -0.7456  -0.6320
    -0.4094  -0.3705  -0.3603   1.1600   1.2872   1.3289   1.4576   1.4851
     1.5331   1.6888   1.7001   1.7743   1.7952   1.8158   1.8606   1.8886
     1.9161   1.9499   1.9749   2.0121   2.0621   2.1077   2.1407   2.1626
     2.1922   2.2949   2.3940   2.4359   2.4478   2.4570   2.5131   2.5493
     2.5646   2.6376   2.6672   2.7354   2.7995   2.8093   2.8490   2.8876
     2.9004   2.9700   3.0007   3.0715   3.0989   3.1067   3.1708   3.2850
     3.3883   3.5524   3.6108   3.6211   3.7323   3.7476   3.8173   3.9370
     4.2095   4.2935   4.3551   4.4360   4.5142   4.5653   4.5874   4.7666
     4.9746   5.0844   5.1436   5.1924   5.2384   5.2539   5.3269   5.3374
     5.4772   5.5174   5.5358   5.5527   5.6066   5.6114   5.6599   5.8726
     5.9590   6.0387   6.1052   6.2023   6.3858   6.3983   6.6388   6.7223
     7.3606   7.6410   7.8756   7.9821   8.1867   8.2398   8.3712   8.5647
     8.9154   9.0432   9.2222   9.3368   9.4084   9.7822   9.8169

          k =-0.0253 0.0560 0.0000 ( 34699 PWs)   bands (ev):

   -58.2486 -58.2311 -58.0827 -58.0606 -57.9236 -57.8866 -57.7002 -57.6825
   -57.6443 -57.6265 -57.5702 -57.5507 -57.3906 -57.2279 -56.6953 -56.6777
   -34.5977 -34.5611 -34.5322 -34.5180 -34.4343 -34.4029 -34.3875 -34.3851
   -34.3752 -34.3500 -34.3343 -34.3211 -34.2887 -34.1957 -34.1527 -34.1348
   -34.1283 -34.1066 -34.1040 -34.0514 -34.0024 -33.9629 -33.9126 -33.9051
   -33.8837 -33.8778 -33.8676 -33.8555 -33.8358 -33.8334 -33.8238 -33.8189
   -33.7998 -33.7854 -33.7735 -33.7653 -33.7361 -33.6955 -33.6287 -33.6048
   -33.4919 -33.4585 -33.0505 -33.0366 -33.0260 -32.9042 -32.8583 -32.8281
   -22.3892 -18.3613 -18.1874 -18.1226 -17.9346 -17.8594 -17.8355 -17.7757
   -17.7579 -17.7262 -17.6408 -17.6054 -17.5594 -17.4668 -17.4420 -17.4326
   -17.3375 -17.3289 -17.2648 -17.2155 -17.1736 -17.1352 -17.0170 -16.9711
   -16.8638 -16.8178 -16.7838 -16.7473 -16.7355 -16.6684 -15.8075 -15.3093
   -15.2712  -6.7617  -6.4253  -6.1976  -5.6127  -5.5043  -5.4313  -5.3964
    -5.3404  -5.1463  -5.1386  -5.0926  -5.0379  -4.9860  -4.9574  -4.9283
    -4.8918  -4.8484  -4.8319  -4.7823  -4.7761  -4.7274  -4.7112  -4.6473
    -4.6391  -4.5986  -4.5132  -4.5003  -4.4520  -4.3851  -4.3722  -4.3049
    -4.1925  -4.1710  -4.0567  -4.0212  -3.9157  -3.8845  -3.8458  -3.7660
    -3.6799  -3.6249  -3.5450  -3.4649  -3.4207  -3.4037  -3.3520  -3.2551
    -3.2134  -3.1448  -3.1016  -3.0706  -2.9972  -2.9836  -2.9247  -2.9150
    -2.8985  -2.8618  -2.7908  -2.7307  -2.7127  -2.7050  -2.6629  -2.6107
    -2.5439  -2.5231  -2.4841  -2.4611  -2.3982  -2.3857  -2.3051  -2.2789
    -2.2198  -2.2016  -2.1719  -2.1285  -2.0427  -2.0099  -1.9675  -1.9322
    -1.8706  -1.8237  -1.7879  -1.7012  -1.6872  -1.6225  -1.6011  -1.5343
    -1.4222  -1.3764  -1.3203  -1.2399  -1.2012  -1.0970  -0.8730  -0.4567
    -0.4213  -0.3934  -0.3666   1.3002   1.3858   1.4905   1.5258   1.5728
     1.6182   1.6617   1.7187   1.7401   1.8107   1.8270   1.8590   1.9016
     1.9517   1.9620   1.9786   2.0770   2.1074   2.1557   2.2061   2.2205
     2.2446   2.2585   2.3449   2.3614   2.3894   2.4370   2.4622   2.5147
     2.6430   2.6610   2.7111   2.7575   2.7844   2.8173   2.8717   2.9163
     2.9599   3.0123   3.0302   3.1577   3.1930   3.2188   3.2856   3.3112
     3.3322   3.4378   3.5542   3.5852   3.6501   3.7843   3.8129   3.8823
     4.3120   4.3762   4.4381   4.5786   4.5995   4.6449   4.6833   4.7749
     4.8211   4.9213   5.0033   5.0927   5.1598   5.2453   5.2658   5.3042
     5.3524   5.4386   5.4786   5.4985   5.5730   5.6220   5.7472   5.8279
     5.9182   6.0322   6.0454   6.2437   6.2762   6.4512   6.5753   6.9180
     7.0200   7.3603   7.7198   7.8935   8.2221   8.3668   8.4257   8.5975
     8.7338   8.9157   9.0483   9.3738   9.5229   9.5835   9.7557

          k =-0.0506 0.0280 0.0000 ( 34685 PWs)   bands (ev):

   -58.2549 -58.2247 -58.0888 -58.0545 -57.9275 -57.8827 -57.7066 -57.6760
   -57.6507 -57.6201 -57.5763 -57.5446 -57.3917 -57.2268 -56.7018 -56.6712
   -34.6682 -34.6362 -34.5375 -34.5129 -34.4504 -34.4498 -34.3898 -34.3702
   -34.3521 -34.3299 -34.3148 -34.2959 -34.2400 -34.1943 -34.1834 -34.1410
   -34.1223 -34.1218 -34.1101 -34.0918 -34.0425 -33.9665 -33.8976 -33.8858
   -33.8776 -33.8629 -33.8527 -33.8480 -33.8312 -33.8290 -33.8202 -33.8156
   -33.7831 -33.7722 -33.7718 -33.7387 -33.7340 -33.6980 -33.6301 -33.6054
   -33.4611 -33.4164 -33.0966 -33.0574 -33.0307 -32.9207 -32.8413 -32.7539
   -22.3955 -18.4579 -18.2386 -18.1889 -17.9386 -17.8957 -17.8709 -17.8433
   -17.7688 -17.7114 -17.6680 -17.6254 -17.5386 -17.4988 -17.4780 -17.4461
   -17.4097 -17.3001 -17.2861 -17.1672 -17.1280 -17.0284 -17.0091 -16.9775
   -16.8867 -16.7702 -16.7612 -16.7315 -16.6221 -16.6121 -15.7899 -15.2896
   -15.2209  -6.6950  -6.3887  -6.2950  -5.8106  -5.4496  -5.4096  -5.3417
    -5.2900  -5.2700  -5.2312  -5.2004  -5.1268  -5.0739  -5.0054  -4.9499
    -4.9051  -4.7720  -4.7230  -4.6719  -4.6262  -4.5987  -4.5780  -4.5636
    -4.5447  -4.4961  -4.4385  -4.3932  -4.3507  -4.3203  -4.2733  -4.2577
    -4.1874  -4.1687  -4.0412  -3.9917  -3.9257  -3.8573  -3.8338  -3.7929
    -3.7426  -3.6835  -3.5852  -3.5533  -3.5053  -3.4547  -3.3756  -3.3214
    -3.3105  -3.2548  -3.2319  -3.1629  -3.0993  -3.0858  -3.0378  -2.9878
    -2.9604  -2.9276  -2.9042  -2.8565  -2.8141  -2.7749  -2.6839  -2.6129
    -2.5666  -2.5439  -2.4931  -2.4363  -2.3955  -2.3659  -2.3230  -2.2931
    -2.2039  -2.1538  -2.1038  -2.0768  -2.0545  -1.9984  -1.9682  -1.9062
    -1.8404  -1.8142  -1.7157  -1.6837  -1.6391  -1.5473  -1.4726  -1.4382
    -1.3838  -1.3300  -1.2792  -1.2493  -1.0775  -0.8843  -0.8355  -0.6192
    -0.4400  -0.4095  -0.3960   1.1441   1.3467   1.4007   1.4998   1.5073
     1.5396   1.6011   1.6607   1.7438   1.7720   1.8260   1.9053   1.9348
     1.9702   1.9963   2.0211   2.0388   2.0715   2.1285   2.1823   2.2222
     2.2995   2.3442   2.3875   2.4680   2.4776   2.5387   2.5519   2.5753
     2.6143   2.6789   2.7324   2.7766   2.8207   2.8756   2.9013   2.9284
     2.9745   3.0568   3.0721   3.1078   3.1149   3.1749   3.2532   3.2801
     3.3274   3.4618   3.6089   3.6678   3.7247   3.7542   3.8204   3.8661
     4.0241   4.1139   4.2037   4.2284   4.3961   4.4639   4.5687   4.8143
     4.9147   5.0213   5.0551   5.1985   5.2569   5.2702   5.3021   5.4471
     5.4909   5.5447   5.5772   5.6844   5.8583   5.8943   5.9392   5.9807
     6.0828   6.1204   6.2613   6.2733   6.4082   6.4476   6.6109   6.8825
     7.1605   7.3392   7.6806   7.7033   7.7573   8.3156   8.4029   8.5705
     8.6577   9.0930   9.1766   9.4102   9.5134   9.6281   9.7615

          k =-0.0506 0.0560 0.0000 ( 34596 PWs)   bands (ev):

   -58.2486 -58.2311 -58.0827 -58.0606 -57.9235 -57.8866 -57.7002 -57.6825
   -57.6444 -57.6265 -57.5702 -57.5507 -57.3906 -57.2279 -56.6953 -56.6777
   -34.5983 -34.5621 -34.5322 -34.5179 -34.4331 -34.4031 -34.3871 -34.3853
   -34.3737 -34.3498 -34.3341 -34.3207 -34.2885 -34.1956 -34.1527 -34.1337
   -34.1285 -34.1099 -34.1071 -34.0522 -33.9937 -33.9504 -33.9161 -33.8969
   -33.8825 -33.8790 -33.8675 -33.8554 -33.8400 -33.8334 -33.8325 -33.8227
   -33.8000 -33.7868 -33.7734 -33.7653 -33.7361 -33.6964 -33.6288 -33.6051
   -33.4917 -33.4584 -33.0516 -33.0362 -33.0258 -32.9042 -32.8582 -32.8280
   -22.3844 -18.3102 -18.1184 -18.0512 -17.9391 -17.8289 -17.8173 -17.7801
   -17.7438 -17.7299 -17.6934 -17.6180 -17.6055 -17.5032 -17.4472 -17.4197
   -17.4180 -17.3578 -17.2646 -17.2362 -17.1782 -17.1448 -17.1033 -16.9558
   -16.8414 -16.8116 -16.7827 -16.7465 -16.7354 -16.6674 -15.7930 -15.3081
   -15.2716  -6.6617  -6.3244  -6.1995  -5.5938  -5.2526  -5.2176  -5.1854
    -5.1352  -5.1070  -5.0875  -5.0500  -5.0301  -4.9644  -4.8989  -4.8715
    -4.8640  -4.7876  -4.7681  -4.7144  -4.7070  -4.6703  -4.6514  -4.6231
    -4.5987  -4.5890  -4.5314  -4.4812  -4.4638  -4.4110  -4.3412  -4.2705
    -4.2171  -4.1868  -4.0993  -4.0112  -3.9524  -3.9146  -3.8470  -3.8155
    -3.6756  -3.6215  -3.5635  -3.5065  -3.4869  -3.4481  -3.3839  -3.3567
    -3.2980  -3.2629  -3.2305  -3.1901  -3.1157  -3.0905  -3.0500  -3.0023
    -2.9450  -2.9203  -2.8989  -2.8659  -2.8430  -2.7857  -2.7486  -2.7375
    -2.6965  -2.6787  -2.5768  -2.5359  -2.5179  -2.4743  -2.4425  -2.3800
    -2.3162  -2.2552  -2.1837  -2.1219  -2.0442  -1.9952  -1.9619  -1.9016
    -1.8778  -1.8244  -1.7544  -1.6667  -1.6281  -1.5626  -1.5312  -1.4725
    -1.3778  -1.3517  -1.2886  -1.2374  -1.2238  -1.0570  -0.9114  -0.4713
    -0.4353  -0.4188  -0.3611   1.3020   1.4339   1.5191   1.5223   1.6309
     1.6556   1.6942   1.7042   1.7576   1.8304   1.8506   1.9415   1.9797
     2.0004   2.0276   2.0414   2.0720   2.1398   2.1611   2.2119   2.2445
     2.2631   2.3468   2.4089   2.4367   2.4446   2.4792   2.5448   2.5651
     2.6993   2.7240   2.7717   2.7820   2.8477   2.8615   2.8932   2.9278
     2.9927   3.0575   3.0738   3.1766   3.2026   3.2607   3.3157   3.3509
     3.3649   3.3765   3.5517   3.5968   3.6863   3.7310   3.8282   3.8485
     4.0972   4.2415   4.2536   4.3057   4.4541   4.4799   4.5731   4.6797
     4.7141   4.7716   4.8753   5.0102   5.1484   5.2203   5.2795   5.3563
     5.4837   5.5277   5.6316   5.7595   5.7876   5.7958   5.8483   5.9940
     6.0735   6.0952   6.1711   6.2690   6.3433   6.4327   6.7606   6.9559
     7.1741   7.4499   7.6192   7.7304   8.0427   8.1040   8.1883   8.5325
     8.7099   8.7908   8.9083   9.0762   9.0917   9.4021   9.4764

     the Fermi energy is     0.4340 ev

!    total energy              =   -3004.17580035 Ry
     Harris-Foulkes estimate   =   -3004.17579664 Ry
     estimated scf accuracy    <       0.00000017 Ry

     The total energy is the sum of the following terms:

     one-electron contribution =  -42058.84000239 Ry
     hartree contribution      =   21091.79899832 Ry
     xc contribution           =    -546.23717365 Ry
     ewald contribution        =   18509.10261535 Ry
     smearing contrib. (-TS)   =      -0.00023798 Ry

     total magnetization       =     0.00 Bohr mag/cell
     absolute magnetization    =     0.00 Bohr mag/cell

     convergence has been achieved in  11 iterations

     Forces acting on atoms (Ry/au):


     negative rho (up, down):  1.430E-02 1.430E-02
     atom    1 type  1   force =    -0.00013458    0.00030068   -0.13695012
     atom    2 type  2   force =     0.00010187   -0.00008253    0.07534322
     atom    3 type  1   force =     0.00074640    0.00083941   -0.05919702
     atom    4 type  2   force =     0.00464102   -0.00033705    0.00933548
     atom    5 type  1   force =     0.00007067    0.00015205    0.00019899
     atom    6 type  2   force =    -0.00001746    0.00043639   -0.00189531
     atom    7 type  1   force =    -0.00069505   -0.00048489   -0.00028687
     atom    8 type  2   force =    -0.00071373   -0.00014714    0.00019611
     atom    9 type  1   force =    -0.00003283    0.00038829   -0.13696304
     atom   10 type  2   force =     0.00015712   -0.00025275    0.07536157
     atom   11 type  1   force =     0.00076184   -0.00086229   -0.05939735
     atom   12 type  2   force =     0.00429233   -0.00009185    0.00813021
     atom   13 type  1   force =    -0.00058576   -0.00060383    0.00023608
     atom   14 type  2   force =    -0.00013844   -0.00022624   -0.00037823
     atom   15 type  1   force =    -0.00140505    0.00107939   -0.00080648
     atom   16 type  2   force =    -0.00545491    0.00066278   -0.00368579
     atom   17 type  2   force =     0.00025790   -0.00009188    0.08098508
     atom   18 type  1   force =    -0.00017032    0.00034481    0.11718419
     atom   19 type  2   force =     0.00029123    0.00016655   -0.06545577
     atom   20 type  2   force =    -0.06317228   -0.00000789   -0.03167767
     atom   21 type  2   force =     0.06296866    0.00014757   -0.03162433
     atom   22 type  1   force =    -0.00064235    0.00001256    0.05923833
     atom   23 type  2   force =    -0.00012335    0.00026246   -0.00027932
     atom   24 type  2   force =     0.00059445   -0.00015743   -0.02269677
     atom   25 type  2   force =    -0.00449126   -0.00032116    0.00821690
     atom   26 type  1   force =     0.00003403    0.00046907    0.00005145
     atom   27 type  2   force =    -0.00025786    0.00011921   -0.00044610
     atom   28 type  2   force =    -0.00131496   -0.00006055   -0.00023311
     atom   29 type  2   force =     0.00027683   -0.00019290   -0.00008277
     atom   30 type  1   force =     0.00018923    0.00066999    0.00135022
     atom   31 type  2   force =    -0.00032833   -0.00019787   -0.00005554
     atom   32 type  2   force =     0.00018250   -0.00020755    0.00000443
     atom   33 type  2   force =     0.00019126    0.00007555    0.08095021
     atom   34 type  1   force =    -0.00022035    0.00026274    0.11710449
     atom   35 type  2   force =     0.00030459    0.00017889   -0.06548264
     atom   36 type  2   force =    -0.06310511    0.00013314   -0.03188370
     atom   37 type  2   force =     0.06315047    0.00019327   -0.03158237
     atom   38 type  1   force =    -0.00048874   -0.00021747    0.05893460
     atom   39 type  2   force =     0.00011307   -0.00049595   -0.00075443
     atom   40 type  2   force =     0.00038654   -0.00221073   -0.02227187
     atom   41 type  2   force =    -0.00418687   -0.00025238    0.00758585
     atom   42 type  1   force =    -0.00025951   -0.00046201    0.00000413
     atom   43 type  2   force =    -0.00032250   -0.00004058   -0.00022736
     atom   44 type  2   force =     0.00023352    0.00019505   -0.00001740
     atom   45 type  2   force =    -0.00014876   -0.00010812   -0.00024112
     atom   46 type  1   force =     0.00004697    0.00025646    0.00078763
     atom   47 type  2   force =    -0.00043229    0.00029866   -0.00023857
     atom   48 type  2   force =    -0.00411968    0.00089550    0.00968291
     atom   49 type  2   force =     0.01296983   -0.00042742   -0.00607104

     Total force =     0.365669     Total SCF correction =     0.001205
 !ASE

     Writing output data file calc.save
 
     init_run     :     55.10s CPU     68.82s WALL (       1 calls)
     electrons    :   2210.41s CPU   2712.66s WALL (       1 calls)
     forces       :     39.86s CPU     41.66s WALL (       1 calls)

     Called by init_run:
     wfcinit      :     47.93s CPU     60.96s WALL (       1 calls)
     potinit      :      1.35s CPU      1.67s WALL (       1 calls)

     Called by electrons:
     c_bands      :   1901.53s CPU   2320.98s WALL (      11 calls)
     sum_band     :    260.36s CPU    335.78s WALL (      11 calls)
     v_of_rho     :     12.29s CPU     15.50s WALL (      12 calls)
     newd         :     39.66s CPU     43.93s WALL (      12 calls)
     mix_rho      :      0.45s CPU      0.68s WALL (      11 calls)
     vdW_energy   :      2.21s CPU      2.74s WALL (      13 calls)
     vdW_ffts     :      3.17s CPU      4.30s WALL (      26 calls)
     vdW_v        :      1.37s CPU      1.60s WALL (      13 calls)

     Called by c_bands:
     init_us_2    :      6.16s CPU      6.74s WALL (     960 calls)
     cegterg      :   1860.17s CPU   2276.81s WALL (     440 calls)

     Called by *egterg:
     h_psi        :    801.95s CPU   1129.22s WALL (    2038 calls)
     s_psi        :     97.49s CPU    103.20s WALL (    2038 calls)
     g_psi        :      5.49s CPU      5.57s WALL (    1558 calls)
     cdiaghg      :    594.26s CPU    609.18s WALL (    1998 calls)

     Called by h_psi:
     add_vuspsi   :     98.09s CPU    103.24s WALL (    2038 calls)

     General routines
     calbec       :    150.42s CPU    154.96s WALL (    2518 calls)
     fft          :      7.87s CPU     10.08s WALL (    1029 calls)
     ffts         :      0.06s CPU      0.09s WALL (      46 calls)
     fftw         :    534.82s CPU    915.89s WALL (  769660 calls)
     interpolate  :      0.36s CPU      0.59s WALL (      46 calls)
     davcio       :      0.15s CPU      3.78s WALL (      40 calls)
 
     Parallel routines
     fft_scatter  :    294.64s CPU    505.50s WALL (  770735 calls)
 
     PWSCF        :     0h38m CPU        2h22m WALL

 
   This run was terminated on:  19: 3: 3  10Feb2018            

=------------------------------------------------------------------------------=
   JOB DONE.
=------------------------------------------------------------------------------=
