  python dir          : /home/vossj/suncat/lib/python2.7/site-packages/espresso
  espresso dir        : /home/vossj/suncat/esdld/espresso-dynpy-beef/bin
  pseudo dir          : /home/alatimer/bin/psp/esp_psp_w_gbrvRu/
  ase-espresso py git : ffa2778-git



     Program PWSCF v.5.1rc2 (svn rev. ) starts on 13Feb2018 at  8:58: 4 

     This program is part of the open-source Quantum ESPRESSO suite
     for quantum simulation of materials; please cite
         "P. Giannozzi et al., J. Phys.:Condens. Matter 21 395502 (2009);
          URL http://www.quantum-espresso.org", 
     in publications or presentations arising from this work. More details at
     http://www.quantum-espresso.org/quote

     Parallel version (MPI), running on    16 processors
     R & G space division:  proc/nbgrp/npool/nimage =      16
     Reading input from pw.inp
     Message from routine read_cards :
     DEPRECATED: no units specified in CELL_PARAMETERS card

     Current dimensions of program PWSCF are:
     Max number of different atomic species (ntypx) = 10
     Max number of k-points (npk) =  40000
     Max angular momentum in pseudopotentials (lmaxx) =  3

     **************************************************************************
     Initializing libbeef V0.1.1 with the BEEF-vdW functional.
     Citation: Wellendorff et al., PRB 85, 235149 (2012).
     **************************************************************************


     IMPORTANT: XC functional enforced from input :
     Exchange-correlation      = BEEF ( 1  4 27 13 2)
     Any further DFT definition will be discarded
     Please, verify this is what you really want


     Subspace diagonalization in iterative solution of the eigenvalue problem:
     a serial algorithm will be used

 
     Parallelization info
     --------------------
     sticks:   dense  smooth     PW     G-vecs:    dense   smooth      PW
     Min         281     112     31                68535    17318    2565
     Max         282     113     32                68545    17369    2582
     Sum        4501    1795    503              1096637   277353   41113
 
     Generating pointlists ...
     new r_m :   0.4125 (alat units)  0.7795 (a.u.) for type    1
     new r_m :   0.3995 (alat units)  0.7549 (a.u.) for type    2
     new r_m :   0.4125 (alat units)  0.7795 (a.u.) for type    3
     new r_m :   0.3995 (alat units)  0.7549 (a.u.) for type    4


     bravais-lattice index     =            0
     lattice parameter (alat)  =       1.8897  a.u.
     unit-cell volume          =    7990.9933 (a.u.)^3
     number of atoms/cell      =           54
     number of atomic types    =            4
     number of electrons       =       398.00
     number of Kohn-Sham states=          299
     kinetic-energy cutoff     =      40.4243  Ry
     charge density cutoff     =     404.2426  Ry
     convergence threshold     =      7.3E-07
     mixing beta               =       0.1000
     number of iterations used =           10  plain     mixing
     Exchange-correlation      = BEEF ( 1  4 27 13 2)
     nstep                     =           50


     celldm(1)=   1.889726  celldm(2)=   0.000000  celldm(3)=   0.000000
     celldm(4)=   0.000000  celldm(5)=   0.000000  celldm(6)=   0.000000

     crystal axes: (cart. coord. in units of alat)
               a(1) = (   6.590708   0.000000   0.000000 )  
               a(2) = (   0.000000   5.950229   0.000000 )  
               a(3) = (   0.000000   0.000000  30.195235 )  

     reciprocal axes: (cart. coord. in units 2 pi/alat)
               b(1) = (  0.151729  0.000000  0.000000 )  
               b(2) = (  0.000000  0.168061  0.000000 )  
               b(3) = (  0.000000  0.000000  0.033118 )  


     PseudoPot. # 1 for Ti read from file:
     /home/alatimer/bin/psp/esp_psp_w_gbrvRu/Ti.UPF
     MD5 check sum: 8e4df49b7f0d34bbd5052bf3f5ea0213
     Pseudo is Ultrasoft, Zval = 12.0
     Generated by new atomic code, or converted to UPF format
     Using radial grid of  851 points,  6 beta functions with: 
                l(1) =   0
                l(2) =   0
                l(3) =   1
                l(4) =   1
                l(5) =   2
                l(6) =   2
     Q(r) pseudized with  8 coefficients,  rinner =    1.000   1.000   1.000
                                                       1.000   1.000

     PseudoPot. # 2 for  O read from file:
     /home/alatimer/bin/psp/esp_psp_w_gbrvRu/O.UPF
     MD5 check sum: e057bbcf3229fb5d8c36c0c92f9568b4
     Pseudo is Ultrasoft + core correction, Zval =  6.0
     Generated using "atomic" code by A. Dal Corso  v.5.0.2 svn rev. 9415
     Using radial grid of 1095 points,  4 beta functions with: 
                l(1) =   0
                l(2) =   0
                l(3) =   1
                l(4) =   1
     Q(r) pseudized with 0 coefficients 


     PseudoPot. # 3 for  C read from file:
     /home/alatimer/bin/psp/esp_psp_w_gbrvRu/C.UPF
     MD5 check sum: ab446d787031eba755f1d5ee46644bb0
     Pseudo is Ultrasoft + core correction, Zval =  4.0
     Generated using "atomic" code by A. Dal Corso  v.5.0.2 svn rev. 9415
     Using radial grid of 1073 points,  4 beta functions with: 
                l(1) =   0
                l(2) =   0
                l(3) =   1
                l(4) =   1
     Q(r) pseudized with 0 coefficients 


     PseudoPot. # 4 for  H read from file:
     /home/alatimer/bin/psp/esp_psp_w_gbrvRu/H.UPF
     MD5 check sum: bd57da0722753ddfd9833a65b40bb853
     Pseudo is Ultrasoft, Zval =  1.0
     Generated using "atomic" code by A. Dal Corso  v.5.0.2 svn rev. 9415
     Using radial grid of  929 points,  2 beta functions with: 
                l(1) =   0
                l(2) =   0
     Q(r) pseudized with 0 coefficients 


     vdW kernel table read from file vdW_kernel_table
     MD5 check sum: 095c7af220d748ca6e76c0b4c6cfb241

     atomic species   valence    mass     pseudopotential
        Ti1           12.00    47.88000     Ti( 1.00)
        O1             6.00    15.99940      O( 1.00)
        C1             4.00    12.01100      C( 1.00)
        H1             1.00     1.00794      H( 1.00)

     Starting magnetic structure 
     atomic species   magnetization
        Ti1          0.250
        O1           0.500
        C1           0.750
        H1           0.000

     No symmetry found



   Cartesian axes

     site n.     atom                  positions (alat units)
         1           Ti1 tau(   1) = (   1.6476770   0.7437786   2.6545865  )
         2           O1  tau(   2) = (   1.6476770   2.2313359   3.9361215  )
         3           Ti1 tau(   3) = (   1.6476770   2.2313359   5.9499405  )
         4           O1  tau(   4) = (   0.3661420   0.7437786   5.9499405  )
         5           Ti1 tau(   5) = (   1.7592931   0.7557636   9.1813031  )
         6           O1  tau(   6) = (   1.6162490   2.2572048  10.5951269  )
         7           Ti1 tau(   7) = (   1.5595004   2.2680265  12.4668274  )
         8           O1  tau(   8) = (   0.3709531   0.7738127  12.6996540  )
         9           Ti1 tau(   9) = (   1.6476770   3.7188931   2.6545865  )
        10           O1  tau(  10) = (   1.6476770   5.2064503   3.9361215  )
        11           Ti1 tau(  11) = (   1.6476770   5.2064503   5.9499405  )
        12           O1  tau(  12) = (   0.3661420   3.7188931   5.9499405  )
        13           Ti1 tau(  13) = (   1.7607536   3.7112867   9.1949733  )
        14           O1  tau(  14) = (   1.6133076   5.2250699  10.5465640  )
        15           Ti1 tau(  15) = (   1.6492307   5.2431137  12.3448001  )
        16           O1  tau(  16) = (   0.3719744   3.7598389  12.7007434  )
        17           O1  tau(  17) = (   1.6476770   2.2313359   1.3730516  )
        18           Ti1 tau(  18) = (   4.9430310   2.2313359   2.6545865  )
        19           O1  tau(  19) = (   4.9430310   2.2313359   4.6684056  )
        20           O1  tau(  20) = (   6.2245660   0.7437786   2.6545865  )
        21           O1  tau(  21) = (   3.6614961   0.7437786   2.6545865  )
        22           Ti1 tau(  22) = (   4.9430310   0.7437786   5.9499405  )
        23           O1  tau(  23) = (   1.6387103   2.2391978   8.0037664  )
        24           O1  tau(  24) = (   4.9430310   2.2313359   7.2314755  )
        25           O1  tau(  25) = (   2.9292120   0.7437786   5.9499405  )
        26           Ti1 tau(  26) = (   5.0158092   2.2383949   9.3973727  )
        27           O1  tau(  27) = (   4.9391445   2.2276729  11.2675731  )
        28           O1  tau(  28) = (   6.2094020   0.7514556   9.2742047  )
        29           O1  tau(  29) = (   3.6131301   0.7515640   9.2682932  )
        30           Ti1 tau(  30) = (   4.8940083   0.8207741  12.7348365  )
        31           O1  tau(  31) = (   4.8487174   2.2703822  13.8475395  )
        32           O1  tau(  32) = (   2.8766274   0.7418004  12.6316555  )
        33           O1  tau(  33) = (   1.6476770   5.2064503   1.3730516  )
        34           Ti1 tau(  34) = (   4.9430310   5.2064503   2.6545865  )
        35           O1  tau(  35) = (   4.9430310   5.2064503   4.6684056  )
        36           O1  tau(  36) = (   6.2245660   3.7188931   2.6545865  )
        37           O1  tau(  37) = (   3.6614961   3.7188931   2.6545865  )
        38           Ti1 tau(  38) = (   4.9430310   3.7188931   5.9499405  )
        39           O1  tau(  39) = (   1.6418458   5.2133935   8.0066417  )
        40           O1  tau(  40) = (   4.9430310   5.2064503   7.2314755  )
        41           O1  tau(  41) = (   2.9292120   3.7188931   5.9499405  )
        42           Ti1 tau(  42) = (   5.0218241   5.2139137   9.3870600  )
        43           O1  tau(  43) = (   4.9399496   5.2040061  11.2598200  )
        44           O1  tau(  44) = (   6.2073000   3.7245411   9.2731052  )
        45           O1  tau(  45) = (   3.6137513   3.7232133   9.2682466  )
        46           Ti1 tau(  46) = (   4.8936935   3.8094630  12.7397413  )
        47           O1  tau(  47) = (   4.9051259   5.2510468  13.8339921  )
        48           O1  tau(  48) = (   2.8743370   3.7938830  12.6403791  )
        49           C1  tau(  49) = (   1.0587210   2.2268971  15.9066084  )
        50           O1  tau(  50) = (   1.8917182   2.2355032  14.7378010  )
        51           H1  tau(  51) = (   0.0310076   2.2200215  15.5603933  )
        52           H1  tau(  52) = (   2.8355400   2.2288152  14.9543747  )
        53           H1  tau(  53) = (   1.2478062   1.3326534  16.5039879  )
        54           H1  tau(  54) = (   1.2341453   3.1195140  16.4798874  )

     number of k points=    40  Fermi-Dirac smearing, width (Ry)=  0.0073
                       cart. coord. in units 2pi/alat
        k(    1) = (   0.0000000   0.0000000   0.0000000), wk =   0.0277778
        k(    2) = (   0.0000000   0.0280101   0.0000000), wk =   0.0555556
        k(    3) = (   0.0000000   0.0560203   0.0000000), wk =   0.0555556
        k(    4) = (   0.0000000  -0.0840304   0.0000000), wk =   0.0277778
        k(    5) = (   0.0252881   0.0000000   0.0000000), wk =   0.0555556
        k(    6) = (   0.0252881   0.0280101   0.0000000), wk =   0.0555556
        k(    7) = (   0.0252881   0.0560203   0.0000000), wk =   0.0555556
        k(    8) = (   0.0252881  -0.0840304   0.0000000), wk =   0.0555556
        k(    9) = (   0.0505763   0.0000000   0.0000000), wk =   0.0555556
        k(   10) = (   0.0505763   0.0280101   0.0000000), wk =   0.0555556
        k(   11) = (   0.0505763   0.0560203   0.0000000), wk =   0.0555556
        k(   12) = (   0.0505763  -0.0840304   0.0000000), wk =   0.0555556
        k(   13) = (  -0.0758644   0.0000000   0.0000000), wk =   0.0277778
        k(   14) = (  -0.0758644   0.0280101   0.0000000), wk =   0.0555556
        k(   15) = (  -0.0758644   0.0560203   0.0000000), wk =   0.0555556
        k(   16) = (  -0.0758644  -0.0840304   0.0000000), wk =   0.0277778
        k(   17) = (  -0.0252881   0.0280101   0.0000000), wk =   0.0555556
        k(   18) = (  -0.0252881   0.0560203   0.0000000), wk =   0.0555556
        k(   19) = (  -0.0505763   0.0280101   0.0000000), wk =   0.0555556
        k(   20) = (  -0.0505763   0.0560203   0.0000000), wk =   0.0555556
        k(   21) = (   0.0000000   0.0000000   0.0000000), wk =   0.0277778
        k(   22) = (   0.0000000   0.0280101   0.0000000), wk =   0.0555556
        k(   23) = (   0.0000000   0.0560203   0.0000000), wk =   0.0555556
        k(   24) = (   0.0000000  -0.0840304   0.0000000), wk =   0.0277778
        k(   25) = (   0.0252881   0.0000000   0.0000000), wk =   0.0555556
        k(   26) = (   0.0252881   0.0280101   0.0000000), wk =   0.0555556
        k(   27) = (   0.0252881   0.0560203   0.0000000), wk =   0.0555556
        k(   28) = (   0.0252881  -0.0840304   0.0000000), wk =   0.0555556
        k(   29) = (   0.0505763   0.0000000   0.0000000), wk =   0.0555556
        k(   30) = (   0.0505763   0.0280101   0.0000000), wk =   0.0555556
        k(   31) = (   0.0505763   0.0560203   0.0000000), wk =   0.0555556
        k(   32) = (   0.0505763  -0.0840304   0.0000000), wk =   0.0555556
        k(   33) = (  -0.0758644   0.0000000   0.0000000), wk =   0.0277778
        k(   34) = (  -0.0758644   0.0280101   0.0000000), wk =   0.0555556
        k(   35) = (  -0.0758644   0.0560203   0.0000000), wk =   0.0555556
        k(   36) = (  -0.0758644  -0.0840304   0.0000000), wk =   0.0277778
        k(   37) = (  -0.0252881   0.0280101   0.0000000), wk =   0.0555556
        k(   38) = (  -0.0252881   0.0560203   0.0000000), wk =   0.0555556
        k(   39) = (  -0.0505763   0.0280101   0.0000000), wk =   0.0555556
        k(   40) = (  -0.0505763   0.0560203   0.0000000), wk =   0.0555556

     Dense  grid:  1096637 G-vectors     FFT dimensions: (  80,  72, 375)

     Smooth grid:   277353 G-vectors     FFT dimensions: (  54,  45, 240)

     Largest allocated arrays     est. size (Mb)     dimensions
        Kohn-Sham Wavefunctions         9.95 Mb     (    2180,  299)
        NL pseudopotentials            18.89 Mb     (    2180,  568)
        Each V/rho on FFT grid          4.22 Mb     (  138240,   2)
        Each G-vector array             0.52 Mb     (   68538)
        G-vector shells                 0.25 Mb     (   33046)
     Largest temporary arrays     est. size (Mb)     dimensions
        Auxiliary wavefunctions        39.78 Mb     (    2180, 1196)
        Each subspace H/S matrix       21.83 Mb     (    1196, 1196)
        Each <psi_i|beta_j> matrix      2.59 Mb     (     568,  299)
        Arrays for rho mixing          21.09 Mb     (  138240,   10)

     Check: negative/imaginary core charge=   -0.000049    0.000000

     The initial density is read from file :
     ./calc.save/charge-density.dat


     negative rho (up, down):  1.209E-02 1.209E-02


     ************************************************************************
     *
     * You are using vdW-DF for exchange-correlation in this calculation.
     * Please cite the following three references that made this development
     * possible:
     *
     *   M. Dion, H. Rydberg, E. Schroder, D. C. Langreth, and
     *   B. I. Lundqvist, Phys. Rev. Lett. 92, 246401 (2004).
     *
     *   T. Thonhauser, V. R. Cooper, S. Li, A. Puzder, P. Hyldgaard, and
     *   D. C. Langreth, Phys. Rev. B 76, 125112 (2007).
     *
     *   G. Roman-Perez and J. M. Soler, Phys. Rev. Lett. 103, 096102 (2009).
     *
     *
     * If you are using vdW-DF2, please also cite:
     *
     *   K. Lee, E. D. Murray, L. Kong, B. I. Lundqvist, and
     *   D. C. Langreth, Phys. Rev. B 82, 081101(R) (2010).
     *
     *
     * If you are calculating the stress with vdW-DF, please also cite:
     *
     *   R. Sabatini, E. Kucukbenli, B. Kolb, T. Thonhauser, and
     *   S. de Gironcoli, J. Phys.: Condens. Matter 24, 424209 (2012).
     *
     ************************************************************************

     Carrying out vdW-DF run using the following parameters:

     Nqs =      20    Nr_points =    1024   r_max =   100.000
     q_mesh =
               0.00001000     0.04494208     0.09755937     0.15916263
               0.23128650     0.31572767     0.41458969     0.53033537
               0.66584808     0.82450364     1.01025438     1.22772762
               1.48234092     1.78043706     2.12944203     2.53805004
               3.01644009     3.57652955     4.23227104     5.00000000

     Gradients computed in reciprocal space

     ************************************************************************


     Starting wfc are  300 randomized atomic wfcs

     total cpu time spent up to now is       74.4 secs

     Self-consistent Calculation

     iteration #  1     ecut=    40.42 Ry     beta=0.10
     Davidson diagonalization with overlap
     ethr =  1.00E-05,  avg # of iterations = 14.9

     Threshold (ethr) on eigenvalues was too large:
     Diagonalizing with lowered threshold

     Davidson diagonalization with overlap
     ethr =  5.13E-07,  avg # of iterations =  1.0

     negative rho (up, down):  1.209E-02 1.209E-02
 
     Magnetic moment per site:
     atom:    1    charge:    3.1250    magn:   -0.0002    constr:    0.0000
     atom:    2    charge:    1.9451    magn:    0.0000    constr:    0.0000
     atom:    3    charge:    3.1198    magn:    0.0000    constr:    0.0000
     atom:    4    charge:    1.9504    magn:   -0.0001    constr:    0.0000
     atom:    5    charge:    3.1166    magn:    0.0000    constr:    0.0000
     atom:    6    charge:    1.9476    magn:   -0.0001    constr:    0.0000
     atom:    7    charge:    3.1157    magn:    0.0001    constr:    0.0000
     atom:    8    charge:    1.9452    magn:   -0.0001    constr:    0.0000
     atom:    9    charge:    3.1250    magn:   -0.0002    constr:    0.0000
     atom:   10    charge:    1.9452    magn:    0.0000    constr:    0.0000
     atom:   11    charge:    3.1197    magn:    0.0000    constr:    0.0000
     atom:   12    charge:    1.9504    magn:   -0.0001    constr:    0.0000
     atom:   13    charge:    3.1158    magn:    0.0000    constr:    0.0000
     atom:   14    charge:    1.9587    magn:   -0.0001    constr:    0.0000
     atom:   15    charge:    3.1188    magn:    0.0001    constr:    0.0000
     atom:   16    charge:    1.9446    magn:   -0.0001    constr:    0.0000
     atom:   17    charge:    1.9183    magn:    0.0004    constr:    0.0000
     atom:   18    charge:    3.1239    magn:   -0.0001    constr:    0.0000
     atom:   19    charge:    1.9408    magn:   -0.0000    constr:    0.0000
     atom:   20    charge:    1.9471    magn:    0.0000    constr:    0.0000
     atom:   21    charge:    1.9471    magn:    0.0000    constr:    0.0000
     atom:   22    charge:    3.1196    magn:    0.0000    constr:    0.0000
     atom:   23    charge:    1.9566    magn:   -0.0001    constr:    0.0000
     atom:   24    charge:    1.9379    magn:   -0.0001    constr:    0.0000
     atom:   25    charge:    1.9505    magn:   -0.0001    constr:    0.0000
     atom:   26    charge:    3.1145    magn:    0.0001    constr:    0.0000
     atom:   27    charge:    1.9398    magn:   -0.0001    constr:    0.0000
     atom:   28    charge:    1.9517    magn:   -0.0001    constr:    0.0000
     atom:   29    charge:    1.9476    magn:   -0.0001    constr:    0.0000
     atom:   30    charge:    3.1167    magn:    0.0000    constr:    0.0000
     atom:   31    charge:    1.9447    magn:   -0.0000    constr:    0.0000
     atom:   32    charge:    1.9440    magn:   -0.0001    constr:    0.0000
     atom:   33    charge:    1.9183    magn:    0.0004    constr:    0.0000
     atom:   34    charge:    3.1239    magn:   -0.0001    constr:    0.0000
     atom:   35    charge:    1.9408    magn:   -0.0000    constr:    0.0000
     atom:   36    charge:    1.9471    magn:    0.0000    constr:    0.0000
     atom:   37    charge:    1.9471    magn:    0.0000    constr:    0.0000
     atom:   38    charge:    3.1196    magn:    0.0000    constr:    0.0000
     atom:   39    charge:    1.9549    magn:   -0.0001    constr:    0.0000
     atom:   40    charge:    1.9383    magn:   -0.0001    constr:    0.0000
     atom:   41    charge:    1.9505    magn:   -0.0001    constr:    0.0000
     atom:   42    charge:    3.1141    magn:    0.0001    constr:    0.0000
     atom:   43    charge:    1.9413    magn:   -0.0001    constr:    0.0000
     atom:   44    charge:    1.9517    magn:   -0.0001    constr:    0.0000
     atom:   45    charge:    1.9468    magn:   -0.0001    constr:    0.0000
     atom:   46    charge:    3.1165    magn:    0.0000    constr:    0.0000
     atom:   47    charge:    1.9431    magn:   -0.0000    constr:    0.0000
     atom:   48    charge:    1.9444    magn:   -0.0001    constr:    0.0000
     atom:   49    charge:    0.6589    magn:   -0.0001    constr:    0.0000
     atom:   50    charge:    1.9580    magn:   -0.0001    constr:    0.0000
     atom:   51    charge:    0.4022    magn:    0.0000    constr:    0.0000
     atom:   52    charge:    0.4005    magn:    0.0000    constr:    0.0000
     atom:   53    charge:    0.4031    magn:    0.0000    constr:    0.0000
     atom:   54    charge:    0.4117    magn:    0.0000    constr:    0.0000

     total cpu time spent up to now is     1023.5 secs

     total energy              =   -3021.42007438 Ry
     Harris-Foulkes estimate   =   -3021.42028166 Ry
     estimated scf accuracy    <       0.00204425 Ry

     total magnetization       =     0.00 Bohr mag/cell
     absolute magnetization    =     0.01 Bohr mag/cell

     iteration #  2     ecut=    40.42 Ry     beta=0.10
     Davidson diagonalization with overlap
     ethr =  5.14E-07,  avg # of iterations =  1.9

     negative rho (up, down):  1.211E-02 1.211E-02
 
     Magnetic moment per site:
     atom:    1    charge:    3.1250    magn:   -0.0001    constr:    0.0000
     atom:    2    charge:    1.9451    magn:    0.0000    constr:    0.0000
     atom:    3    charge:    3.1198    magn:    0.0000    constr:    0.0000
     atom:    4    charge:    1.9504    magn:   -0.0000    constr:    0.0000
     atom:    5    charge:    3.1166    magn:    0.0000    constr:    0.0000
     atom:    6    charge:    1.9476    magn:   -0.0001    constr:    0.0000
     atom:    7    charge:    3.1157    magn:    0.0000    constr:    0.0000
     atom:    8    charge:    1.9453    magn:   -0.0001    constr:    0.0000
     atom:    9    charge:    3.1250    magn:   -0.0001    constr:    0.0000
     atom:   10    charge:    1.9452    magn:    0.0000    constr:    0.0000
     atom:   11    charge:    3.1197    magn:    0.0000    constr:    0.0000
     atom:   12    charge:    1.9504    magn:   -0.0000    constr:    0.0000
     atom:   13    charge:    3.1158    magn:    0.0000    constr:    0.0000
     atom:   14    charge:    1.9587    magn:   -0.0001    constr:    0.0000
     atom:   15    charge:    3.1189    magn:    0.0001    constr:    0.0000
     atom:   16    charge:    1.9446    magn:   -0.0001    constr:    0.0000
     atom:   17    charge:    1.9183    magn:    0.0004    constr:    0.0000
     atom:   18    charge:    3.1239    magn:   -0.0001    constr:    0.0000
     atom:   19    charge:    1.9408    magn:   -0.0000    constr:    0.0000
     atom:   20    charge:    1.9471    magn:    0.0000    constr:    0.0000
     atom:   21    charge:    1.9471    magn:    0.0000    constr:    0.0000
     atom:   22    charge:    3.1196    magn:    0.0000    constr:    0.0000
     atom:   23    charge:    1.9566    magn:   -0.0001    constr:    0.0000
     atom:   24    charge:    1.9379    magn:   -0.0000    constr:    0.0000
     atom:   25    charge:    1.9505    magn:   -0.0000    constr:    0.0000
     atom:   26    charge:    3.1145    magn:    0.0000    constr:    0.0000
     atom:   27    charge:    1.9398    magn:   -0.0001    constr:    0.0000
     atom:   28    charge:    1.9517    magn:   -0.0001    constr:    0.0000
     atom:   29    charge:    1.9476    magn:   -0.0001    constr:    0.0000
     atom:   30    charge:    3.1167    magn:    0.0000    constr:    0.0000
     atom:   31    charge:    1.9447    magn:   -0.0000    constr:    0.0000
     atom:   32    charge:    1.9440    magn:   -0.0001    constr:    0.0000
     atom:   33    charge:    1.9183    magn:    0.0004    constr:    0.0000
     atom:   34    charge:    3.1239    magn:   -0.0001    constr:    0.0000
     atom:   35    charge:    1.9408    magn:   -0.0000    constr:    0.0000
     atom:   36    charge:    1.9471    magn:    0.0000    constr:    0.0000
     atom:   37    charge:    1.9471    magn:    0.0000    constr:    0.0000
     atom:   38    charge:    3.1196    magn:    0.0000    constr:    0.0000
     atom:   39    charge:    1.9549    magn:   -0.0001    constr:    0.0000
     atom:   40    charge:    1.9383    magn:   -0.0000    constr:    0.0000
     atom:   41    charge:    1.9505    magn:   -0.0000    constr:    0.0000
     atom:   42    charge:    3.1141    magn:    0.0000    constr:    0.0000
     atom:   43    charge:    1.9413    magn:   -0.0000    constr:    0.0000
     atom:   44    charge:    1.9517    magn:   -0.0001    constr:    0.0000
     atom:   45    charge:    1.9468    magn:   -0.0001    constr:    0.0000
     atom:   46    charge:    3.1165    magn:    0.0000    constr:    0.0000
     atom:   47    charge:    1.9431    magn:   -0.0000    constr:    0.0000
     atom:   48    charge:    1.9445    magn:   -0.0001    constr:    0.0000
     atom:   49    charge:    0.6614    magn:   -0.0000    constr:    0.0000
     atom:   50    charge:    1.9585    magn:   -0.0001    constr:    0.0000
     atom:   51    charge:    0.4021    magn:    0.0000    constr:    0.0000
     atom:   52    charge:    0.4004    magn:    0.0000    constr:    0.0000
     atom:   53    charge:    0.4026    magn:    0.0000    constr:    0.0000
     atom:   54    charge:    0.4119    magn:    0.0000    constr:    0.0000

     total cpu time spent up to now is     1211.1 secs

     total energy              =   -3021.41968146 Ry
     Harris-Foulkes estimate   =   -3021.42009096 Ry
     estimated scf accuracy    <       0.00137352 Ry

     total magnetization       =     0.00 Bohr mag/cell
     absolute magnetization    =     0.01 Bohr mag/cell

     iteration #  3     ecut=    40.42 Ry     beta=0.10
     Davidson diagonalization with overlap
     ethr =  3.45E-07,  avg # of iterations =  5.2

     negative rho (up, down):  1.211E-02 1.211E-02
 
     Magnetic moment per site:
     atom:    1    charge:    3.1250    magn:   -0.0001    constr:    0.0000
     atom:    2    charge:    1.9452    magn:    0.0000    constr:    0.0000
     atom:    3    charge:    3.1197    magn:    0.0000    constr:    0.0000
     atom:    4    charge:    1.9504    magn:   -0.0000    constr:    0.0000
     atom:    5    charge:    3.1166    magn:    0.0000    constr:    0.0000
     atom:    6    charge:    1.9477    magn:   -0.0001    constr:    0.0000
     atom:    7    charge:    3.1156    magn:    0.0000    constr:    0.0000
     atom:    8    charge:    1.9452    magn:   -0.0001    constr:    0.0000
     atom:    9    charge:    3.1250    magn:   -0.0001    constr:    0.0000
     atom:   10    charge:    1.9452    magn:    0.0000    constr:    0.0000
     atom:   11    charge:    3.1197    magn:    0.0000    constr:    0.0000
     atom:   12    charge:    1.9504    magn:   -0.0000    constr:    0.0000
     atom:   13    charge:    3.1158    magn:    0.0000    constr:    0.0000
     atom:   14    charge:    1.9587    magn:   -0.0001    constr:    0.0000
     atom:   15    charge:    3.1188    magn:    0.0000    constr:    0.0000
     atom:   16    charge:    1.9446    magn:   -0.0001    constr:    0.0000
     atom:   17    charge:    1.9184    magn:    0.0003    constr:    0.0000
     atom:   18    charge:    3.1240    magn:   -0.0001    constr:    0.0000
     atom:   19    charge:    1.9408    magn:   -0.0000    constr:    0.0000
     atom:   20    charge:    1.9471    magn:    0.0000    constr:    0.0000
     atom:   21    charge:    1.9471    magn:    0.0000    constr:    0.0000
     atom:   22    charge:    3.1196    magn:    0.0000    constr:    0.0000
     atom:   23    charge:    1.9566    magn:   -0.0001    constr:    0.0000
     atom:   24    charge:    1.9379    magn:   -0.0000    constr:    0.0000
     atom:   25    charge:    1.9505    magn:   -0.0000    constr:    0.0000
     atom:   26    charge:    3.1145    magn:    0.0000    constr:    0.0000
     atom:   27    charge:    1.9398    magn:   -0.0000    constr:    0.0000
     atom:   28    charge:    1.9517    magn:   -0.0001    constr:    0.0000
     atom:   29    charge:    1.9476    magn:   -0.0001    constr:    0.0000
     atom:   30    charge:    3.1167    magn:    0.0000    constr:    0.0000
     atom:   31    charge:    1.9447    magn:   -0.0000    constr:    0.0000
     atom:   32    charge:    1.9440    magn:   -0.0001    constr:    0.0000
     atom:   33    charge:    1.9184    magn:    0.0003    constr:    0.0000
     atom:   34    charge:    3.1240    magn:   -0.0001    constr:    0.0000
     atom:   35    charge:    1.9408    magn:   -0.0000    constr:    0.0000
     atom:   36    charge:    1.9471    magn:    0.0000    constr:    0.0000
     atom:   37    charge:    1.9471    magn:    0.0000    constr:    0.0000
     atom:   38    charge:    3.1196    magn:    0.0000    constr:    0.0000
     atom:   39    charge:    1.9550    magn:   -0.0001    constr:    0.0000
     atom:   40    charge:    1.9382    magn:   -0.0000    constr:    0.0000
     atom:   41    charge:    1.9505    magn:   -0.0000    constr:    0.0000
     atom:   42    charge:    3.1141    magn:    0.0000    constr:    0.0000
     atom:   43    charge:    1.9413    magn:   -0.0000    constr:    0.0000
     atom:   44    charge:    1.9518    magn:   -0.0001    constr:    0.0000
     atom:   45    charge:    1.9468    magn:   -0.0001    constr:    0.0000
     atom:   46    charge:    3.1165    magn:    0.0000    constr:    0.0000
     atom:   47    charge:    1.9431    magn:   -0.0000    constr:    0.0000
     atom:   48    charge:    1.9444    magn:   -0.0001    constr:    0.0000
     atom:   49    charge:    0.6617    magn:   -0.0000    constr:    0.0000
     atom:   50    charge:    1.9583    magn:   -0.0000    constr:    0.0000
     atom:   51    charge:    0.4021    magn:    0.0000    constr:    0.0000
     atom:   52    charge:    0.4005    magn:    0.0000    constr:    0.0000
     atom:   53    charge:    0.4025    magn:    0.0000    constr:    0.0000
     atom:   54    charge:    0.4122    magn:    0.0000    constr:    0.0000

     total cpu time spent up to now is     1453.4 secs

     total energy              =   -3021.41977172 Ry
     Harris-Foulkes estimate   =   -3021.41980416 Ry
     estimated scf accuracy    <       0.00027403 Ry

     total magnetization       =     0.00 Bohr mag/cell
     absolute magnetization    =     0.00 Bohr mag/cell

     iteration #  4     ecut=    40.42 Ry     beta=0.10
     Davidson diagonalization with overlap
     ethr =  6.89E-08,  avg # of iterations =  3.0

     negative rho (up, down):  1.211E-02 1.211E-02
 
     Magnetic moment per site:
     atom:    1    charge:    3.1250    magn:   -0.0001    constr:    0.0000
     atom:    2    charge:    1.9452    magn:    0.0000    constr:    0.0000
     atom:    3    charge:    3.1198    magn:    0.0000    constr:    0.0000
     atom:    4    charge:    1.9504    magn:   -0.0000    constr:    0.0000
     atom:    5    charge:    3.1166    magn:    0.0000    constr:    0.0000
     atom:    6    charge:    1.9477    magn:   -0.0000    constr:    0.0000
     atom:    7    charge:    3.1156    magn:    0.0000    constr:    0.0000
     atom:    8    charge:    1.9452    magn:   -0.0000    constr:    0.0000
     atom:    9    charge:    3.1250    magn:   -0.0001    constr:    0.0000
     atom:   10    charge:    1.9452    magn:    0.0000    constr:    0.0000
     atom:   11    charge:    3.1197    magn:    0.0000    constr:    0.0000
     atom:   12    charge:    1.9504    magn:   -0.0000    constr:    0.0000
     atom:   13    charge:    3.1158    magn:    0.0000    constr:    0.0000
     atom:   14    charge:    1.9587    magn:   -0.0000    constr:    0.0000
     atom:   15    charge:    3.1188    magn:    0.0000    constr:    0.0000
     atom:   16    charge:    1.9445    magn:   -0.0000    constr:    0.0000
     atom:   17    charge:    1.9184    magn:    0.0002    constr:    0.0000
     atom:   18    charge:    3.1240    magn:   -0.0000    constr:    0.0000
     atom:   19    charge:    1.9408    magn:   -0.0000    constr:    0.0000
     atom:   20    charge:    1.9471    magn:    0.0000    constr:    0.0000
     atom:   21    charge:    1.9471    magn:    0.0000    constr:    0.0000
     atom:   22    charge:    3.1196    magn:    0.0000    constr:    0.0000
     atom:   23    charge:    1.9566    magn:   -0.0000    constr:    0.0000
     atom:   24    charge:    1.9379    magn:   -0.0000    constr:    0.0000
     atom:   25    charge:    1.9505    magn:   -0.0000    constr:    0.0000
     atom:   26    charge:    3.1145    magn:    0.0000    constr:    0.0000
     atom:   27    charge:    1.9398    magn:   -0.0000    constr:    0.0000
     atom:   28    charge:    1.9517    magn:   -0.0000    constr:    0.0000
     atom:   29    charge:    1.9476    magn:   -0.0000    constr:    0.0000
     atom:   30    charge:    3.1167    magn:    0.0000    constr:    0.0000
     atom:   31    charge:    1.9447    magn:   -0.0000    constr:    0.0000
     atom:   32    charge:    1.9440    magn:   -0.0000    constr:    0.0000
     atom:   33    charge:    1.9184    magn:    0.0002    constr:    0.0000
     atom:   34    charge:    3.1240    magn:   -0.0000    constr:    0.0000
     atom:   35    charge:    1.9408    magn:   -0.0000    constr:    0.0000
     atom:   36    charge:    1.9471    magn:    0.0000    constr:    0.0000
     atom:   37    charge:    1.9471    magn:    0.0000    constr:    0.0000
     atom:   38    charge:    3.1196    magn:    0.0000    constr:    0.0000
     atom:   39    charge:    1.9550    magn:   -0.0000    constr:    0.0000
     atom:   40    charge:    1.9383    magn:   -0.0000    constr:    0.0000
     atom:   41    charge:    1.9505    magn:   -0.0000    constr:    0.0000
     atom:   42    charge:    3.1141    magn:    0.0000    constr:    0.0000
     atom:   43    charge:    1.9413    magn:   -0.0000    constr:    0.0000
     atom:   44    charge:    1.9518    magn:   -0.0000    constr:    0.0000
     atom:   45    charge:    1.9469    magn:   -0.0000    constr:    0.0000
     atom:   46    charge:    3.1165    magn:    0.0000    constr:    0.0000
     atom:   47    charge:    1.9431    magn:   -0.0000    constr:    0.0000
     atom:   48    charge:    1.9444    magn:   -0.0000    constr:    0.0000
     atom:   49    charge:    0.6615    magn:   -0.0000    constr:    0.0000
     atom:   50    charge:    1.9580    magn:   -0.0000    constr:    0.0000
     atom:   51    charge:    0.4023    magn:    0.0000    constr:    0.0000
     atom:   52    charge:    0.4006    magn:    0.0000    constr:    0.0000
     atom:   53    charge:    0.4027    magn:    0.0000    constr:    0.0000
     atom:   54    charge:    0.4127    magn:    0.0000    constr:    0.0000

     total cpu time spent up to now is     1656.8 secs

     total energy              =   -3021.41977198 Ry
     Harris-Foulkes estimate   =   -3021.41977972 Ry
     estimated scf accuracy    <       0.00011069 Ry

     total magnetization       =     0.00 Bohr mag/cell
     absolute magnetization    =     0.00 Bohr mag/cell

     iteration #  5     ecut=    40.42 Ry     beta=0.10
     Davidson diagonalization with overlap
     ethr =  2.78E-08,  avg # of iterations =  3.0

     negative rho (up, down):  1.211E-02 1.211E-02
 
     Magnetic moment per site:
     atom:    1    charge:    3.1250    magn:   -0.0001    constr:    0.0000
     atom:    2    charge:    1.9451    magn:    0.0000    constr:    0.0000
     atom:    3    charge:    3.1198    magn:    0.0000    constr:    0.0000
     atom:    4    charge:    1.9504    magn:   -0.0000    constr:    0.0000
     atom:    5    charge:    3.1166    magn:    0.0000    constr:    0.0000
     atom:    6    charge:    1.9476    magn:   -0.0000    constr:    0.0000
     atom:    7    charge:    3.1157    magn:    0.0000    constr:    0.0000
     atom:    8    charge:    1.9452    magn:   -0.0000    constr:    0.0000
     atom:    9    charge:    3.1250    magn:   -0.0001    constr:    0.0000
     atom:   10    charge:    1.9452    magn:    0.0000    constr:    0.0000
     atom:   11    charge:    3.1197    magn:    0.0000    constr:    0.0000
     atom:   12    charge:    1.9504    magn:   -0.0000    constr:    0.0000
     atom:   13    charge:    3.1158    magn:    0.0000    constr:    0.0000
     atom:   14    charge:    1.9587    magn:   -0.0000    constr:    0.0000
     atom:   15    charge:    3.1189    magn:    0.0000    constr:    0.0000
     atom:   16    charge:    1.9445    magn:   -0.0000    constr:    0.0000
     atom:   17    charge:    1.9184    magn:    0.0002    constr:    0.0000
     atom:   18    charge:    3.1239    magn:   -0.0000    constr:    0.0000
     atom:   19    charge:    1.9408    magn:   -0.0000    constr:    0.0000
     atom:   20    charge:    1.9471    magn:    0.0000    constr:    0.0000
     atom:   21    charge:    1.9471    magn:    0.0000    constr:    0.0000
     atom:   22    charge:    3.1196    magn:    0.0000    constr:    0.0000
     atom:   23    charge:    1.9566    magn:   -0.0000    constr:    0.0000
     atom:   24    charge:    1.9379    magn:   -0.0000    constr:    0.0000
     atom:   25    charge:    1.9505    magn:   -0.0000    constr:    0.0000
     atom:   26    charge:    3.1145    magn:    0.0000    constr:    0.0000
     atom:   27    charge:    1.9398    magn:   -0.0000    constr:    0.0000
     atom:   28    charge:    1.9517    magn:   -0.0000    constr:    0.0000
     atom:   29    charge:    1.9476    magn:   -0.0000    constr:    0.0000
     atom:   30    charge:    3.1167    magn:    0.0000    constr:    0.0000
     atom:   31    charge:    1.9447    magn:   -0.0000    constr:    0.0000
     atom:   32    charge:    1.9440    magn:   -0.0000    constr:    0.0000
     atom:   33    charge:    1.9184    magn:    0.0002    constr:    0.0000
     atom:   34    charge:    3.1239    magn:   -0.0000    constr:    0.0000
     atom:   35    charge:    1.9408    magn:   -0.0000    constr:    0.0000
     atom:   36    charge:    1.9471    magn:    0.0000    constr:    0.0000
     atom:   37    charge:    1.9471    magn:    0.0000    constr:    0.0000
     atom:   38    charge:    3.1196    magn:    0.0000    constr:    0.0000
     atom:   39    charge:    1.9549    magn:   -0.0000    constr:    0.0000
     atom:   40    charge:    1.9383    magn:   -0.0000    constr:    0.0000
     atom:   41    charge:    1.9505    magn:   -0.0000    constr:    0.0000
     atom:   42    charge:    3.1141    magn:    0.0000    constr:    0.0000
     atom:   43    charge:    1.9413    magn:   -0.0000    constr:    0.0000
     atom:   44    charge:    1.9517    magn:   -0.0000    constr:    0.0000
     atom:   45    charge:    1.9468    magn:   -0.0000    constr:    0.0000
     atom:   46    charge:    3.1165    magn:    0.0000    constr:    0.0000
     atom:   47    charge:    1.9431    magn:   -0.0000    constr:    0.0000
     atom:   48    charge:    1.9444    magn:   -0.0000    constr:    0.0000
     atom:   49    charge:    0.6605    magn:   -0.0000    constr:    0.0000
     atom:   50    charge:    1.9578    magn:   -0.0000    constr:    0.0000
     atom:   51    charge:    0.4024    magn:    0.0000    constr:    0.0000
     atom:   52    charge:    0.4007    magn:    0.0000    constr:    0.0000
     atom:   53    charge:    0.4030    magn:    0.0000    constr:    0.0000
     atom:   54    charge:    0.4130    magn:    0.0000    constr:    0.0000

     total cpu time spent up to now is     1863.9 secs

     total energy              =   -3021.41976770 Ry
     Harris-Foulkes estimate   =   -3021.41977788 Ry
     estimated scf accuracy    <       0.00003126 Ry

     total magnetization       =     0.00 Bohr mag/cell
     absolute magnetization    =     0.00 Bohr mag/cell

     iteration #  6     ecut=    40.42 Ry     beta=0.10
     Davidson diagonalization with overlap
     ethr =  7.86E-09,  avg # of iterations =  4.0

     negative rho (up, down):  1.211E-02 1.211E-02
 
     Magnetic moment per site:
     atom:    1    charge:    3.1250    magn:   -0.0001    constr:    0.0000
     atom:    2    charge:    1.9451    magn:    0.0000    constr:    0.0000
     atom:    3    charge:    3.1198    magn:    0.0000    constr:    0.0000
     atom:    4    charge:    1.9504    magn:   -0.0000    constr:    0.0000
     atom:    5    charge:    3.1166    magn:    0.0000    constr:    0.0000
     atom:    6    charge:    1.9476    magn:   -0.0000    constr:    0.0000
     atom:    7    charge:    3.1157    magn:    0.0000    constr:    0.0000
     atom:    8    charge:    1.9452    magn:   -0.0000    constr:    0.0000
     atom:    9    charge:    3.1250    magn:   -0.0001    constr:    0.0000
     atom:   10    charge:    1.9452    magn:    0.0000    constr:    0.0000
     atom:   11    charge:    3.1197    magn:    0.0000    constr:    0.0000
     atom:   12    charge:    1.9504    magn:   -0.0000    constr:    0.0000
     atom:   13    charge:    3.1158    magn:    0.0000    constr:    0.0000
     atom:   14    charge:    1.9587    magn:   -0.0000    constr:    0.0000
     atom:   15    charge:    3.1188    magn:    0.0000    constr:    0.0000
     atom:   16    charge:    1.9445    magn:   -0.0000    constr:    0.0000
     atom:   17    charge:    1.9184    magn:    0.0002    constr:    0.0000
     atom:   18    charge:    3.1239    magn:   -0.0000    constr:    0.0000
     atom:   19    charge:    1.9408    magn:   -0.0000    constr:    0.0000
     atom:   20    charge:    1.9471    magn:    0.0000    constr:    0.0000
     atom:   21    charge:    1.9471    magn:    0.0000    constr:    0.0000
     atom:   22    charge:    3.1196    magn:    0.0000    constr:    0.0000
     atom:   23    charge:    1.9566    magn:   -0.0000    constr:    0.0000
     atom:   24    charge:    1.9379    magn:   -0.0000    constr:    0.0000
     atom:   25    charge:    1.9505    magn:   -0.0000    constr:    0.0000
     atom:   26    charge:    3.1145    magn:    0.0000    constr:    0.0000
     atom:   27    charge:    1.9398    magn:   -0.0000    constr:    0.0000
     atom:   28    charge:    1.9517    magn:   -0.0000    constr:    0.0000
     atom:   29    charge:    1.9476    magn:   -0.0000    constr:    0.0000
     atom:   30    charge:    3.1167    magn:    0.0000    constr:    0.0000
     atom:   31    charge:    1.9447    magn:   -0.0000    constr:    0.0000
     atom:   32    charge:    1.9440    magn:   -0.0000    constr:    0.0000
     atom:   33    charge:    1.9184    magn:    0.0002    constr:    0.0000
     atom:   34    charge:    3.1239    magn:   -0.0000    constr:    0.0000
     atom:   35    charge:    1.9408    magn:   -0.0000    constr:    0.0000
     atom:   36    charge:    1.9471    magn:    0.0000    constr:    0.0000
     atom:   37    charge:    1.9471    magn:    0.0000    constr:    0.0000
     atom:   38    charge:    3.1196    magn:    0.0000    constr:    0.0000
     atom:   39    charge:    1.9549    magn:   -0.0000    constr:    0.0000
     atom:   40    charge:    1.9383    magn:   -0.0000    constr:    0.0000
     atom:   41    charge:    1.9505    magn:   -0.0000    constr:    0.0000
     atom:   42    charge:    3.1141    magn:    0.0000    constr:    0.0000
     atom:   43    charge:    1.9413    magn:   -0.0000    constr:    0.0000
     atom:   44    charge:    1.9517    magn:   -0.0000    constr:    0.0000
     atom:   45    charge:    1.9468    magn:   -0.0000    constr:    0.0000
     atom:   46    charge:    3.1165    magn:    0.0000    constr:    0.0000
     atom:   47    charge:    1.9431    magn:   -0.0000    constr:    0.0000
     atom:   48    charge:    1.9444    magn:   -0.0000    constr:    0.0000
     atom:   49    charge:    0.6607    magn:   -0.0000    constr:    0.0000
     atom:   50    charge:    1.9579    magn:   -0.0000    constr:    0.0000
     atom:   51    charge:    0.4024    magn:    0.0000    constr:    0.0000
     atom:   52    charge:    0.4007    magn:    0.0000    constr:    0.0000
     atom:   53    charge:    0.4030    magn:    0.0000    constr:    0.0000
     atom:   54    charge:    0.4130    magn:    0.0000    constr:    0.0000

     total cpu time spent up to now is     2089.2 secs

     total energy              =   -3021.41977298 Ry
     Harris-Foulkes estimate   =   -3021.41977319 Ry
     estimated scf accuracy    <       0.00000583 Ry

     total magnetization       =     0.00 Bohr mag/cell
     absolute magnetization    =     0.00 Bohr mag/cell

     iteration #  7     ecut=    40.42 Ry     beta=0.10
     Davidson diagonalization with overlap
     ethr =  1.46E-09,  avg # of iterations =  3.0

     negative rho (up, down):  1.211E-02 1.211E-02
 
     Magnetic moment per site:
     atom:    1    charge:    3.1250    magn:   -0.0001    constr:    0.0000
     atom:    2    charge:    1.9452    magn:    0.0000    constr:    0.0000
     atom:    3    charge:    3.1198    magn:    0.0000    constr:    0.0000
     atom:    4    charge:    1.9504    magn:   -0.0000    constr:    0.0000
     atom:    5    charge:    3.1166    magn:    0.0000    constr:    0.0000
     atom:    6    charge:    1.9476    magn:   -0.0000    constr:    0.0000
     atom:    7    charge:    3.1157    magn:    0.0000    constr:    0.0000
     atom:    8    charge:    1.9452    magn:   -0.0000    constr:    0.0000
     atom:    9    charge:    3.1250    magn:   -0.0001    constr:    0.0000
     atom:   10    charge:    1.9452    magn:    0.0000    constr:    0.0000
     atom:   11    charge:    3.1197    magn:    0.0000    constr:    0.0000
     atom:   12    charge:    1.9504    magn:   -0.0000    constr:    0.0000
     atom:   13    charge:    3.1158    magn:    0.0000    constr:    0.0000
     atom:   14    charge:    1.9587    magn:   -0.0000    constr:    0.0000
     atom:   15    charge:    3.1188    magn:    0.0000    constr:    0.0000
     atom:   16    charge:    1.9446    magn:   -0.0000    constr:    0.0000
     atom:   17    charge:    1.9184    magn:    0.0001    constr:    0.0000
     atom:   18    charge:    3.1239    magn:   -0.0000    constr:    0.0000
     atom:   19    charge:    1.9408    magn:   -0.0000    constr:    0.0000
     atom:   20    charge:    1.9471    magn:    0.0000    constr:    0.0000
     atom:   21    charge:    1.9471    magn:    0.0000    constr:    0.0000
     atom:   22    charge:    3.1196    magn:    0.0000    constr:    0.0000
     atom:   23    charge:    1.9566    magn:   -0.0000    constr:    0.0000
     atom:   24    charge:    1.9379    magn:   -0.0000    constr:    0.0000
     atom:   25    charge:    1.9505    magn:   -0.0000    constr:    0.0000
     atom:   26    charge:    3.1145    magn:    0.0000    constr:    0.0000
     atom:   27    charge:    1.9398    magn:   -0.0000    constr:    0.0000
     atom:   28    charge:    1.9517    magn:   -0.0000    constr:    0.0000
     atom:   29    charge:    1.9476    magn:   -0.0000    constr:    0.0000
     atom:   30    charge:    3.1167    magn:    0.0000    constr:    0.0000
     atom:   31    charge:    1.9447    magn:   -0.0000    constr:    0.0000
     atom:   32    charge:    1.9440    magn:   -0.0000    constr:    0.0000
     atom:   33    charge:    1.9184    magn:    0.0001    constr:    0.0000
     atom:   34    charge:    3.1239    magn:   -0.0000    constr:    0.0000
     atom:   35    charge:    1.9408    magn:   -0.0000    constr:    0.0000
     atom:   36    charge:    1.9471    magn:    0.0000    constr:    0.0000
     atom:   37    charge:    1.9471    magn:    0.0000    constr:    0.0000
     atom:   38    charge:    3.1196    magn:    0.0000    constr:    0.0000
     atom:   39    charge:    1.9549    magn:   -0.0000    constr:    0.0000
     atom:   40    charge:    1.9383    magn:   -0.0000    constr:    0.0000
     atom:   41    charge:    1.9505    magn:   -0.0000    constr:    0.0000
     atom:   42    charge:    3.1141    magn:    0.0000    constr:    0.0000
     atom:   43    charge:    1.9413    magn:   -0.0000    constr:    0.0000
     atom:   44    charge:    1.9517    magn:   -0.0000    constr:    0.0000
     atom:   45    charge:    1.9468    magn:   -0.0000    constr:    0.0000
     atom:   46    charge:    3.1165    magn:    0.0000    constr:    0.0000
     atom:   47    charge:    1.9431    magn:   -0.0000    constr:    0.0000
     atom:   48    charge:    1.9444    magn:   -0.0000    constr:    0.0000
     atom:   49    charge:    0.6603    magn:   -0.0000    constr:    0.0000
     atom:   50    charge:    1.9580    magn:   -0.0000    constr:    0.0000
     atom:   51    charge:    0.4024    magn:    0.0000    constr:    0.0000
     atom:   52    charge:    0.4007    magn:    0.0000    constr:    0.0000
     atom:   53    charge:    0.4032    magn:    0.0000    constr:    0.0000
     atom:   54    charge:    0.4131    magn:    0.0000    constr:    0.0000

     total cpu time spent up to now is     2297.7 secs

     total energy              =   -3021.41977303 Ry
     Harris-Foulkes estimate   =   -3021.41977372 Ry
     estimated scf accuracy    <       0.00000285 Ry

     total magnetization       =     0.00 Bohr mag/cell
     absolute magnetization    =     0.00 Bohr mag/cell

     iteration #  8     ecut=    40.42 Ry     beta=0.10
     Davidson diagonalization with overlap
     ethr =  7.17E-10,  avg # of iterations =  4.0

     negative rho (up, down):  1.211E-02 1.211E-02
 
     Magnetic moment per site:
     atom:    1    charge:    3.1250    magn:   -0.0000    constr:    0.0000
     atom:    2    charge:    1.9452    magn:    0.0000    constr:    0.0000
     atom:    3    charge:    3.1198    magn:    0.0000    constr:    0.0000
     atom:    4    charge:    1.9504    magn:   -0.0000    constr:    0.0000
     atom:    5    charge:    3.1166    magn:    0.0000    constr:    0.0000
     atom:    6    charge:    1.9476    magn:   -0.0000    constr:    0.0000
     atom:    7    charge:    3.1157    magn:    0.0000    constr:    0.0000
     atom:    8    charge:    1.9452    magn:   -0.0000    constr:    0.0000
     atom:    9    charge:    3.1250    magn:   -0.0000    constr:    0.0000
     atom:   10    charge:    1.9452    magn:    0.0000    constr:    0.0000
     atom:   11    charge:    3.1197    magn:    0.0000    constr:    0.0000
     atom:   12    charge:    1.9504    magn:   -0.0000    constr:    0.0000
     atom:   13    charge:    3.1158    magn:    0.0000    constr:    0.0000
     atom:   14    charge:    1.9587    magn:   -0.0000    constr:    0.0000
     atom:   15    charge:    3.1188    magn:    0.0000    constr:    0.0000
     atom:   16    charge:    1.9446    magn:   -0.0000    constr:    0.0000
     atom:   17    charge:    1.9184    magn:    0.0001    constr:    0.0000
     atom:   18    charge:    3.1239    magn:   -0.0000    constr:    0.0000
     atom:   19    charge:    1.9408    magn:   -0.0000    constr:    0.0000
     atom:   20    charge:    1.9471    magn:    0.0000    constr:    0.0000
     atom:   21    charge:    1.9471    magn:    0.0000    constr:    0.0000
     atom:   22    charge:    3.1196    magn:    0.0000    constr:    0.0000
     atom:   23    charge:    1.9566    magn:   -0.0000    constr:    0.0000
     atom:   24    charge:    1.9379    magn:   -0.0000    constr:    0.0000
     atom:   25    charge:    1.9505    magn:   -0.0000    constr:    0.0000
     atom:   26    charge:    3.1145    magn:    0.0000    constr:    0.0000
     atom:   27    charge:    1.9398    magn:   -0.0000    constr:    0.0000
     atom:   28    charge:    1.9517    magn:   -0.0000    constr:    0.0000
     atom:   29    charge:    1.9476    magn:   -0.0000    constr:    0.0000
     atom:   30    charge:    3.1167    magn:    0.0000    constr:    0.0000
     atom:   31    charge:    1.9447    magn:   -0.0000    constr:    0.0000
     atom:   32    charge:    1.9440    magn:   -0.0000    constr:    0.0000
     atom:   33    charge:    1.9184    magn:    0.0001    constr:    0.0000
     atom:   34    charge:    3.1239    magn:   -0.0000    constr:    0.0000
     atom:   35    charge:    1.9408    magn:   -0.0000    constr:    0.0000
     atom:   36    charge:    1.9471    magn:    0.0000    constr:    0.0000
     atom:   37    charge:    1.9471    magn:    0.0000    constr:    0.0000
     atom:   38    charge:    3.1196    magn:    0.0000    constr:    0.0000
     atom:   39    charge:    1.9549    magn:   -0.0000    constr:    0.0000
     atom:   40    charge:    1.9383    magn:   -0.0000    constr:    0.0000
     atom:   41    charge:    1.9505    magn:   -0.0000    constr:    0.0000
     atom:   42    charge:    3.1141    magn:    0.0000    constr:    0.0000
     atom:   43    charge:    1.9413    magn:   -0.0000    constr:    0.0000
     atom:   44    charge:    1.9517    magn:   -0.0000    constr:    0.0000
     atom:   45    charge:    1.9468    magn:   -0.0000    constr:    0.0000
     atom:   46    charge:    3.1165    magn:    0.0000    constr:    0.0000
     atom:   47    charge:    1.9431    magn:   -0.0000    constr:    0.0000
     atom:   48    charge:    1.9444    magn:   -0.0000    constr:    0.0000
     atom:   49    charge:    0.6603    magn:   -0.0000    constr:    0.0000
     atom:   50    charge:    1.9580    magn:   -0.0000    constr:    0.0000
     atom:   51    charge:    0.4024    magn:    0.0000    constr:    0.0000
     atom:   52    charge:    0.4007    magn:    0.0000    constr:    0.0000
     atom:   53    charge:    0.4032    magn:    0.0000    constr:    0.0000
     atom:   54    charge:    0.4131    magn:    0.0000    constr:    0.0000

     total cpu time spent up to now is     2526.6 secs

     total energy              =   -3021.41977362 Ry
     Harris-Foulkes estimate   =   -3021.41977375 Ry
     estimated scf accuracy    <       0.00000116 Ry

     total magnetization       =     0.00 Bohr mag/cell
     absolute magnetization    =     0.00 Bohr mag/cell

     iteration #  9     ecut=    40.42 Ry     beta=0.10
     Davidson diagonalization with overlap
     ethr =  2.92E-10,  avg # of iterations =  3.0

     negative rho (up, down):  1.211E-02 1.210E-02
 
     Magnetic moment per site:
     atom:    1    charge:    3.1250    magn:   -0.0000    constr:    0.0000
     atom:    2    charge:    1.9451    magn:    0.0000    constr:    0.0000
     atom:    3    charge:    3.1198    magn:    0.0000    constr:    0.0000
     atom:    4    charge:    1.9504    magn:   -0.0000    constr:    0.0000
     atom:    5    charge:    3.1166    magn:    0.0000    constr:    0.0000
     atom:    6    charge:    1.9476    magn:   -0.0000    constr:    0.0000
     atom:    7    charge:    3.1157    magn:    0.0000    constr:    0.0000
     atom:    8    charge:    1.9452    magn:   -0.0000    constr:    0.0000
     atom:    9    charge:    3.1250    magn:   -0.0000    constr:    0.0000
     atom:   10    charge:    1.9452    magn:    0.0000    constr:    0.0000
     atom:   11    charge:    3.1197    magn:    0.0000    constr:    0.0000
     atom:   12    charge:    1.9504    magn:   -0.0000    constr:    0.0000
     atom:   13    charge:    3.1158    magn:    0.0000    constr:    0.0000
     atom:   14    charge:    1.9587    magn:   -0.0000    constr:    0.0000
     atom:   15    charge:    3.1188    magn:    0.0000    constr:    0.0000
     atom:   16    charge:    1.9445    magn:   -0.0000    constr:    0.0000
     atom:   17    charge:    1.9184    magn:    0.0001    constr:    0.0000
     atom:   18    charge:    3.1239    magn:   -0.0000    constr:    0.0000
     atom:   19    charge:    1.9408    magn:   -0.0000    constr:    0.0000
     atom:   20    charge:    1.9471    magn:    0.0000    constr:    0.0000
     atom:   21    charge:    1.9471    magn:    0.0000    constr:    0.0000
     atom:   22    charge:    3.1196    magn:    0.0000    constr:    0.0000
     atom:   23    charge:    1.9566    magn:   -0.0000    constr:    0.0000
     atom:   24    charge:    1.9379    magn:   -0.0000    constr:    0.0000
     atom:   25    charge:    1.9505    magn:   -0.0000    constr:    0.0000
     atom:   26    charge:    3.1145    magn:    0.0000    constr:    0.0000
     atom:   27    charge:    1.9398    magn:   -0.0000    constr:    0.0000
     atom:   28    charge:    1.9517    magn:   -0.0000    constr:    0.0000
     atom:   29    charge:    1.9476    magn:   -0.0000    constr:    0.0000
     atom:   30    charge:    3.1167    magn:    0.0000    constr:    0.0000
     atom:   31    charge:    1.9447    magn:   -0.0000    constr:    0.0000
     atom:   32    charge:    1.9440    magn:   -0.0000    constr:    0.0000
     atom:   33    charge:    1.9184    magn:    0.0001    constr:    0.0000
     atom:   34    charge:    3.1239    magn:   -0.0000    constr:    0.0000
     atom:   35    charge:    1.9408    magn:   -0.0000    constr:    0.0000
     atom:   36    charge:    1.9471    magn:    0.0000    constr:    0.0000
     atom:   37    charge:    1.9471    magn:    0.0000    constr:    0.0000
     atom:   38    charge:    3.1196    magn:    0.0000    constr:    0.0000
     atom:   39    charge:    1.9549    magn:   -0.0000    constr:    0.0000
     atom:   40    charge:    1.9383    magn:   -0.0000    constr:    0.0000
     atom:   41    charge:    1.9505    magn:   -0.0000    constr:    0.0000
     atom:   42    charge:    3.1141    magn:    0.0000    constr:    0.0000
     atom:   43    charge:    1.9413    magn:   -0.0000    constr:    0.0000
     atom:   44    charge:    1.9517    magn:   -0.0000    constr:    0.0000
     atom:   45    charge:    1.9468    magn:   -0.0000    constr:    0.0000
     atom:   46    charge:    3.1165    magn:    0.0000    constr:    0.0000
     atom:   47    charge:    1.9431    magn:   -0.0000    constr:    0.0000
     atom:   48    charge:    1.9444    magn:   -0.0000    constr:    0.0000
     atom:   49    charge:    0.6606    magn:   -0.0000    constr:    0.0000
     atom:   50    charge:    1.9580    magn:   -0.0000    constr:    0.0000
     atom:   51    charge:    0.4024    magn:    0.0000    constr:    0.0000
     atom:   52    charge:    0.4006    magn:    0.0000    constr:    0.0000
     atom:   53    charge:    0.4030    magn:    0.0000    constr:    0.0000
     atom:   54    charge:    0.4131    magn:    0.0000    constr:    0.0000

     total cpu time spent up to now is     2732.5 secs

     End of self-consistent calculation

 ------ SPIN UP ------------


          k = 0.0000 0.0000 0.0000 ( 34665 PWs)   bands (ev):

   -57.6970 -57.6621 -57.3156 -57.2793 -57.2298 -57.1079 -57.0715 -57.0706
   -57.0485 -57.0358 -56.9879 -56.9525 -56.7288 -56.6913 -56.1475 -56.1123
   -34.1331 -33.9792 -33.9507 -33.8980 -33.8678 -33.8037 -33.7432 -33.6508
   -33.6162 -33.6033 -33.5659 -33.5385 -33.5165 -33.5055 -33.4876 -33.4825
   -33.4621 -33.4521 -33.4289 -33.3969 -33.3223 -33.2901 -33.2699 -33.2606
   -33.2526 -33.2520 -33.2413 -33.2413 -33.2352 -33.2277 -33.2269 -33.2106
   -33.1782 -33.1779 -33.1728 -33.1388 -33.1162 -32.9949 -32.9766 -32.9557
   -32.9064 -32.8036 -32.5654 -32.4998 -32.4738 -32.3695 -32.2779 -32.1696
   -20.2945 -18.0105 -17.8395 -17.5550 -17.4598 -17.3706 -17.2497 -17.0756
   -17.0645 -16.9724 -16.9369 -16.8824 -16.7819 -16.7755 -16.7271 -16.7055
   -16.7015 -16.6604 -16.6093 -16.6023 -16.5341 -16.4135 -16.4010 -16.3963
   -16.3192 -16.2659 -16.1927 -16.1656 -16.1481 -15.9777 -15.9283 -14.7319
   -14.6482 -11.4954  -7.2323  -5.4696  -5.3935  -5.3123  -5.2811  -5.2031
    -5.1437  -5.1246  -4.8373  -4.8177  -4.4701  -4.4408  -4.3580  -4.3534
    -4.3196  -4.2307  -4.0879  -4.0589  -4.0534  -4.0159  -3.9972  -3.9892
    -3.9588  -3.9500  -3.9491  -3.8381  -3.7873  -3.7636  -3.7347  -3.7167
    -3.6308  -3.6151  -3.5850  -3.5757  -3.5180  -3.5059  -3.4066  -3.3915
    -3.3704  -3.2671  -3.2344  -3.1858  -3.0117  -2.9340  -2.8770  -2.8299
    -2.6927  -2.6051  -2.5880  -2.5782  -2.5730  -2.5665  -2.4304  -2.4124
    -2.3341  -2.2672  -2.2451  -2.2028  -2.1985  -2.1658  -2.1366  -2.0909
    -2.0459  -2.0261  -2.0181  -1.8837  -1.8644  -1.7622  -1.7340  -1.6224
    -1.5410  -1.5394  -1.4884  -1.4787  -1.4612  -1.4215  -1.3219  -1.3075
    -1.3005  -1.2779  -1.2408  -1.1337  -1.0847  -1.0816  -1.0653  -1.0181
    -0.9525  -0.9137  -0.8187  -0.7632  -0.6085  -0.5855  -0.5673  -0.4773
    -0.3744  -0.2403  -0.0829  -0.0245   0.1332   0.2501   0.2638   1.6445
     1.6770   1.9876   2.0039   2.0676   2.0976   2.2069   2.2461   2.2892
     2.4322   2.4994   2.5279   2.5326   2.5439   2.6331   2.6511   2.6593
     2.7174   2.8016   2.8292   2.8411   2.9131   3.0020   3.0355   3.1017
     3.1072   3.1165   3.1631   3.2041   3.2104   3.2284   3.2419   3.2535
     3.2625   3.2910   3.3987   3.4335   3.4588   3.4684   3.5303   3.5878
     3.6552   3.6970   3.8100   3.9828   4.0181   4.0937   4.1818   4.3225
     4.3407   4.3937   4.5882   4.6013   4.8134   4.8408   5.0890   5.1690
     5.2479   5.3325   5.4796   5.5194   5.5266   5.5954   5.6796   5.7142
     5.8018   5.8674   5.8785   5.8885   5.9569   6.0398   6.0499   6.0737
     6.1464   6.2311   6.2458   6.2993   6.3801   6.5840   6.6381   6.7575
     6.8431   7.0107   7.0414   7.1591   7.3043   7.5797   7.9132   8.2552
     8.3510   8.6782   8.7964   8.8717   8.9400   9.0086   9.1761   9.2569
     9.3538   9.3818   9.5321

          k = 0.0000 0.0280 0.0000 ( 34717 PWs)   bands (ev):

   -57.6947 -57.6644 -57.3132 -57.2817 -57.2294 -57.1056 -57.0735 -57.0685
   -57.0490 -57.0382 -56.9856 -56.9549 -56.7263 -56.6938 -56.1452 -56.1146
   -34.1077 -33.9772 -33.9526 -33.8918 -33.8419 -33.8102 -33.7702 -33.6281
   -33.6093 -33.5783 -33.5405 -33.5356 -33.5184 -33.4985 -33.4899 -33.4821
   -33.4691 -33.4593 -33.4269 -33.3900 -33.3162 -33.2883 -33.2836 -33.2621
   -33.2568 -33.2501 -33.2482 -33.2377 -33.2361 -33.2343 -33.2340 -33.2158
   -33.2007 -33.1831 -33.1750 -33.1427 -33.1395 -32.9910 -32.9752 -32.9570
   -32.9115 -32.8316 -32.5397 -32.4981 -32.4756 -32.3634 -32.2841 -32.1971
   -20.2944 -17.9487 -17.7818 -17.5020 -17.4076 -17.3269 -17.2230 -17.0894
   -17.0342 -16.9965 -16.9909 -16.8841 -16.8174 -16.7594 -16.7051 -16.6874
   -16.6739 -16.6629 -16.6546 -16.6400 -16.5931 -16.4373 -16.3824 -16.3664
   -16.3459 -16.2954 -16.2098 -16.1722 -16.1518 -16.0085 -15.9654 -14.7420
   -14.6716 -11.4950  -7.2319  -5.4341  -5.3125  -5.2869  -5.2503  -5.1284
    -5.0665  -5.0453  -4.7617  -4.7024  -4.4335  -4.3987  -4.3922  -4.3099
    -4.2993  -4.1581  -4.1220  -4.1119  -4.0897  -4.0686  -4.0306  -4.0284
    -3.9640  -3.9594  -3.9479  -3.8899  -3.8513  -3.8448  -3.8359  -3.7644
    -3.7197  -3.7042  -3.6639  -3.6141  -3.5734  -3.5551  -3.4280  -3.3553
    -3.3090  -3.2331  -3.2006  -3.1015  -2.9327  -2.8695  -2.7428  -2.7226
    -2.6119  -2.5983  -2.5233  -2.5080  -2.4760  -2.4383  -2.4103  -2.4063
    -2.3846  -2.3598  -2.2863  -2.2748  -2.1664  -2.1406  -2.1344  -2.0923
    -2.0202  -1.9960  -1.9522  -1.8749  -1.8088  -1.7667  -1.7053  -1.6802
    -1.6408  -1.6235  -1.5617  -1.5238  -1.4797  -1.4363  -1.4338  -1.3942
    -1.3530  -1.2695  -1.2162  -1.2119  -1.1576  -1.0887  -1.0695  -1.0203
    -1.0075  -0.9026  -0.8660  -0.7890  -0.7593  -0.7046  -0.6062  -0.5891
    -0.3927  -0.2684  -0.0897  -0.0787   0.1481   0.2037   0.2303   1.7308
     1.7767   1.9877   2.0672   2.1328   2.1535   2.2207   2.2761   2.3151
     2.4266   2.4633   2.5009   2.5375   2.5880   2.6050   2.6325   2.6938
     2.7347   2.7727   2.7990   2.9145   2.9246   2.9535   2.9781   3.0120
     3.1133   3.1189   3.1366   3.1770   3.1945   3.2074   3.2603   3.3063
     3.3373   3.3727   3.4091   3.4754   3.5086   3.5538   3.5637   3.6509
     3.6668   3.6876   3.7736   3.9617   4.0360   4.1158   4.1929   4.2883
     4.3251   4.3989   4.5428   4.6907   4.8671   4.9273   5.0929   5.2605
     5.3063   5.3370   5.5392   5.5685   5.6056   5.6239   5.6880   5.7219
     5.7863   5.7945   5.8536   5.8799   5.9011   5.9496   6.0707   6.1247
     6.1513   6.1595   6.1768   6.2088   6.2772   6.5607   6.6046   6.6959
     6.8483   6.9503   6.9817   7.0820   7.2327   7.5874   7.9232   8.0201
     8.0621   8.4579   8.5641   8.8445   8.9082   8.9979   9.0905   9.1330
     9.2768   9.4351   9.5078

          k = 0.0000 0.0560 0.0000 ( 34721 PWs)   bands (ev):

   -57.6883 -57.6708 -57.3066 -57.2883 -57.2286 -57.0995 -57.0796 -57.0621
   -57.0498 -57.0446 -56.9791 -56.9614 -56.7197 -56.7005 -56.1388 -56.1211
   -34.0380 -33.9719 -33.9576 -33.8748 -33.8432 -33.8276 -33.7708 -33.5938
   -33.5704 -33.5697 -33.5326 -33.5252 -33.5044 -33.5019 -33.4739 -33.4704
   -33.4536 -33.4240 -33.4167 -33.3706 -33.3138 -33.3111 -33.3109 -33.2997
   -33.2840 -33.2743 -33.2658 -33.2615 -33.2515 -33.2442 -33.2323 -33.2302
   -33.2080 -33.1961 -33.1685 -33.1631 -33.1245 -32.9859 -32.9716 -32.9604
   -32.9244 -32.9013 -32.4934 -32.4804 -32.4690 -32.3469 -32.3010 -32.2712
   -20.2941 -17.7776 -17.6232 -17.3706 -17.2738 -17.2581 -17.2169 -17.1651
   -17.1341 -16.9604 -16.9514 -16.9168 -16.8718 -16.8175 -16.7862 -16.7237
   -16.7141 -16.6819 -16.6229 -16.5950 -16.5381 -16.5027 -16.4207 -16.3761
   -16.3606 -16.3000 -16.2389 -16.1932 -16.1553 -16.1092 -16.0382 -14.7602
   -14.7222 -11.4943  -7.2310  -5.4007  -5.2981  -5.0746  -5.0360  -4.9222
    -4.8565  -4.8224  -4.5600  -4.5036  -4.4710  -4.4158  -4.4076  -4.3645
    -4.3294  -4.2581  -4.2330  -4.2099  -4.1943  -4.1847  -4.1549  -4.0737
    -4.0558  -4.0040  -3.9854  -3.9668  -3.9287  -3.8892  -3.8545  -3.8158
    -3.7952  -3.7294  -3.6338  -3.5840  -3.4317  -3.4254  -3.3311  -3.2664
    -3.2369  -3.2102  -3.1905  -3.0802  -2.8901  -2.8416  -2.8354  -2.7968
    -2.7200  -2.6665  -2.5458  -2.4717  -2.4414  -2.3206  -2.3143  -2.3093
    -2.3016  -2.2474  -2.2052  -2.1774  -2.1461  -2.1157  -2.0300  -2.0083
    -1.9596  -1.9458  -1.9154  -1.9032  -1.8818  -1.8477  -1.8149  -1.7810
    -1.7435  -1.6920  -1.6232  -1.5401  -1.5253  -1.5078  -1.4537  -1.4181
    -1.3788  -1.3629  -1.3483  -1.2887  -1.2374  -1.2153  -1.1547  -1.1022
    -1.0823  -1.0219  -0.9219  -0.8894  -0.8489  -0.7832  -0.7613  -0.6583
    -0.5852  -0.4614  -0.2401   0.0930   0.1453   0.1804   0.1870   1.8664
     2.0264   2.0998   2.1109   2.2118   2.2365   2.2712   2.3685   2.3911
     2.3976   2.4132   2.4363   2.4779   2.5049   2.5401   2.6762   2.6972
     2.7359   2.7770   2.8320   2.9055   2.9174   2.9400   2.9735   2.9752
     3.0170   3.1004   3.1395   3.1589   3.2520   3.2636   3.2881   3.3311
     3.3701   3.3882   3.4423   3.5391   3.5452   3.6383   3.6787   3.7288
     3.7619   3.8249   3.8597   3.8917   3.9334   4.1322   4.1435   4.1601
     4.3282   4.3773   4.5668   4.9077   5.0176   5.0631   5.1762   5.3800
     5.3840   5.4801   5.5200   5.5513   5.6502   5.7246   5.7257   5.7351
     5.7810   5.7892   5.8008   5.8576   5.8869   5.9465   5.9797   5.9917
     6.0031   6.0564   6.1569   6.1727   6.3068   6.3753   6.4116   6.6167
     6.6630   6.7826   6.8712   7.0438   7.2156   7.3355   7.4437   7.7339
     8.0839   8.2093   8.3457   8.6156   8.8966   8.9922   9.3099   9.3291
     9.4298   9.4407   9.5724

          k = 0.0000-0.0840 0.0000 ( 34678 PWs)   bands (ev):

   -57.6797 -57.6795 -57.2991 -57.2958 -57.2281 -57.0940 -57.0851 -57.0534
   -57.0533 -57.0503 -56.9708 -56.9697 -56.7126 -56.7075 -56.1300 -56.1299
   -33.9648 -33.9646 -33.9414 -33.9413 -33.8513 -33.8512 -33.6840 -33.6600
   -33.5639 -33.5604 -33.5261 -33.5159 -33.5116 -33.4741 -33.4507 -33.4218
   -33.4121 -33.4056 -33.3733 -33.3731 -33.3603 -33.3452 -33.3393 -33.3220
   -33.3207 -33.2829 -33.2762 -33.2741 -33.2672 -33.2649 -33.2308 -33.2290
   -33.2135 -33.2116 -33.1616 -33.1608 -33.0474 -33.0265 -32.9685 -32.9632
   -32.9383 -32.9353 -32.4868 -32.4868 -32.3710 -32.3710 -32.3239 -32.3239
   -20.2940 -17.5669 -17.5034 -17.4085 -17.3882 -17.2273 -17.1732 -17.0641
   -17.0598 -17.0139 -17.0011 -16.9874 -16.8698 -16.8378 -16.8378 -16.7990
   -16.7924 -16.5943 -16.5923 -16.5238 -16.5209 -16.4866 -16.4852 -16.4029
   -16.4007 -16.2611 -16.2590 -16.1993 -16.1954 -16.1303 -16.1006 -14.7589
   -14.7588 -11.4939  -7.2305  -5.3920  -5.3041  -4.7976  -4.7315  -4.7304
    -4.6539  -4.6402  -4.6356  -4.6000  -4.5714  -4.5082  -4.4999  -4.3986
    -4.3713  -4.3375  -4.3355  -4.3068  -4.2937  -4.2784  -4.2731  -4.0528
    -4.0311  -4.0217  -4.0087  -3.9906  -3.9407  -3.8079  -3.7917  -3.7859
    -3.7149  -3.6926  -3.6379  -3.5049  -3.4725  -3.3379  -3.3246  -3.2414
    -3.1367  -3.1145  -3.0426  -3.0175  -2.9612  -2.9233  -2.8024  -2.7865
    -2.6961  -2.6917  -2.5751  -2.5374  -2.5112  -2.4932  -2.4763  -2.4455
    -2.4368  -2.4160  -2.3287  -2.2430  -2.0275  -2.0054  -1.9667  -1.9403
    -1.9255  -1.8269  -1.8208  -1.8073  -1.7799  -1.7429  -1.7291  -1.6978
    -1.6634  -1.6385  -1.6120  -1.5564  -1.5136  -1.4858  -1.4794  -1.4511
    -1.4234  -1.4156  -1.4082  -1.3801  -1.3572  -1.3245  -1.2204  -1.1862
    -1.0999  -1.0713  -1.0101  -0.9761  -0.9689  -0.9581  -0.9422  -0.5222
    -0.5173  -0.4550  -0.4409   0.1453   0.1454   0.1880   0.1898   2.0409
     2.0441   2.2205   2.2217   2.2226   2.2388   2.2869   2.3418   2.3489
     2.3489   2.3745   2.3852   2.5298   2.5557   2.5567   2.6031   2.6663
     2.7170   2.7389   2.7519   2.8936   2.9245   2.9917   2.9993   3.0591
     3.0603   3.1039   3.1146   3.1823   3.2203   3.2352   3.2480   3.4057
     3.4280   3.4390   3.4417   3.4747   3.4857   3.7269   3.7676   3.8059
     3.8095   3.8339   3.9108   3.9332   3.9705   4.0753   4.0776   4.1276
     4.1283   4.4194   4.6753   4.9623   5.0026   5.2610   5.3325   5.4592
     5.4909   5.5101   5.5101   5.5700   5.6061   5.6486   5.6673   5.6733
     5.8009   5.8062   5.8282   5.8538   5.8638   5.8686   5.8853   5.9755
     6.0219   6.0610   6.0737   6.1607   6.1981   6.4062   6.4675   6.5662
     6.6056   6.7457   6.7746   6.9812   7.0326   7.1025   7.3286   7.7009
     7.8930   8.1676   8.4144   8.7849   8.8359   8.8755   9.1396   9.6926
     9.7030   9.7489   9.7929

          k = 0.0253 0.0000 0.0000 ( 34707 PWs)   bands (ev):

   -57.6970 -57.6621 -57.3156 -57.2793 -57.2298 -57.1078 -57.0714 -57.0707
   -57.0485 -57.0358 -56.9880 -56.9525 -56.7288 -56.6913 -56.1475 -56.1123
   -34.1334 -33.9792 -33.9507 -33.8973 -33.8679 -33.8038 -33.7433 -33.6515
   -33.6161 -33.6049 -33.5661 -33.5351 -33.5302 -33.5064 -33.4826 -33.4727
   -33.4609 -33.4521 -33.4289 -33.3900 -33.3222 -33.2902 -33.2696 -33.2606
   -33.2562 -33.2552 -33.2425 -33.2394 -33.2376 -33.2278 -33.2269 -33.2104
   -33.1781 -33.1779 -33.1732 -33.1388 -33.1163 -32.9949 -32.9790 -32.9548
   -32.9064 -32.8037 -32.5653 -32.5009 -32.4733 -32.3695 -32.2779 -32.1697
   -20.2943 -17.9806 -17.7995 -17.5127 -17.4309 -17.3540 -17.2562 -17.1426
   -17.0902 -16.9732 -16.9365 -16.8692 -16.8170 -16.8035 -16.7873 -16.7784
   -16.7277 -16.6909 -16.5544 -16.5318 -16.4520 -16.4504 -16.4019 -16.3682
   -16.3368 -16.3105 -16.1813 -16.1634 -16.1494 -15.9775 -15.9281 -14.7307
   -14.6481 -11.4942  -7.2296  -5.4642  -5.3033  -5.2803  -5.2619  -5.0954
    -5.0424  -5.0141  -4.8319  -4.8130  -4.6157  -4.4671  -4.4337  -4.3294
    -4.3093  -4.2993  -4.2455  -4.0968  -4.0346  -4.0306  -3.9943  -3.9430
    -3.9358  -3.9078  -3.8287  -3.7988  -3.7498  -3.7180  -3.6929  -3.6906
    -3.6184  -3.5959  -3.5680  -3.5605  -3.5146  -3.4453  -3.3290  -3.3074
    -3.2489  -3.2315  -3.1786  -3.1046  -3.0319  -2.9744  -2.9213  -2.8941
    -2.7472  -2.6724  -2.6301  -2.5982  -2.5774  -2.5278  -2.5177  -2.5016
    -2.4299  -2.3335  -2.3204  -2.2346  -2.2188  -2.1800  -2.1580  -2.0684
    -2.0072  -1.9973  -1.9613  -1.8799  -1.8495  -1.7514  -1.7378  -1.6489
    -1.5837  -1.5801  -1.5360  -1.4615  -1.4558  -1.3646  -1.3557  -1.3428
    -1.3351  -1.2882  -1.2721  -1.1878  -1.1253  -1.1153  -1.0777  -1.0463
    -0.9710  -0.9130  -0.8278  -0.7843  -0.7723  -0.6491  -0.6406  -0.5488
    -0.4190  -0.2347  -0.1137  -0.0519   0.1191   0.2073   0.2082   1.6639
     1.7269   2.0031   2.0737   2.1507   2.2256   2.2402   2.2719   2.3802
     2.3875   2.4598   2.5067   2.5245   2.5431   2.5803   2.5995   2.6383
     2.6578   2.7365   2.7597   2.8692   2.8862   2.9721   3.0329   3.1064
     3.1231   3.1463   3.1646   3.2054   3.2107   3.2559   3.2714   3.3416
     3.3794   3.4041   3.4530   3.4750   3.5376   3.5625   3.5941   3.6018
     3.6662   3.7321   3.7494   3.9158   4.0039   4.0980   4.1760   4.2786
     4.3763   4.3969   4.5551   4.6774   4.8655   4.9142   4.9284   5.0716
     5.1235   5.1480   5.1909   5.3529   5.5685   5.6213   5.6952   5.8683
     5.8848   5.9271   5.9611   6.0321   6.0825   6.1155   6.1628   6.2116
     6.2210   6.2540   6.2610   6.3100   6.4505   6.5267   6.6427   6.6676
     6.8224   6.8700   7.0361   7.1466   7.3041   7.7491   7.8548   8.0885
     8.3365   8.3697   8.4330   8.6852   8.8474   8.9668   9.1505   9.3487
     9.3646   9.4742   9.4963

          k = 0.0253 0.0280 0.0000 ( 34687 PWs)   bands (ev):

   -57.6947 -57.6644 -57.3132 -57.2817 -57.2294 -57.1055 -57.0735 -57.0686
   -57.0490 -57.0382 -56.9856 -56.9549 -56.7263 -56.6938 -56.1452 -56.1146
   -34.1080 -33.9772 -33.9526 -33.8911 -33.8420 -33.8101 -33.7703 -33.6288
   -33.6094 -33.5799 -33.5407 -33.5323 -33.5197 -33.5139 -33.4902 -33.4698
   -33.4638 -33.4581 -33.4269 -33.3832 -33.3161 -33.2885 -33.2814 -33.2621
   -33.2569 -33.2520 -33.2502 -33.2457 -33.2357 -33.2343 -33.2331 -33.2146
   -33.2009 -33.1831 -33.1751 -33.1426 -33.1395 -32.9910 -32.9773 -32.9563
   -32.9114 -32.8316 -32.5396 -32.4990 -32.4751 -32.3634 -32.2841 -32.1970
   -20.2942 -17.9204 -17.7428 -17.4615 -17.3811 -17.3069 -17.2298 -17.1263
   -17.0957 -17.0040 -16.9611 -16.8564 -16.8282 -16.8033 -16.7818 -16.7680
   -16.7109 -16.6978 -16.5979 -16.5774 -16.5043 -16.4729 -16.3794 -16.3629
   -16.3541 -16.3274 -16.1984 -16.1717 -16.1515 -16.0089 -15.9651 -14.7410
   -14.6716 -11.4938  -7.2291  -5.4373  -5.2861  -5.2386  -5.1795  -5.0190
    -4.9641  -4.9339  -4.7567  -4.6994  -4.5600  -4.4011  -4.3694  -4.3436
    -4.2575  -4.2507  -4.1845  -4.1163  -4.0845  -4.0624  -4.0315  -4.0183
    -3.9741  -3.9404  -3.9107  -3.8659  -3.8200  -3.8080  -3.7822  -3.7176
    -3.6952  -3.6621  -3.6132  -3.6031  -3.5389  -3.5237  -3.3503  -3.2918
    -3.2496  -3.2153  -3.1474  -3.0710  -2.9800  -2.9478  -2.7817  -2.7035
    -2.6781  -2.6340  -2.6084  -2.5326  -2.5012  -2.4522  -2.4457  -2.4187
    -2.4030  -2.3844  -2.3380  -2.3002  -2.2137  -2.1760  -2.1139  -2.0983
    -2.0648  -1.9935  -1.9469  -1.8898  -1.8632  -1.8246  -1.7599  -1.6723
    -1.6431  -1.6146  -1.5865  -1.5601  -1.5070  -1.4599  -1.4380  -1.3985
    -1.3426  -1.3259  -1.2674  -1.2532  -1.2057  -1.1078  -1.0959  -1.0586
    -1.0093  -0.8853  -0.8374  -0.8331  -0.7625  -0.7371  -0.6941  -0.6565
    -0.4300  -0.2793  -0.1320  -0.0837   0.1513   0.1806   0.1908   1.7229
     1.8470   2.0184   2.1013   2.1980   2.2470   2.2841   2.3185   2.3992
     2.4197   2.4694   2.4912   2.5267   2.5348   2.5547   2.5928   2.6763
     2.7074   2.7296   2.7894   2.8090   2.9326   2.9891   3.0120   3.0372
     3.1086   3.1367   3.1480   3.1749   3.2107   3.2445   3.3463   3.3756
     3.4081   3.4385   3.4648   3.5123   3.5547   3.5710   3.6384   3.6631
     3.6755   3.7104   3.7520   3.8967   3.9958   4.1400   4.1875   4.2550
     4.3086   4.4545   4.5115   4.7716   4.9313   4.9548   4.9957   5.0800
     5.1621   5.1775   5.2257   5.3891   5.6443   5.6823   5.7327   5.7791
     5.8564   5.8671   5.8736   6.0097   6.0731   6.0874   6.1216   6.1469
     6.1990   6.2107   6.2212   6.2363   6.4306   6.5314   6.6134   6.6620
     6.7875   6.8676   6.9652   7.1506   7.2271   7.5142   7.9310   8.0323
     8.0955   8.2496   8.4483   8.5788   8.6514   8.7741   8.9494   9.2640
     9.3607   9.4643   9.5187

          k = 0.0253 0.0560 0.0000 ( 34699 PWs)   bands (ev):

   -57.6883 -57.6708 -57.3066 -57.2883 -57.2286 -57.0995 -57.0796 -57.0622
   -57.0498 -57.0446 -56.9791 -56.9614 -56.7197 -56.7005 -56.1388 -56.1211
   -34.0382 -33.9719 -33.9576 -33.8742 -33.8433 -33.8274 -33.7709 -33.5938
   -33.5709 -33.5697 -33.5327 -33.5232 -33.5066 -33.5054 -33.4739 -33.4708
   -33.4526 -33.4241 -33.4114 -33.3651 -33.3142 -33.3117 -33.3066 -33.2995
   -33.2842 -33.2747 -33.2658 -33.2603 -33.2516 -33.2464 -33.2363 -33.2325
   -33.2082 -33.1968 -33.1685 -33.1629 -33.1243 -32.9860 -32.9731 -32.9603
   -32.9244 -32.9012 -32.4940 -32.4801 -32.4689 -32.3469 -32.3011 -32.2712
   -20.2939 -17.7541 -17.5875 -17.3413 -17.2621 -17.2425 -17.1914 -17.1659
   -17.1372 -16.9939 -16.9680 -16.8785 -16.8741 -16.8270 -16.7942 -16.7705
   -16.7459 -16.6682 -16.6207 -16.6025 -16.5773 -16.5281 -16.4247 -16.4100
   -16.3539 -16.2829 -16.2319 -16.1925 -16.1551 -16.1100 -16.0376 -14.7595
   -14.7224 -11.4930  -7.2281  -5.4081  -5.2975  -5.0295  -4.9468  -4.8107
    -4.7548  -4.7124  -4.5562  -4.4960  -4.4884  -4.4118  -4.3921  -4.3372
    -4.2686  -4.2294  -4.2136  -4.1900  -4.1457  -4.1391  -4.1044  -4.0598
    -4.0304  -4.0106  -3.9912  -3.9334  -3.9224  -3.8730  -3.8572  -3.8194
    -3.7723  -3.7138  -3.6526  -3.5697  -3.4713  -3.3943  -3.3212  -3.2800
    -3.2351  -3.2213  -3.1810  -3.0101  -2.9346  -2.8614  -2.8274  -2.7775
    -2.7556  -2.6440  -2.5906  -2.5078  -2.4867  -2.4356  -2.3905  -2.3638
    -2.3408  -2.3224  -2.2862  -2.2613  -2.1878  -2.1391  -2.1257  -2.0381
    -2.0094  -2.0074  -1.9448  -1.9363  -1.9010  -1.8593  -1.8323  -1.8100
    -1.7432  -1.7017  -1.6765  -1.6354  -1.5711  -1.5358  -1.4924  -1.4732
    -1.4291  -1.3712  -1.3365  -1.3010  -1.2214  -1.2035  -1.1303  -1.1037
    -1.0596  -1.0111  -0.9097  -0.8733  -0.8190  -0.7977  -0.7419  -0.6788
    -0.6047  -0.4632  -0.2539   0.0939   0.1305   0.1576   0.1902   1.8638
     2.0500   2.1346   2.1809   2.2337   2.2741   2.3079   2.3498   2.3868
     2.4283   2.4640   2.4831   2.5103   2.5223   2.5857   2.6959   2.7237
     2.7411   2.7784   2.8260   2.8420   2.9060   2.9546   2.9768   2.9883
     3.0294   3.0358   3.1585   3.2096   3.2886   3.3316   3.3426   3.3853
     3.4096   3.4410   3.4629   3.5428   3.5617   3.6329   3.6581   3.7363
     3.7948   3.8217   3.8634   3.9025   3.9067   4.0739   4.1187   4.1673
     4.3450   4.3862   4.6183   4.9666   5.0145   5.1279   5.1437   5.1600
     5.2642   5.2913   5.3158   5.4390   5.5121   5.5633   5.6391   5.7604
     5.8254   5.8522   5.8937   5.9357   5.9623   6.0039   6.0497   6.0622
     6.1381   6.1586   6.2243   6.3297   6.3813   6.4052   6.4826   6.6448
     6.6926   6.7983   6.8495   7.0376   7.1568   7.3654   7.4865   7.5904
     7.9783   8.1769   8.3508   8.5218   8.6460   8.8563   9.0482   9.1157
     9.1806   9.4998   9.6295

          k = 0.0253-0.0840 0.0000 ( 34722 PWs)   bands (ev):

   -57.6797 -57.6795 -57.2991 -57.2958 -57.2281 -57.0940 -57.0851 -57.0535
   -57.0534 -57.0503 -56.9708 -56.9697 -56.7126 -56.7076 -56.1300 -56.1299
   -33.9648 -33.9646 -33.9417 -33.9415 -33.8510 -33.8509 -33.6841 -33.6601
   -33.5639 -33.5604 -33.5266 -33.5157 -33.5114 -33.4741 -33.4499 -33.4220
   -33.4141 -33.4081 -33.3742 -33.3741 -33.3610 -33.3383 -33.3324 -33.3206
   -33.3192 -33.2827 -33.2760 -33.2743 -33.2674 -33.2635 -33.2343 -33.2329
   -33.2151 -33.2133 -33.1616 -33.1608 -33.0473 -33.0265 -32.9691 -32.9640
[...]
    -1.2958  -1.2648  -1.2523  -1.1879  -1.1518  -1.0291  -1.0179  -1.0097
    -0.9867  -0.9467  -0.9027  -0.8360  -0.7542  -0.6988  -0.6448  -0.5919
    -0.5878  -0.5326  -0.5159   0.0681   0.0682   0.2128   0.2145   2.1555
     2.1564   2.2029   2.2048   2.2406   2.2416   2.2687   2.3002   2.4900
     2.4955   2.5276   2.5575   2.6111   2.6189   2.6814   2.6834   2.6929
     2.6941   2.8464   2.9120   2.9849   3.0000   3.0363   3.0438   3.1011
     3.2220   3.2514   3.2744   3.3351   3.3757   3.3924   3.4469   3.4949
     3.5023   3.5246   3.5511   3.5830   3.6057   3.6819   3.7020   3.7470
     3.8370   3.8930   3.9092   3.9548   3.9551   4.0982   4.1050   4.1138
     4.1142   4.6159   4.7854   4.7890   4.8050   4.8729   4.9226   4.9276
     4.9442   4.9868   5.0294   5.2509   5.3421   5.3608   5.3715   5.7314
     5.8015   5.9125   5.9294   5.9815   6.0445   6.1468   6.3052   6.3514
     6.3674   6.3767   6.4126   6.5758   6.6270   6.6670   6.6671   6.7051
     6.7626   6.8462   6.8472   6.8544   6.8553   7.3593   7.4057   7.5225
     7.6632   7.8300   8.0102   8.1717   8.2240   8.3214   8.3831   8.8265
     8.9167   9.0448   9.0817

          k =-0.0253 0.0280 0.0000 ( 34687 PWs)   bands (ev):

   -57.6948 -57.6645 -57.3131 -57.2816 -57.2293 -57.1055 -57.0735 -57.0685
   -57.0489 -57.0382 -56.9855 -56.9548 -56.7263 -56.6938 -56.1454 -56.1148
   -34.1081 -33.9773 -33.9526 -33.8912 -33.8420 -33.8102 -33.7703 -33.6287
   -33.6093 -33.5799 -33.5407 -33.5323 -33.5197 -33.5139 -33.4901 -33.4698
   -33.4637 -33.4580 -33.4269 -33.3832 -33.3160 -33.2885 -33.2814 -33.2621
   -33.2566 -33.2520 -33.2504 -33.2456 -33.2357 -33.2343 -33.2331 -33.2146
   -33.2008 -33.1830 -33.1750 -33.1426 -33.1394 -32.9910 -32.9773 -32.9563
   -32.9114 -32.8315 -32.5398 -32.4992 -32.4752 -32.3636 -32.2843 -32.1972
   -20.2942 -17.9204 -17.7428 -17.4614 -17.3812 -17.3070 -17.2298 -17.1263
   -17.0958 -17.0037 -16.9611 -16.8568 -16.8282 -16.8043 -16.7814 -16.7679
   -16.7108 -16.6980 -16.5977 -16.5770 -16.5044 -16.4729 -16.3794 -16.3630
   -16.3541 -16.3274 -16.1984 -16.1717 -16.1515 -16.0089 -15.9651 -14.7406
   -14.6713 -11.4938  -7.2290  -5.4372  -5.2861  -5.2384  -5.1795  -5.0194
    -4.9641  -4.9342  -4.7568  -4.7002  -4.5598  -4.4008  -4.3694  -4.3439
    -4.2588  -4.2475  -4.1858  -4.1147  -4.0889  -4.0620  -4.0341  -4.0183
    -3.9729  -3.9387  -3.9121  -3.8669  -3.8201  -3.8095  -3.7823  -3.7177
    -3.6981  -3.6606  -3.6129  -3.6023  -3.5373  -3.5228  -3.3543  -3.2858
    -3.2500  -3.2166  -3.1457  -3.0690  -2.9812  -2.9439  -2.7806  -2.7027
    -2.6775  -2.6346  -2.6082  -2.5301  -2.5021  -2.4495  -2.4453  -2.4207
    -2.4039  -2.3826  -2.3375  -2.2992  -2.2157  -2.1733  -2.1196  -2.1016
    -2.0605  -1.9898  -1.9482  -1.8928  -1.8618  -1.8252  -1.7407  -1.7057
    -1.6505  -1.5970  -1.5908  -1.5577  -1.5135  -1.4683  -1.4338  -1.3911
    -1.3427  -1.3306  -1.2786  -1.2400  -1.1951  -1.1093  -1.0965  -1.0568
    -1.0096  -0.8906  -0.8385  -0.8289  -0.7533  -0.7368  -0.7064  -0.6574
    -0.4310  -0.2793  -0.1325  -0.0835   0.1515   0.1809   0.1911   1.7228
     1.8470   2.0183   2.1028   2.1978   2.2484   2.2873   2.3213   2.4063
     2.4176   2.4523   2.4882   2.5321   2.5347   2.5497   2.6102   2.6708
     2.7076   2.7412   2.7779   2.8145   2.9412   2.9884   3.0065   3.0295
     3.1096   3.1382   3.1484   3.1765   3.2109   3.2417   3.3497   3.3747
     3.4059   3.4221   3.4664   3.5087   3.5637   3.5729   3.6393   3.6630
     3.6752   3.7114   3.7514   3.8956   3.9945   4.1418   4.1875   4.2555
     4.3087   4.4548   4.5117   4.7726   4.9394   4.9542   4.9864   5.0799
     5.1610   5.1771   5.2255   5.3881   5.6461   5.6756   5.7295   5.7889
     5.8546   5.8669   5.8745   6.0087   6.0757   6.0805   6.1262   6.1477
     6.1990   6.2094   6.2173   6.2453   6.4305   6.5289   6.6134   6.6676
     6.7912   6.8612   6.9651   7.1509   7.2274   7.5037   7.9323   8.0295
     8.0955   8.2575   8.4435   8.5819   8.6495   8.7858   8.9494   9.2722
     9.3580   9.4669   9.5071

          k =-0.0253 0.0560 0.0000 ( 34699 PWs)   bands (ev):

   -57.6884 -57.6709 -57.3066 -57.2882 -57.2285 -57.0994 -57.0796 -57.0622
   -57.0498 -57.0446 -56.9791 -56.9613 -56.7197 -56.7004 -56.1389 -56.1213
   -34.0383 -33.9720 -33.9577 -33.8743 -33.8434 -33.8275 -33.7709 -33.5937
   -33.5709 -33.5697 -33.5327 -33.5231 -33.5066 -33.5054 -33.4739 -33.4707
   -33.4526 -33.4240 -33.4112 -33.3651 -33.3142 -33.3117 -33.3065 -33.2995
   -33.2842 -33.2747 -33.2658 -33.2603 -33.2516 -33.2465 -33.2363 -33.2325
   -33.2080 -33.1968 -33.1685 -33.1629 -33.1243 -32.9859 -32.9729 -32.9603
   -32.9244 -32.9012 -32.4942 -32.4803 -32.4690 -32.3471 -32.3012 -32.2713
   -20.2939 -17.7541 -17.5874 -17.3412 -17.2621 -17.2426 -17.1916 -17.1658
   -17.1370 -16.9938 -16.9680 -16.8786 -16.8743 -16.8276 -16.7946 -16.7705
   -16.7456 -16.6680 -16.6206 -16.6021 -16.5773 -16.5284 -16.4248 -16.4101
   -16.3540 -16.2829 -16.2320 -16.1925 -16.1550 -16.1100 -16.0376 -14.7592
   -14.7220 -11.4930  -7.2281  -5.4080  -5.2975  -5.0291  -4.9468  -4.8113
    -4.7549  -4.7125  -4.5562  -4.4943  -4.4889  -4.4114  -4.3924  -4.3421
    -4.2690  -4.2304  -4.2131  -4.1900  -4.1455  -4.1386  -4.1061  -4.0599
    -4.0294  -4.0080  -3.9924  -3.9345  -3.9221  -3.8711  -3.8608  -3.8200
    -3.7718  -3.7119  -3.6536  -3.5697  -3.4709  -3.3942  -3.3271  -3.2799
    -3.2358  -3.2147  -3.1749  -3.0110  -2.9322  -2.8626  -2.8242  -2.7810
    -2.7530  -2.6434  -2.5897  -2.5084  -2.4851  -2.4369  -2.3917  -2.3606
    -2.3411  -2.3219  -2.2886  -2.2638  -2.1875  -2.1390  -2.1247  -2.0351
    -2.0180  -2.0007  -1.9432  -1.9406  -1.9025  -1.8596  -1.8278  -1.8047
    -1.7410  -1.7085  -1.6701  -1.6402  -1.5775  -1.5372  -1.5027  -1.4582
    -1.4289  -1.3702  -1.3452  -1.2995  -1.2219  -1.2038  -1.1287  -1.1019
    -1.0600  -1.0122  -0.9219  -0.8744  -0.8117  -0.7978  -0.7356  -0.6784
    -0.6047  -0.4648  -0.2554   0.0942   0.1308   0.1579   0.1904   1.8636
     2.0499   2.1375   2.1808   2.2305   2.2722   2.3085   2.3356   2.3858
     2.4467   2.4612   2.4880   2.5156   2.5228   2.5857   2.6952   2.7266
     2.7470   2.7779   2.8300   2.8431   2.8953   2.9520   2.9732   2.9890
     3.0262   3.0369   3.1728   3.2103   3.2926   3.3189   3.3362   3.3730
     3.4139   3.4387   3.4622   3.5453   3.5614   3.6369   3.6596   3.7368
     3.7951   3.8191   3.8643   3.9008   3.9088   4.0747   4.1187   4.1675
     4.3448   4.3863   4.6190   4.9677   5.0216   5.1258   5.1399   5.1582
     5.2616   5.2892   5.3174   5.4306   5.5140   5.5630   5.6422   5.7648
     5.8267   5.8503   5.8973   5.9381   5.9575   5.9975   6.0536   6.0648
     6.1379   6.1572   6.2316   6.3220   6.3814   6.4111   6.4802   6.6472
     6.6977   6.7982   6.8434   7.0379   7.1492   7.3653   7.4837   7.5868
     7.9819   8.1798   8.3503   8.5220   8.6607   8.8620   9.0521   9.1169
     9.1780   9.4938   9.6247

          k =-0.0506 0.0280 0.0000 ( 34685 PWs)   bands (ev):

   -57.6948 -57.6645 -57.3131 -57.2816 -57.2293 -57.1054 -57.0735 -57.0687
   -57.0489 -57.0382 -56.9856 -56.9548 -56.7263 -56.6938 -56.1454 -56.1148
   -34.1088 -33.9773 -33.9526 -33.8898 -33.8422 -33.8101 -33.7704 -33.6302
   -33.6093 -33.5833 -33.5413 -33.5333 -33.5252 -33.5174 -33.4900 -33.4694
   -33.4557 -33.4465 -33.4269 -33.3670 -33.3158 -33.2887 -33.2770 -33.2633
   -33.2621 -33.2591 -33.2563 -33.2510 -33.2357 -33.2343 -33.2320 -33.2122
   -33.2013 -33.1833 -33.1750 -33.1424 -33.1394 -32.9910 -32.9816 -32.9549
   -32.9114 -32.8316 -32.5397 -32.5010 -32.4743 -32.3636 -32.2843 -32.1972
   -20.2938 -17.8581 -17.6492 -17.3667 -17.3392 -17.2474 -17.2222 -17.2125
   -17.1202 -17.0410 -16.9614 -16.9184 -16.8684 -16.8555 -16.8528 -16.8307
   -16.7610 -16.7429 -16.5570 -16.5258 -16.5015 -16.4359 -16.4133 -16.3739
   -16.3666 -16.3096 -16.1893 -16.1701 -16.1503 -16.0101 -15.9649 -14.7386
   -14.6713 -11.4913  -7.2233  -5.4506  -5.2847  -5.2232  -4.8903  -4.8320
    -4.7188  -4.7027  -4.6730  -4.6532  -4.6282  -4.5074  -4.4258  -4.3432
    -4.3161  -4.3002  -4.1572  -4.1246  -4.0586  -4.0246  -4.0065  -3.9910
    -3.9805  -3.9075  -3.8576  -3.8136  -3.7713  -3.7589  -3.7166  -3.6887
    -3.6535  -3.6312  -3.5808  -3.5490  -3.4432  -3.3138  -3.2791  -3.2595
    -3.2198  -3.1684  -3.0985  -3.0561  -2.9505  -2.9349  -2.8703  -2.8379
    -2.7411  -2.6900  -2.6577  -2.6480  -2.6024  -2.5884  -2.5336  -2.4929
    -2.4346  -2.3853  -2.3788  -2.3334  -2.3066  -2.2520  -2.1771  -2.1334
    -2.1114  -2.0602  -2.0246  -1.9722  -1.9379  -1.9031  -1.8574  -1.8290
    -1.7523  -1.7377  -1.7096  -1.6386  -1.5379  -1.5046  -1.4829  -1.4154
    -1.3649  -1.3456  -1.2771  -1.2591  -1.2350  -1.1445  -1.1128  -1.0109
    -0.9758  -0.8779  -0.8536  -0.8114  -0.7763  -0.7616  -0.7028  -0.6876
    -0.5105  -0.3097  -0.2573  -0.0709   0.1121   0.1415   0.1648   1.7063
     1.9071   2.0625   2.1253   2.1299   2.1748   2.2434   2.3638   2.3745
     2.4086   2.4408   2.5202   2.5700   2.5767   2.6051   2.6864   2.6991
     2.7455   2.8053   2.8356   2.9051   2.9584   2.9840   3.0438   3.0628
     3.0937   3.1630   3.1735   3.2028   3.3048   3.3590   3.3784   3.4126
     3.4481   3.4603   3.5494   3.5884   3.6064   3.6559   3.6783   3.6871
     3.7195   3.7733   3.8206   3.8718   3.9346   4.0610   4.1709   4.2842
     4.2955   4.4250   4.6244   4.6922   4.7665   4.8134   4.8579   4.9881
     5.0147   5.1293   5.2269   5.4720   5.5968   5.6430   5.7238   5.8078
     5.8636   5.8749   5.9277   5.9485   5.9827   6.0942   6.1185   6.1410
     6.2325   6.4344   6.4842   6.5428   6.5800   6.6083   6.6876   6.7416
     6.7985   6.8195   6.9760   7.1141   7.1690   7.3954   7.5705   7.7085
     8.1331   8.1653   8.2485   8.3948   8.7635   8.9690   9.0138   9.0534
     9.3737   9.4401   9.6090

          k =-0.0506 0.0560 0.0000 ( 34596 PWs)   bands (ev):

   -57.6884 -57.6709 -57.3066 -57.2882 -57.2285 -57.0993 -57.0796 -57.0623
   -57.0498 -57.0446 -56.9791 -56.9613 -56.7197 -56.7004 -56.1389 -56.1213
   -34.0388 -33.9720 -33.9577 -33.8731 -33.8436 -33.8271 -33.7710 -33.5937
   -33.5720 -33.5698 -33.5331 -33.5191 -33.5130 -33.5088 -33.4739 -33.4715
   -33.4506 -33.4240 -33.4017 -33.3515 -33.3160 -33.3150 -33.2991 -33.2969
   -33.2845 -33.2746 -33.2657 -33.2580 -33.2517 -33.2511 -33.2456 -33.2376
   -33.2081 -33.1983 -33.1684 -33.1626 -33.1239 -32.9860 -32.9758 -32.9600
   -32.9243 -32.9010 -32.4953 -32.4799 -32.4689 -32.3471 -32.3012 -32.2712
   -20.2936 -17.7036 -17.4985 -17.2889 -17.2374 -17.1954 -17.1716 -17.1596
   -17.0875 -17.0349 -17.0037 -16.9113 -16.8543 -16.8469 -16.8422 -16.8040
   -16.7742 -16.7196 -16.6603 -16.6199 -16.6103 -16.5487 -16.5105 -16.3967
   -16.3412 -16.2615 -16.2241 -16.1911 -16.1544 -16.1117 -16.0367 -14.7580
   -14.7224 -11.4904  -7.2221  -5.4234  -5.2964  -5.0196  -4.6571  -4.6151
    -4.5132  -4.4970  -4.4816  -4.4541  -4.4299  -4.3656  -4.3226  -4.2996
    -4.2240  -4.2039  -4.1443  -4.1299  -4.0804  -4.0651  -4.0441  -4.0345
    -4.0121  -3.9942  -3.9666  -3.9127  -3.8920  -3.8862  -3.8200  -3.7850
    -3.7286  -3.6581  -3.6280  -3.5210  -3.4855  -3.3714  -3.3262  -3.2594
    -3.2539  -3.2431  -3.1333  -3.0105  -2.9311  -2.9022  -2.8487  -2.8276
    -2.7543  -2.7244  -2.6826  -2.6078  -2.5898  -2.5655  -2.5267  -2.4878
    -2.4261  -2.4034  -2.3640  -2.3272  -2.3144  -2.2981  -2.2533  -2.1762
    -2.1508  -2.1193  -2.1125  -2.0753  -2.0452  -1.9999  -1.9816  -1.8997
    -1.8892  -1.8496  -1.8307  -1.7228  -1.6357  -1.6039  -1.5708  -1.4764
    -1.4068  -1.3729  -1.3053  -1.2501  -1.2044  -1.1080  -1.0722  -1.0157
    -1.0006  -0.9347  -0.8510  -0.8173  -0.7681  -0.7540  -0.6904  -0.6549
    -0.6496  -0.5154  -0.3224   0.0801   0.1143   0.1323   0.1958   1.8689
     2.0788   2.1680   2.2020   2.2233   2.2458   2.3008   2.3505   2.3956
     2.4058   2.5397   2.5726   2.5817   2.6097   2.6308   2.6859   2.7570
     2.7843   2.8067   2.8412   2.8835   2.9659   3.0069   3.0307   3.0647
     3.0997   3.1386   3.1701   3.2593   3.3379   3.3696   3.3993   3.4433
     3.4812   3.5022   3.5242   3.5450   3.6173   3.6496   3.7139   3.7464
     3.7822   3.8535   3.8825   3.9216   3.9275   3.9565   4.1139   4.1770
     4.2916   4.4754   4.7280   4.8090   4.8191   4.8985   4.9447   5.0942
     5.1677   5.2345   5.2741   5.3294   5.3745   5.4373   5.4982   5.6285
     5.7832   5.8327   5.8837   5.9542   6.0423   6.1261   6.2188   6.2610
     6.2887   6.3470   6.4185   6.4526   6.5040   6.5798   6.6507   6.7182
     6.7327   6.8265   6.8520   6.9862   7.0514   7.4126   7.4371   7.5754
     7.7445   7.9436   8.0724   8.3905   8.5740   8.6085   8.7443   9.0104
     9.2235   9.3241   9.4567

     the Fermi energy is     0.9991 ev

!    total energy              =   -3021.41977324 Ry
     Harris-Foulkes estimate   =   -3021.41977366 Ry
     estimated scf accuracy    <       0.00000050 Ry

     The total energy is the sum of the following terms:

     one-electron contribution =  -41243.26129979 Ry
     hartree contribution      =   20695.91132275 Ry
     xc contribution           =    -553.70433172 Ry
     ewald contribution        =   18079.63474670 Ry
     smearing contrib. (-TS)   =      -0.00021118 Ry

     total magnetization       =     0.00 Bohr mag/cell
     absolute magnetization    =     0.00 Bohr mag/cell

     convergence has been achieved in   9 iterations

     Forces acting on atoms (Ry/au):


     negative rho (up, down):  1.211E-02 1.210E-02
     atom    1 type  1   force =     0.00001606   -0.00035543   -0.13379503
     atom    2 type  2   force =     0.00000426    0.00003016    0.07211821
     atom    3 type  1   force =    -0.00135650    0.00030928   -0.06094780
     atom    4 type  2   force =     0.00290339    0.00048760    0.00638470
     atom    5 type  1   force =     0.00026893    0.00186261    0.00355355
     atom    6 type  2   force =     0.00006669    0.00000398   -0.00294032
     atom    7 type  1   force =    -0.00025521   -0.00085356    0.00481468
     atom    8 type  2   force =     0.00090884   -0.00023587   -0.00066188
     atom    9 type  1   force =    -0.00002743    0.00002136   -0.13354910
     atom   10 type  2   force =    -0.00006751    0.00006592    0.07130257
     atom   11 type  1   force =    -0.00131756   -0.00024054   -0.05586168
     atom   12 type  2   force =     0.00299730   -0.00006814    0.00610231
     atom   13 type  1   force =     0.00028737   -0.00149143    0.00349603
     atom   14 type  2   force =    -0.00120379   -0.00038732   -0.00291090
     atom   15 type  1   force =    -0.00050622    0.00028259    0.00442324
     atom   16 type  2   force =     0.00053041   -0.00014769   -0.00003442
     atom   17 type  2   force =    -0.00007063   -0.00007051    0.07938970
     atom   18 type  1   force =     0.00013527   -0.00017221    0.11911647
     atom   19 type  2   force =    -0.00010739   -0.00017487   -0.06669248
     atom   20 type  2   force =    -0.06322115    0.00014901   -0.03224680
     atom   21 type  2   force =     0.06319823    0.00001391   -0.03245276
     atom   22 type  1   force =     0.00072367    0.00108328    0.05976045
     atom   23 type  2   force =    -0.00017562    0.00005725   -0.00175670
     atom   24 type  2   force =    -0.00143185   -0.00000409   -0.02325733
     atom   25 type  2   force =    -0.00313483    0.00059136    0.00786923
     atom   26 type  1   force =     0.00063918    0.00029136    0.00461560
     atom   27 type  2   force =     0.00052671    0.00059895   -0.00379405
     atom   28 type  2   force =     0.00013504   -0.00008696   -0.00119308
     atom   29 type  2   force =     0.00022133   -0.00034638   -0.00058121
     atom   30 type  1   force =     0.00026970   -0.00065508    0.00382925
     atom   31 type  2   force =     0.00006533    0.00013365   -0.00260168
     atom   32 type  2   force =     0.00008050   -0.00015788   -0.00127205
     atom   33 type  2   force =    -0.00012019    0.00003704    0.07899004
     atom   34 type  1   force =     0.00006886   -0.00022009    0.11903081
     atom   35 type  2   force =    -0.00030430   -0.00005447   -0.06639247
     atom   36 type  2   force =    -0.06318180   -0.00005081   -0.03233429
     atom   37 type  2   force =     0.06332822   -0.00020085   -0.03249053
     atom   38 type  1   force =     0.00066213   -0.00098026    0.05997876
     atom   39 type  2   force =    -0.00046101    0.00010525   -0.00249986
     atom   40 type  2   force =    -0.00118882    0.00030759   -0.02216653
     atom   41 type  2   force =    -0.00317417   -0.00015008    0.00789852
     atom   42 type  1   force =     0.00051767    0.00006636    0.00374030
     atom   43 type  2   force =     0.00069483    0.00023319   -0.00297310
     atom   44 type  2   force =     0.00022032    0.00010449   -0.00115532
     atom   45 type  2   force =     0.00019593    0.00031057   -0.00061499
     atom   46 type  1   force =     0.00054286    0.00025876    0.00388552
     atom   47 type  2   force =     0.00008107   -0.00033446   -0.00122470
     atom   48 type  2   force =     0.00012669    0.00013270   -0.00092447
     atom   49 type  3   force =    -0.00433785   -0.01332843   -0.01012625
     atom   50 type  2   force =     0.00201048   -0.00258247   -0.00658178
     atom   51 type  4   force =    -0.00009906   -0.00100009   -0.00047239
     atom   52 type  4   force =     0.00017810    0.00037256    0.00079713
     atom   53 type  4   force =     0.00036534    0.00265038    0.00059301
     atom   54 type  4   force =     0.00277220    0.01378880    0.01481590

     Total force =     0.363651     Total SCF correction =     0.001565
 !ASE

     Writing output data file calc.save
 
     init_run     :     58.27s CPU     73.90s WALL (       1 calls)
     electrons    :   2145.09s CPU   2658.46s WALL (       1 calls)
     forces       :     39.61s CPU     41.73s WALL (       1 calls)

     Called by init_run:
     wfcinit      :     50.04s CPU     64.89s WALL (       1 calls)
     potinit      :      1.49s CPU      1.82s WALL (       1 calls)

     Called by electrons:
     c_bands      :   1869.09s CPU   2313.94s WALL (      10 calls)
     sum_band     :    235.55s CPU    298.53s WALL (      10 calls)
     v_of_rho     :     10.07s CPU     12.76s WALL (      10 calls)
     newd         :     34.32s CPU     37.28s WALL (      10 calls)
     mix_rho      :      0.30s CPU      0.50s WALL (      10 calls)
     vdW_energy   :      1.79s CPU      2.24s WALL (      11 calls)
     vdW_ffts     :      2.86s CPU      3.78s WALL (      22 calls)
     vdW_v        :      1.01s CPU      1.25s WALL (      11 calls)

     Called by c_bands:
     init_us_2    :      5.99s CPU      6.52s WALL (     880 calls)
     cegterg      :   1830.36s CPU   2273.13s WALL (     400 calls)

     Called by *egterg:
     h_psi        :    748.94s CPU   1103.46s WALL (    2161 calls)
     s_psi        :     91.17s CPU     95.23s WALL (    2161 calls)
     g_psi        :      4.90s CPU      5.00s WALL (    1721 calls)
     cdiaghg      :    645.55s CPU    659.74s WALL (    2081 calls)

     Called by h_psi:
     add_vuspsi   :     91.79s CPU     95.88s WALL (    2161 calls)

     General routines
     calbec       :    139.71s CPU    142.74s WALL (    2601 calls)
     fft          :      6.25s CPU      8.07s WALL (     875 calls)
     ffts         :      0.05s CPU      0.07s WALL (      40 calls)
     fftw         :    498.63s CPU    894.89s WALL (  725598 calls)
     interpolate  :      0.32s CPU      0.51s WALL (      40 calls)
     davcio       :      0.00s CPU      0.69s WALL (      40 calls)
 
     Parallel routines
     fft_scatter  :    265.48s CPU    475.36s WALL (  726513 calls)
 
     PWSCF        : 37m26.68s CPU    46m19.38s WALL

 
   This run was terminated on:   9:44:23  13Feb2018            

=------------------------------------------------------------------------------=
   JOB DONE.
=------------------------------------------------------------------------------=
