  python dir          : /home/vossj/suncat/lib/python2.7/site-packages/espresso
  espresso dir        : /home/vossj/suncat/esdld/espresso-dynpy-beef/bin
  pseudo dir          : /home/alatimer/bin/psp/esp_psp_w_gbrvRu/
  ase-espresso py git : ffa2778-git



     Program PWSCF v.5.1rc2 (svn rev. ) starts on 12Feb2018 at 10:31: 9 

     This program is part of the open-source Quantum ESPRESSO suite
     for quantum simulation of materials; please cite
         "P. Giannozzi et al., J. Phys.:Condens. Matter 21 395502 (2009);
          URL http://www.quantum-espresso.org", 
     in publications or presentations arising from this work. More details at
     http://www.quantum-espresso.org/quote

     Parallel version (MPI), running on    16 processors
     R & G space division:  proc/nbgrp/npool/nimage =      16
     Reading input from pw.inp
     Message from routine read_cards :
     DEPRECATED: no units specified in CELL_PARAMETERS card

     Current dimensions of program PWSCF are:
     Max number of different atomic species (ntypx) = 10
     Max number of k-points (npk) =  40000
     Max angular momentum in pseudopotentials (lmaxx) =  3

     **************************************************************************
     Initializing libbeef V0.1.1 with the BEEF-vdW functional.
     Citation: Wellendorff et al., PRB 85, 235149 (2012).
     **************************************************************************


     IMPORTANT: XC functional enforced from input :
     Exchange-correlation      = BEEF ( 1  4 27 13 2)
     Any further DFT definition will be discarded
     Please, verify this is what you really want


     Subspace diagonalization in iterative solution of the eigenvalue problem:
     a serial algorithm will be used

 
     Parallelization info
     --------------------
     sticks:   dense  smooth     PW     G-vecs:    dense   smooth      PW
     Min         281     112     31                68535    17318    2565
     Max         282     113     32                68545    17369    2582
     Sum        4501    1795    503              1096637   277353   41113
 
     Generating pointlists ...
     new r_m :   0.4125 (alat units)  0.7795 (a.u.) for type    1
     new r_m :   0.3995 (alat units)  0.7549 (a.u.) for type    2
     new r_m :   0.4125 (alat units)  0.7795 (a.u.) for type    3
     new r_m :   0.3995 (alat units)  0.7549 (a.u.) for type    4


     bravais-lattice index     =            0
     lattice parameter (alat)  =       1.8897  a.u.
     unit-cell volume          =    7990.9933 (a.u.)^3
     number of atoms/cell      =           54
     number of atomic types    =            4
     number of electrons       =       398.00
     number of Kohn-Sham states=          299
     kinetic-energy cutoff     =      40.4243  Ry
     charge density cutoff     =     404.2426  Ry
     convergence threshold     =      7.3E-07
     mixing beta               =       0.1000
     number of iterations used =           10  plain     mixing
     Exchange-correlation      = BEEF ( 1  4 27 13 2)
     nstep                     =           50


     celldm(1)=   1.889726  celldm(2)=   0.000000  celldm(3)=   0.000000
     celldm(4)=   0.000000  celldm(5)=   0.000000  celldm(6)=   0.000000

     crystal axes: (cart. coord. in units of alat)
               a(1) = (   6.590708   0.000000   0.000000 )  
               a(2) = (   0.000000   5.950229   0.000000 )  
               a(3) = (   0.000000   0.000000  30.195235 )  

     reciprocal axes: (cart. coord. in units 2 pi/alat)
               b(1) = (  0.151729  0.000000  0.000000 )  
               b(2) = (  0.000000  0.168061  0.000000 )  
               b(3) = (  0.000000  0.000000  0.033118 )  


     PseudoPot. # 1 for Ti read from file:
     /home/alatimer/bin/psp/esp_psp_w_gbrvRu/Ti.UPF
     MD5 check sum: 8e4df49b7f0d34bbd5052bf3f5ea0213
     Pseudo is Ultrasoft, Zval = 12.0
     Generated by new atomic code, or converted to UPF format
     Using radial grid of  851 points,  6 beta functions with: 
                l(1) =   0
                l(2) =   0
                l(3) =   1
                l(4) =   1
                l(5) =   2
                l(6) =   2
     Q(r) pseudized with  8 coefficients,  rinner =    1.000   1.000   1.000
                                                       1.000   1.000

     PseudoPot. # 2 for  O read from file:
     /home/alatimer/bin/psp/esp_psp_w_gbrvRu/O.UPF
     MD5 check sum: e057bbcf3229fb5d8c36c0c92f9568b4
     Pseudo is Ultrasoft + core correction, Zval =  6.0
     Generated using "atomic" code by A. Dal Corso  v.5.0.2 svn rev. 9415
     Using radial grid of 1095 points,  4 beta functions with: 
                l(1) =   0
                l(2) =   0
                l(3) =   1
                l(4) =   1
     Q(r) pseudized with 0 coefficients 


     PseudoPot. # 3 for  C read from file:
     /home/alatimer/bin/psp/esp_psp_w_gbrvRu/C.UPF
     MD5 check sum: ab446d787031eba755f1d5ee46644bb0
     Pseudo is Ultrasoft + core correction, Zval =  4.0
     Generated using "atomic" code by A. Dal Corso  v.5.0.2 svn rev. 9415
     Using radial grid of 1073 points,  4 beta functions with: 
                l(1) =   0
                l(2) =   0
                l(3) =   1
                l(4) =   1
     Q(r) pseudized with 0 coefficients 


     PseudoPot. # 4 for  H read from file:
     /home/alatimer/bin/psp/esp_psp_w_gbrvRu/H.UPF
     MD5 check sum: bd57da0722753ddfd9833a65b40bb853
     Pseudo is Ultrasoft, Zval =  1.0
     Generated using "atomic" code by A. Dal Corso  v.5.0.2 svn rev. 9415
     Using radial grid of  929 points,  2 beta functions with: 
                l(1) =   0
                l(2) =   0
     Q(r) pseudized with 0 coefficients 


     vdW kernel table read from file vdW_kernel_table
     MD5 check sum: 095c7af220d748ca6e76c0b4c6cfb241

     atomic species   valence    mass     pseudopotential
        Ti1           12.00    47.88000     Ti( 1.00)
        O1             6.00    15.99940      O( 1.00)
        C1             4.00    12.01100      C( 1.00)
        H1             1.00     1.00794      H( 1.00)

     Starting magnetic structure 
     atomic species   magnetization
        Ti1          0.250
        O1           0.500
        C1           0.750
        H1           0.000

     No symmetry found



   Cartesian axes

     site n.     atom                  positions (alat units)
         1           Ti1 tau(   1) = (   1.6476770   0.7437786   2.6545865  )
         2           O1  tau(   2) = (   1.6476770   2.2313359   3.9361215  )
         3           Ti1 tau(   3) = (   1.6476770   2.2313359   5.9499405  )
         4           O1  tau(   4) = (   0.3661420   0.7437786   5.9499405  )
         5           Ti1 tau(   5) = (   1.7592931   0.7557636   9.1813031  )
         6           O1  tau(   6) = (   1.6162490   2.2572048  10.5951269  )
         7           Ti1 tau(   7) = (   1.5595004   2.2680265  12.4668274  )
         8           O1  tau(   8) = (   0.3709531   0.7738127  12.6996540  )
         9           Ti1 tau(   9) = (   1.6476770   3.7188931   2.6545865  )
        10           O1  tau(  10) = (   1.6476770   5.2064503   3.9361215  )
        11           Ti1 tau(  11) = (   1.6476770   5.2064503   5.9499405  )
        12           O1  tau(  12) = (   0.3661420   3.7188931   5.9499405  )
        13           Ti1 tau(  13) = (   1.7607536   3.7112867   9.1949733  )
        14           O1  tau(  14) = (   1.6133076   5.2250699  10.5465640  )
        15           Ti1 tau(  15) = (   1.6492307   5.2431137  12.3448001  )
        16           O1  tau(  16) = (   0.3719744   3.7598389  12.7007434  )
        17           O1  tau(  17) = (   1.6476770   2.2313359   1.3730516  )
        18           Ti1 tau(  18) = (   4.9430310   2.2313359   2.6545865  )
        19           O1  tau(  19) = (   4.9430310   2.2313359   4.6684056  )
        20           O1  tau(  20) = (   6.2245660   0.7437786   2.6545865  )
        21           O1  tau(  21) = (   3.6614961   0.7437786   2.6545865  )
        22           Ti1 tau(  22) = (   4.9430310   0.7437786   5.9499405  )
        23           O1  tau(  23) = (   1.6387103   2.2391978   8.0037664  )
        24           O1  tau(  24) = (   4.9430310   2.2313359   7.2314755  )
        25           O1  tau(  25) = (   2.9292120   0.7437786   5.9499405  )
        26           Ti1 tau(  26) = (   5.0158092   2.2383949   9.3973727  )
        27           O1  tau(  27) = (   4.9391445   2.2276729  11.2675731  )
        28           O1  tau(  28) = (   6.2094020   0.7514556   9.2742047  )
        29           O1  tau(  29) = (   3.6131301   0.7515640   9.2682932  )
        30           Ti1 tau(  30) = (   4.8940083   0.8207741  12.7348365  )
        31           O1  tau(  31) = (   4.8487174   2.2703822  13.8475395  )
        32           O1  tau(  32) = (   2.8766274   0.7418004  12.6316555  )
        33           O1  tau(  33) = (   1.6476770   5.2064503   1.3730516  )
        34           Ti1 tau(  34) = (   4.9430310   5.2064503   2.6545865  )
        35           O1  tau(  35) = (   4.9430310   5.2064503   4.6684056  )
        36           O1  tau(  36) = (   6.2245660   3.7188931   2.6545865  )
        37           O1  tau(  37) = (   3.6614961   3.7188931   2.6545865  )
        38           Ti1 tau(  38) = (   4.9430310   3.7188931   5.9499405  )
        39           O1  tau(  39) = (   1.6418458   5.2133935   8.0066417  )
        40           O1  tau(  40) = (   4.9430310   5.2064503   7.2314755  )
        41           O1  tau(  41) = (   2.9292120   3.7188931   5.9499405  )
        42           Ti1 tau(  42) = (   5.0218241   5.2139137   9.3870600  )
        43           O1  tau(  43) = (   4.9399496   5.2040061  11.2598200  )
        44           O1  tau(  44) = (   6.2073000   3.7245411   9.2731052  )
        45           O1  tau(  45) = (   3.6137513   3.7232133   9.2682466  )
        46           Ti1 tau(  46) = (   4.8936935   3.8094630  12.7397413  )
        47           O1  tau(  47) = (   4.9051259   5.2510468  13.8339921  )
        48           O1  tau(  48) = (   2.8743370   3.7938830  12.6403791  )
        49           C1  tau(  49) = (   1.0587210   2.1968971  15.9066084  )
        50           O1  tau(  50) = (   1.8917182   2.2355032  14.7378010  )
        51           H1  tau(  51) = (   0.0310076   2.2200215  15.5603933  )
        52           H1  tau(  52) = (   2.8355400   2.2288152  14.9543747  )
        53           H1  tau(  53) = (   1.2478062   1.3326534  16.5039879  )
        54           H1  tau(  54) = (   1.2341453   3.1195140  16.5098874  )

     number of k points=    40  Fermi-Dirac smearing, width (Ry)=  0.0073
                       cart. coord. in units 2pi/alat
        k(    1) = (   0.0000000   0.0000000   0.0000000), wk =   0.0277778
        k(    2) = (   0.0000000   0.0280101   0.0000000), wk =   0.0555556
        k(    3) = (   0.0000000   0.0560203   0.0000000), wk =   0.0555556
        k(    4) = (   0.0000000  -0.0840304   0.0000000), wk =   0.0277778
        k(    5) = (   0.0252881   0.0000000   0.0000000), wk =   0.0555556
        k(    6) = (   0.0252881   0.0280101   0.0000000), wk =   0.0555556
        k(    7) = (   0.0252881   0.0560203   0.0000000), wk =   0.0555556
        k(    8) = (   0.0252881  -0.0840304   0.0000000), wk =   0.0555556
        k(    9) = (   0.0505763   0.0000000   0.0000000), wk =   0.0555556
        k(   10) = (   0.0505763   0.0280101   0.0000000), wk =   0.0555556
        k(   11) = (   0.0505763   0.0560203   0.0000000), wk =   0.0555556
        k(   12) = (   0.0505763  -0.0840304   0.0000000), wk =   0.0555556
        k(   13) = (  -0.0758644   0.0000000   0.0000000), wk =   0.0277778
        k(   14) = (  -0.0758644   0.0280101   0.0000000), wk =   0.0555556
        k(   15) = (  -0.0758644   0.0560203   0.0000000), wk =   0.0555556
        k(   16) = (  -0.0758644  -0.0840304   0.0000000), wk =   0.0277778
        k(   17) = (  -0.0252881   0.0280101   0.0000000), wk =   0.0555556
        k(   18) = (  -0.0252881   0.0560203   0.0000000), wk =   0.0555556
        k(   19) = (  -0.0505763   0.0280101   0.0000000), wk =   0.0555556
        k(   20) = (  -0.0505763   0.0560203   0.0000000), wk =   0.0555556
        k(   21) = (   0.0000000   0.0000000   0.0000000), wk =   0.0277778
        k(   22) = (   0.0000000   0.0280101   0.0000000), wk =   0.0555556
        k(   23) = (   0.0000000   0.0560203   0.0000000), wk =   0.0555556
        k(   24) = (   0.0000000  -0.0840304   0.0000000), wk =   0.0277778
        k(   25) = (   0.0252881   0.0000000   0.0000000), wk =   0.0555556
        k(   26) = (   0.0252881   0.0280101   0.0000000), wk =   0.0555556
        k(   27) = (   0.0252881   0.0560203   0.0000000), wk =   0.0555556
        k(   28) = (   0.0252881  -0.0840304   0.0000000), wk =   0.0555556
        k(   29) = (   0.0505763   0.0000000   0.0000000), wk =   0.0555556
        k(   30) = (   0.0505763   0.0280101   0.0000000), wk =   0.0555556
        k(   31) = (   0.0505763   0.0560203   0.0000000), wk =   0.0555556
        k(   32) = (   0.0505763  -0.0840304   0.0000000), wk =   0.0555556
        k(   33) = (  -0.0758644   0.0000000   0.0000000), wk =   0.0277778
        k(   34) = (  -0.0758644   0.0280101   0.0000000), wk =   0.0555556
        k(   35) = (  -0.0758644   0.0560203   0.0000000), wk =   0.0555556
        k(   36) = (  -0.0758644  -0.0840304   0.0000000), wk =   0.0277778
        k(   37) = (  -0.0252881   0.0280101   0.0000000), wk =   0.0555556
        k(   38) = (  -0.0252881   0.0560203   0.0000000), wk =   0.0555556
        k(   39) = (  -0.0505763   0.0280101   0.0000000), wk =   0.0555556
        k(   40) = (  -0.0505763   0.0560203   0.0000000), wk =   0.0555556

     Dense  grid:  1096637 G-vectors     FFT dimensions: (  80,  72, 375)

     Smooth grid:   277353 G-vectors     FFT dimensions: (  54,  45, 240)

     Largest allocated arrays     est. size (Mb)     dimensions
        Kohn-Sham Wavefunctions         9.95 Mb     (    2180,  299)
        NL pseudopotentials            18.89 Mb     (    2180,  568)
        Each V/rho on FFT grid          4.22 Mb     (  138240,   2)
        Each G-vector array             0.52 Mb     (   68538)
        G-vector shells                 0.25 Mb     (   33046)
     Largest temporary arrays     est. size (Mb)     dimensions
        Auxiliary wavefunctions        39.78 Mb     (    2180, 1196)
        Each subspace H/S matrix       21.83 Mb     (    1196, 1196)
        Each <psi_i|beta_j> matrix      2.59 Mb     (     568,  299)
        Arrays for rho mixing          21.09 Mb     (  138240,   10)

     Check: negative/imaginary core charge=   -0.000049    0.000000

     The initial density is read from file :
     ./calc.save/charge-density.dat


     negative rho (up, down):  1.209E-02 1.209E-02


     ************************************************************************
     *
     * You are using vdW-DF for exchange-correlation in this calculation.
     * Please cite the following three references that made this development
     * possible:
     *
     *   M. Dion, H. Rydberg, E. Schroder, D. C. Langreth, and
     *   B. I. Lundqvist, Phys. Rev. Lett. 92, 246401 (2004).
     *
     *   T. Thonhauser, V. R. Cooper, S. Li, A. Puzder, P. Hyldgaard, and
     *   D. C. Langreth, Phys. Rev. B 76, 125112 (2007).
     *
     *   G. Roman-Perez and J. M. Soler, Phys. Rev. Lett. 103, 096102 (2009).
     *
     *
     * If you are using vdW-DF2, please also cite:
     *
     *   K. Lee, E. D. Murray, L. Kong, B. I. Lundqvist, and
     *   D. C. Langreth, Phys. Rev. B 82, 081101(R) (2010).
     *
     *
     * If you are calculating the stress with vdW-DF, please also cite:
     *
     *   R. Sabatini, E. Kucukbenli, B. Kolb, T. Thonhauser, and
     *   S. de Gironcoli, J. Phys.: Condens. Matter 24, 424209 (2012).
     *
     ************************************************************************

     Carrying out vdW-DF run using the following parameters:

     Nqs =      20    Nr_points =    1024   r_max =   100.000
     q_mesh =
               0.00001000     0.04494208     0.09755937     0.15916263
               0.23128650     0.31572767     0.41458969     0.53033537
               0.66584808     0.82450364     1.01025438     1.22772762
               1.48234092     1.78043706     2.12944203     2.53805004
               3.01644009     3.57652955     4.23227104     5.00000000

     Gradients computed in reciprocal space

     ************************************************************************


     Starting wfc are  300 randomized atomic wfcs

     total cpu time spent up to now is       69.5 secs

     Self-consistent Calculation

     iteration #  1     ecut=    40.42 Ry     beta=0.10
     Davidson diagonalization with overlap
     ethr =  1.00E-05,  avg # of iterations = 14.7

     negative rho (up, down):  1.209E-02 1.209E-02
 
     Magnetic moment per site:
     atom:    1    charge:    3.1250    magn:   -0.0002    constr:    0.0000
     atom:    2    charge:    1.9452    magn:    0.0000    constr:    0.0000
     atom:    3    charge:    3.1198    magn:    0.0000    constr:    0.0000
     atom:    4    charge:    1.9504    magn:   -0.0001    constr:    0.0000
     atom:    5    charge:    3.1166    magn:    0.0000    constr:    0.0000
     atom:    6    charge:    1.9477    magn:   -0.0001    constr:    0.0000
     atom:    7    charge:    3.1157    magn:    0.0001    constr:    0.0000
     atom:    8    charge:    1.9454    magn:   -0.0001    constr:    0.0000
     atom:    9    charge:    3.1250    magn:   -0.0002    constr:    0.0000
     atom:   10    charge:    1.9452    magn:    0.0000    constr:    0.0000
     atom:   11    charge:    3.1197    magn:    0.0000    constr:    0.0000
     atom:   12    charge:    1.9504    magn:   -0.0001    constr:    0.0000
     atom:   13    charge:    3.1158    magn:    0.0000    constr:    0.0000
     atom:   14    charge:    1.9587    magn:   -0.0001    constr:    0.0000
     atom:   15    charge:    3.1188    magn:    0.0001    constr:    0.0000
     atom:   16    charge:    1.9444    magn:   -0.0001    constr:    0.0000
     atom:   17    charge:    1.9184    magn:    0.0004    constr:    0.0000
     atom:   18    charge:    3.1240    magn:   -0.0001    constr:    0.0000
     atom:   19    charge:    1.9408    magn:   -0.0000    constr:    0.0000
     atom:   20    charge:    1.9471    magn:    0.0000    constr:    0.0000
     atom:   21    charge:    1.9471    magn:    0.0000    constr:    0.0000
     atom:   22    charge:    3.1196    magn:    0.0000    constr:    0.0000
     atom:   23    charge:    1.9566    magn:   -0.0001    constr:    0.0000
     atom:   24    charge:    1.9379    magn:   -0.0001    constr:    0.0000
     atom:   25    charge:    1.9505    magn:   -0.0001    constr:    0.0000
     atom:   26    charge:    3.1145    magn:    0.0001    constr:    0.0000
     atom:   27    charge:    1.9398    magn:   -0.0001    constr:    0.0000
     atom:   28    charge:    1.9517    magn:   -0.0001    constr:    0.0000
     atom:   29    charge:    1.9476    magn:   -0.0001    constr:    0.0000
     atom:   30    charge:    3.1168    magn:    0.0000    constr:    0.0000
     atom:   31    charge:    1.9446    magn:   -0.0000    constr:    0.0000
     atom:   32    charge:    1.9441    magn:   -0.0001    constr:    0.0000
     atom:   33    charge:    1.9184    magn:    0.0004    constr:    0.0000
     atom:   34    charge:    3.1239    magn:   -0.0001    constr:    0.0000
     atom:   35    charge:    1.9408    magn:   -0.0000    constr:    0.0000
     atom:   36    charge:    1.9471    magn:    0.0000    constr:    0.0000
     atom:   37    charge:    1.9471    magn:    0.0000    constr:    0.0000
     atom:   38    charge:    3.1196    magn:    0.0000    constr:    0.0000
     atom:   39    charge:    1.9549    magn:   -0.0001    constr:    0.0000
     atom:   40    charge:    1.9383    magn:   -0.0001    constr:    0.0000
     atom:   41    charge:    1.9505    magn:   -0.0001    constr:    0.0000
     atom:   42    charge:    3.1141    magn:    0.0001    constr:    0.0000
     atom:   43    charge:    1.9413    magn:   -0.0001    constr:    0.0000
     atom:   44    charge:    1.9517    magn:   -0.0001    constr:    0.0000
     atom:   45    charge:    1.9468    magn:   -0.0001    constr:    0.0000
     atom:   46    charge:    3.1164    magn:    0.0000    constr:    0.0000
     atom:   47    charge:    1.9431    magn:   -0.0000    constr:    0.0000
     atom:   48    charge:    1.9443    magn:   -0.0001    constr:    0.0000
     atom:   49    charge:    0.6575    magn:   -0.0001    constr:    0.0000
     atom:   50    charge:    1.9577    magn:   -0.0001    constr:    0.0000
     atom:   51    charge:    0.4022    magn:    0.0000    constr:    0.0000
     atom:   52    charge:    0.4006    magn:    0.0000    constr:    0.0000
     atom:   53    charge:    0.4057    magn:    0.0000    constr:    0.0000
     atom:   54    charge:    0.4016    magn:    0.0000    constr:    0.0000

     total cpu time spent up to now is      805.1 secs

     total energy              =   -3021.42332375 Ry
     Harris-Foulkes estimate   =   -3021.42558475 Ry
     estimated scf accuracy    <       0.01558889 Ry

     total magnetization       =     0.00 Bohr mag/cell
     absolute magnetization    =     0.01 Bohr mag/cell

     iteration #  2     ecut=    40.42 Ry     beta=0.10
     Davidson diagonalization with overlap
     ethr =  3.92E-06,  avg # of iterations =  2.0

     negative rho (up, down):  1.209E-02 1.209E-02
 
     Magnetic moment per site:
     atom:    1    charge:    3.1250    magn:   -0.0001    constr:    0.0000
     atom:    2    charge:    1.9452    magn:    0.0000    constr:    0.0000
     atom:    3    charge:    3.1198    magn:    0.0000    constr:    0.0000
     atom:    4    charge:    1.9504    magn:   -0.0000    constr:    0.0000
     atom:    5    charge:    3.1166    magn:    0.0000    constr:    0.0000
     atom:    6    charge:    1.9476    magn:   -0.0001    constr:    0.0000
     atom:    7    charge:    3.1157    magn:    0.0000    constr:    0.0000
     atom:    8    charge:    1.9456    magn:   -0.0001    constr:    0.0000
     atom:    9    charge:    3.1250    magn:   -0.0001    constr:    0.0000
     atom:   10    charge:    1.9452    magn:    0.0000    constr:    0.0000
     atom:   11    charge:    3.1197    magn:    0.0000    constr:    0.0000
     atom:   12    charge:    1.9504    magn:   -0.0000    constr:    0.0000
     atom:   13    charge:    3.1158    magn:    0.0000    constr:    0.0000
     atom:   14    charge:    1.9587    magn:   -0.0001    constr:    0.0000
     atom:   15    charge:    3.1188    magn:    0.0000    constr:    0.0000
     atom:   16    charge:    1.9442    magn:   -0.0001    constr:    0.0000
     atom:   17    charge:    1.9184    magn:    0.0003    constr:    0.0000
     atom:   18    charge:    3.1239    magn:   -0.0001    constr:    0.0000
     atom:   19    charge:    1.9408    magn:   -0.0000    constr:    0.0000
     atom:   20    charge:    1.9471    magn:    0.0000    constr:    0.0000
     atom:   21    charge:    1.9471    magn:    0.0000    constr:    0.0000
     atom:   22    charge:    3.1196    magn:    0.0000    constr:    0.0000
     atom:   23    charge:    1.9566    magn:   -0.0001    constr:    0.0000
     atom:   24    charge:    1.9379    magn:   -0.0000    constr:    0.0000
     atom:   25    charge:    1.9505    magn:   -0.0000    constr:    0.0000
     atom:   26    charge:    3.1145    magn:    0.0000    constr:    0.0000
     atom:   27    charge:    1.9398    magn:   -0.0000    constr:    0.0000
     atom:   28    charge:    1.9517    magn:   -0.0001    constr:    0.0000
     atom:   29    charge:    1.9476    magn:   -0.0001    constr:    0.0000
     atom:   30    charge:    3.1168    magn:    0.0000    constr:    0.0000
     atom:   31    charge:    1.9447    magn:   -0.0000    constr:    0.0000
     atom:   32    charge:    1.9443    magn:   -0.0001    constr:    0.0000
     atom:   33    charge:    1.9184    magn:    0.0003    constr:    0.0000
     atom:   34    charge:    3.1239    magn:   -0.0001    constr:    0.0000
     atom:   35    charge:    1.9408    magn:   -0.0000    constr:    0.0000
     atom:   36    charge:    1.9471    magn:    0.0000    constr:    0.0000
     atom:   37    charge:    1.9471    magn:    0.0000    constr:    0.0000
     atom:   38    charge:    3.1196    magn:    0.0000    constr:    0.0000
     atom:   39    charge:    1.9550    magn:   -0.0001    constr:    0.0000
     atom:   40    charge:    1.9383    magn:   -0.0000    constr:    0.0000
     atom:   41    charge:    1.9505    magn:   -0.0000    constr:    0.0000
     atom:   42    charge:    3.1141    magn:    0.0000    constr:    0.0000
     atom:   43    charge:    1.9413    magn:   -0.0000    constr:    0.0000
     atom:   44    charge:    1.9517    magn:   -0.0001    constr:    0.0000
     atom:   45    charge:    1.9469    magn:   -0.0001    constr:    0.0000
     atom:   46    charge:    3.1164    magn:    0.0000    constr:    0.0000
     atom:   47    charge:    1.9431    magn:   -0.0000    constr:    0.0000
     atom:   48    charge:    1.9442    magn:   -0.0001    constr:    0.0000
     atom:   49    charge:    0.6584    magn:   -0.0000    constr:    0.0000
     atom:   50    charge:    1.9573    magn:   -0.0000    constr:    0.0000
     atom:   51    charge:    0.4018    magn:    0.0000    constr:    0.0000
     atom:   52    charge:    0.4006    magn:    0.0000    constr:    0.0000
     atom:   53    charge:    0.4170    magn:    0.0000    constr:    0.0000
     atom:   54    charge:    0.3903    magn:    0.0000    constr:    0.0000

     total cpu time spent up to now is      986.6 secs

     total energy              =   -3021.41661172 Ry
     Harris-Foulkes estimate   =   -3021.42342411 Ry
     estimated scf accuracy    <       0.01094030 Ry

     total magnetization       =     0.00 Bohr mag/cell
     absolute magnetization    =     0.01 Bohr mag/cell

     iteration #  3     ecut=    40.42 Ry     beta=0.10
     Davidson diagonalization with overlap
     ethr =  2.75E-06,  avg # of iterations =  4.8

     negative rho (up, down):  1.209E-02 1.209E-02
 
     Magnetic moment per site:
     atom:    1    charge:    3.1250    magn:   -0.0001    constr:    0.0000
     atom:    2    charge:    1.9452    magn:    0.0000    constr:    0.0000
     atom:    3    charge:    3.1198    magn:    0.0000    constr:    0.0000
     atom:    4    charge:    1.9504    magn:   -0.0000    constr:    0.0000
     atom:    5    charge:    3.1166    magn:    0.0000    constr:    0.0000
     atom:    6    charge:    1.9476    magn:   -0.0001    constr:    0.0000
     atom:    7    charge:    3.1157    magn:    0.0000    constr:    0.0000
     atom:    8    charge:    1.9451    magn:   -0.0001    constr:    0.0000
     atom:    9    charge:    3.1250    magn:   -0.0001    constr:    0.0000
     atom:   10    charge:    1.9452    magn:    0.0000    constr:    0.0000
     atom:   11    charge:    3.1197    magn:    0.0000    constr:    0.0000
     atom:   12    charge:    1.9504    magn:   -0.0000    constr:    0.0000
     atom:   13    charge:    3.1158    magn:    0.0000    constr:    0.0000
     atom:   14    charge:    1.9587    magn:   -0.0001    constr:    0.0000
     atom:   15    charge:    3.1188    magn:    0.0000    constr:    0.0000
     atom:   16    charge:    1.9447    magn:   -0.0001    constr:    0.0000
     atom:   17    charge:    1.9184    magn:    0.0003    constr:    0.0000
     atom:   18    charge:    3.1239    magn:   -0.0001    constr:    0.0000
     atom:   19    charge:    1.9408    magn:   -0.0000    constr:    0.0000
     atom:   20    charge:    1.9471    magn:    0.0000    constr:    0.0000
     atom:   21    charge:    1.9471    magn:    0.0000    constr:    0.0000
     atom:   22    charge:    3.1196    magn:    0.0000    constr:    0.0000
     atom:   23    charge:    1.9566    magn:   -0.0001    constr:    0.0000
     atom:   24    charge:    1.9379    magn:   -0.0000    constr:    0.0000
     atom:   25    charge:    1.9505    magn:   -0.0000    constr:    0.0000
     atom:   26    charge:    3.1145    magn:    0.0000    constr:    0.0000
     atom:   27    charge:    1.9398    magn:   -0.0000    constr:    0.0000
     atom:   28    charge:    1.9517    magn:   -0.0000    constr:    0.0000
     atom:   29    charge:    1.9476    magn:   -0.0001    constr:    0.0000
     atom:   30    charge:    3.1165    magn:    0.0000    constr:    0.0000
     atom:   31    charge:    1.9447    magn:   -0.0000    constr:    0.0000
     atom:   32    charge:    1.9439    magn:   -0.0001    constr:    0.0000
     atom:   33    charge:    1.9184    magn:    0.0003    constr:    0.0000
     atom:   34    charge:    3.1239    magn:   -0.0001    constr:    0.0000
     atom:   35    charge:    1.9408    magn:   -0.0000    constr:    0.0000
     atom:   36    charge:    1.9471    magn:    0.0000    constr:    0.0000
     atom:   37    charge:    1.9471    magn:    0.0000    constr:    0.0000
     atom:   38    charge:    3.1196    magn:    0.0000    constr:    0.0000
     atom:   39    charge:    1.9550    magn:   -0.0001    constr:    0.0000
     atom:   40    charge:    1.9383    magn:   -0.0000    constr:    0.0000
     atom:   41    charge:    1.9505    magn:   -0.0000    constr:    0.0000
     atom:   42    charge:    3.1141    magn:    0.0000    constr:    0.0000
     atom:   43    charge:    1.9413    magn:   -0.0000    constr:    0.0000
     atom:   44    charge:    1.9518    magn:   -0.0000    constr:    0.0000
     atom:   45    charge:    1.9469    magn:   -0.0001    constr:    0.0000
     atom:   46    charge:    3.1166    magn:    0.0000    constr:    0.0000
     atom:   47    charge:    1.9431    magn:   -0.0000    constr:    0.0000
     atom:   48    charge:    1.9445    magn:   -0.0001    constr:    0.0000
     atom:   49    charge:    0.6582    magn:   -0.0000    constr:    0.0000
     atom:   50    charge:    1.9575    magn:   -0.0000    constr:    0.0000
     atom:   51    charge:    0.4019    magn:    0.0000    constr:    0.0000
     atom:   52    charge:    0.4006    magn:    0.0000    constr:    0.0000
     atom:   53    charge:    0.4169    magn:    0.0000    constr:    0.0000
     atom:   54    charge:    0.3905    magn:    0.0000    constr:    0.0000

     total cpu time spent up to now is     1223.1 secs

     total energy              =   -3021.41843727 Ry
     Harris-Foulkes estimate   =   -3021.41850816 Ry
     estimated scf accuracy    <       0.00030741 Ry

     total magnetization       =     0.00 Bohr mag/cell
     absolute magnetization    =     0.00 Bohr mag/cell

     iteration #  4     ecut=    40.42 Ry     beta=0.10
     Davidson diagonalization with overlap
     ethr =  7.72E-08,  avg # of iterations =  2.1

     negative rho (up, down):  1.209E-02 1.209E-02
 
     Magnetic moment per site:
     atom:    1    charge:    3.1250    magn:   -0.0001    constr:    0.0000
     atom:    2    charge:    1.9452    magn:    0.0000    constr:    0.0000
     atom:    3    charge:    3.1198    magn:    0.0000    constr:    0.0000
     atom:    4    charge:    1.9504    magn:   -0.0000    constr:    0.0000
     atom:    5    charge:    3.1166    magn:    0.0000    constr:    0.0000
     atom:    6    charge:    1.9476    magn:   -0.0000    constr:    0.0000
     atom:    7    charge:    3.1157    magn:    0.0000    constr:    0.0000
     atom:    8    charge:    1.9451    magn:   -0.0000    constr:    0.0000
     atom:    9    charge:    3.1250    magn:   -0.0001    constr:    0.0000
     atom:   10    charge:    1.9452    magn:    0.0000    constr:    0.0000
     atom:   11    charge:    3.1197    magn:    0.0000    constr:    0.0000
     atom:   12    charge:    1.9504    magn:   -0.0000    constr:    0.0000
     atom:   13    charge:    3.1158    magn:    0.0000    constr:    0.0000
     atom:   14    charge:    1.9587    magn:   -0.0000    constr:    0.0000
     atom:   15    charge:    3.1188    magn:    0.0000    constr:    0.0000
     atom:   16    charge:    1.9447    magn:   -0.0000    constr:    0.0000
     atom:   17    charge:    1.9184    magn:    0.0002    constr:    0.0000
     atom:   18    charge:    3.1239    magn:   -0.0000    constr:    0.0000
     atom:   19    charge:    1.9408    magn:   -0.0000    constr:    0.0000
     atom:   20    charge:    1.9471    magn:    0.0000    constr:    0.0000
     atom:   21    charge:    1.9471    magn:    0.0000    constr:    0.0000
     atom:   22    charge:    3.1196    magn:    0.0000    constr:    0.0000
     atom:   23    charge:    1.9566    magn:   -0.0000    constr:    0.0000
     atom:   24    charge:    1.9379    magn:   -0.0000    constr:    0.0000
     atom:   25    charge:    1.9505    magn:   -0.0000    constr:    0.0000
     atom:   26    charge:    3.1145    magn:    0.0000    constr:    0.0000
     atom:   27    charge:    1.9398    magn:   -0.0000    constr:    0.0000
     atom:   28    charge:    1.9517    magn:   -0.0000    constr:    0.0000
     atom:   29    charge:    1.9476    magn:   -0.0000    constr:    0.0000
     atom:   30    charge:    3.1166    magn:    0.0000    constr:    0.0000
     atom:   31    charge:    1.9447    magn:   -0.0000    constr:    0.0000
     atom:   32    charge:    1.9439    magn:   -0.0000    constr:    0.0000
     atom:   33    charge:    1.9184    magn:    0.0002    constr:    0.0000
     atom:   34    charge:    3.1239    magn:   -0.0000    constr:    0.0000
     atom:   35    charge:    1.9408    magn:   -0.0000    constr:    0.0000
     atom:   36    charge:    1.9471    magn:    0.0000    constr:    0.0000
     atom:   37    charge:    1.9471    magn:    0.0000    constr:    0.0000
     atom:   38    charge:    3.1196    magn:    0.0000    constr:    0.0000
     atom:   39    charge:    1.9549    magn:   -0.0000    constr:    0.0000
     atom:   40    charge:    1.9383    magn:   -0.0000    constr:    0.0000
     atom:   41    charge:    1.9505    magn:   -0.0000    constr:    0.0000
     atom:   42    charge:    3.1141    magn:    0.0000    constr:    0.0000
     atom:   43    charge:    1.9413    magn:   -0.0000    constr:    0.0000
     atom:   44    charge:    1.9517    magn:   -0.0000    constr:    0.0000
     atom:   45    charge:    1.9468    magn:   -0.0000    constr:    0.0000
     atom:   46    charge:    3.1166    magn:    0.0000    constr:    0.0000
     atom:   47    charge:    1.9431    magn:   -0.0000    constr:    0.0000
     atom:   48    charge:    1.9445    magn:   -0.0000    constr:    0.0000
     atom:   49    charge:    0.6582    magn:   -0.0000    constr:    0.0000
     atom:   50    charge:    1.9577    magn:   -0.0000    constr:    0.0000
     atom:   51    charge:    0.4019    magn:    0.0000    constr:    0.0000
     atom:   52    charge:    0.4006    magn:    0.0000    constr:    0.0000
     atom:   53    charge:    0.4174    magn:    0.0000    constr:    0.0000
     atom:   54    charge:    0.3903    magn:    0.0000    constr:    0.0000

     total cpu time spent up to now is     1406.5 secs

     total energy              =   -3021.41844525 Ry
     Harris-Foulkes estimate   =   -3021.41846101 Ry
     estimated scf accuracy    <       0.00008413 Ry

     total magnetization       =     0.00 Bohr mag/cell
     absolute magnetization    =     0.00 Bohr mag/cell

     iteration #  5     ecut=    40.42 Ry     beta=0.10
     Davidson diagonalization with overlap
     ethr =  2.11E-08,  avg # of iterations =  4.0

     negative rho (up, down):  1.209E-02 1.209E-02
 
     Magnetic moment per site:
     atom:    1    charge:    3.1250    magn:   -0.0001    constr:    0.0000
     atom:    2    charge:    1.9452    magn:    0.0000    constr:    0.0000
     atom:    3    charge:    3.1198    magn:    0.0000    constr:    0.0000
     atom:    4    charge:    1.9504    magn:   -0.0000    constr:    0.0000
     atom:    5    charge:    3.1166    magn:    0.0000    constr:    0.0000
     atom:    6    charge:    1.9477    magn:   -0.0000    constr:    0.0000
     atom:    7    charge:    3.1157    magn:    0.0000    constr:    0.0000
     atom:    8    charge:    1.9451    magn:   -0.0000    constr:    0.0000
     atom:    9    charge:    3.1250    magn:   -0.0001    constr:    0.0000
     atom:   10    charge:    1.9452    magn:    0.0000    constr:    0.0000
     atom:   11    charge:    3.1197    magn:    0.0000    constr:    0.0000
     atom:   12    charge:    1.9504    magn:   -0.0000    constr:    0.0000
     atom:   13    charge:    3.1158    magn:    0.0000    constr:    0.0000
     atom:   14    charge:    1.9587    magn:   -0.0000    constr:    0.0000
     atom:   15    charge:    3.1188    magn:    0.0000    constr:    0.0000
     atom:   16    charge:    1.9446    magn:   -0.0000    constr:    0.0000
     atom:   17    charge:    1.9184    magn:    0.0002    constr:    0.0000
     atom:   18    charge:    3.1239    magn:   -0.0000    constr:    0.0000
     atom:   19    charge:    1.9408    magn:   -0.0000    constr:    0.0000
     atom:   20    charge:    1.9471    magn:    0.0000    constr:    0.0000
     atom:   21    charge:    1.9471    magn:    0.0000    constr:    0.0000
     atom:   22    charge:    3.1196    magn:    0.0000    constr:    0.0000
     atom:   23    charge:    1.9566    magn:   -0.0000    constr:    0.0000
     atom:   24    charge:    1.9379    magn:   -0.0000    constr:    0.0000
     atom:   25    charge:    1.9505    magn:   -0.0000    constr:    0.0000
     atom:   26    charge:    3.1145    magn:    0.0000    constr:    0.0000
     atom:   27    charge:    1.9398    magn:   -0.0000    constr:    0.0000
     atom:   28    charge:    1.9517    magn:   -0.0000    constr:    0.0000
     atom:   29    charge:    1.9476    magn:   -0.0000    constr:    0.0000
     atom:   30    charge:    3.1167    magn:    0.0000    constr:    0.0000
     atom:   31    charge:    1.9447    magn:   -0.0000    constr:    0.0000
     atom:   32    charge:    1.9439    magn:   -0.0000    constr:    0.0000
     atom:   33    charge:    1.9184    magn:    0.0002    constr:    0.0000
     atom:   34    charge:    3.1239    magn:   -0.0000    constr:    0.0000
     atom:   35    charge:    1.9408    magn:   -0.0000    constr:    0.0000
     atom:   36    charge:    1.9471    magn:    0.0000    constr:    0.0000
     atom:   37    charge:    1.9471    magn:    0.0000    constr:    0.0000
     atom:   38    charge:    3.1196    magn:    0.0000    constr:    0.0000
     atom:   39    charge:    1.9549    magn:   -0.0000    constr:    0.0000
     atom:   40    charge:    1.9383    magn:   -0.0000    constr:    0.0000
     atom:   41    charge:    1.9505    magn:   -0.0000    constr:    0.0000
     atom:   42    charge:    3.1141    magn:    0.0000    constr:    0.0000
     atom:   43    charge:    1.9413    magn:   -0.0000    constr:    0.0000
     atom:   44    charge:    1.9517    magn:   -0.0000    constr:    0.0000
     atom:   45    charge:    1.9468    magn:   -0.0000    constr:    0.0000
     atom:   46    charge:    3.1165    magn:    0.0000    constr:    0.0000
     atom:   47    charge:    1.9431    magn:   -0.0000    constr:    0.0000
     atom:   48    charge:    1.9445    magn:   -0.0000    constr:    0.0000
     atom:   49    charge:    0.6580    magn:   -0.0000    constr:    0.0000
     atom:   50    charge:    1.9578    magn:   -0.0000    constr:    0.0000
     atom:   51    charge:    0.4020    magn:    0.0000    constr:    0.0000
     atom:   52    charge:    0.4006    magn:    0.0000    constr:    0.0000
     atom:   53    charge:    0.4167    magn:    0.0000    constr:    0.0000
     atom:   54    charge:    0.3912    magn:    0.0000    constr:    0.0000

     total cpu time spent up to now is     1620.8 secs

     total energy              =   -3021.41844188 Ry
     Harris-Foulkes estimate   =   -3021.41845664 Ry
     estimated scf accuracy    <       0.00004692 Ry

     total magnetization       =     0.00 Bohr mag/cell
     absolute magnetization    =     0.00 Bohr mag/cell

     iteration #  6     ecut=    40.42 Ry     beta=0.10
     Davidson diagonalization with overlap
     ethr =  1.18E-08,  avg # of iterations =  3.0

     negative rho (up, down):  1.209E-02 1.209E-02
 
     Magnetic moment per site:
     atom:    1    charge:    3.1250    magn:   -0.0001    constr:    0.0000
     atom:    2    charge:    1.9452    magn:    0.0000    constr:    0.0000
     atom:    3    charge:    3.1198    magn:    0.0000    constr:    0.0000
     atom:    4    charge:    1.9504    magn:   -0.0000    constr:    0.0000
     atom:    5    charge:    3.1166    magn:    0.0000    constr:    0.0000
     atom:    6    charge:    1.9476    magn:   -0.0000    constr:    0.0000
     atom:    7    charge:    3.1157    magn:    0.0000    constr:    0.0000
     atom:    8    charge:    1.9453    magn:   -0.0000    constr:    0.0000
     atom:    9    charge:    3.1250    magn:   -0.0001    constr:    0.0000
     atom:   10    charge:    1.9452    magn:    0.0000    constr:    0.0000
     atom:   11    charge:    3.1197    magn:    0.0000    constr:    0.0000
     atom:   12    charge:    1.9504    magn:   -0.0000    constr:    0.0000
     atom:   13    charge:    3.1158    magn:    0.0000    constr:    0.0000
     atom:   14    charge:    1.9587    magn:   -0.0000    constr:    0.0000
     atom:   15    charge:    3.1188    magn:    0.0000    constr:    0.0000
     atom:   16    charge:    1.9445    magn:   -0.0000    constr:    0.0000
     atom:   17    charge:    1.9184    magn:    0.0002    constr:    0.0000
     atom:   18    charge:    3.1239    magn:   -0.0000    constr:    0.0000
     atom:   19    charge:    1.9408    magn:   -0.0000    constr:    0.0000
     atom:   20    charge:    1.9471    magn:    0.0000    constr:    0.0000
     atom:   21    charge:    1.9471    magn:    0.0000    constr:    0.0000
     atom:   22    charge:    3.1196    magn:    0.0000    constr:    0.0000
     atom:   23    charge:    1.9566    magn:   -0.0000    constr:    0.0000
     atom:   24    charge:    1.9379    magn:   -0.0000    constr:    0.0000
     atom:   25    charge:    1.9505    magn:   -0.0000    constr:    0.0000
     atom:   26    charge:    3.1145    magn:    0.0000    constr:    0.0000
     atom:   27    charge:    1.9398    magn:   -0.0000    constr:    0.0000
     atom:   28    charge:    1.9517    magn:   -0.0000    constr:    0.0000
     atom:   29    charge:    1.9476    magn:   -0.0000    constr:    0.0000
     atom:   30    charge:    3.1167    magn:    0.0000    constr:    0.0000
     atom:   31    charge:    1.9447    magn:   -0.0000    constr:    0.0000
     atom:   32    charge:    1.9440    magn:   -0.0000    constr:    0.0000
     atom:   33    charge:    1.9184    magn:    0.0002    constr:    0.0000
     atom:   34    charge:    3.1239    magn:   -0.0000    constr:    0.0000
     atom:   35    charge:    1.9408    magn:   -0.0000    constr:    0.0000
     atom:   36    charge:    1.9471    magn:    0.0000    constr:    0.0000
     atom:   37    charge:    1.9471    magn:    0.0000    constr:    0.0000
     atom:   38    charge:    3.1196    magn:    0.0000    constr:    0.0000
     atom:   39    charge:    1.9549    magn:   -0.0000    constr:    0.0000
     atom:   40    charge:    1.9383    magn:   -0.0000    constr:    0.0000
     atom:   41    charge:    1.9505    magn:   -0.0000    constr:    0.0000
     atom:   42    charge:    3.1141    magn:    0.0000    constr:    0.0000
     atom:   43    charge:    1.9413    magn:   -0.0000    constr:    0.0000
     atom:   44    charge:    1.9517    magn:   -0.0000    constr:    0.0000
     atom:   45    charge:    1.9468    magn:   -0.0000    constr:    0.0000
     atom:   46    charge:    3.1165    magn:    0.0000    constr:    0.0000
     atom:   47    charge:    1.9431    magn:   -0.0000    constr:    0.0000
     atom:   48    charge:    1.9444    magn:   -0.0000    constr:    0.0000
     atom:   49    charge:    0.6580    magn:   -0.0000    constr:    0.0000
     atom:   50    charge:    1.9578    magn:   -0.0000    constr:    0.0000
     atom:   51    charge:    0.4021    magn:    0.0000    constr:    0.0000
     atom:   52    charge:    0.4006    magn:    0.0000    constr:    0.0000
     atom:   53    charge:    0.4162    magn:    0.0000    constr:    0.0000
     atom:   54    charge:    0.3918    magn:    0.0000    constr:    0.0000

     total cpu time spent up to now is     1820.1 secs

     total energy              =   -3021.41844367 Ry
     Harris-Foulkes estimate   =   -3021.41844511 Ry
     estimated scf accuracy    <       0.00001067 Ry

     total magnetization       =     0.00 Bohr mag/cell
     absolute magnetization    =     0.00 Bohr mag/cell

     iteration #  7     ecut=    40.42 Ry     beta=0.10
     Davidson diagonalization with overlap
     ethr =  2.68E-09,  avg # of iterations =  3.1

     negative rho (up, down):  1.209E-02 1.209E-02
 
     Magnetic moment per site:
     atom:    1    charge:    3.1250    magn:   -0.0001    constr:    0.0000
     atom:    2    charge:    1.9452    magn:    0.0000    constr:    0.0000
     atom:    3    charge:    3.1198    magn:    0.0000    constr:    0.0000
     atom:    4    charge:    1.9504    magn:   -0.0000    constr:    0.0000
     atom:    5    charge:    3.1166    magn:    0.0000    constr:    0.0000
     atom:    6    charge:    1.9476    magn:   -0.0000    constr:    0.0000
     atom:    7    charge:    3.1157    magn:    0.0000    constr:    0.0000
     atom:    8    charge:    1.9453    magn:   -0.0000    constr:    0.0000
     atom:    9    charge:    3.1250    magn:   -0.0001    constr:    0.0000
     atom:   10    charge:    1.9452    magn:    0.0000    constr:    0.0000
     atom:   11    charge:    3.1197    magn:    0.0000    constr:    0.0000
     atom:   12    charge:    1.9504    magn:   -0.0000    constr:    0.0000
     atom:   13    charge:    3.1158    magn:    0.0000    constr:    0.0000
     atom:   14    charge:    1.9587    magn:   -0.0000    constr:    0.0000
     atom:   15    charge:    3.1188    magn:    0.0000    constr:    0.0000
     atom:   16    charge:    1.9445    magn:   -0.0000    constr:    0.0000
     atom:   17    charge:    1.9184    magn:    0.0001    constr:    0.0000
     atom:   18    charge:    3.1239    magn:   -0.0000    constr:    0.0000
     atom:   19    charge:    1.9408    magn:   -0.0000    constr:    0.0000
     atom:   20    charge:    1.9471    magn:    0.0000    constr:    0.0000
     atom:   21    charge:    1.9471    magn:    0.0000    constr:    0.0000
     atom:   22    charge:    3.1196    magn:    0.0000    constr:    0.0000
     atom:   23    charge:    1.9566    magn:   -0.0000    constr:    0.0000
     atom:   24    charge:    1.9379    magn:   -0.0000    constr:    0.0000
     atom:   25    charge:    1.9505    magn:   -0.0000    constr:    0.0000
     atom:   26    charge:    3.1145    magn:    0.0000    constr:    0.0000
     atom:   27    charge:    1.9398    magn:   -0.0000    constr:    0.0000
     atom:   28    charge:    1.9517    magn:   -0.0000    constr:    0.0000
     atom:   29    charge:    1.9476    magn:   -0.0000    constr:    0.0000
     atom:   30    charge:    3.1167    magn:    0.0000    constr:    0.0000
     atom:   31    charge:    1.9447    magn:   -0.0000    constr:    0.0000
     atom:   32    charge:    1.9440    magn:   -0.0000    constr:    0.0000
     atom:   33    charge:    1.9184    magn:    0.0001    constr:    0.0000
     atom:   34    charge:    3.1239    magn:   -0.0000    constr:    0.0000
     atom:   35    charge:    1.9408    magn:   -0.0000    constr:    0.0000
     atom:   36    charge:    1.9471    magn:    0.0000    constr:    0.0000
     atom:   37    charge:    1.9471    magn:    0.0000    constr:    0.0000
     atom:   38    charge:    3.1196    magn:    0.0000    constr:    0.0000
     atom:   39    charge:    1.9549    magn:   -0.0000    constr:    0.0000
     atom:   40    charge:    1.9383    magn:   -0.0000    constr:    0.0000
     atom:   41    charge:    1.9505    magn:   -0.0000    constr:    0.0000
     atom:   42    charge:    3.1141    magn:    0.0000    constr:    0.0000
     atom:   43    charge:    1.9413    magn:   -0.0000    constr:    0.0000
     atom:   44    charge:    1.9517    magn:   -0.0000    constr:    0.0000
     atom:   45    charge:    1.9468    magn:   -0.0000    constr:    0.0000
     atom:   46    charge:    3.1165    magn:    0.0000    constr:    0.0000
     atom:   47    charge:    1.9431    magn:   -0.0000    constr:    0.0000
     atom:   48    charge:    1.9444    magn:   -0.0000    constr:    0.0000
     atom:   49    charge:    0.6581    magn:   -0.0000    constr:    0.0000
     atom:   50    charge:    1.9577    magn:   -0.0000    constr:    0.0000
     atom:   51    charge:    0.4021    magn:    0.0000    constr:    0.0000
     atom:   52    charge:    0.4006    magn:    0.0000    constr:    0.0000
     atom:   53    charge:    0.4162    magn:    0.0000    constr:    0.0000
     atom:   54    charge:    0.3918    magn:    0.0000    constr:    0.0000

     total cpu time spent up to now is     2023.3 secs

     total energy              =   -3021.41844426 Ry
     Harris-Foulkes estimate   =   -3021.41844465 Ry
     estimated scf accuracy    <       0.00000147 Ry

     total magnetization       =     0.00 Bohr mag/cell
     absolute magnetization    =     0.00 Bohr mag/cell

     iteration #  8     ecut=    40.42 Ry     beta=0.10
     Davidson diagonalization with overlap
     ethr =  3.69E-10,  avg # of iterations =  3.0

     negative rho (up, down):  1.209E-02 1.209E-02
 
     Magnetic moment per site:
     atom:    1    charge:    3.1250    magn:   -0.0000    constr:    0.0000
     atom:    2    charge:    1.9452    magn:    0.0000    constr:    0.0000
     atom:    3    charge:    3.1198    magn:    0.0000    constr:    0.0000
     atom:    4    charge:    1.9504    magn:   -0.0000    constr:    0.0000
     atom:    5    charge:    3.1166    magn:    0.0000    constr:    0.0000
     atom:    6    charge:    1.9476    magn:   -0.0000    constr:    0.0000
     atom:    7    charge:    3.1157    magn:    0.0000    constr:    0.0000
     atom:    8    charge:    1.9452    magn:   -0.0000    constr:    0.0000
     atom:    9    charge:    3.1250    magn:   -0.0000    constr:    0.0000
     atom:   10    charge:    1.9452    magn:    0.0000    constr:    0.0000
     atom:   11    charge:    3.1197    magn:    0.0000    constr:    0.0000
     atom:   12    charge:    1.9504    magn:   -0.0000    constr:    0.0000
     atom:   13    charge:    3.1158    magn:    0.0000    constr:    0.0000
     atom:   14    charge:    1.9587    magn:   -0.0000    constr:    0.0000
     atom:   15    charge:    3.1188    magn:    0.0000    constr:    0.0000
     atom:   16    charge:    1.9445    magn:   -0.0000    constr:    0.0000
     atom:   17    charge:    1.9184    magn:    0.0001    constr:    0.0000
     atom:   18    charge:    3.1239    magn:   -0.0000    constr:    0.0000
     atom:   19    charge:    1.9408    magn:   -0.0000    constr:    0.0000
     atom:   20    charge:    1.9471    magn:    0.0000    constr:    0.0000
     atom:   21    charge:    1.9471    magn:    0.0000    constr:    0.0000
     atom:   22    charge:    3.1196    magn:    0.0000    constr:    0.0000
     atom:   23    charge:    1.9566    magn:   -0.0000    constr:    0.0000
     atom:   24    charge:    1.9379    magn:   -0.0000    constr:    0.0000
     atom:   25    charge:    1.9505    magn:   -0.0000    constr:    0.0000
     atom:   26    charge:    3.1145    magn:    0.0000    constr:    0.0000
     atom:   27    charge:    1.9398    magn:   -0.0000    constr:    0.0000
     atom:   28    charge:    1.9517    magn:   -0.0000    constr:    0.0000
     atom:   29    charge:    1.9476    magn:   -0.0000    constr:    0.0000
     atom:   30    charge:    3.1167    magn:    0.0000    constr:    0.0000
     atom:   31    charge:    1.9447    magn:   -0.0000    constr:    0.0000
     atom:   32    charge:    1.9440    magn:   -0.0000    constr:    0.0000
     atom:   33    charge:    1.9184    magn:    0.0001    constr:    0.0000
     atom:   34    charge:    3.1239    magn:   -0.0000    constr:    0.0000
     atom:   35    charge:    1.9408    magn:   -0.0000    constr:    0.0000
     atom:   36    charge:    1.9471    magn:    0.0000    constr:    0.0000
     atom:   37    charge:    1.9471    magn:    0.0000    constr:    0.0000
     atom:   38    charge:    3.1196    magn:    0.0000    constr:    0.0000
     atom:   39    charge:    1.9549    magn:   -0.0000    constr:    0.0000
     atom:   40    charge:    1.9383    magn:   -0.0000    constr:    0.0000
     atom:   41    charge:    1.9505    magn:   -0.0000    constr:    0.0000
     atom:   42    charge:    3.1141    magn:    0.0000    constr:    0.0000
     atom:   43    charge:    1.9413    magn:   -0.0000    constr:    0.0000
     atom:   44    charge:    1.9517    magn:   -0.0000    constr:    0.0000
     atom:   45    charge:    1.9468    magn:   -0.0000    constr:    0.0000
     atom:   46    charge:    3.1165    magn:    0.0000    constr:    0.0000
     atom:   47    charge:    1.9431    magn:   -0.0000    constr:    0.0000
     atom:   48    charge:    1.9444    magn:   -0.0000    constr:    0.0000
     atom:   49    charge:    0.6581    magn:   -0.0000    constr:    0.0000
     atom:   50    charge:    1.9577    magn:   -0.0000    constr:    0.0000
     atom:   51    charge:    0.4021    magn:    0.0000    constr:    0.0000
     atom:   52    charge:    0.4006    magn:    0.0000    constr:    0.0000
     atom:   53    charge:    0.4160    magn:    0.0000    constr:    0.0000
     atom:   54    charge:    0.3920    magn:    0.0000    constr:    0.0000

     total cpu time spent up to now is     2222.5 secs

     total energy              =   -3021.41844448 Ry
     Harris-Foulkes estimate   =   -3021.41844437 Ry
     estimated scf accuracy    <       0.00000079 Ry

     total magnetization       =     0.00 Bohr mag/cell
     absolute magnetization    =     0.00 Bohr mag/cell

     iteration #  9     ecut=    40.42 Ry     beta=0.10
     Davidson diagonalization with overlap
     ethr =  1.99E-10,  avg # of iterations =  3.1

     negative rho (up, down):  1.209E-02 1.209E-02
 
     Magnetic moment per site:
     atom:    1    charge:    3.1250    magn:   -0.0000    constr:    0.0000
     atom:    2    charge:    1.9452    magn:    0.0000    constr:    0.0000
     atom:    3    charge:    3.1198    magn:    0.0000    constr:    0.0000
     atom:    4    charge:    1.9504    magn:   -0.0000    constr:    0.0000
     atom:    5    charge:    3.1166    magn:    0.0000    constr:    0.0000
     atom:    6    charge:    1.9477    magn:   -0.0000    constr:    0.0000
     atom:    7    charge:    3.1157    magn:    0.0000    constr:    0.0000
     atom:    8    charge:    1.9452    magn:   -0.0000    constr:    0.0000
     atom:    9    charge:    3.1250    magn:   -0.0000    constr:    0.0000
     atom:   10    charge:    1.9452    magn:    0.0000    constr:    0.0000
     atom:   11    charge:    3.1197    magn:    0.0000    constr:    0.0000
     atom:   12    charge:    1.9504    magn:   -0.0000    constr:    0.0000
     atom:   13    charge:    3.1158    magn:    0.0000    constr:    0.0000
     atom:   14    charge:    1.9587    magn:   -0.0000    constr:    0.0000
     atom:   15    charge:    3.1188    magn:    0.0000    constr:    0.0000
     atom:   16    charge:    1.9446    magn:   -0.0000    constr:    0.0000
     atom:   17    charge:    1.9184    magn:    0.0001    constr:    0.0000
     atom:   18    charge:    3.1239    magn:   -0.0000    constr:    0.0000
     atom:   19    charge:    1.9408    magn:   -0.0000    constr:    0.0000
     atom:   20    charge:    1.9471    magn:    0.0000    constr:    0.0000
     atom:   21    charge:    1.9471    magn:    0.0000    constr:    0.0000
     atom:   22    charge:    3.1196    magn:    0.0000    constr:    0.0000
     atom:   23    charge:    1.9566    magn:   -0.0000    constr:    0.0000
     atom:   24    charge:    1.9379    magn:   -0.0000    constr:    0.0000
     atom:   25    charge:    1.9505    magn:   -0.0000    constr:    0.0000
     atom:   26    charge:    3.1145    magn:    0.0000    constr:    0.0000
     atom:   27    charge:    1.9398    magn:   -0.0000    constr:    0.0000
     atom:   28    charge:    1.9517    magn:   -0.0000    constr:    0.0000
     atom:   29    charge:    1.9476    magn:   -0.0000    constr:    0.0000
     atom:   30    charge:    3.1167    magn:    0.0000    constr:    0.0000
     atom:   31    charge:    1.9447    magn:   -0.0000    constr:    0.0000
     atom:   32    charge:    1.9440    magn:   -0.0000    constr:    0.0000
     atom:   33    charge:    1.9184    magn:    0.0001    constr:    0.0000
     atom:   34    charge:    3.1239    magn:   -0.0000    constr:    0.0000
     atom:   35    charge:    1.9408    magn:   -0.0000    constr:    0.0000
     atom:   36    charge:    1.9471    magn:    0.0000    constr:    0.0000
     atom:   37    charge:    1.9471    magn:    0.0000    constr:    0.0000
     atom:   38    charge:    3.1196    magn:    0.0000    constr:    0.0000
     atom:   39    charge:    1.9549    magn:   -0.0000    constr:    0.0000
     atom:   40    charge:    1.9383    magn:   -0.0000    constr:    0.0000
     atom:   41    charge:    1.9505    magn:   -0.0000    constr:    0.0000
     atom:   42    charge:    3.1141    magn:    0.0000    constr:    0.0000
     atom:   43    charge:    1.9413    magn:   -0.0000    constr:    0.0000
     atom:   44    charge:    1.9517    magn:   -0.0000    constr:    0.0000
     atom:   45    charge:    1.9468    magn:   -0.0000    constr:    0.0000
     atom:   46    charge:    3.1165    magn:    0.0000    constr:    0.0000
     atom:   47    charge:    1.9431    magn:   -0.0000    constr:    0.0000
     atom:   48    charge:    1.9444    magn:   -0.0000    constr:    0.0000
     atom:   49    charge:    0.6581    magn:   -0.0000    constr:    0.0000
     atom:   50    charge:    1.9578    magn:   -0.0000    constr:    0.0000
     atom:   51    charge:    0.4021    magn:    0.0000    constr:    0.0000
     atom:   52    charge:    0.4006    magn:    0.0000    constr:    0.0000
     atom:   53    charge:    0.4160    magn:    0.0000    constr:    0.0000
     atom:   54    charge:    0.3920    magn:    0.0000    constr:    0.0000

     total cpu time spent up to now is     2423.2 secs

     End of self-consistent calculation

 ------ SPIN UP ------------


          k = 0.0000 0.0000 0.0000 ( 34665 PWs)   bands (ev):

   -57.6990 -57.6641 -57.3181 -57.2818 -57.2328 -57.1101 -57.0737 -57.0728
   -57.0511 -57.0380 -56.9903 -56.9549 -56.7309 -56.6934 -56.1496 -56.1144
   -34.1351 -33.9813 -33.9528 -33.9000 -33.8703 -33.8057 -33.7453 -33.6536
   -33.6187 -33.6055 -33.5680 -33.5410 -33.5189 -33.5080 -33.4900 -33.4858
   -33.4650 -33.4547 -33.4314 -33.3991 -33.3244 -33.2923 -33.2721 -33.2628
   -33.2551 -33.2545 -33.2434 -33.2434 -33.2374 -33.2299 -33.2295 -33.2128
   -33.1806 -33.1803 -33.1750 -33.1411 -33.1185 -32.9969 -32.9788 -32.9579
   -32.9085 -32.8056 -32.5674 -32.5020 -32.4759 -32.3716 -32.2800 -32.1717
   -20.2980 -18.0129 -17.8417 -17.5573 -17.4622 -17.3730 -17.2522 -17.0779
   -17.0666 -16.9748 -16.9391 -16.8845 -16.7843 -16.7781 -16.7296 -16.7077
   -16.7037 -16.6629 -16.6114 -16.6050 -16.5363 -16.4159 -16.4031 -16.3984
   -16.3218 -16.2681 -16.1949 -16.1677 -16.1502 -15.9798 -15.9300 -14.7340
   -14.6503 -11.4681  -7.2498  -5.4722  -5.3956  -5.3159  -5.2075  -5.1968
    -5.1460  -5.1248  -4.8395  -4.8173  -4.4723  -4.4432  -4.3597  -4.3556
    -4.3220  -4.2328  -4.0902  -4.0613  -4.0561  -4.0181  -3.9997  -3.9916
    -3.9609  -3.9525  -3.9514  -3.8404  -3.7887  -3.7658  -3.7371  -3.7191
    -3.6327  -3.6173  -3.5874  -3.5781  -3.5202  -3.5081  -3.4092  -3.3938
    -3.3736  -3.2710  -3.2386  -3.1923  -3.0138  -2.9357  -2.8791  -2.8347
    -2.6953  -2.6075  -2.5902  -2.5804  -2.5760  -2.5690  -2.4319  -2.4147
    -2.3364  -2.2695  -2.2477  -2.2051  -2.2006  -2.1659  -2.1390  -2.0932
    -2.0481  -2.0302  -2.0206  -1.8864  -1.8661  -1.7616  -1.7366  -1.6245
    -1.5434  -1.5413  -1.4911  -1.4808  -1.4637  -1.4238  -1.3239  -1.3097
    -1.3024  -1.2801  -1.2431  -1.1358  -1.0869  -1.0780  -1.0678  -1.0203
    -0.9551  -0.9159  -0.8189  -0.7645  -0.6107  -0.5878  -0.5695  -0.4795
    -0.3767  -0.2424  -0.0850  -0.0268   0.1311   0.2480   0.2616   1.6424
     1.6749   1.9854   2.0018   2.0651   2.0950   2.2047   2.2436   2.2868
     2.4297   2.4970   2.5257   2.5305   2.5418   2.6308   2.6488   2.6570
     2.7151   2.7994   2.8268   2.8387   2.9107   2.9997   3.0330   3.0989
     3.1050   3.1139   3.1608   3.2019   3.2080   3.2263   3.2397   3.2512
     3.2604   3.2887   3.3967   3.4314   3.4564   3.4662   3.5282   3.5854
     3.6530   3.6947   3.8076   3.9807   4.0160   4.0915   4.1797   4.3199
     4.3384   4.3916   4.5857   4.5991   4.8103   4.8385   5.0869   5.1666
     5.2455   5.3305   5.4787   5.5173   5.5274   5.5930   5.6778   5.7117
     5.7996   5.8651   5.8763   5.8861   5.9544   6.0386   6.0478   6.0722
     6.1443   6.2290   6.2432   6.2969   6.3779   6.5819   6.6360   6.7556
     6.8409   7.0070   7.0384   7.1597   7.3022   7.5763   7.9086   8.2523
     8.3340   8.6779   8.7945   8.8723   8.9390   9.0081   9.1745   9.2551
     9.3521   9.3810   9.5316

          k = 0.0000 0.0280 0.0000 ( 34717 PWs)   bands (ev):

   -57.6967 -57.6664 -57.3157 -57.2842 -57.2324 -57.1078 -57.0758 -57.0706
   -57.0515 -57.0403 -56.9880 -56.9572 -56.7284 -56.6959 -56.1473 -56.1167
   -34.1098 -33.9793 -33.9546 -33.8939 -33.8444 -33.8122 -33.7723 -33.6309
   -33.6119 -33.5805 -33.5426 -33.5380 -33.5209 -33.5010 -33.4929 -33.4845
   -33.4719 -33.4622 -33.4294 -33.3922 -33.3183 -33.2905 -33.2859 -33.2643
   -33.2594 -33.2527 -33.2506 -33.2400 -33.2382 -33.2365 -33.2361 -33.2179
   -33.2029 -33.1855 -33.1774 -33.1451 -33.1419 -32.9930 -32.9774 -32.9592
   -32.9135 -32.8336 -32.5418 -32.5002 -32.4777 -32.3655 -32.2863 -32.1991
   -20.2979 -17.9511 -17.7840 -17.5043 -17.4100 -17.3294 -17.2255 -17.0918
   -17.0363 -16.9986 -16.9932 -16.8862 -16.8200 -16.7619 -16.7075 -16.6898
   -16.6762 -16.6654 -16.6570 -16.6421 -16.5953 -16.4397 -16.3845 -16.3686
   -16.3484 -16.2976 -16.2119 -16.1742 -16.1540 -16.0106 -15.9670 -14.7441
   -14.6737 -11.4678  -7.2495  -5.4367  -5.3148  -5.2563  -5.2002  -5.1306
    -5.0688  -5.0466  -4.7639  -4.7032  -4.4359  -4.4007  -4.3943  -4.3123
    -4.3015  -4.1602  -4.1243  -4.1142  -4.0919  -4.0709  -4.0326  -4.0312
    -3.9661  -3.9617  -3.9503  -3.8922  -3.8535  -3.8468  -3.8382  -3.7663
    -3.7219  -3.7068  -3.6661  -3.6163  -3.5757  -3.5576  -3.4311  -3.3592
    -3.3114  -3.2358  -3.2078  -3.1048  -2.9344  -2.8712  -2.7473  -2.7251
    -2.6140  -2.6010  -2.5255  -2.5101  -2.4783  -2.4410  -2.4125  -2.4080
    -2.3873  -2.3623  -2.2885  -2.2771  -2.1681  -2.1426  -2.1366  -2.0948
    -2.0224  -1.9975  -1.9546  -1.8765  -1.8105  -1.7685  -1.7074  -1.6825
    -1.6431  -1.6269  -1.5642  -1.5260  -1.4815  -1.4386  -1.4359  -1.3965
    -1.3550  -1.2717  -1.2185  -1.2135  -1.1590  -1.0898  -1.0690  -1.0224
    -1.0093  -0.9047  -0.8660  -0.7911  -0.7609  -0.7068  -0.6085  -0.5913
    -0.3950  -0.2705  -0.0918  -0.0810   0.1460   0.2016   0.2282   1.7287
     1.7747   1.9857   2.0647   2.1302   2.1513   2.2182   2.2739   2.3127
     2.4242   2.4610   2.4988   2.5351   2.5857   2.6028   2.6300   2.6914
     2.7324   2.7703   2.7967   2.9120   2.9223   2.9510   2.9758   3.0098
     3.1108   3.1164   3.1344   3.1747   3.1922   3.2051   3.2579   3.3040
     3.3352   3.3706   3.4067   3.4731   3.5063   3.5516   3.5615   3.6487
     3.6645   3.6854   3.7712   3.9595   4.0339   4.1138   4.1908   4.2860
     4.3230   4.3962   4.5407   4.6887   4.8639   4.9250   5.0907   5.2582
     5.3037   5.3350   5.5371   5.5673   5.6034   5.6244   5.6856   5.7202
     5.7841   5.7922   5.8513   5.8777   5.8986   5.9476   6.0690   6.1223
     6.1492   6.1569   6.1756   6.2067   6.2750   6.5584   6.6027   6.6946
     6.8459   6.9482   6.9791   7.0823   7.2308   7.5812   7.9165   8.0136
     8.0601   8.4555   8.5646   8.8385   8.9090   8.9978   9.0881   9.1320
     9.2727   9.4330   9.4975

          k = 0.0000 0.0560 0.0000 ( 34721 PWs)   bands (ev):

   -57.6903 -57.6729 -57.3091 -57.2908 -57.2316 -57.1017 -57.0819 -57.0643
   -57.0524 -57.0468 -56.9815 -56.9637 -56.7218 -56.7026 -56.1408 -56.1232
   -34.0400 -33.9740 -33.9596 -33.8768 -33.8453 -33.8297 -33.7734 -33.5963
   -33.5732 -33.5722 -33.5352 -33.5277 -33.5067 -33.5044 -33.4771 -33.4725
   -33.4565 -33.4265 -33.4191 -33.3728 -33.3164 -33.3133 -33.3131 -33.3018
   -33.2863 -33.2765 -33.2680 -33.2640 -33.2537 -33.2466 -33.2345 -33.2324
   -33.2104 -33.1985 -33.1709 -33.1653 -33.1266 -32.9880 -32.9738 -32.9626
   -32.9265 -32.9033 -32.4955 -32.4825 -32.4711 -32.3490 -32.3031 -32.2733
   -20.2976 -17.7800 -17.6254 -17.3730 -17.2762 -17.2606 -17.2193 -17.1672
   -17.1366 -16.9629 -16.9535 -16.9190 -16.8741 -16.8200 -16.7888 -16.7259
   -16.7163 -16.6844 -16.6255 -16.5972 -16.5403 -16.5052 -16.4233 -16.3783
   -16.3628 -16.3022 -16.2410 -16.1954 -16.1575 -16.1111 -16.0399 -14.7623
   -14.7243 -11.4670  -7.2486  -5.4037  -5.2138  -5.0766  -5.0378  -4.9246
    -4.8588  -4.8243  -4.5622  -4.5060  -4.4734  -4.4179  -4.4098  -4.3669
    -4.3318  -4.2602  -4.2354  -4.2122  -4.1965  -4.1870  -4.1562  -4.0757
    -4.0581  -4.0063  -3.9876  -3.9690  -3.9309  -3.8916  -3.8569  -3.8183
    -3.7975  -3.7318  -3.6360  -3.5862  -3.4343  -3.4283  -3.3385  -3.2691
    -3.2389  -3.2119  -3.1942  -3.0838  -2.8935  -2.8432  -2.8384  -2.7992
    -2.7222  -2.6688  -2.5482  -2.4742  -2.4444  -2.3226  -2.3165  -2.3115
    -2.3031  -2.2495  -2.2074  -2.1797  -2.1482  -2.1177  -2.0322  -2.0107
    -1.9613  -1.9479  -1.9176  -1.9054  -1.8837  -1.8491  -1.8175  -1.7832
    -1.7455  -1.6959  -1.6255  -1.5425  -1.5277  -1.5102  -1.4560  -1.4205
    -1.3806  -1.3651  -1.3503  -1.2911  -1.2394  -1.2176  -1.1562  -1.1030
    -1.0809  -1.0241  -0.9228  -0.8899  -0.8511  -0.7854  -0.7636  -0.6604
    -0.5874  -0.4636  -0.2425   0.0909   0.1431   0.1782   0.1849   1.8643
     2.0243   2.0972   2.1088   2.2092   2.2341   2.2690   2.3661   2.3888
     2.3955   2.4108   2.4338   2.4757   2.5029   2.5374   2.6738   2.6948
     2.7334   2.7748   2.8298   2.9032   2.9150   2.9377   2.9713   2.9729
     3.0147   3.0982   3.1370   3.1566   3.2497   3.2611   3.2857   3.3289
     3.3677   3.3858   3.4402   3.5368   3.5430   3.6359   3.6765   3.7267
     3.7598   3.8227   3.8575   3.8896   3.9312   4.1300   4.1413   4.1579
     4.3266   4.3751   4.5635   4.9059   5.0152   5.0615   5.1740   5.3779
     5.3815   5.4777   5.5175   5.5490   5.6476   5.7225   5.7236   5.7329
     5.7788   5.7871   5.7989   5.8558   5.8849   5.9465   5.9772   5.9903
     6.0008   6.0541   6.1548   6.1704   6.3063   6.3740   6.4099   6.6152
     6.6601   6.7805   6.8693   7.0419   7.2139   7.3342   7.4439   7.7267
     8.0797   8.2026   8.3424   8.6163   8.8861   8.9907   9.3108   9.3298
     9.4249   9.4376   9.5674

          k = 0.0000-0.0840 0.0000 ( 34678 PWs)   bands (ev):

   -57.6817 -57.6815 -57.3016 -57.2983 -57.2312 -57.0962 -57.0874 -57.0555
   -57.0555 -57.0528 -56.9732 -56.9721 -56.7147 -56.7097 -56.1321 -56.1320
   -33.9669 -33.9667 -33.9434 -33.9433 -33.8534 -33.8532 -33.6865 -33.6625
   -33.5664 -33.5630 -33.5289 -33.5184 -33.5141 -33.4773 -33.4536 -33.4243
   -33.4143 -33.4078 -33.3755 -33.3752 -33.3628 -33.3474 -33.3415 -33.3245
   -33.3231 -33.2851 -33.2783 -33.2762 -33.2694 -33.2675 -33.2329 -33.2312
   -33.2159 -33.2140 -33.1640 -33.1631 -33.0494 -33.0285 -32.9706 -32.9654
   -32.9403 -32.9373 -32.4889 -32.4889 -32.3731 -32.3731 -32.3261 -32.3260
   -20.2975 -17.5694 -17.5058 -17.4106 -17.3904 -17.2297 -17.1758 -17.0664
   -17.0622 -17.0163 -17.0036 -16.9899 -16.8725 -16.8399 -16.8399 -16.8013
   -16.7946 -16.5967 -16.5947 -16.5264 -16.5236 -16.4888 -16.4874 -16.4051
   -16.4029 -16.2632 -16.2611 -16.2015 -16.1975 -16.1324 -16.1021 -14.7610
   -14.7609 -11.4666  -7.2481  -5.3954  -5.2188  -4.8001  -4.7336  -4.7325
    -4.6562  -4.6426  -4.6379  -4.6023  -4.5737  -4.5106  -4.5015  -4.4010
    -4.3737  -4.3397  -4.3378  -4.3089  -4.2958  -4.2806  -4.2753  -4.0552
    -4.0334  -4.0240  -4.0111  -3.9928  -3.9431  -3.8103  -3.7931  -3.7892
    -3.7158  -3.6950  -3.6404  -3.5090  -3.4721  -3.3401  -3.3279  -3.2552
    -3.1389  -3.1168  -3.0428  -3.0197  -2.9627  -2.9253  -2.8056  -2.7889
    -2.6987  -2.6940  -2.5774  -2.5394  -2.5133  -2.4953  -2.4789  -2.4478
    -2.4391  -2.4186  -2.3307  -2.2463  -2.0287  -2.0076  -1.9679  -1.9409
    -1.9278  -1.8290  -1.8229  -1.8098  -1.7824  -1.7454  -1.7314  -1.7007
    -1.6661  -1.6404  -1.6158  -1.5588  -1.5160  -1.4880  -1.4816  -1.4534
    -1.4255  -1.4178  -1.4102  -1.3825  -1.3597  -1.3269  -1.2197  -1.1885
    -1.1011  -1.0734  -1.0092  -0.9778  -0.9712  -0.9604  -0.9419  -0.5245
    -0.5196  -0.4573  -0.4432   0.1432   0.1433   0.1859   0.1876   2.0388
     2.0420   2.2180   2.2196   2.2204   2.2364   2.2844   2.3394   2.3468
     2.3469   2.3720   2.3827   2.5272   2.5536   2.5546   2.6007   2.6639
     2.7147   2.7367   2.7496   2.8911   2.9222   2.9894   2.9970   3.0568
     3.0580   3.1016   3.1124   3.1798   3.2175   3.2328   3.2457   3.4033
     3.4258   3.4368   3.4395   3.4725   3.4833   3.7247   3.7654   3.8038
     3.8073   3.8317   3.9086   3.9309   3.9683   4.0732   4.0755   4.1255
     4.1261   4.4178   4.6715   4.9601   5.0002   5.2602   5.3302   5.4569
     5.4888   5.5080   5.5080   5.5706   5.6042   5.6463   5.6648   5.6708
     5.7987   5.8037   5.8259   5.8514   5.8615   5.8664   5.8827   5.9734
     6.0196   6.0586   6.0714   6.1586   6.1957   6.4052   6.4665   6.5643
     6.6041   6.7464   6.7734   6.9795   7.0312   7.1011   7.3273   7.7008
     7.8808   8.1668   8.4113   8.7591   8.8377   8.8754   9.1459   9.6880
     9.7052   9.7471   9.7926

          k = 0.0253 0.0000 0.0000 ( 34707 PWs)   bands (ev):

   -57.6990 -57.6641 -57.3181 -57.2818 -57.2328 -57.1100 -57.0736 -57.0729
   -57.0511 -57.0380 -56.9903 -56.9549 -56.7309 -56.6934 -56.1496 -56.1144
   -34.1355 -33.9813 -33.9528 -33.8993 -33.8704 -33.8058 -33.7453 -33.6543
   -33.6187 -33.6072 -33.5683 -33.5376 -33.5327 -33.5089 -33.4858 -33.4752
   -33.4638 -33.4547 -33.4314 -33.3922 -33.3243 -33.2925 -33.2718 -33.2629
   -33.2586 -33.2577 -33.2446 -33.2416 -33.2397 -33.2299 -33.2296 -33.2126
   -33.1805 -33.1802 -33.1753 -33.1411 -33.1187 -32.9969 -32.9812 -32.9570
   -32.9085 -32.8057 -32.5674 -32.5030 -32.4754 -32.3716 -32.2800 -32.1718
   -20.2978 -17.9831 -17.8017 -17.5150 -17.4333 -17.3564 -17.2588 -17.1447
   -17.0925 -16.9757 -16.9386 -16.8716 -16.8192 -16.8061 -16.7898 -16.7806
   -16.7301 -16.6930 -16.5568 -16.5344 -16.4542 -16.4528 -16.4040 -16.3704
   -16.3393 -16.3127 -16.1835 -16.1655 -16.1515 -15.9796 -15.9297 -14.7329
   -14.6502 -11.4669  -7.2471  -5.4667  -5.3070  -5.2648  -5.1956  -5.0978
    -5.0446  -5.0160  -4.8341  -4.8127  -4.6181  -4.4693  -4.4359  -4.3310
    -4.3115  -4.3017  -4.2479  -4.0995  -4.0369  -4.0330  -3.9968  -3.9451
    -3.9380  -3.9101  -3.8311  -3.8013  -3.7516  -3.7205  -3.6950  -3.6923
    -3.6207  -3.5983  -3.5704  -3.5629  -3.5168  -3.4477  -3.3339  -3.3102
    -3.2509  -3.2361  -3.1843  -3.1065  -3.0338  -2.9767  -2.9243  -2.8962
    -2.7520  -2.6740  -2.6335  -2.6004  -2.5796  -2.5303  -2.5199  -2.5039
    -2.4320  -2.3357  -2.3226  -2.2370  -2.2210  -2.1823  -2.1577  -2.0709
    -2.0093  -2.0008  -1.9635  -1.8825  -1.8502  -1.7535  -1.7396  -1.6510
    -1.5855  -1.5829  -1.5384  -1.4647  -1.4578  -1.3662  -1.3575  -1.3447
    -1.3373  -1.2907  -1.2744  -1.1899  -1.1277  -1.1173  -1.0779  -1.0450
    -0.9728  -0.9153  -0.8293  -0.7852  -0.7745  -0.6513  -0.6426  -0.5510
    -0.4213  -0.2368  -0.1160  -0.0541   0.1170   0.2052   0.2061   1.6618
     1.7248   2.0011   2.0713   2.1484   2.2230   2.2377   2.2696   2.3779
     2.3851   2.4575   2.5043   2.5219   2.5411   2.5781   2.5972   2.6361
     2.6556   2.7342   2.7573   2.8669   2.8838   2.9696   3.0306   3.1037
     3.1210   3.1437   3.1623   3.2032   3.2083   3.2537   3.2693   3.3395
     3.3772   3.4022   3.4507   3.4728   3.5355   3.5601   3.5916   3.5997
     3.6639   3.7298   3.7470   3.9136   4.0016   4.0960   4.1739   4.2761
     4.3742   4.3944   4.5529   4.6746   4.8633   4.9112   4.9260   5.0695
     5.1212   5.1458   5.1885   5.3505   5.5682   5.6212   5.6934   5.8660
     5.8826   5.9246   5.9590   6.0297   6.0799   6.1147   6.1603   6.2093
     6.2187   6.2517   6.2586   6.3078   6.4484   6.5230   6.6412   6.6656
     6.8201   6.8682   7.0340   7.1464   7.3020   7.7495   7.8528   8.0836
     8.3288   8.3596   8.4310   8.6831   8.8454   8.9682   9.1487   9.3449
     9.3629   9.4636   9.4947

          k = 0.0253 0.0280 0.0000 ( 34687 PWs)   bands (ev):

   -57.6967 -57.6664 -57.3157 -57.2842 -57.2324 -57.1077 -57.0758 -57.0707
   -57.0515 -57.0403 -56.9880 -56.9572 -56.7284 -56.6959 -56.1473 -56.1167
   -34.1101 -33.9793 -33.9546 -33.8932 -33.8445 -33.8121 -33.7723 -33.6316
   -33.6119 -33.5822 -33.5429 -33.5348 -33.5222 -33.5164 -33.4932 -33.4726
   -33.4662 -33.4610 -33.4294 -33.3854 -33.3182 -33.2907 -33.2836 -33.2643
   -33.2594 -33.2544 -33.2528 -33.2478 -33.2378 -33.2364 -33.2353 -33.2167
   -33.2030 -33.1855 -33.1774 -33.1450 -33.1418 -32.9931 -32.9795 -32.9584
   -32.9135 -32.8336 -32.5417 -32.5011 -32.4772 -32.3656 -32.2862 -32.1991
   -20.2977 -17.9228 -17.7450 -17.4638 -17.3835 -17.3093 -17.2323 -17.1284
   -17.0981 -17.0064 -16.9633 -16.8588 -16.8304 -16.8059 -16.7843 -16.7703
   -16.7130 -16.7000 -16.6004 -16.5800 -16.5066 -16.4753 -16.3816 -16.3653
   -16.3564 -16.3296 -16.2006 -16.1738 -16.1537 -16.0110 -15.9667 -14.7431
   -14.6738 -11.4665  -7.2466  -5.4399  -5.2459  -5.1981  -5.1807  -5.0214
    -4.9663  -4.9360  -4.7589  -4.7003  -4.5622  -4.4033  -4.3714  -4.3457
    -4.2599  -4.2531  -4.1868  -4.1185  -4.0873  -4.0645  -4.0338  -4.0210
    -3.9763  -3.9427  -3.9131  -3.8679  -3.8222  -3.8101  -3.7847  -3.7199
    -3.6970  -3.6645  -3.6154  -3.6055  -3.5416  -3.5260  -3.3540  -3.2977
    -3.2527  -3.2174  -3.1507  -3.0752  -2.9813  -2.9500  -2.7854  -2.7072
    -2.6805  -2.6368  -2.6108  -2.5347  -2.5037  -2.4542  -2.4481  -2.4203
    -2.4051  -2.3862  -2.3402  -2.3027  -2.2160  -2.1782  -2.1159  -2.1005
    -2.0667  -1.9940  -1.9500  -1.8922  -1.8653  -1.8259  -1.7618  -1.6752
    -1.6457  -1.6171  -1.5888  -1.5625  -1.5099  -1.4617  -1.4409  -1.3991
    -1.3447  -1.3281  -1.2699  -1.2562  -1.2053  -1.1095  -1.0983  -1.0608
    -1.0086  -0.8867  -0.8387  -0.8343  -0.7649  -0.7389  -0.6960  -0.6588
    -0.4322  -0.2815  -0.1342  -0.0859   0.1491   0.1785   0.1887   1.7208
     1.8449   2.0163   2.0987   2.1955   2.2445   2.2819   2.3162   2.3968
     2.4175   2.4670   2.4889   2.5244   2.5327   2.5524   2.5902   2.6740
     2.7051   2.7273   2.7872   2.8066   2.9303   2.9867   3.0097   3.0347
     3.1062   3.1342   3.1458   3.1725   3.2084   3.2421   3.3441   3.3734
     3.4060   3.4362   3.4626   3.5101   3.5524   3.5688   3.6361   3.6610
     3.6733   3.7080   3.7497   3.8945   3.9936   4.1380   4.1854   4.2527
     4.3065   4.4519   4.5093   4.7695   4.9290   4.9519   4.9932   5.0779
     5.1598   5.1753   5.2233   5.3867   5.6429   5.6823   5.7318   5.7775
     5.8542   5.8652   5.8713   6.0071   6.0709   6.0852   6.1193   6.1447
     6.1968   6.2087   6.2199   6.2354   6.4285   6.5274   6.6124   6.6602
     6.7829   6.8654   6.9630   7.1487   7.2252   7.4991   7.9269   8.0268
     8.0937   8.2635   8.4401   8.5812   8.6518   8.7809   8.9379   9.2772
     9.3511   9.4461   9.5166

          k = 0.0253 0.0560 0.0000 ( 34699 PWs)   bands (ev):

   -57.6903 -57.6729 -57.3091 -57.2908 -57.2316 -57.1017 -57.0818 -57.0643
   -57.0524 -57.0468 -56.9815 -56.9637 -56.7218 -56.7026 -56.1409 -56.1232
   -34.0403 -33.9739 -33.9597 -33.8763 -33.8454 -33.8295 -33.7734 -33.5963
   -33.5737 -33.5723 -33.5353 -33.5257 -33.5090 -33.5078 -33.4771 -33.4729
   -33.4555 -33.4266 -33.4138 -33.3674 -33.3168 -33.3140 -33.3088 -33.3016
   -33.2864 -33.2769 -33.2680 -33.2629 -33.2538 -33.2488 -33.2385 -33.2347
   -33.2106 -33.1992 -33.1709 -33.1652 -33.1265 -32.9880 -32.9752 -32.9624
   -32.9265 -32.9032 -32.4961 -32.4822 -32.4710 -32.3490 -32.3032 -32.2732
   -20.2974 -17.7566 -17.5896 -17.3436 -17.2645 -17.2450 -17.1938 -17.1680
   -17.1396 -16.9960 -16.9705 -16.8807 -16.8763 -16.8296 -16.7968 -16.7727
   -16.7481 -16.6707 -16.6233 -16.6049 -16.5795 -16.5305 -16.4270 -16.4124
   -16.3561 -16.2851 -16.2341 -16.1946 -16.1572 -16.1119 -16.0393 -14.7616
   -14.7245 -11.4657  -7.2457  -5.4111  -5.2129  -5.0312  -4.9489  -4.8131
    -4.7570  -4.7146  -4.5584  -4.4983  -4.4909  -4.4137  -4.3943  -4.3397
    -4.2711  -4.2314  -4.2158  -4.1921  -4.1480  -4.1413  -4.1065  -4.0618
    -4.0331  -4.0126  -3.9933  -3.9356  -3.9245  -3.8753  -3.8596  -3.8217
    -3.7746  -3.7162  -3.6549  -3.5718  -3.4746  -3.3981  -3.3282  -3.2818
    -3.2363  -3.2226  -3.1865  -3.0123  -2.9388  -2.8636  -2.8293  -2.7793
    -2.7587  -2.6465  -2.5934  -2.5098  -2.4893  -2.4387  -2.3925  -2.3662
    -2.3428  -2.3245  -2.2880  -2.2634  -2.1897  -2.1411  -2.1280  -2.0396
    -2.0114  -2.0090  -1.9470  -1.9385  -1.9031  -1.8614  -1.8356  -1.8120
    -1.7450  -1.7054  -1.6784  -1.6375  -1.5733  -1.5387  -1.4953  -1.4752
    -1.4312  -1.3730  -1.3385  -1.3022  -1.2232  -1.2061  -1.1313  -1.1060
    -1.0600  -1.0121  -0.9112  -0.8734  -0.8210  -0.7997  -0.7441  -0.6809
    -0.6070  -0.4654  -0.2562   0.0918   0.1284   0.1555   0.1881   1.8617
     2.0480   2.1321   2.1788   2.2312   2.2716   2.3057   2.3472   2.3847
     2.4259   2.4619   2.4807   2.5078   2.5202   2.5834   2.6935   2.7212
     2.7388   2.7762   2.8236   2.8397   2.9037   2.9523   2.9744   2.9858
     3.0271   3.0335   3.1560   3.2073   3.2863   3.3294   3.3402   3.3829
     3.4072   3.4388   3.4606   3.5405   3.5595   3.6306   3.6558   3.7342
     3.7927   3.8194   3.8613   3.9004   3.9045   4.0716   4.1166   4.1652
     4.3429   4.3845   4.6150   4.9646   5.0122   5.1267   5.1414   5.1579
     5.2619   5.2889   5.3131   5.4365   5.5097   5.5612   5.6370   5.7582
     5.8233   5.8501   5.8912   5.9340   5.9605   6.0033   6.0492   6.0614
     6.1362   6.1563   6.2224   6.3315   6.3791   6.4035   6.4801   6.6425
     6.6903   6.7963   6.8457   7.0350   7.1458   7.3637   7.4749   7.5845
     7.9768   8.1768   8.3525   8.5177   8.6704   8.8637   9.0416   9.1139
     9.1979   9.4713   9.6240

          k = 0.0253-0.0840 0.0000 ( 34722 PWs)   bands (ev):

   -57.6817 -57.6815 -57.3016 -57.2983 -57.2312 -57.0962 -57.0873 -57.0556
   -57.0555 -57.0528 -56.9732 -56.9721 -56.7147 -56.7097 -56.1321 -56.1320
   -33.9669 -33.9667 -33.9437 -33.9436 -33.8530 -33.8529 -33.6866 -33.6626
   -33.5664 -33.5630 -33.5295 -33.5182 -33.5139 -33.4774 -33.4528 -33.4245
   -33.4164 -33.4103 -33.3764 -33.3762 -33.3636 -33.3406 -33.3346 -33.3231
   -33.3216 -33.2849 -33.2781 -33.2764 -33.2696 -33.2660 -33.2365 -33.2350
   -33.2176 -33.2157 -33.1640 -33.1631 -33.0493 -33.0285 -32.9712 -32.9663
   -32.9403 -32.9373 -32.4892 -32.4892 -32.3731 -32.3731 -32.3261 -32.3260
   -20.2973 -17.5560 -17.4877 -17.3824 -17.3639 -17.2136 -17.1547 -17.0595
   -17.0501 -17.0044 -16.9800 -16.9757 -16.8892 -16.8795 -16.8694 -16.7860
[...]
    -1.2975  -1.2667  -1.2496  -1.1900  -1.1516  -1.0312  -1.0201  -1.0119
    -0.9891  -0.9486  -0.9045  -0.8384  -0.7567  -0.7016  -0.6459  -0.5941
    -0.5900  -0.5349  -0.5179   0.0660   0.0661   0.2107   0.2124   2.1534
     2.1542   2.2008   2.2027   2.2382   2.2391   2.2660   2.2977   2.4878
     2.4934   2.5253   2.5551   2.6088   2.6165   2.6793   2.6813   2.6907
     2.6919   2.8439   2.9096   2.9827   2.9977   3.0340   3.0415   3.0980
     3.2196   3.2491   3.2721   3.3326   3.3734   3.3902   3.4446   3.4925
     3.5000   3.5224   3.5489   3.5808   3.6034   3.6797   3.6998   3.7450
     3.8345   3.8908   3.9070   3.9527   3.9530   4.0960   4.1029   4.1116
     4.1121   4.6140   4.7830   4.7870   4.8017   4.8705   4.9202   4.9254
     4.9416   4.9843   5.0268   5.2488   5.3394   5.3587   5.3692   5.7296
     5.7997   5.9104   5.9265   5.9794   6.0421   6.1486   6.3025   6.3491
     6.3645   6.3743   6.4098   6.5748   6.6178   6.6649   6.6650   6.7028
     6.7630   6.8444   6.8454   6.8522   6.8531   7.3599   7.4080   7.5243
     7.6624   7.8244   8.0119   8.1704   8.2230   8.3154   8.3904   8.8248
     8.9118   9.0441   9.0818

          k =-0.0253 0.0280 0.0000 ( 34687 PWs)   bands (ev):

   -57.6968 -57.6665 -57.3156 -57.2842 -57.2324 -57.1077 -57.0757 -57.0707
   -57.0514 -57.0403 -56.9879 -56.9572 -56.7284 -56.6958 -56.1475 -56.1169
   -34.1101 -33.9794 -33.9547 -33.8932 -33.8445 -33.8122 -33.7724 -33.6315
   -33.6119 -33.5822 -33.5429 -33.5348 -33.5222 -33.5164 -33.4931 -33.4726
   -33.4661 -33.4609 -33.4293 -33.3854 -33.3182 -33.2907 -33.2836 -33.2643
   -33.2591 -33.2544 -33.2530 -33.2478 -33.2378 -33.2364 -33.2353 -33.2166
   -33.2030 -33.1854 -33.1774 -33.1450 -33.1418 -32.9931 -32.9794 -32.9584
   -32.9135 -32.8336 -32.5419 -32.5013 -32.4774 -32.3657 -32.2864 -32.1993
   -20.2977 -17.9229 -17.7450 -17.4638 -17.3836 -17.3094 -17.2323 -17.1284
   -17.0983 -17.0060 -16.9633 -16.8592 -16.8304 -16.8068 -16.7839 -16.7702
   -16.7130 -16.7002 -16.6002 -16.5796 -16.5066 -16.4753 -16.3816 -16.3654
   -16.3565 -16.3296 -16.2006 -16.1738 -16.1537 -16.0110 -15.9668 -14.7427
   -14.6734 -11.4665  -7.2466  -5.4398  -5.2458  -5.1982  -5.1807  -5.0218
    -4.9664  -4.9362  -4.7590  -4.7009  -4.5623  -4.4030  -4.3713  -4.3460
    -4.2610  -4.2499  -4.1881  -4.1172  -4.0911  -4.0647  -4.0363  -4.0202
    -3.9751  -3.9409  -3.9144  -3.8689  -3.8223  -3.8120  -3.7845  -3.7199
    -3.7011  -3.6629  -3.6150  -3.6042  -3.5394  -3.5253  -3.3583  -3.2900
    -3.2532  -3.2213  -3.1497  -3.0716  -2.9828  -2.9459  -2.7843  -2.7054
    -2.6809  -2.6368  -2.6104  -2.5320  -2.5048  -2.4516  -2.4477  -2.4232
    -2.4060  -2.3853  -2.3398  -2.3016  -2.2178  -2.1756  -2.1210  -2.1039
    -2.0627  -1.9909  -1.9504  -1.8937  -1.8639  -1.8281  -1.7431  -1.7093
    -1.6525  -1.5990  -1.5932  -1.5593  -1.5154  -1.4703  -1.4356  -1.3943
    -1.3449  -1.3326  -1.2809  -1.2419  -1.1981  -1.1077  -1.0961  -1.0591
    -1.0104  -0.8922  -0.8409  -0.8304  -0.7553  -0.7389  -0.7086  -0.6595
    -0.4333  -0.2815  -0.1348  -0.0857   0.1493   0.1788   0.1890   1.7207
     1.8449   2.0162   2.1002   2.1954   2.2458   2.2851   2.3190   2.4039
     2.4154   2.4500   2.4858   2.5298   2.5326   2.5472   2.6079   2.6685
     2.7054   2.7390   2.7756   2.8120   2.9389   2.9861   3.0041   3.0271
     3.1072   3.1357   3.1462   3.1742   3.2087   3.2393   3.3476   3.3725
     3.4037   3.4198   3.4642   3.5065   3.5613   3.5707   3.6370   3.6608
     3.6730   3.7090   3.7491   3.8934   3.9923   4.1398   4.1854   4.2530
     4.3065   4.4522   4.5095   4.7702   4.9370   4.9509   4.9840   5.0778
     5.1588   5.1749   5.2232   5.3855   5.6444   5.6746   5.7281   5.7873
     5.8523   5.8650   5.8723   6.0061   6.0735   6.0782   6.1236   6.1454
     6.1967   6.2071   6.2146   6.2427   6.4284   6.5272   6.6113   6.6659
     6.7913   6.8597   6.9630   7.1516   7.2264   7.5069   7.9341   8.0311
     8.0937   8.2324   8.4485   8.5749   8.6450   8.7716   8.9508   9.2539
     9.3622   9.4822   9.5022

          k =-0.0253 0.0560 0.0000 ( 34699 PWs)   bands (ev):

   -57.6904 -57.6729 -57.3091 -57.2907 -57.2316 -57.1017 -57.0818 -57.0643
   -57.0523 -57.0467 -56.9815 -56.9637 -56.7217 -56.7025 -56.1410 -56.1234
   -34.0403 -33.9740 -33.9598 -33.8763 -33.8454 -33.8295 -33.7734 -33.5963
   -33.5737 -33.5723 -33.5353 -33.5256 -33.5090 -33.5078 -33.4771 -33.4729
   -33.4555 -33.4265 -33.4136 -33.3673 -33.3167 -33.3140 -33.3087 -33.3016
   -33.2864 -33.2768 -33.2680 -33.2628 -33.2537 -33.2489 -33.2385 -33.2347
   -33.2104 -33.1992 -33.1708 -33.1652 -33.1264 -32.9880 -32.9751 -32.9625
   -32.9265 -32.9032 -32.4963 -32.4824 -32.4711 -32.3492 -32.3033 -32.2734
   -20.2974 -17.7566 -17.5896 -17.3436 -17.2645 -17.2451 -17.1940 -17.1680
   -17.1394 -16.9960 -16.9704 -16.8808 -16.8766 -16.8301 -16.7972 -16.7726
   -16.7479 -16.6704 -16.6232 -16.6044 -16.5795 -16.5308 -16.4270 -16.4125
   -16.3562 -16.2851 -16.2341 -16.1947 -16.1572 -16.1120 -16.0393 -14.7613
   -14.7241 -11.4657  -7.2457  -5.4111  -5.2129  -5.0309  -4.9489  -4.8137
    -4.7571  -4.7147  -4.5584  -4.4968  -4.4912  -4.4136  -4.3945  -4.3442
    -4.2714  -4.2328  -4.2154  -4.1924  -4.1478  -4.1408  -4.1075  -4.0619
    -4.0314  -4.0103  -3.9947  -3.9368  -3.9244  -3.8734  -3.8633  -3.8225
    -3.7741  -3.7142  -3.6557  -3.5721  -3.4732  -3.3970  -3.3297  -3.2831
    -3.2377  -3.2183  -3.1833  -3.0138  -2.9352  -2.8643  -2.8269  -2.7829
    -2.7565  -2.6448  -2.5922  -2.5108  -2.4873  -2.4388  -2.3945  -2.3621
    -2.3434  -2.3242  -2.2910  -2.2659  -2.1899  -2.1409  -2.1266  -2.0371
    -2.0206  -2.0038  -1.9452  -1.9426  -1.9047  -1.8620  -1.8312  -1.8068
    -1.7427  -1.7108  -1.6712  -1.6424  -1.5790  -1.5390  -1.5051  -1.4609
    -1.4311  -1.3721  -1.3475  -1.3020  -1.2247  -1.2058  -1.1272  -1.1038
    -1.0582  -1.0146  -0.9248  -0.8753  -0.8140  -0.7998  -0.7377  -0.6805
    -0.6069  -0.4671  -0.2577   0.0920   0.1287   0.1558   0.1883   1.8615
     2.0479   2.1349   2.1788   2.2281   2.2697   2.3064   2.3333   2.3837
     2.4443   2.4589   2.4856   2.5131   2.5207   2.5835   2.6927   2.7242
     2.7446   2.7758   2.8277   2.8408   2.8931   2.9497   2.9708   2.9866
     3.0239   3.0346   3.1702   3.2079   3.2902   3.3166   3.3339   3.3707
     3.4115   3.4365   3.4599   3.5430   3.5592   3.6347   3.6572   3.7347
     3.7930   3.8169   3.8622   3.8986   3.9067   4.0725   4.1166   4.1653
     4.3427   4.3843   4.6158   4.9659   5.0191   5.1233   5.1379   5.1561
     5.2594   5.2869   5.3152   5.4280   5.5114   5.5609   5.6398   5.7625
     5.8242   5.8480   5.8949   5.9359   5.9558   5.9950   6.0511   6.0635
     6.1358   6.1556   6.2291   6.3191   6.3794   6.4091   6.4793   6.6452
     6.6950   6.7961   6.8428   7.0360   7.1543   7.3638   7.4904   7.5918
     7.9766   8.1744   8.3496   8.5204   8.6187   8.8515   9.0533   9.1144
     9.1645   9.5131   9.6233

          k =-0.0506 0.0280 0.0000 ( 34685 PWs)   bands (ev):

   -57.6968 -57.6665 -57.3156 -57.2841 -57.2324 -57.1076 -57.0757 -57.0708
   -57.0514 -57.0403 -56.9879 -56.9572 -56.7284 -56.6958 -56.1475 -56.1169
   -34.1108 -33.9794 -33.9547 -33.8919 -33.8447 -33.8122 -33.7724 -33.6330
   -33.6119 -33.5855 -33.5435 -33.5357 -33.5277 -33.5199 -33.4930 -33.4722
   -33.4586 -33.4489 -33.4294 -33.3693 -33.3179 -33.2909 -33.2792 -33.2655
   -33.2643 -33.2615 -33.2588 -33.2537 -33.2379 -33.2364 -33.2342 -33.2143
   -33.2035 -33.1857 -33.1773 -33.1448 -33.1417 -32.9931 -32.9838 -32.9570
   -32.9135 -32.8336 -32.5417 -32.5032 -32.4764 -32.3657 -32.2864 -32.1993
   -20.2973 -17.8607 -17.6513 -17.3690 -17.3416 -17.2499 -17.2246 -17.2146
   -17.1226 -17.0434 -16.9636 -16.9208 -16.8710 -16.8577 -16.8550 -16.8329
   -16.7635 -16.7450 -16.5595 -16.5282 -16.5041 -16.4381 -16.4155 -16.3763
   -16.3689 -16.3118 -16.1914 -16.1722 -16.1525 -16.0123 -15.9666 -14.7408
   -14.6734 -11.4640  -7.2410  -5.4532  -5.2324  -5.1935  -4.8924  -4.8342
    -4.7201  -4.7051  -4.6750  -4.6556  -4.6303  -4.5095  -4.4279  -4.3455
    -4.3184  -4.3023  -4.1591  -4.1275  -4.0608  -4.0267  -4.0087  -3.9932
    -3.9826  -3.9098  -3.8598  -3.8159  -3.7737  -3.7611  -3.7190  -3.6907
    -3.6564  -3.6335  -3.5830  -3.5514  -3.4454  -3.3172  -3.2838  -3.2625
    -3.2272  -3.1689  -3.1023  -3.0562  -2.9529  -2.9370  -2.8754  -2.8403
    -2.7431  -2.6940  -2.6599  -2.6501  -2.6046  -2.5911  -2.5356  -2.4951
    -2.4368  -2.3877  -2.3812  -2.3355  -2.3088  -2.2547  -2.1796  -2.1366
    -2.1139  -2.0625  -2.0239  -1.9743  -1.9400  -1.9040  -1.8599  -1.8319
    -1.7548  -1.7403  -1.7118  -1.6409  -1.5395  -1.5067  -1.4847  -1.4175
    -1.3671  -1.3474  -1.2803  -1.2614  -1.2361  -1.1457  -1.1107  -1.0133
    -0.9769  -0.8797  -0.8552  -0.8135  -0.7782  -0.7636  -0.7052  -0.6898
    -0.5129  -0.3119  -0.2596  -0.0730   0.1100   0.1394   0.1627   1.7042
     1.9051   2.0604   2.1227   2.1275   2.1726   2.2411   2.3614   2.3722
     2.4063   2.4382   2.5179   2.5676   2.5746   2.6028   2.6839   2.6968
     2.7432   2.8028   2.8332   2.9029   2.9560   2.9817   3.0417   3.0605
     3.0912   3.1606   3.1712   3.2007   3.3025   3.3565   3.3763   3.4104
     3.4459   3.4581   3.5470   3.5863   3.6043   3.6535   3.6761   3.6849
     3.7172   3.7711   3.8185   3.8695   3.9325   4.0589   4.1687   4.2820
     4.2930   4.4228   4.6218   4.6897   4.7644   4.8112   4.8555   4.9851
     5.0124   5.1265   5.2241   5.4698   5.5946   5.6404   5.7209   5.8048
     5.8612   5.8727   5.9253   5.9465   5.9804   6.0932   6.1171   6.1391
     6.2312   6.4322   6.4830   6.5404   6.5778   6.6075   6.6855   6.7418
     6.7973   6.8174   6.9739   7.1144   7.1671   7.3972   7.5677   7.7074
     8.1371   8.1635   8.2450   8.3872   8.7505   8.9604   9.0098   9.0402
     9.3741   9.4440   9.6167

          k =-0.0506 0.0560 0.0000 ( 34596 PWs)   bands (ev):

   -57.6904 -57.6729 -57.3091 -57.2907 -57.2315 -57.1016 -57.0818 -57.0644
   -57.0523 -57.0468 -56.9815 -56.9637 -56.7218 -56.7025 -56.1410 -56.1234
   -34.0409 -33.9740 -33.9597 -33.8752 -33.8456 -33.8291 -33.7735 -33.5962
   -33.5748 -33.5723 -33.5356 -33.5216 -33.5155 -33.5111 -33.4771 -33.4736
   -33.4535 -33.4265 -33.4041 -33.3538 -33.3182 -33.3176 -33.3012 -33.2991
   -33.2867 -33.2768 -33.2679 -33.2605 -33.2538 -33.2535 -33.2478 -33.2397
   -33.2105 -33.2007 -33.1708 -33.1648 -33.1260 -32.9880 -32.9779 -32.9622
   -32.9264 -32.9030 -32.4974 -32.4820 -32.4710 -32.3492 -32.3033 -32.2733
   -20.2971 -17.7062 -17.5006 -17.2913 -17.2398 -17.1978 -17.1738 -17.1620
   -17.0899 -17.0371 -17.0061 -16.9136 -16.8567 -16.8491 -16.8446 -16.8065
   -16.7764 -16.7221 -16.6627 -16.6224 -16.6129 -16.5509 -16.5127 -16.3991
   -16.3435 -16.2637 -16.2263 -16.1932 -16.1565 -16.1136 -16.0385 -14.7601
   -14.7245 -11.4631  -7.2398  -5.4264  -5.2116  -5.0214  -4.6592  -4.6173
    -4.5155  -4.4995  -4.4839  -4.4564  -4.4324  -4.3676  -4.3248  -4.3017
    -4.2260  -4.2061  -4.1465  -4.1322  -4.0829  -4.0671  -4.0463  -4.0366
    -4.0144  -3.9966  -3.9689  -3.9149  -3.8945  -3.8885  -3.8218  -3.7877
    -3.7309  -3.6605  -3.6303  -3.5228  -3.4877  -3.3731  -3.3296  -3.2612
    -3.2584  -3.2457  -3.1424  -3.0138  -2.9339  -2.9042  -2.8515  -2.8296
    -2.7567  -2.7269  -2.6850  -2.6094  -2.5922  -2.5675  -2.5286  -2.4899
    -2.4286  -2.4064  -2.3660  -2.3291  -2.3167  -2.3003  -2.2556  -2.1780
    -2.1536  -2.1214  -2.1150  -2.0779  -2.0475  -2.0018  -1.9830  -1.9020
    -1.8915  -1.8522  -1.8329  -1.7244  -1.6377  -1.6062  -1.5731  -1.4786
    -1.4085  -1.3749  -1.3073  -1.2500  -1.2069  -1.1060  -1.0729  -1.0183
    -1.0027  -0.9367  -0.8537  -0.8188  -0.7705  -0.7562  -0.6921  -0.6571
    -0.6517  -0.5177  -0.3247   0.0780   0.1122   0.1301   0.1937   1.8668
     2.0767   2.1654   2.1996   2.2211   2.2437   2.2984   2.3480   2.3932
     2.4037   2.5375   2.5703   2.5793   2.6075   2.6283   2.6835   2.7547
     2.7821   2.8044   2.8389   2.8812   2.9635   3.0043   3.0284   3.0622
     3.0973   3.1363   3.1677   3.2569   3.3356   3.3674   3.3970   3.4410
     3.4789   3.4999   3.5218   3.5427   3.6150   3.6475   3.7115   3.7443
     3.7800   3.8515   3.8802   3.9194   3.9253   3.9543   4.1117   4.1749
     4.2894   4.4733   4.7249   4.8069   4.8166   4.8963   4.9423   5.0920
     5.1654   5.2315   5.2720   5.3278   5.3722   5.4349   5.4956   5.6261
     5.7808   5.8293   5.8817   5.9518   6.0372   6.1238   6.2163   6.2590
     6.2864   6.3459   6.4163   6.4504   6.5043   6.5784   6.6510   6.7164
     6.7307   6.8247   6.8516   6.9846   7.0557   7.4108   7.4358   7.5755
     7.7460   7.9430   8.0711   8.3793   8.5723   8.6067   8.7330   9.0037
     9.2178   9.3221   9.4527

     the Fermi energy is     0.9970 ev

!    total energy              =   -3021.41844456 Ry
     Harris-Foulkes estimate   =   -3021.41844455 Ry
     estimated scf accuracy    <       0.00000012 Ry

     The total energy is the sum of the following terms:

     one-electron contribution =  -41241.37875811 Ry
     hartree contribution      =   20694.93517988 Ry
     xc contribution           =    -553.69090948 Ry
     ewald contribution        =   18078.71625432 Ry
     smearing contrib. (-TS)   =      -0.00021118 Ry

     total magnetization       =     0.00 Bohr mag/cell
     absolute magnetization    =     0.00 Bohr mag/cell

     convergence has been achieved in   9 iterations

     Forces acting on atoms (Ry/au):


     negative rho (up, down):  1.209E-02 1.209E-02
     atom    1 type  1   force =     0.00001829   -0.00035721   -0.13379637
     atom    2 type  2   force =     0.00000711    0.00002624    0.07212824
     atom    3 type  1   force =    -0.00135505    0.00030715   -0.06096828
     atom    4 type  2   force =     0.00290404    0.00048752    0.00638437
     atom    5 type  1   force =     0.00027576    0.00184982    0.00352692
     atom    6 type  2   force =     0.00006219   -0.00002783   -0.00286809
     atom    7 type  1   force =    -0.00034280   -0.00085303    0.00451293
     atom    8 type  2   force =     0.00098846   -0.00020173   -0.00064563
     atom    9 type  1   force =    -0.00002743    0.00001911   -0.13355365
     atom   10 type  2   force =    -0.00006481    0.00006571    0.07131151
     atom   11 type  1   force =    -0.00131645   -0.00023825   -0.05588420
     atom   12 type  2   force =     0.00299618   -0.00006807    0.00610040
     atom   13 type  1   force =     0.00029369   -0.00147474    0.00347081
     atom   14 type  2   force =    -0.00119566   -0.00039355   -0.00289802
     atom   15 type  1   force =    -0.00055051    0.00026940    0.00447885
     atom   16 type  2   force =     0.00052490   -0.00017566   -0.00009305
     atom   17 type  2   force =    -0.00006842   -0.00007353    0.07939512
     atom   18 type  1   force =     0.00013842   -0.00017316    0.11912130
     atom   19 type  2   force =    -0.00010655   -0.00017434   -0.06668524
     atom   20 type  2   force =    -0.06322302    0.00014946   -0.03224522
     atom   21 type  2   force =     0.06320387    0.00001395   -0.03245144
     atom   22 type  1   force =     0.00072449    0.00107951    0.05974553
     atom   23 type  2   force =    -0.00017274    0.00005404   -0.00175186
     atom   24 type  2   force =    -0.00143284   -0.00000270   -0.02326448
     atom   25 type  2   force =    -0.00313277    0.00058924    0.00787039
     atom   26 type  1   force =     0.00064017    0.00029943    0.00461343
     atom   27 type  2   force =     0.00052667    0.00061286   -0.00382084
     atom   28 type  2   force =     0.00014258   -0.00009560   -0.00120146
     atom   29 type  2   force =     0.00021338   -0.00034302   -0.00059027
     atom   30 type  1   force =     0.00022894   -0.00070784    0.00386106
     atom   31 type  2   force =     0.00006349    0.00015690   -0.00260125
     atom   32 type  2   force =     0.00011252   -0.00025713   -0.00136398
     atom   33 type  2   force =    -0.00011576    0.00003742    0.07899496
     atom   34 type  1   force =     0.00006885   -0.00021991    0.11903636
     atom   35 type  2   force =    -0.00030328   -0.00005225   -0.06638590
     atom   36 type  2   force =    -0.06318139   -0.00005225   -0.03233262
     atom   37 type  2   force =     0.06332959   -0.00020428   -0.03249106
     atom   38 type  1   force =     0.00066321   -0.00098704    0.05996375
     atom   39 type  2   force =    -0.00045246    0.00010148   -0.00249677
     atom   40 type  2   force =    -0.00119006    0.00030438   -0.02217475
     atom   41 type  2   force =    -0.00316748   -0.00014858    0.00789297
     atom   42 type  1   force =     0.00051810    0.00005298    0.00372748
     atom   43 type  2   force =     0.00069346    0.00020998   -0.00298559
     atom   44 type  2   force =     0.00022398    0.00009870   -0.00115485
     atom   45 type  2   force =     0.00019091    0.00031242   -0.00061185
     atom   46 type  1   force =     0.00065007    0.00031666    0.00395342
     atom   47 type  2   force =     0.00005367   -0.00031574   -0.00134000
     atom   48 type  2   force =     0.00003589   -0.00008612   -0.00076157
     atom   49 type  3   force =    -0.00260584    0.06184686   -0.00041274
     atom   50 type  2   force =     0.00114392   -0.00553316   -0.00279636
     atom   51 type  4   force =     0.00030399   -0.00567327    0.00007429
     atom   52 type  4   force =     0.00035224    0.00008328    0.00073242
     atom   53 type  4   force =     0.00569618   -0.02594987    0.01265000
     atom   54 type  4   force =    -0.00398393   -0.02450464   -0.01091910

     Total force =     0.370102     Total SCF correction =     0.001106
 !ASE

     Writing output data file calc.save
 
     init_run     :     55.00s CPU     69.04s WALL (       1 calls)
     electrons    :   1966.46s CPU   2353.99s WALL (       1 calls)
     forces       :     39.45s CPU     41.45s WALL (       1 calls)

     Called by init_run:
     wfcinit      :     46.57s CPU     59.81s WALL (       1 calls)
     potinit      :      1.33s CPU      1.66s WALL (       1 calls)

     Called by electrons:
     c_bands      :   1717.97s CPU   2043.46s WALL (       9 calls)
     sum_band     :    208.76s CPU    265.10s WALL (       9 calls)
     v_of_rho     :      9.68s CPU     12.23s WALL (      10 calls)
     newd         :     34.06s CPU     37.42s WALL (      10 calls)
     mix_rho      :      0.31s CPU      0.45s WALL (       9 calls)
     vdW_energy   :      1.80s CPU      2.21s WALL (      11 calls)
     vdW_ffts     :      2.52s CPU      3.39s WALL (      22 calls)
     vdW_v        :      1.05s CPU      1.28s WALL (      11 calls)

     Called by c_bands:
     init_us_2    :      5.41s CPU      5.91s WALL (     800 calls)
     cegterg      :   1685.96s CPU   2009.48s WALL (     360 calls)

     Called by *egterg:
     h_psi        :    686.41s CPU    943.36s WALL (    1991 calls)
     s_psi        :     84.10s CPU     87.54s WALL (    1991 calls)
     g_psi        :      4.61s CPU      4.68s WALL (    1591 calls)
     cdiaghg      :    598.30s CPU    610.46s WALL (    1951 calls)

     Called by h_psi:
     add_vuspsi   :     84.55s CPU     88.30s WALL (    1991 calls)

     General routines
     calbec       :    128.37s CPU    130.89s WALL (    2391 calls)
     fft          :      5.25s CPU      7.02s WALL (     867 calls)
     ffts         :      0.06s CPU      0.08s WALL (      38 calls)
     fftw         :    446.74s CPU    747.28s WALL (  668406 calls)
     interpolate  :      0.33s CPU      0.55s WALL (      38 calls)
     davcio       :      0.10s CPU      3.39s WALL (      40 calls)
 
     Parallel routines
     fft_scatter  :    230.31s CPU    412.35s WALL (  669311 calls)
 
     PWSCF        : 34m21.88s CPU    41m 9.66s WALL

 
   This run was terminated on:  11:12:19  12Feb2018            

=------------------------------------------------------------------------------=
   JOB DONE.
=------------------------------------------------------------------------------=
