  python dir          : /home/vossj/suncat/lib/python2.7/site-packages/espresso
  espresso dir        : /home/vossj/suncat/esdld/espresso-dynpy-beef/bin
  pseudo dir          : /home/alatimer/bin/psp/esp_psp_w_gbrvRu/
  ase-espresso py git : ffa2778-git



     Program PWSCF v.5.1rc2 (svn rev. ) starts on 10Feb2018 at 20:35: 7 

     This program is part of the open-source Quantum ESPRESSO suite
     for quantum simulation of materials; please cite
         "P. Giannozzi et al., J. Phys.:Condens. Matter 21 395502 (2009);
          URL http://www.quantum-espresso.org", 
     in publications or presentations arising from this work. More details at
     http://www.quantum-espresso.org/quote

     Parallel version (MPI), running on    16 processors
     R & G space division:  proc/nbgrp/npool/nimage =      16
     Reading input from pw.inp
     Message from routine read_cards :
     DEPRECATED: no units specified in CELL_PARAMETERS card

     Current dimensions of program PWSCF are:
     Max number of different atomic species (ntypx) = 10
     Max number of k-points (npk) =  40000
     Max angular momentum in pseudopotentials (lmaxx) =  3

     **************************************************************************
     Initializing libbeef V0.1.1 with the BEEF-vdW functional.
     Citation: Wellendorff et al., PRB 85, 235149 (2012).
     **************************************************************************


     IMPORTANT: XC functional enforced from input :
     Exchange-correlation      = BEEF ( 1  4 27 13 2)
     Any further DFT definition will be discarded
     Please, verify this is what you really want


     Subspace diagonalization in iterative solution of the eigenvalue problem:
     a serial algorithm will be used

 
     Parallelization info
     --------------------
     sticks:   dense  smooth     PW     G-vecs:    dense   smooth      PW
     Min         281     112     31                68535    17318    2565
     Max         282     113     32                68545    17369    2582
     Sum        4501    1795    503              1096637   277353   41113
 
     Generating pointlists ...
     new r_m :   0.4125 (alat units)  0.7795 (a.u.) for type    1
     new r_m :   0.4125 (alat units)  0.7795 (a.u.) for type    2


     bravais-lattice index     =            0
     lattice parameter (alat)  =       1.8897  a.u.
     unit-cell volume          =    7990.9933 (a.u.)^3
     number of atoms/cell      =           49
     number of atomic types    =            2
     number of electrons       =       390.00
     number of Kohn-Sham states=          295
     kinetic-energy cutoff     =      40.4243  Ry
     charge density cutoff     =     404.2426  Ry
     convergence threshold     =      7.3E-07
     mixing beta               =       0.1000
     number of iterations used =           10  plain     mixing
     Exchange-correlation      = BEEF ( 1  4 27 13 2)
     nstep                     =           50


     celldm(1)=   1.889726  celldm(2)=   0.000000  celldm(3)=   0.000000
     celldm(4)=   0.000000  celldm(5)=   0.000000  celldm(6)=   0.000000

     crystal axes: (cart. coord. in units of alat)
               a(1) = (   6.590708   0.000000   0.000000 )  
               a(2) = (   0.000000   5.950229   0.000000 )  
               a(3) = (   0.000000   0.000000  30.195235 )  

     reciprocal axes: (cart. coord. in units 2 pi/alat)
               b(1) = (  0.151729  0.000000  0.000000 )  
               b(2) = (  0.000000  0.168061  0.000000 )  
               b(3) = (  0.000000  0.000000  0.033118 )  


     PseudoPot. # 1 for Ti read from file:
     /home/alatimer/bin/psp/esp_psp_w_gbrvRu/Ti.UPF
     MD5 check sum: 8e4df49b7f0d34bbd5052bf3f5ea0213
     Pseudo is Ultrasoft, Zval = 12.0
     Generated by new atomic code, or converted to UPF format
     Using radial grid of  851 points,  6 beta functions with: 
                l(1) =   0
                l(2) =   0
                l(3) =   1
                l(4) =   1
                l(5) =   2
                l(6) =   2
     Q(r) pseudized with  8 coefficients,  rinner =    1.000   1.000   1.000
                                                       1.000   1.000

     PseudoPot. # 2 for  O read from file:
     /home/alatimer/bin/psp/esp_psp_w_gbrvRu/O.UPF
     MD5 check sum: e057bbcf3229fb5d8c36c0c92f9568b4
     Pseudo is Ultrasoft + core correction, Zval =  6.0
     Generated using "atomic" code by A. Dal Corso  v.5.0.2 svn rev. 9415
     Using radial grid of 1095 points,  4 beta functions with: 
                l(1) =   0
                l(2) =   0
                l(3) =   1
                l(4) =   1
     Q(r) pseudized with 0 coefficients 


     vdW kernel table read from file vdW_kernel_table
     MD5 check sum: 095c7af220d748ca6e76c0b4c6cfb241

     atomic species   valence    mass     pseudopotential
        Ti1           12.00    47.88000     Ti( 1.00)
        O1             6.00    15.99940      O( 1.00)

     Starting magnetic structure 
     atomic species   magnetization
        Ti1          0.250
        O1           0.500

     No symmetry found



   Cartesian axes

     site n.     atom                  positions (alat units)
         1           Ti1 tau(   1) = (   1.6476770   0.7437786   2.6545865  )
         2           O1  tau(   2) = (   1.6476770   2.2313359   3.9361215  )
         3           Ti1 tau(   3) = (   1.6476770   2.2313359   5.9499405  )
         4           O1  tau(   4) = (   0.3661420   0.7437786   5.9499405  )
         5           Ti1 tau(   5) = (   1.5277661   0.7316361   9.1979924  )
         6           O1  tau(   6) = (   1.6632133   2.1793878  10.6093433  )
         7           Ti1 tau(   7) = (   1.6165400   2.1742892  12.4450098  )
         8           O1  tau(   8) = (   0.4211133   0.7189415  12.7146628  )
         9           Ti1 tau(   9) = (   1.6476770   3.7188931   2.6545865  )
        10           O1  tau(  10) = (   1.6476770   5.2064503   3.9361215  )
        11           Ti1 tau(  11) = (   1.6476770   5.2064503   5.9499405  )
        12           O1  tau(  12) = (   0.3661420   3.7188931   5.9499405  )
        13           Ti1 tau(  13) = (   1.5318737   3.7073984   9.2114718  )
        14           O1  tau(  14) = (   1.6603548   5.2054729  10.6082275  )
        15           Ti1 tau(  15) = (   1.6160620   5.2125286  12.4458513  )
        16           O1  tau(  16) = (   0.3672395   3.6890226  12.4512313  )
        17           O1  tau(  17) = (   1.6476770   2.2313359   1.3730516  )
        18           Ti1 tau(  18) = (   4.9430310   2.2313359   2.6545865  )
        19           O1  tau(  19) = (   4.9430310   2.2313359   4.6684056  )
        20           O1  tau(  20) = (   6.2245660   0.7437786   2.6545865  )
        21           O1  tau(  21) = (   3.6614961   0.7437786   2.6545865  )
        22           Ti1 tau(  22) = (   4.9430310   0.7437786   5.9499405  )
        23           O1  tau(  23) = (   1.6494130   2.2266810   8.0229920  )
        24           O1  tau(  24) = (   4.9430310   2.2313359   7.2314755  )
        25           O1  tau(  25) = (   2.9292120   0.7437786   5.9499405  )
        26           Ti1 tau(  26) = (   4.8570045   2.2038353   9.3960648  )
        27           O1  tau(  27) = (   4.9365002   2.1563787  11.2526517  )
        28           O1  tau(  28) = (   6.2661622   0.7265345   9.2570196  )
        29           O1  tau(  29) = (   3.6607207   0.7252434   9.2585875  )
        30           Ti1 tau(  30) = (   4.8804456   0.7009689  12.7500804  )
        31           O1  tau(  31) = (   4.9885443   2.2055297  13.8060867  )
        32           O1  tau(  32) = (   2.8787315   0.7196740  12.7638696  )
        33           O1  tau(  33) = (   1.6476770   5.2064503   1.3730516  )
        34           Ti1 tau(  34) = (   4.9430310   5.2064503   2.6545865  )
        35           O1  tau(  35) = (   4.9430310   5.2064503   4.6684056  )
        36           O1  tau(  36) = (   6.2245660   3.7188931   2.6545865  )
        37           O1  tau(  37) = (   3.6614961   3.7188931   2.6545865  )
        38           Ti1 tau(  38) = (   4.9430310   3.7188931   5.9499405  )
        39           O1  tau(  39) = (   1.6492404   5.1840375   8.0235373  )
        40           O1  tau(  40) = (   4.9430310   5.2064503   7.2314755  )
        41           O1  tau(  41) = (   2.9292120   3.7188931   5.9499405  )
        42           Ti1 tau(  42) = (   4.8583452   5.1875290   9.3946917  )
        43           O1  tau(  43) = (   4.9366536   5.2195535  11.2514306  )
        44           O1  tau(  44) = (   6.2660656   3.7009687   9.2894568  )
        45           O1  tau(  45) = (   3.6605616   3.6984666   9.2954459  )
        46           Ti1 tau(  46) = (   5.1078939   3.6751672  12.7268755  )
        47           O1  tau(  47) = (   4.9880347   5.1576104  13.8055399  )
        48           O1  tau(  48) = (   3.0285069   3.6936269  12.4216869  )
        49           O1  tau(  49) = (   2.3858682   3.7294311  13.7464468  )

     number of k points=    40  Fermi-Dirac smearing, width (Ry)=  0.0073
                       cart. coord. in units 2pi/alat
        k(    1) = (   0.0000000   0.0000000   0.0000000), wk =   0.0277778
        k(    2) = (   0.0000000   0.0280101   0.0000000), wk =   0.0555556
        k(    3) = (   0.0000000   0.0560203   0.0000000), wk =   0.0555556
        k(    4) = (   0.0000000  -0.0840304   0.0000000), wk =   0.0277778
        k(    5) = (   0.0252881   0.0000000   0.0000000), wk =   0.0555556
        k(    6) = (   0.0252881   0.0280101   0.0000000), wk =   0.0555556
        k(    7) = (   0.0252881   0.0560203   0.0000000), wk =   0.0555556
        k(    8) = (   0.0252881  -0.0840304   0.0000000), wk =   0.0555556
        k(    9) = (   0.0505763   0.0000000   0.0000000), wk =   0.0555556
        k(   10) = (   0.0505763   0.0280101   0.0000000), wk =   0.0555556
        k(   11) = (   0.0505763   0.0560203   0.0000000), wk =   0.0555556
        k(   12) = (   0.0505763  -0.0840304   0.0000000), wk =   0.0555556
        k(   13) = (  -0.0758644   0.0000000   0.0000000), wk =   0.0277778
        k(   14) = (  -0.0758644   0.0280101   0.0000000), wk =   0.0555556
        k(   15) = (  -0.0758644   0.0560203   0.0000000), wk =   0.0555556
        k(   16) = (  -0.0758644  -0.0840304   0.0000000), wk =   0.0277778
        k(   17) = (  -0.0252881   0.0280101   0.0000000), wk =   0.0555556
        k(   18) = (  -0.0252881   0.0560203   0.0000000), wk =   0.0555556
        k(   19) = (  -0.0505763   0.0280101   0.0000000), wk =   0.0555556
        k(   20) = (  -0.0505763   0.0560203   0.0000000), wk =   0.0555556
        k(   21) = (   0.0000000   0.0000000   0.0000000), wk =   0.0277778
        k(   22) = (   0.0000000   0.0280101   0.0000000), wk =   0.0555556
        k(   23) = (   0.0000000   0.0560203   0.0000000), wk =   0.0555556
        k(   24) = (   0.0000000  -0.0840304   0.0000000), wk =   0.0277778
        k(   25) = (   0.0252881   0.0000000   0.0000000), wk =   0.0555556
        k(   26) = (   0.0252881   0.0280101   0.0000000), wk =   0.0555556
        k(   27) = (   0.0252881   0.0560203   0.0000000), wk =   0.0555556
        k(   28) = (   0.0252881  -0.0840304   0.0000000), wk =   0.0555556
        k(   29) = (   0.0505763   0.0000000   0.0000000), wk =   0.0555556
        k(   30) = (   0.0505763   0.0280101   0.0000000), wk =   0.0555556
        k(   31) = (   0.0505763   0.0560203   0.0000000), wk =   0.0555556
        k(   32) = (   0.0505763  -0.0840304   0.0000000), wk =   0.0555556
        k(   33) = (  -0.0758644   0.0000000   0.0000000), wk =   0.0277778
        k(   34) = (  -0.0758644   0.0280101   0.0000000), wk =   0.0555556
        k(   35) = (  -0.0758644   0.0560203   0.0000000), wk =   0.0555556
        k(   36) = (  -0.0758644  -0.0840304   0.0000000), wk =   0.0277778
        k(   37) = (  -0.0252881   0.0280101   0.0000000), wk =   0.0555556
        k(   38) = (  -0.0252881   0.0560203   0.0000000), wk =   0.0555556
        k(   39) = (  -0.0505763   0.0280101   0.0000000), wk =   0.0555556
        k(   40) = (  -0.0505763   0.0560203   0.0000000), wk =   0.0555556

     Dense  grid:  1096637 G-vectors     FFT dimensions: (  80,  72, 375)

     Smooth grid:   277353 G-vectors     FFT dimensions: (  54,  45, 240)

     Largest allocated arrays     est. size (Mb)     dimensions
        Kohn-Sham Wavefunctions         9.81 Mb     (    2180,  295)
        NL pseudopotentials            18.36 Mb     (    2180,  552)
        Each V/rho on FFT grid          4.22 Mb     (  138240,   2)
        Each G-vector array             0.52 Mb     (   68538)
        G-vector shells                 0.25 Mb     (   33046)
     Largest temporary arrays     est. size (Mb)     dimensions
        Auxiliary wavefunctions        39.25 Mb     (    2180, 1180)
        Each subspace H/S matrix       21.25 Mb     (    1180, 1180)
        Each <psi_i|beta_j> matrix      2.48 Mb     (     552,  295)
        Arrays for rho mixing          21.09 Mb     (  138240,   10)

     Check: negative/imaginary core charge=   -0.000049    0.000000

     The initial density is read from file :
     ./calc.save/charge-density.dat


     negative rho (up, down):  1.430E-02 1.430E-02


     ************************************************************************
     *
     * You are using vdW-DF for exchange-correlation in this calculation.
     * Please cite the following three references that made this development
     * possible:
     *
     *   M. Dion, H. Rydberg, E. Schroder, D. C. Langreth, and
     *   B. I. Lundqvist, Phys. Rev. Lett. 92, 246401 (2004).
     *
     *   T. Thonhauser, V. R. Cooper, S. Li, A. Puzder, P. Hyldgaard, and
     *   D. C. Langreth, Phys. Rev. B 76, 125112 (2007).
     *
     *   G. Roman-Perez and J. M. Soler, Phys. Rev. Lett. 103, 096102 (2009).
     *
     *
     * If you are using vdW-DF2, please also cite:
     *
     *   K. Lee, E. D. Murray, L. Kong, B. I. Lundqvist, and
     *   D. C. Langreth, Phys. Rev. B 82, 081101(R) (2010).
     *
     *
     * If you are calculating the stress with vdW-DF, please also cite:
     *
     *   R. Sabatini, E. Kucukbenli, B. Kolb, T. Thonhauser, and
     *   S. de Gironcoli, J. Phys.: Condens. Matter 24, 424209 (2012).
     *
     ************************************************************************

     Carrying out vdW-DF run using the following parameters:

     Nqs =      20    Nr_points =    1024   r_max =   100.000
     q_mesh =
               0.00001000     0.04494208     0.09755937     0.15916263
               0.23128650     0.31572767     0.41458969     0.53033537
               0.66584808     0.82450364     1.01025438     1.22772762
               1.48234092     1.78043706     2.12944203     2.53805004
               3.01644009     3.57652955     4.23227104     5.00000000

     Gradients computed in reciprocal space

     ************************************************************************


     Starting wfc are  292 randomized atomic wfcs +    3 random wfc

     total cpu time spent up to now is       69.1 secs

     Self-consistent Calculation

     iteration #  1     ecut=    40.42 Ry     beta=0.10
     Davidson diagonalization with overlap
     ethr =  1.00E-05,  avg # of iterations = 17.3

     negative rho (up, down):  1.430E-02 1.430E-02
 
     Magnetic moment per site:
     atom:    1    charge:    3.1251    magn:   -0.0002    constr:    0.0000
     atom:    2    charge:    2.0895    magn:    0.0000    constr:    0.0000
     atom:    3    charge:    3.1196    magn:   -0.0000    constr:    0.0000
     atom:    4    charge:    2.0871    magn:   -0.0001    constr:    0.0000
     atom:    5    charge:    3.1167    magn:    0.0000    constr:    0.0000
     atom:    6    charge:    2.0895    magn:   -0.0001    constr:    0.0000
     atom:    7    charge:    3.1189    magn:    0.0001    constr:    0.0000
     atom:    8    charge:    2.0873    magn:   -0.0001    constr:    0.0000
     atom:    9    charge:    3.1251    magn:   -0.0002    constr:    0.0000
     atom:   10    charge:    2.0894    magn:    0.0000    constr:    0.0000
     atom:   11    charge:    3.1196    magn:   -0.0000    constr:    0.0000
     atom:   12    charge:    2.0871    magn:   -0.0001    constr:    0.0000
     atom:   13    charge:    3.1147    magn:    0.0000    constr:    0.0000
     atom:   14    charge:    2.0871    magn:   -0.0001    constr:    0.0000
     atom:   15    charge:    3.1209    magn:    0.0001    constr:    0.0000
     atom:   16    charge:    2.1004    magn:   -0.0002    constr:    0.0000
     atom:   17    charge:    2.0622    magn:    0.0006    constr:    0.0000
     atom:   18    charge:    3.1239    magn:   -0.0001    constr:    0.0000
     atom:   19    charge:    2.0877    magn:   -0.0000    constr:    0.0000
     atom:   20    charge:    2.0846    magn:    0.0001    constr:    0.0000
     atom:   21    charge:    2.0846    magn:    0.0001    constr:    0.0000
     atom:   22    charge:    3.1196    magn:    0.0000    constr:    0.0000
     atom:   23    charge:    2.0902    magn:   -0.0001    constr:    0.0000
     atom:   24    charge:    2.0789    magn:   -0.0000    constr:    0.0000
     atom:   25    charge:    2.0869    magn:   -0.0001    constr:    0.0000
     atom:   26    charge:    3.1149    magn:    0.0000    constr:    0.0000
     atom:   27    charge:    2.0815    magn:   -0.0001    constr:    0.0000
     atom:   28    charge:    2.0885    magn:   -0.0001    constr:    0.0000
     atom:   29    charge:    2.0876    magn:   -0.0001    constr:    0.0000
     atom:   30    charge:    3.1182    magn:    0.0000    constr:    0.0000
     atom:   31    charge:    2.0823    magn:   -0.0001    constr:    0.0000
     atom:   32    charge:    2.0861    magn:   -0.0001    constr:    0.0000
     atom:   33    charge:    2.0622    magn:    0.0006    constr:    0.0000
     atom:   34    charge:    3.1239    magn:   -0.0001    constr:    0.0000
     atom:   35    charge:    2.0878    magn:   -0.0000    constr:    0.0000
     atom:   36    charge:    2.0846    magn:    0.0001    constr:    0.0000
     atom:   37    charge:    2.0846    magn:    0.0001    constr:    0.0000
     atom:   38    charge:    3.1196    magn:    0.0000    constr:    0.0000
     atom:   39    charge:    2.0910    magn:   -0.0001    constr:    0.0000
     atom:   40    charge:    2.0790    magn:   -0.0000    constr:    0.0000
     atom:   41    charge:    2.0869    magn:   -0.0001    constr:    0.0000
     atom:   42    charge:    3.1146    magn:    0.0000    constr:    0.0000
     atom:   43    charge:    2.0820    magn:   -0.0001    constr:    0.0000
     atom:   44    charge:    2.0857    magn:   -0.0001    constr:    0.0000
     atom:   45    charge:    2.0874    magn:   -0.0001    constr:    0.0000
     atom:   46    charge:    3.1240    magn:    0.0001    constr:    0.0000
     atom:   47    charge:    2.0850    magn:   -0.0001    constr:    0.0000
     atom:   48    charge:    2.0689    magn:   -0.0001    constr:    0.0000
     atom:   49    charge:    2.0391    magn:   -0.0001    constr:    0.0000

     total cpu time spent up to now is      843.3 secs

     total energy              =   -3004.20030155 Ry
     Harris-Foulkes estimate   =   -3004.21720444 Ry
     estimated scf accuracy    <       0.10827565 Ry

     total magnetization       =     0.00 Bohr mag/cell
     absolute magnetization    =     0.01 Bohr mag/cell

     iteration #  2     ecut=    40.42 Ry     beta=0.10
     Davidson diagonalization with overlap
     ethr =  2.78E-05,  avg # of iterations =  1.0

     negative rho (up, down):  1.430E-02 1.430E-02
 
     Magnetic moment per site:
     atom:    1    charge:    3.1251    magn:   -0.0002    constr:    0.0000
     atom:    2    charge:    2.0894    magn:    0.0000    constr:    0.0000
     atom:    3    charge:    3.1196    magn:   -0.0000    constr:    0.0000
     atom:    4    charge:    2.0870    magn:   -0.0001    constr:    0.0000
     atom:    5    charge:    3.1167    magn:    0.0000    constr:    0.0000
     atom:    6    charge:    2.0893    magn:   -0.0001    constr:    0.0000
     atom:    7    charge:    3.1175    magn:    0.0001    constr:    0.0000
     atom:    8    charge:    2.0874    magn:   -0.0001    constr:    0.0000
     atom:    9    charge:    3.1251    magn:   -0.0002    constr:    0.0000
     atom:   10    charge:    2.0894    magn:    0.0000    constr:    0.0000
     atom:   11    charge:    3.1196    magn:   -0.0000    constr:    0.0000
     atom:   12    charge:    2.0870    magn:   -0.0001    constr:    0.0000
     atom:   13    charge:    3.1147    magn:    0.0000    constr:    0.0000
     atom:   14    charge:    2.0873    magn:   -0.0001    constr:    0.0000
     atom:   15    charge:    3.1221    magn:    0.0001    constr:    0.0000
     atom:   16    charge:    2.1004    magn:   -0.0001    constr:    0.0000
     atom:   17    charge:    2.0622    magn:    0.0005    constr:    0.0000
     atom:   18    charge:    3.1239    magn:   -0.0001    constr:    0.0000
     atom:   19    charge:    2.0877    magn:   -0.0000    constr:    0.0000
     atom:   20    charge:    2.0846    magn:    0.0001    constr:    0.0000
     atom:   21    charge:    2.0846    magn:    0.0001    constr:    0.0000
     atom:   22    charge:    3.1196    magn:    0.0000    constr:    0.0000
     atom:   23    charge:    2.0902    magn:   -0.0001    constr:    0.0000
     atom:   24    charge:    2.0789    magn:   -0.0000    constr:    0.0000
     atom:   25    charge:    2.0869    magn:   -0.0000    constr:    0.0000
     atom:   26    charge:    3.1149    magn:    0.0000    constr:    0.0000
     atom:   27    charge:    2.0816    magn:   -0.0001    constr:    0.0000
     atom:   28    charge:    2.0885    magn:   -0.0001    constr:    0.0000
     atom:   29    charge:    2.0876    magn:   -0.0001    constr:    0.0000
     atom:   30    charge:    3.1182    magn:    0.0000    constr:    0.0000
     atom:   31    charge:    2.0822    magn:   -0.0001    constr:    0.0000
     atom:   32    charge:    2.0862    magn:   -0.0001    constr:    0.0000
     atom:   33    charge:    2.0622    magn:    0.0005    constr:    0.0000
     atom:   34    charge:    3.1239    magn:   -0.0001    constr:    0.0000
     atom:   35    charge:    2.0877    magn:   -0.0000    constr:    0.0000
     atom:   36    charge:    2.0846    magn:    0.0001    constr:    0.0000
     atom:   37    charge:    2.0846    magn:    0.0001    constr:    0.0000
     atom:   38    charge:    3.1196    magn:    0.0000    constr:    0.0000
     atom:   39    charge:    2.0910    magn:   -0.0001    constr:    0.0000
     atom:   40    charge:    2.0790    magn:   -0.0000    constr:    0.0000
     atom:   41    charge:    2.0869    magn:   -0.0000    constr:    0.0000
     atom:   42    charge:    3.1146    magn:    0.0000    constr:    0.0000
     atom:   43    charge:    2.0819    magn:   -0.0001    constr:    0.0000
     atom:   44    charge:    2.0857    magn:   -0.0001    constr:    0.0000
     atom:   45    charge:    2.0874    magn:   -0.0001    constr:    0.0000
     atom:   46    charge:    3.1240    magn:    0.0000    constr:    0.0000
     atom:   47    charge:    2.0852    magn:   -0.0001    constr:    0.0000
     atom:   48    charge:    2.0687    magn:   -0.0001    constr:    0.0000
     atom:   49    charge:    2.0411    magn:   -0.0001    constr:    0.0000

     total cpu time spent up to now is     1017.5 secs

     total energy              =   -3004.18347161 Ry
     Harris-Foulkes estimate   =   -3004.20221446 Ry
     estimated scf accuracy    <       0.05854003 Ry

     total magnetization       =     0.00 Bohr mag/cell
     absolute magnetization    =     0.01 Bohr mag/cell

     iteration #  3     ecut=    40.42 Ry     beta=0.10
     Davidson diagonalization with overlap
     ethr =  1.50E-05,  avg # of iterations =  2.1

     negative rho (up, down):  1.432E-02 1.432E-02
 
     Magnetic moment per site:
     atom:    1    charge:    3.1251    magn:   -0.0001    constr:    0.0000
     atom:    2    charge:    2.0894    magn:    0.0000    constr:    0.0000
     atom:    3    charge:    3.1196    magn:   -0.0000    constr:    0.0000
     atom:    4    charge:    2.0871    magn:   -0.0000    constr:    0.0000
     atom:    5    charge:    3.1167    magn:    0.0000    constr:    0.0000
     atom:    6    charge:    2.0879    magn:   -0.0001    constr:    0.0000
     atom:    7    charge:    3.1231    magn:    0.0001    constr:    0.0000
     atom:    8    charge:    2.0873    magn:   -0.0001    constr:    0.0000
     atom:    9    charge:    3.1251    magn:   -0.0001    constr:    0.0000
     atom:   10    charge:    2.0894    magn:    0.0000    constr:    0.0000
     atom:   11    charge:    3.1196    magn:   -0.0000    constr:    0.0000
     atom:   12    charge:    2.0870    magn:   -0.0000    constr:    0.0000
     atom:   13    charge:    3.1147    magn:    0.0000    constr:    0.0000
     atom:   14    charge:    2.0887    magn:   -0.0001    constr:    0.0000
     atom:   15    charge:    3.1164    magn:    0.0001    constr:    0.0000
     atom:   16    charge:    2.1004    magn:   -0.0001    constr:    0.0000
     atom:   17    charge:    2.0622    magn:    0.0004    constr:    0.0000
     atom:   18    charge:    3.1239    magn:   -0.0001    constr:    0.0000
     atom:   19    charge:    2.0877    magn:   -0.0000    constr:    0.0000
     atom:   20    charge:    2.0846    magn:    0.0001    constr:    0.0000
     atom:   21    charge:    2.0846    magn:    0.0001    constr:    0.0000
     atom:   22    charge:    3.1196    magn:    0.0000    constr:    0.0000
     atom:   23    charge:    2.0904    magn:   -0.0001    constr:    0.0000
     atom:   24    charge:    2.0789    magn:   -0.0000    constr:    0.0000
     atom:   25    charge:    2.0869    magn:   -0.0000    constr:    0.0000
     atom:   26    charge:    3.1149    magn:    0.0000    constr:    0.0000
     atom:   27    charge:    2.0824    magn:   -0.0000    constr:    0.0000
     atom:   28    charge:    2.0885    magn:   -0.0001    constr:    0.0000
     atom:   29    charge:    2.0876    magn:   -0.0001    constr:    0.0000
     atom:   30    charge:    3.1182    magn:    0.0000    constr:    0.0000
     atom:   31    charge:    2.0840    magn:   -0.0000    constr:    0.0000
     atom:   32    charge:    2.0862    magn:   -0.0001    constr:    0.0000
     atom:   33    charge:    2.0622    magn:    0.0004    constr:    0.0000
     atom:   34    charge:    3.1239    magn:   -0.0001    constr:    0.0000
     atom:   35    charge:    2.0877    magn:   -0.0000    constr:    0.0000
     atom:   36    charge:    2.0846    magn:    0.0001    constr:    0.0000
     atom:   37    charge:    2.0846    magn:    0.0001    constr:    0.0000
     atom:   38    charge:    3.1196    magn:    0.0000    constr:    0.0000
     atom:   39    charge:    2.0909    magn:   -0.0001    constr:    0.0000
     atom:   40    charge:    2.0790    magn:   -0.0000    constr:    0.0000
     atom:   41    charge:    2.0869    magn:   -0.0000    constr:    0.0000
     atom:   42    charge:    3.1146    magn:    0.0000    constr:    0.0000
     atom:   43    charge:    2.0812    magn:   -0.0000    constr:    0.0000
     atom:   44    charge:    2.0857    magn:   -0.0000    constr:    0.0000
     atom:   45    charge:    2.0874    magn:   -0.0001    constr:    0.0000
     atom:   46    charge:    3.1241    magn:    0.0000    constr:    0.0000
     atom:   47    charge:    2.0833    magn:   -0.0000    constr:    0.0000
     atom:   48    charge:    2.0692    magn:   -0.0001    constr:    0.0000
     atom:   49    charge:    2.0436    magn:   -0.0001    constr:    0.0000

     total cpu time spent up to now is     1209.4 secs

     total energy              =   -3004.17342870 Ry
     Harris-Foulkes estimate   =   -3004.18630497 Ry
     estimated scf accuracy    <       0.02189542 Ry

     total magnetization       =     0.00 Bohr mag/cell
     absolute magnetization    =     0.01 Bohr mag/cell

     iteration #  4     ecut=    40.42 Ry     beta=0.10
     Davidson diagonalization with overlap
     ethr =  5.61E-06,  avg # of iterations =  4.2

     negative rho (up, down):  1.432E-02 1.432E-02
 
     Magnetic moment per site:
     atom:    1    charge:    3.1251    magn:   -0.0001    constr:    0.0000
     atom:    2    charge:    2.0895    magn:    0.0000    constr:    0.0000
     atom:    3    charge:    3.1196    magn:   -0.0000    constr:    0.0000
     atom:    4    charge:    2.0871    magn:   -0.0000    constr:    0.0000
     atom:    5    charge:    3.1167    magn:    0.0000    constr:    0.0000
     atom:    6    charge:    2.0883    magn:   -0.0001    constr:    0.0000
     atom:    7    charge:    3.1235    magn:    0.0001    constr:    0.0000
     atom:    8    charge:    2.0874    magn:   -0.0001    constr:    0.0000
     atom:    9    charge:    3.1251    magn:   -0.0001    constr:    0.0000
     atom:   10    charge:    2.0895    magn:    0.0000    constr:    0.0000
     atom:   11    charge:    3.1196    magn:   -0.0000    constr:    0.0000
     atom:   12    charge:    2.0870    magn:   -0.0000    constr:    0.0000
     atom:   13    charge:    3.1147    magn:    0.0000    constr:    0.0000
     atom:   14    charge:    2.0884    magn:   -0.0001    constr:    0.0000
     atom:   15    charge:    3.1160    magn:    0.0001    constr:    0.0000
     atom:   16    charge:    2.1004    magn:   -0.0001    constr:    0.0000
     atom:   17    charge:    2.0622    magn:    0.0003    constr:    0.0000
     atom:   18    charge:    3.1239    magn:   -0.0001    constr:    0.0000
     atom:   19    charge:    2.0877    magn:   -0.0000    constr:    0.0000
     atom:   20    charge:    2.0846    magn:    0.0000    constr:    0.0000
     atom:   21    charge:    2.0846    magn:    0.0000    constr:    0.0000
     atom:   22    charge:    3.1196    magn:    0.0000    constr:    0.0000
     atom:   23    charge:    2.0904    magn:   -0.0000    constr:    0.0000
     atom:   24    charge:    2.0789    magn:   -0.0000    constr:    0.0000
     atom:   25    charge:    2.0869    magn:   -0.0000    constr:    0.0000
     atom:   26    charge:    3.1149    magn:    0.0000    constr:    0.0000
     atom:   27    charge:    2.0822    magn:   -0.0000    constr:    0.0000
     atom:   28    charge:    2.0885    magn:   -0.0000    constr:    0.0000
     atom:   29    charge:    2.0876    magn:   -0.0001    constr:    0.0000
     atom:   30    charge:    3.1182    magn:    0.0000    constr:    0.0000
     atom:   31    charge:    2.0839    magn:   -0.0000    constr:    0.0000
     atom:   32    charge:    2.0862    magn:   -0.0001    constr:    0.0000
     atom:   33    charge:    2.0622    magn:    0.0003    constr:    0.0000
     atom:   34    charge:    3.1239    magn:   -0.0001    constr:    0.0000
     atom:   35    charge:    2.0878    magn:   -0.0000    constr:    0.0000
     atom:   36    charge:    2.0846    magn:    0.0000    constr:    0.0000
     atom:   37    charge:    2.0846    magn:    0.0000    constr:    0.0000
     atom:   38    charge:    3.1196    magn:    0.0000    constr:    0.0000
     atom:   39    charge:    2.0909    magn:   -0.0000    constr:    0.0000
     atom:   40    charge:    2.0790    magn:   -0.0000    constr:    0.0000
     atom:   41    charge:    2.0869    magn:   -0.0000    constr:    0.0000
     atom:   42    charge:    3.1146    magn:    0.0000    constr:    0.0000
     atom:   43    charge:    2.0814    magn:   -0.0000    constr:    0.0000
     atom:   44    charge:    2.0857    magn:   -0.0000    constr:    0.0000
     atom:   45    charge:    2.0874    magn:   -0.0000    constr:    0.0000
     atom:   46    charge:    3.1241    magn:    0.0000    constr:    0.0000
     atom:   47    charge:    2.0834    magn:   -0.0000    constr:    0.0000
     atom:   48    charge:    2.0694    magn:   -0.0001    constr:    0.0000
     atom:   49    charge:    2.0437    magn:   -0.0001    constr:    0.0000

     total cpu time spent up to now is     1440.1 secs

     total energy              =   -3004.17611806 Ry
     Harris-Foulkes estimate   =   -3004.17638313 Ry
     estimated scf accuracy    <       0.00090436 Ry

     total magnetization       =     0.00 Bohr mag/cell
     absolute magnetization    =     0.00 Bohr mag/cell

     iteration #  5     ecut=    40.42 Ry     beta=0.10
     Davidson diagonalization with overlap
     ethr =  2.32E-07,  avg # of iterations =  4.2

     negative rho (up, down):  1.432E-02 1.432E-02
 
     Magnetic moment per site:
     atom:    1    charge:    3.1251    magn:   -0.0001    constr:    0.0000
     atom:    2    charge:    2.0895    magn:    0.0000    constr:    0.0000
     atom:    3    charge:    3.1196    magn:   -0.0000    constr:    0.0000
     atom:    4    charge:    2.0871    magn:   -0.0000    constr:    0.0000
     atom:    5    charge:    3.1167    magn:    0.0000    constr:    0.0000
     atom:    6    charge:    2.0891    magn:   -0.0000    constr:    0.0000
     atom:    7    charge:    3.1229    magn:    0.0000    constr:    0.0000
     atom:    8    charge:    2.0874    magn:   -0.0001    constr:    0.0000
     atom:    9    charge:    3.1251    magn:   -0.0001    constr:    0.0000
     atom:   10    charge:    2.0895    magn:    0.0000    constr:    0.0000
     atom:   11    charge:    3.1196    magn:   -0.0000    constr:    0.0000
     atom:   12    charge:    2.0871    magn:   -0.0000    constr:    0.0000
     atom:   13    charge:    3.1147    magn:    0.0000    constr:    0.0000
     atom:   14    charge:    2.0875    magn:   -0.0000    constr:    0.0000
     atom:   15    charge:    3.1167    magn:    0.0000    constr:    0.0000
     atom:   16    charge:    2.1005    magn:   -0.0001    constr:    0.0000
     atom:   17    charge:    2.0622    magn:    0.0003    constr:    0.0000
     atom:   18    charge:    3.1239    magn:   -0.0001    constr:    0.0000
     atom:   19    charge:    2.0877    magn:   -0.0000    constr:    0.0000
     atom:   20    charge:    2.0846    magn:    0.0000    constr:    0.0000
     atom:   21    charge:    2.0846    magn:    0.0000    constr:    0.0000
     atom:   22    charge:    3.1196    magn:    0.0000    constr:    0.0000
     atom:   23    charge:    2.0903    magn:   -0.0000    constr:    0.0000
     atom:   24    charge:    2.0789    magn:   -0.0000    constr:    0.0000
     atom:   25    charge:    2.0869    magn:   -0.0000    constr:    0.0000
     atom:   26    charge:    3.1149    magn:    0.0000    constr:    0.0000
     atom:   27    charge:    2.0817    magn:   -0.0000    constr:    0.0000
     atom:   28    charge:    2.0885    magn:   -0.0000    constr:    0.0000
     atom:   29    charge:    2.0876    magn:   -0.0000    constr:    0.0000
     atom:   30    charge:    3.1182    magn:    0.0000    constr:    0.0000
     atom:   31    charge:    2.0835    magn:   -0.0000    constr:    0.0000
     atom:   32    charge:    2.0862    magn:   -0.0001    constr:    0.0000
     atom:   33    charge:    2.0622    magn:    0.0003    constr:    0.0000
     atom:   34    charge:    3.1239    magn:   -0.0001    constr:    0.0000
     atom:   35    charge:    2.0878    magn:   -0.0000    constr:    0.0000
     atom:   36    charge:    2.0846    magn:    0.0000    constr:    0.0000
     atom:   37    charge:    2.0846    magn:    0.0000    constr:    0.0000
     atom:   38    charge:    3.1196    magn:    0.0000    constr:    0.0000
     atom:   39    charge:    2.0909    magn:   -0.0000    constr:    0.0000
     atom:   40    charge:    2.0790    magn:   -0.0000    constr:    0.0000
     atom:   41    charge:    2.0869    magn:   -0.0000    constr:    0.0000
     atom:   42    charge:    3.1146    magn:    0.0000    constr:    0.0000
     atom:   43    charge:    2.0818    magn:   -0.0000    constr:    0.0000
     atom:   44    charge:    2.0857    magn:   -0.0000    constr:    0.0000
     atom:   45    charge:    2.0874    magn:   -0.0000    constr:    0.0000
     atom:   46    charge:    3.1241    magn:    0.0000    constr:    0.0000
     atom:   47    charge:    2.0840    magn:   -0.0000    constr:    0.0000
     atom:   48    charge:    2.0695    magn:   -0.0001    constr:    0.0000
     atom:   49    charge:    2.0435    magn:   -0.0001    constr:    0.0000

     total cpu time spent up to now is     1663.8 secs

     total energy              =   -3004.17605483 Ry
     Harris-Foulkes estimate   =   -3004.17617361 Ry
     estimated scf accuracy    <       0.00037198 Ry

     total magnetization       =     0.00 Bohr mag/cell
     absolute magnetization    =     0.00 Bohr mag/cell

     iteration #  6     ecut=    40.42 Ry     beta=0.10
     Davidson diagonalization with overlap
     ethr =  9.54E-08,  avg # of iterations =  2.0

     negative rho (up, down):  1.432E-02 1.432E-02
 
     Magnetic moment per site:
     atom:    1    charge:    3.1251    magn:   -0.0001    constr:    0.0000
     atom:    2    charge:    2.0895    magn:    0.0000    constr:    0.0000
     atom:    3    charge:    3.1196    magn:   -0.0000    constr:    0.0000
     atom:    4    charge:    2.0871    magn:   -0.0000    constr:    0.0000
     atom:    5    charge:    3.1167    magn:    0.0000    constr:    0.0000
     atom:    6    charge:    2.0889    magn:   -0.0000    constr:    0.0000
     atom:    7    charge:    3.1221    magn:    0.0000    constr:    0.0000
     atom:    8    charge:    2.0874    magn:   -0.0000    constr:    0.0000
     atom:    9    charge:    3.1251    magn:   -0.0001    constr:    0.0000
     atom:   10    charge:    2.0894    magn:    0.0000    constr:    0.0000
     atom:   11    charge:    3.1196    magn:   -0.0000    constr:    0.0000
     atom:   12    charge:    2.0871    magn:   -0.0000    constr:    0.0000
     atom:   13    charge:    3.1147    magn:    0.0000    constr:    0.0000
     atom:   14    charge:    2.0877    magn:   -0.0000    constr:    0.0000
     atom:   15    charge:    3.1174    magn:    0.0000    constr:    0.0000
     atom:   16    charge:    2.1004    magn:   -0.0000    constr:    0.0000
     atom:   17    charge:    2.0622    magn:    0.0002    constr:    0.0000
     atom:   18    charge:    3.1239    magn:   -0.0000    constr:    0.0000
     atom:   19    charge:    2.0877    magn:   -0.0000    constr:    0.0000
     atom:   20    charge:    2.0846    magn:    0.0000    constr:    0.0000
     atom:   21    charge:    2.0846    magn:    0.0000    constr:    0.0000
     atom:   22    charge:    3.1196    magn:    0.0000    constr:    0.0000
     atom:   23    charge:    2.0902    magn:   -0.0000    constr:    0.0000
     atom:   24    charge:    2.0789    magn:   -0.0000    constr:    0.0000
     atom:   25    charge:    2.0869    magn:   -0.0000    constr:    0.0000
     atom:   26    charge:    3.1148    magn:    0.0000    constr:    0.0000
     atom:   27    charge:    2.0818    magn:   -0.0000    constr:    0.0000
     atom:   28    charge:    2.0885    magn:   -0.0000    constr:    0.0000
     atom:   29    charge:    2.0876    magn:   -0.0000    constr:    0.0000
     atom:   30    charge:    3.1182    magn:    0.0000    constr:    0.0000
     atom:   31    charge:    2.0833    magn:   -0.0000    constr:    0.0000
     atom:   32    charge:    2.0862    magn:   -0.0000    constr:    0.0000
     atom:   33    charge:    2.0622    magn:    0.0002    constr:    0.0000
     atom:   34    charge:    3.1239    magn:   -0.0000    constr:    0.0000
     atom:   35    charge:    2.0878    magn:   -0.0000    constr:    0.0000
     atom:   36    charge:    2.0846    magn:    0.0000    constr:    0.0000
     atom:   37    charge:    2.0846    magn:    0.0000    constr:    0.0000
     atom:   38    charge:    3.1196    magn:    0.0000    constr:    0.0000
     atom:   39    charge:    2.0910    magn:   -0.0000    constr:    0.0000
     atom:   40    charge:    2.0790    magn:   -0.0000    constr:    0.0000
     atom:   41    charge:    2.0869    magn:   -0.0000    constr:    0.0000
     atom:   42    charge:    3.1146    magn:    0.0000    constr:    0.0000
     atom:   43    charge:    2.0818    magn:   -0.0000    constr:    0.0000
     atom:   44    charge:    2.0857    magn:   -0.0000    constr:    0.0000
     atom:   45    charge:    2.0874    magn:   -0.0000    constr:    0.0000
     atom:   46    charge:    3.1241    magn:    0.0000    constr:    0.0000
     atom:   47    charge:    2.0841    magn:   -0.0000    constr:    0.0000
     atom:   48    charge:    2.0693    magn:   -0.0000    constr:    0.0000
     atom:   49    charge:    2.0440    magn:   -0.0000    constr:    0.0000

     total cpu time spent up to now is     1855.1 secs

     total energy              =   -3004.17604889 Ry
     Harris-Foulkes estimate   =   -3004.17608315 Ry
     estimated scf accuracy    <       0.00010212 Ry

     total magnetization       =     0.00 Bohr mag/cell
     absolute magnetization    =     0.00 Bohr mag/cell

     iteration #  7     ecut=    40.42 Ry     beta=0.10
     Davidson diagonalization with overlap
     ethr =  2.62E-08,  avg # of iterations =  2.6

     negative rho (up, down):  1.432E-02 1.432E-02
 
     Magnetic moment per site:
     atom:    1    charge:    3.1251    magn:   -0.0001    constr:    0.0000
     atom:    2    charge:    2.0895    magn:    0.0000    constr:    0.0000
     atom:    3    charge:    3.1196    magn:   -0.0000    constr:    0.0000
     atom:    4    charge:    2.0871    magn:   -0.0000    constr:    0.0000
     atom:    5    charge:    3.1167    magn:    0.0000    constr:    0.0000
     atom:    6    charge:    2.0889    magn:   -0.0000    constr:    0.0000
     atom:    7    charge:    3.1218    magn:    0.0000    constr:    0.0000
     atom:    8    charge:    2.0874    magn:   -0.0000    constr:    0.0000
     atom:    9    charge:    3.1251    magn:   -0.0001    constr:    0.0000
     atom:   10    charge:    2.0894    magn:    0.0000    constr:    0.0000
     atom:   11    charge:    3.1196    magn:   -0.0000    constr:    0.0000
     atom:   12    charge:    2.0871    magn:   -0.0000    constr:    0.0000
     atom:   13    charge:    3.1147    magn:    0.0000    constr:    0.0000
     atom:   14    charge:    2.0877    magn:   -0.0000    constr:    0.0000
     atom:   15    charge:    3.1177    magn:    0.0000    constr:    0.0000
     atom:   16    charge:    2.1004    magn:   -0.0000    constr:    0.0000
     atom:   17    charge:    2.0622    magn:    0.0002    constr:    0.0000
     atom:   18    charge:    3.1239    magn:   -0.0000    constr:    0.0000
     atom:   19    charge:    2.0877    magn:   -0.0000    constr:    0.0000
     atom:   20    charge:    2.0846    magn:    0.0000    constr:    0.0000
     atom:   21    charge:    2.0846    magn:    0.0000    constr:    0.0000
     atom:   22    charge:    3.1196    magn:    0.0000    constr:    0.0000
     atom:   23    charge:    2.0903    magn:   -0.0000    constr:    0.0000
     atom:   24    charge:    2.0789    magn:   -0.0000    constr:    0.0000
     atom:   25    charge:    2.0869    magn:   -0.0000    constr:    0.0000
     atom:   26    charge:    3.1149    magn:    0.0000    constr:    0.0000
     atom:   27    charge:    2.0818    magn:   -0.0000    constr:    0.0000
     atom:   28    charge:    2.0885    magn:   -0.0000    constr:    0.0000
     atom:   29    charge:    2.0876    magn:   -0.0000    constr:    0.0000
     atom:   30    charge:    3.1182    magn:    0.0000    constr:    0.0000
     atom:   31    charge:    2.0832    magn:   -0.0000    constr:    0.0000
     atom:   32    charge:    2.0862    magn:   -0.0000    constr:    0.0000
     atom:   33    charge:    2.0622    magn:    0.0002    constr:    0.0000
     atom:   34    charge:    3.1239    magn:   -0.0000    constr:    0.0000
     atom:   35    charge:    2.0878    magn:   -0.0000    constr:    0.0000
     atom:   36    charge:    2.0846    magn:    0.0000    constr:    0.0000
     atom:   37    charge:    2.0846    magn:    0.0000    constr:    0.0000
     atom:   38    charge:    3.1196    magn:    0.0000    constr:    0.0000
     atom:   39    charge:    2.0910    magn:   -0.0000    constr:    0.0000
     atom:   40    charge:    2.0790    magn:   -0.0000    constr:    0.0000
     atom:   41    charge:    2.0869    magn:   -0.0000    constr:    0.0000
     atom:   42    charge:    3.1146    magn:    0.0000    constr:    0.0000
     atom:   43    charge:    2.0818    magn:   -0.0000    constr:    0.0000
     atom:   44    charge:    2.0857    magn:   -0.0000    constr:    0.0000
     atom:   45    charge:    2.0874    magn:   -0.0000    constr:    0.0000
     atom:   46    charge:    3.1241    magn:    0.0000    constr:    0.0000
     atom:   47    charge:    2.0842    magn:   -0.0000    constr:    0.0000
     atom:   48    charge:    2.0693    magn:   -0.0000    constr:    0.0000
     atom:   49    charge:    2.0440    magn:   -0.0000    constr:    0.0000

     total cpu time spent up to now is     2058.4 secs

     total energy              =   -3004.17606017 Ry
     Harris-Foulkes estimate   =   -3004.17606027 Ry
     estimated scf accuracy    <       0.00001268 Ry

     total magnetization       =     0.00 Bohr mag/cell
     absolute magnetization    =     0.00 Bohr mag/cell

     iteration #  8     ecut=    40.42 Ry     beta=0.10
     Davidson diagonalization with overlap
     ethr =  3.25E-09,  avg # of iterations =  2.0

     negative rho (up, down):  1.431E-02 1.431E-02
 
     Magnetic moment per site:
     atom:    1    charge:    3.1251    magn:   -0.0001    constr:    0.0000
     atom:    2    charge:    2.0895    magn:    0.0000    constr:    0.0000
     atom:    3    charge:    3.1196    magn:   -0.0000    constr:    0.0000
     atom:    4    charge:    2.0871    magn:   -0.0000    constr:    0.0000
     atom:    5    charge:    3.1167    magn:    0.0000    constr:    0.0000
     atom:    6    charge:    2.0889    magn:   -0.0000    constr:    0.0000
     atom:    7    charge:    3.1218    magn:    0.0000    constr:    0.0000
     atom:    8    charge:    2.0874    magn:   -0.0000    constr:    0.0000
     atom:    9    charge:    3.1251    magn:   -0.0001    constr:    0.0000
     atom:   10    charge:    2.0894    magn:    0.0000    constr:    0.0000
     atom:   11    charge:    3.1196    magn:   -0.0000    constr:    0.0000
     atom:   12    charge:    2.0871    magn:   -0.0000    constr:    0.0000
     atom:   13    charge:    3.1147    magn:    0.0000    constr:    0.0000
     atom:   14    charge:    2.0877    magn:   -0.0000    constr:    0.0000
     atom:   15    charge:    3.1178    magn:    0.0000    constr:    0.0000
     atom:   16    charge:    2.1004    magn:   -0.0000    constr:    0.0000
     atom:   17    charge:    2.0622    magn:    0.0002    constr:    0.0000
     atom:   18    charge:    3.1239    magn:   -0.0000    constr:    0.0000
     atom:   19    charge:    2.0877    magn:   -0.0000    constr:    0.0000
     atom:   20    charge:    2.0846    magn:    0.0000    constr:    0.0000
     atom:   21    charge:    2.0846    magn:    0.0000    constr:    0.0000
     atom:   22    charge:    3.1196    magn:    0.0000    constr:    0.0000
     atom:   23    charge:    2.0903    magn:   -0.0000    constr:    0.0000
     atom:   24    charge:    2.0789    magn:   -0.0000    constr:    0.0000
     atom:   25    charge:    2.0869    magn:   -0.0000    constr:    0.0000
     atom:   26    charge:    3.1149    magn:    0.0000    constr:    0.0000
     atom:   27    charge:    2.0818    magn:   -0.0000    constr:    0.0000
     atom:   28    charge:    2.0885    magn:   -0.0000    constr:    0.0000
     atom:   29    charge:    2.0876    magn:   -0.0000    constr:    0.0000
     atom:   30    charge:    3.1182    magn:    0.0000    constr:    0.0000
     atom:   31    charge:    2.0832    magn:   -0.0000    constr:    0.0000
     atom:   32    charge:    2.0862    magn:   -0.0000    constr:    0.0000
     atom:   33    charge:    2.0622    magn:    0.0002    constr:    0.0000
     atom:   34    charge:    3.1239    magn:   -0.0000    constr:    0.0000
     atom:   35    charge:    2.0878    magn:   -0.0000    constr:    0.0000
     atom:   36    charge:    2.0846    magn:    0.0000    constr:    0.0000
     atom:   37    charge:    2.0846    magn:    0.0000    constr:    0.0000
     atom:   38    charge:    3.1196    magn:    0.0000    constr:    0.0000
     atom:   39    charge:    2.0909    magn:   -0.0000    constr:    0.0000
     atom:   40    charge:    2.0790    magn:   -0.0000    constr:    0.0000
     atom:   41    charge:    2.0869    magn:   -0.0000    constr:    0.0000
     atom:   42    charge:    3.1146    magn:    0.0000    constr:    0.0000
     atom:   43    charge:    2.0817    magn:   -0.0000    constr:    0.0000
     atom:   44    charge:    2.0857    magn:   -0.0000    constr:    0.0000
     atom:   45    charge:    2.0874    magn:   -0.0000    constr:    0.0000
     atom:   46    charge:    3.1241    magn:    0.0000    constr:    0.0000
     atom:   47    charge:    2.0842    magn:   -0.0000    constr:    0.0000
     atom:   48    charge:    2.0693    magn:   -0.0000    constr:    0.0000
     atom:   49    charge:    2.0440    magn:   -0.0000    constr:    0.0000

     total cpu time spent up to now is     2249.7 secs

     total energy              =   -3004.17606143 Ry
     Harris-Foulkes estimate   =   -3004.17606107 Ry
     estimated scf accuracy    <       0.00000546 Ry

     total magnetization       =     0.00 Bohr mag/cell
     absolute magnetization    =     0.00 Bohr mag/cell

     iteration #  9     ecut=    40.42 Ry     beta=0.10
     Davidson diagonalization with overlap
     ethr =  1.40E-09,  avg # of iterations =  1.1

     negative rho (up, down):  1.431E-02 1.431E-02
 
     Magnetic moment per site:
     atom:    1    charge:    3.1251    magn:   -0.0000    constr:    0.0000
     atom:    2    charge:    2.0895    magn:    0.0000    constr:    0.0000
     atom:    3    charge:    3.1196    magn:   -0.0000    constr:    0.0000
     atom:    4    charge:    2.0871    magn:   -0.0000    constr:    0.0000
     atom:    5    charge:    3.1167    magn:    0.0000    constr:    0.0000
     atom:    6    charge:    2.0889    magn:   -0.0000    constr:    0.0000
     atom:    7    charge:    3.1217    magn:    0.0000    constr:    0.0000
     atom:    8    charge:    2.0874    magn:   -0.0000    constr:    0.0000
     atom:    9    charge:    3.1251    magn:   -0.0000    constr:    0.0000
     atom:   10    charge:    2.0894    magn:    0.0000    constr:    0.0000
     atom:   11    charge:    3.1196    magn:   -0.0000    constr:    0.0000
     atom:   12    charge:    2.0870    magn:   -0.0000    constr:    0.0000
     atom:   13    charge:    3.1147    magn:    0.0000    constr:    0.0000
     atom:   14    charge:    2.0877    magn:   -0.0000    constr:    0.0000
     atom:   15    charge:    3.1178    magn:    0.0000    constr:    0.0000
     atom:   16    charge:    2.1004    magn:   -0.0000    constr:    0.0000
     atom:   17    charge:    2.0622    magn:    0.0001    constr:    0.0000
     atom:   18    charge:    3.1239    magn:   -0.0000    constr:    0.0000
     atom:   19    charge:    2.0877    magn:   -0.0000    constr:    0.0000
     atom:   20    charge:    2.0846    magn:    0.0000    constr:    0.0000
     atom:   21    charge:    2.0846    magn:    0.0000    constr:    0.0000
     atom:   22    charge:    3.1196    magn:    0.0000    constr:    0.0000
     atom:   23    charge:    2.0903    magn:   -0.0000    constr:    0.0000
     atom:   24    charge:    2.0789    magn:   -0.0000    constr:    0.0000
     atom:   25    charge:    2.0869    magn:   -0.0000    constr:    0.0000
     atom:   26    charge:    3.1149    magn:    0.0000    constr:    0.0000
     atom:   27    charge:    2.0818    magn:   -0.0000    constr:    0.0000
     atom:   28    charge:    2.0885    magn:   -0.0000    constr:    0.0000
     atom:   29    charge:    2.0876    magn:   -0.0000    constr:    0.0000
     atom:   30    charge:    3.1182    magn:    0.0000    constr:    0.0000
     atom:   31    charge:    2.0832    magn:   -0.0000    constr:    0.0000
     atom:   32    charge:    2.0862    magn:   -0.0000    constr:    0.0000
     atom:   33    charge:    2.0622    magn:    0.0001    constr:    0.0000
     atom:   34    charge:    3.1239    magn:   -0.0000    constr:    0.0000
     atom:   35    charge:    2.0878    magn:   -0.0000    constr:    0.0000
     atom:   36    charge:    2.0846    magn:    0.0000    constr:    0.0000
     atom:   37    charge:    2.0846    magn:    0.0000    constr:    0.0000
     atom:   38    charge:    3.1196    magn:    0.0000    constr:    0.0000
     atom:   39    charge:    2.0909    magn:   -0.0000    constr:    0.0000
     atom:   40    charge:    2.0790    magn:   -0.0000    constr:    0.0000
     atom:   41    charge:    2.0869    magn:   -0.0000    constr:    0.0000
     atom:   42    charge:    3.1146    magn:    0.0000    constr:    0.0000
     atom:   43    charge:    2.0817    magn:   -0.0000    constr:    0.0000
     atom:   44    charge:    2.0857    magn:   -0.0000    constr:    0.0000
     atom:   45    charge:    2.0874    magn:   -0.0000    constr:    0.0000
     atom:   46    charge:    3.1241    magn:    0.0000    constr:    0.0000
     atom:   47    charge:    2.0842    magn:   -0.0000    constr:    0.0000
     atom:   48    charge:    2.0693    magn:   -0.0000    constr:    0.0000
     atom:   49    charge:    2.0441    magn:   -0.0000    constr:    0.0000

     total cpu time spent up to now is     2426.9 secs

     total energy              =   -3004.17606208 Ry
     Harris-Foulkes estimate   =   -3004.17606168 Ry
     estimated scf accuracy    <       0.00000228 Ry

     total magnetization       =     0.00 Bohr mag/cell
     absolute magnetization    =     0.00 Bohr mag/cell

     iteration # 10     ecut=    40.42 Ry     beta=0.10
     Davidson diagonalization with overlap
     ethr =  5.84E-10,  avg # of iterations =  2.0

     negative rho (up, down):  1.430E-02 1.430E-02
 
     Magnetic moment per site:
     atom:    1    charge:    3.1251    magn:   -0.0000    constr:    0.0000
     atom:    2    charge:    2.0894    magn:    0.0000    constr:    0.0000
     atom:    3    charge:    3.1196    magn:   -0.0000    constr:    0.0000
     atom:    4    charge:    2.0871    magn:   -0.0000    constr:    0.0000
     atom:    5    charge:    3.1167    magn:    0.0000    constr:    0.0000
     atom:    6    charge:    2.0890    magn:   -0.0000    constr:    0.0000
     atom:    7    charge:    3.1217    magn:    0.0000    constr:    0.0000
     atom:    8    charge:    2.0874    magn:   -0.0000    constr:    0.0000
     atom:    9    charge:    3.1251    magn:   -0.0000    constr:    0.0000
     atom:   10    charge:    2.0894    magn:    0.0000    constr:    0.0000
     atom:   11    charge:    3.1196    magn:   -0.0000    constr:    0.0000
     atom:   12    charge:    2.0871    magn:   -0.0000    constr:    0.0000
     atom:   13    charge:    3.1147    magn:    0.0000    constr:    0.0000
     atom:   14    charge:    2.0877    magn:   -0.0000    constr:    0.0000
     atom:   15    charge:    3.1178    magn:    0.0000    constr:    0.0000
     atom:   16    charge:    2.1004    magn:   -0.0000    constr:    0.0000
     atom:   17    charge:    2.0622    magn:    0.0001    constr:    0.0000
     atom:   18    charge:    3.1239    magn:   -0.0000    constr:    0.0000
     atom:   19    charge:    2.0878    magn:    0.0000    constr:    0.0000
     atom:   20    charge:    2.0846    magn:    0.0000    constr:    0.0000
     atom:   21    charge:    2.0846    magn:    0.0000    constr:    0.0000
     atom:   22    charge:    3.1196    magn:    0.0000    constr:    0.0000
     atom:   23    charge:    2.0903    magn:   -0.0000    constr:    0.0000
     atom:   24    charge:    2.0789    magn:   -0.0000    constr:    0.0000
     atom:   25    charge:    2.0869    magn:   -0.0000    constr:    0.0000
     atom:   26    charge:    3.1149    magn:    0.0000    constr:    0.0000
     atom:   27    charge:    2.0818    magn:   -0.0000    constr:    0.0000
     atom:   28    charge:    2.0885    magn:   -0.0000    constr:    0.0000
     atom:   29    charge:    2.0876    magn:   -0.0000    constr:    0.0000
     atom:   30    charge:    3.1182    magn:    0.0000    constr:    0.0000
     atom:   31    charge:    2.0832    magn:   -0.0000    constr:    0.0000
     atom:   32    charge:    2.0862    magn:   -0.0000    constr:    0.0000
     atom:   33    charge:    2.0622    magn:    0.0001    constr:    0.0000
     atom:   34    charge:    3.1239    magn:   -0.0000    constr:    0.0000
     atom:   35    charge:    2.0877    magn:    0.0000    constr:    0.0000
     atom:   36    charge:    2.0846    magn:    0.0000    constr:    0.0000
     atom:   37    charge:    2.0846    magn:    0.0000    constr:    0.0000
     atom:   38    charge:    3.1196    magn:    0.0000    constr:    0.0000
     atom:   39    charge:    2.0910    magn:   -0.0000    constr:    0.0000
     atom:   40    charge:    2.0790    magn:   -0.0000    constr:    0.0000
     atom:   41    charge:    2.0869    magn:   -0.0000    constr:    0.0000
     atom:   42    charge:    3.1146    magn:    0.0000    constr:    0.0000
     atom:   43    charge:    2.0818    magn:   -0.0000    constr:    0.0000
     atom:   44    charge:    2.0857    magn:   -0.0000    constr:    0.0000
     atom:   45    charge:    2.0874    magn:   -0.0000    constr:    0.0000
     atom:   46    charge:    3.1241    magn:    0.0000    constr:    0.0000
     atom:   47    charge:    2.0842    magn:   -0.0000    constr:    0.0000
     atom:   48    charge:    2.0693    magn:   -0.0000    constr:    0.0000
     atom:   49    charge:    2.0441    magn:   -0.0000    constr:    0.0000

     total cpu time spent up to now is     2621.2 secs

     End of self-consistent calculation

 ------ SPIN UP ------------


          k = 0.0000 0.0000 0.0000 ( 34665 PWs)   bands (ev):

   -58.2566 -58.2216 -58.0990 -58.0506 -57.9291 -57.8808 -57.7087 -57.6733
   -57.6525 -57.6173 -57.5775 -57.5413 -57.3927 -57.2316 -56.7033 -56.6680
   -34.6919 -34.6639 -34.5388 -34.5104 -34.4752 -34.4573 -34.4046 -34.3631
   -34.3626 -34.3084 -34.3022 -34.2887 -34.2170 -34.2040 -34.1974 -34.1458
   -34.1453 -34.1099 -34.1017 -34.0888 -34.0655 -33.9940 -33.9040 -33.8868
   -33.8706 -33.8607 -33.8581 -33.8404 -33.8253 -33.8215 -33.8109 -33.8087
   -33.7752 -33.7658 -33.7534 -33.7356 -33.7078 -33.6967 -33.6327 -33.6115
   -33.4624 -33.3931 -33.1217 -33.0555 -33.0294 -32.9260 -32.8342 -32.7256
   -22.5341 -18.6045 -18.4162 -18.3118 -18.0867 -17.9416 -17.8944 -17.8278
   -17.6575 -17.6198 -17.5494 -17.5247 -17.5099 -17.4631 -17.4378 -17.4034
   -17.3696 -17.3013 -17.2625 -17.1648 -17.1300 -17.0112 -17.0104 -16.9743
   -16.8615 -16.7732 -16.7501 -16.7294 -16.5963 -16.5684 -15.7231 -15.2826
   -15.1974  -6.9463  -6.5280  -6.2811  -5.9755  -5.9321  -5.7918  -5.7286
    -5.4655  -5.4178  -5.3749  -5.0910  -5.0423  -4.9999  -4.9764  -4.8913
    -4.8617  -4.7924  -4.7267  -4.6627  -4.6568  -4.6387  -4.5823  -4.5732
    -4.5299  -4.5151  -4.4999  -4.4337  -4.3462  -4.2992  -4.2474  -4.1956
    -4.1692  -4.1053  -4.0940  -4.0654  -4.0414  -3.9668  -3.9603  -3.9397
    -3.8471  -3.6498  -3.6021  -3.5479  -3.4699  -3.4418  -3.4330  -3.2909
    -3.1972  -3.1834  -3.1654  -3.1475  -3.0056  -2.9755  -2.9405  -2.9259
    -2.8645  -2.8266  -2.7926  -2.7699  -2.7620  -2.6918  -2.6766  -2.6066
    -2.5378  -2.4866  -2.4055  -2.3362  -2.2130  -2.1411  -2.1390  -2.0731
    -2.0558  -1.9975  -1.9295  -1.9009  -1.8872  -1.8815  -1.8282  -1.7784
    -1.7535  -1.7130  -1.6592  -1.6303  -1.6148  -1.5575  -1.5262  -1.3736
    -1.2506  -1.1988  -1.1594  -1.1400  -1.0423  -0.7825  -0.6519  -0.6382
    -0.4266  -0.3004  -0.2866   1.0859   1.1122   1.1907   1.3911   1.4454
     1.4520   1.5355   1.6217   1.6632   1.7820   1.8736   1.8874   1.9430
     1.9606   1.9751   2.0036   2.0648   2.0928   2.1029   2.1468   2.1576
     2.2443   2.2613   2.2980   2.3133   2.5050   2.5116   2.5506   2.5623
     2.5631   2.6170   2.6286   2.6402   2.6718   2.7074   2.7626   2.8416
     2.8450   2.8773   2.9086   2.9721   3.0529   3.0554   3.1548   3.3965
     3.5209   3.5266   3.6246   3.6617   3.6790   3.8325   3.8855   4.0373
     4.0871   4.2150   4.4952   4.5137   4.6176   4.6596   4.7745   4.9173
     4.9359   5.0169   5.1341   5.1882   5.2028   5.2436   5.2666   5.2735
     5.3216   5.3951   5.4924   5.5489   5.5901   5.6417   5.6794   5.7825
     5.9014   5.9850   6.0295   6.3625   6.4108   6.4643   6.5610   6.7457
     7.1844   7.8092   7.9764   8.3161   8.5678   8.5938   8.8162   8.8622
     8.9295   9.1861   9.2278   9.3152   9.3471   9.5748   9.6698

          k = 0.0000 0.0280 0.0000 ( 34717 PWs)   bands (ev):

   -58.2542 -58.2240 -58.0972 -58.0525 -57.9273 -57.8825 -57.7063 -57.6756
   -57.6502 -57.6197 -57.5752 -57.5436 -57.3921 -57.2322 -56.7009 -56.6704
   -34.6666 -34.6368 -34.5368 -34.5122 -34.4512 -34.4503 -34.3980 -34.3696
   -34.3593 -34.3292 -34.3122 -34.2977 -34.2433 -34.1942 -34.1783 -34.1425
   -34.1205 -34.1122 -34.0968 -34.0916 -34.0738 -33.9871 -33.8980 -33.8845
   -33.8823 -33.8625 -33.8380 -33.8364 -33.8332 -33.8226 -33.8198 -33.8152
   -33.7823 -33.7713 -33.7707 -33.7379 -33.7333 -33.6964 -33.6313 -33.6115
   -33.4657 -33.4194 -33.0960 -33.0538 -33.0313 -32.9199 -32.8405 -32.7531
   -22.5286 -18.5459 -18.3614 -18.2699 -18.0341 -17.8950 -17.8864 -17.8298
   -17.6346 -17.6266 -17.5895 -17.5610 -17.5458 -17.4749 -17.4481 -17.3571
   -17.3486 -17.3000 -17.2716 -17.1955 -17.1890 -17.0339 -16.9932 -16.9445
   -16.8911 -16.7912 -16.7594 -16.7320 -16.6221 -16.6143 -15.7237 -15.2924
   -15.2206  -6.9098  -6.5132  -6.2607  -5.8877  -5.8484  -5.7173  -5.6526
    -5.4293  -5.3527  -5.3395  -5.0709  -5.0535  -4.9759  -4.9473  -4.8855
    -4.8414  -4.8069  -4.7222  -4.7169  -4.6998  -4.6584  -4.6437  -4.6147
    -4.5921  -4.5408  -4.5058  -4.4845  -4.4270  -4.3799  -4.2949  -4.2536
    -4.1990  -4.1828  -4.1572  -4.0606  -4.0137  -3.9344  -3.9168  -3.8267
    -3.7680  -3.6020  -3.5562  -3.5099  -3.4459  -3.3619  -3.3240  -3.1871
    -3.1831  -3.1107  -3.0850  -3.0622  -3.0229  -3.0009  -2.9860  -2.8951
    -2.8604  -2.8518  -2.8317  -2.8161  -2.7280  -2.6943  -2.6108  -2.5766
    -2.4935  -2.4419  -2.3843  -2.3691  -2.3248  -2.2471  -2.1476  -2.1135
    -2.1113  -2.0612  -2.0428  -2.0055  -1.9483  -1.8690  -1.8550  -1.8495
    -1.7764  -1.7523  -1.7359  -1.6586  -1.6197  -1.5820  -1.4874  -1.3920
    -1.3496  -1.3115  -1.2614  -1.1866  -1.0717  -0.8284  -0.6993  -0.6374
    -0.4124  -0.3467  -0.3203   1.1676   1.2181   1.2356   1.4236   1.4473
     1.5374   1.5612   1.6486   1.7021   1.7712   1.8390   1.8679   1.9033
     1.9431   1.9950   2.0001   2.0483   2.0679   2.1034   2.1227   2.1771
     2.2556   2.2963   2.3701   2.4233   2.4322   2.4718   2.4975   2.5298
     2.5565   2.5695   2.6304   2.6624   2.7309   2.7592   2.8029   2.8451
     2.8729   2.9802   2.9932   3.0283   3.0810   3.0959   3.1294   3.3437
     3.4453   3.5614   3.6123   3.6266   3.7145   3.7639   3.9217   3.9805
     4.1422   4.3093   4.4926   4.5595   4.6908   4.6977   4.7791   4.9234
     4.9542   5.0761   5.0974   5.1321   5.1879   5.2081   5.2341   5.2546
     5.3009   5.3921   5.4883   5.5177   5.5758   5.5947   5.6144   5.6795
     5.9467   6.0178   6.0551   6.1920   6.3938   6.4062   6.6271   6.6838
     7.3017   7.6103   7.9725   8.0884   8.2343   8.7024   8.7321   8.8409
     8.9439   9.0279   9.2964   9.3392   9.4469   9.4983   9.7536

          k = 0.0000 0.0560 0.0000 ( 34721 PWs)   bands (ev):

   -58.2479 -58.2304 -58.0929 -58.0567 -57.9234 -57.8865 -57.6999 -57.6822
   -57.6438 -57.6261 -57.5691 -57.5497 -57.3911 -57.2333 -56.6945 -56.6768
   -34.5968 -34.5635 -34.5315 -34.5172 -34.4341 -34.4021 -34.3890 -34.3870
   -34.3785 -34.3537 -34.3377 -34.3207 -34.2895 -34.1956 -34.1526 -34.1356
   -34.1279 -34.1043 -34.1015 -34.0506 -34.0062 -33.9675 -33.9113 -33.9086
   -33.8838 -33.8770 -33.8672 -33.8548 -33.8329 -33.8327 -33.8196 -33.8166
   -33.7987 -33.7837 -33.7738 -33.7646 -33.7359 -33.6957 -33.6299 -33.6108
   -33.4953 -33.4631 -33.0490 -33.0360 -33.0252 -32.9033 -32.8574 -32.8272
   -22.5175 -18.3862 -18.2199 -18.1517 -17.9383 -17.8897 -17.8393 -17.7703
   -17.7602 -17.7239 -17.6162 -17.5962 -17.5067 -17.4888 -17.4604 -17.4241
   -17.3057 -17.2792 -17.2752 -17.2239 -17.1914 -17.0981 -16.9778 -16.9719
   -16.8797 -16.8231 -16.7837 -16.7485 -16.7350 -16.6690 -15.7250 -15.3097
   -15.2708  -6.8343  -6.4797  -6.2303  -5.6450  -5.6161  -5.5311  -5.5040
    -5.4377  -5.1482  -5.1402  -5.0830  -5.0339  -4.9791  -4.9552  -4.9448
    -4.9358  -4.8929  -4.8662  -4.8261  -4.7781  -4.7716  -4.7675  -4.6727
    -4.6396  -4.6173  -4.5096  -4.4934  -4.4567  -4.4044  -4.3684  -4.3061
    -4.1658  -4.1558  -4.0748  -3.9912  -3.9514  -3.8599  -3.8271  -3.7455
    -3.6694  -3.6094  -3.4958  -3.4469  -3.4281  -3.3889  -3.3447  -3.2500
    -3.1841  -3.1024  -3.0758  -3.0514  -2.9377  -2.9000  -2.8828  -2.8600
    -2.7823  -2.7702  -2.7462  -2.7159  -2.7040  -2.6649  -2.6191  -2.5905
    -2.4994  -2.4922  -2.4758  -2.4116  -2.3971  -2.3514  -2.2910  -2.2017
    -2.1817  -2.1286  -2.1113  -2.0711  -2.0092  -1.9888  -1.9422  -1.9268
    -1.8683  -1.8247  -1.7943  -1.7117  -1.7065  -1.6443  -1.6109  -1.5428
    -1.4532  -1.3574  -1.3037  -1.2181  -1.1879  -1.1356  -0.8763  -0.4570
    -0.4081  -0.3706  -0.3694   1.3047   1.3274   1.4679   1.5042   1.5319
     1.5518   1.6383   1.6850   1.7375   1.7631   1.8023   1.8192   1.8401
     1.8997   1.9439   1.9480   2.0373   2.1321   2.1934   2.2211   2.2296
     2.2461   2.2696   2.3423   2.3721   2.3829   2.4126   2.4818   2.5118
     2.5720   2.6225   2.6489   2.6780   2.7721   2.7784   2.8699   2.9240
     2.9737   3.0003   3.0313   3.1581   3.2004   3.2197   3.2659   3.3075
     3.3198   3.4800   3.5719   3.5806   3.6229   3.8120   3.8157   3.9760
     4.2741   4.4162   4.5710   4.6103   4.7733   4.8222   4.8495   4.9059
     4.9162   4.9764   5.0200   5.1682   5.1704   5.1831   5.1936   5.2727
     5.2912   5.3201   5.3670   5.3976   5.4586   5.5800   5.6035   5.7190
     5.8813   6.0020   6.0159   6.2324   6.2599   6.4134   6.5653   6.8975
     6.9547   7.2948   7.6647   7.8126   8.3028   8.4008   8.5819   8.9633
     9.0266   9.1086   9.2986   9.3816   9.6940   9.7619   9.8240

          k = 0.0000-0.0840 0.0000 ( 34678 PWs)   bands (ev):

   -58.2392 -58.2391 -58.0904 -58.0593 -57.9211 -57.8888 -57.6913 -57.6908
   -57.6363 -57.6336 -57.5635 -57.5554 -57.3905 -57.2339 -56.6857 -56.6856
   -34.5244 -34.5243 -34.5002 -34.5002 -34.4897 -34.4175 -34.4106 -34.4106
   -34.3692 -34.3459 -34.3371 -34.3139 -34.2795 -34.2605 -34.1628 -34.1345
   -34.1308 -34.1064 -34.0098 -34.0094 -33.9546 -33.9524 -33.9397 -33.9389
   -33.9168 -33.9057 -33.8745 -33.8738 -33.8570 -33.8549 -33.8182 -33.8156
   -33.8040 -33.7974 -33.7620 -33.7546 -33.7014 -33.6981 -33.6342 -33.6094
   -33.5431 -33.4683 -33.0425 -33.0425 -32.9272 -32.9271 -32.8803 -32.8803
   -22.5119 -18.2223 -18.1182 -18.0562 -17.9782 -17.9536 -17.9130 -17.7534
   -17.7348 -17.6364 -17.6212 -17.6193 -17.5879 -17.5806 -17.3932 -17.3931
   -17.3845 -17.3806 -17.1893 -17.1851 -17.0848 -17.0790 -17.0719 -17.0424
   -16.8592 -16.8568 -16.7829 -16.7813 -16.7397 -16.7276 -15.7258 -15.3076
   -15.3076  -6.7961  -6.4594  -6.2210  -5.5643  -5.3236  -5.3070  -5.2867
    -5.2860  -5.2401  -5.2317  -5.1903  -5.1855  -5.0761  -4.9703  -4.9558
    -4.9465  -4.9204  -4.8897  -4.8805  -4.8594  -4.8485  -4.7782  -4.6589
    -4.6329  -4.5972  -4.5446  -4.4910  -4.4723  -4.4011  -4.3812  -4.2859
    -4.1262  -4.0912  -4.0860  -3.9210  -3.9189  -3.8591  -3.7755  -3.6325
    -3.5763  -3.5582  -3.4357  -3.4120  -3.3959  -3.3145  -3.2996  -3.2860
    -3.2393  -3.1893  -3.1659  -3.1498  -3.0888  -3.0664  -3.0111  -2.9715
    -2.8975  -2.8052  -2.7352  -2.6923  -2.6181  -2.5487  -2.5314  -2.4511
    -2.4152  -2.3932  -2.3688  -2.3583  -2.3328  -2.3030  -2.2946  -2.2608
    -2.2536  -2.2091  -2.1316  -2.0691  -2.0681  -2.0011  -1.9982  -1.9919
    -1.9839  -1.8919  -1.8501  -1.7901  -1.6949  -1.6510  -1.6361  -1.5982
    -1.5493  -1.5307  -1.4457  -1.2156  -1.1973  -1.0572  -1.0524  -0.4073
    -0.4070  -0.3636  -0.3633   1.4227   1.4475   1.4674   1.5087   1.5598
     1.6382   1.6637   1.6639   1.7405   1.7472   1.7905   1.7907   1.8291
     1.9058   1.9816   1.9870   2.0373   2.0594   2.1499   2.1569   2.1970
     2.2804   2.2952   2.3557   2.3759   2.4231   2.4446   2.4594   2.5086
     2.5553   2.5828   2.6413   2.7704   2.8161   2.8713   2.8746   2.8774
     2.8924   3.0830   3.1140   3.1952   3.2148   3.2634   3.3062   3.3499
     3.3571   3.4933   3.5051   3.5651   3.5657   3.6360   3.8668   3.9934
     4.3561   4.4008   4.6242   4.6734   4.7798   4.8186   4.8696   4.9083
     4.9525   4.9525   5.0364   5.0646   5.0767   5.1810   5.2158   5.2675
     5.2680   5.2939   5.3857   5.4527   5.4776   5.4939   5.5960   5.6102
     5.9022   6.0035   6.0622   6.1002   6.4628   6.5158   6.5163   6.6746
     6.9751   7.0574   7.4850   7.5911   8.1793   8.2889   8.9401   9.0409
     9.2297   9.3173   9.4838   9.5503   9.5510   9.7416   9.7697

          k = 0.0253 0.0000 0.0000 ( 34707 PWs)   bands (ev):

   -58.2566 -58.2216 -58.0990 -58.0506 -57.9290 -57.8808 -57.7087 -57.6733
   -57.6526 -57.6173 -57.5775 -57.5413 -57.3927 -57.2316 -56.7033 -56.6680
   -34.6922 -34.6646 -34.5388 -34.5104 -34.4753 -34.4566 -34.4033 -34.3632
   -34.3624 -34.3085 -34.3022 -34.2888 -34.2170 -34.2055 -34.1975 -34.1461
   -34.1436 -34.1223 -34.1054 -34.0708 -34.0656 -33.9876 -33.9037 -33.8870
   -33.8703 -33.8607 -33.8579 -33.8442 -33.8293 -33.8226 -33.8108 -33.8088
   -33.7752 -33.7657 -33.7537 -33.7356 -33.7079 -33.6976 -33.6328 -33.6115
   -33.4624 -33.3932 -33.1216 -33.0566 -33.0289 -32.9260 -32.8342 -32.7257
   -22.5317 -18.5765 -18.3783 -18.2899 -18.0478 -17.9446 -17.8942 -17.8394
   -17.6978 -17.6769 -17.5790 -17.5483 -17.5096 -17.4668 -17.4638 -17.3992
   -17.3587 -17.3470 -17.2489 -17.1549 -17.0540 -17.0473 -17.0120 -16.9446
   -16.9048 -16.7621 -16.7494 -16.7310 -16.5952 -16.5685 -15.7158 -15.2815
   -15.1973  -6.8693  -6.5103  -6.3165  -5.9235  -5.8222  -5.6818  -5.6319
    -5.4541  -5.4113  -5.3201  -5.2243  -5.0745  -5.0391  -4.9958  -4.9650
    -4.8859  -4.8074  -4.7575  -4.6534  -4.6312  -4.6063  -4.5649  -4.5090
    -4.4993  -4.4704  -4.4158  -4.3922  -4.3060  -4.2914  -4.2741  -4.1748
    -4.1522  -4.1420  -4.0928  -4.0754  -4.0066  -3.9211  -3.9108  -3.8388
    -3.7301  -3.6462  -3.6322  -3.6082  -3.5309  -3.4522  -3.4292  -3.3697
    -3.2751  -3.2111  -3.1467  -3.1290  -3.0946  -3.0600  -2.9616  -2.9234
    -2.9204  -2.8336  -2.8148  -2.7641  -2.7447  -2.7294  -2.6497  -2.6328
    -2.5574  -2.4684  -2.3583  -2.2709  -2.2375  -2.1954  -2.1787  -2.1173
    -2.0994  -2.0516  -1.9960  -1.9379  -1.9317  -1.8809  -1.8765  -1.8048
    -1.7503  -1.7251  -1.6992  -1.6512  -1.5936  -1.5831  -1.4813  -1.4173
    -1.3936  -1.3018  -1.2216  -1.1178  -1.0572  -0.7771  -0.7168  -0.6289
    -0.4406  -0.3428  -0.3421   1.0998   1.1677   1.2932   1.4445   1.4565
     1.5290   1.5589   1.6771   1.7552   1.7929   1.8147   1.8573   1.9046
     1.9247   1.9696   1.9855   2.0231   2.0684   2.0785   2.1081   2.1777
     2.1974   2.2662   2.2930   2.3385   2.5171   2.5595   2.5641   2.5712
     2.6125   2.6192   2.6386   2.7159   2.7292   2.7850   2.8292   2.8602
     2.8932   2.9360   2.9802   3.0140   3.0377   3.0874   3.1609   3.3412
     3.4342   3.5657   3.6187   3.6367   3.7400   3.8178   3.8540   3.9879
     4.1747   4.2398   4.2987   4.3778   4.5095   4.5218   4.5625   4.7343
     5.0677   5.0877   5.1574   5.2512   5.2634   5.2812   5.3048   5.4033
     5.4845   5.5514   5.5836   5.5905   5.6290   5.6652   5.7122   5.8930
     5.9341   6.0260   6.0443   6.3597   6.3677   6.4683   6.6162   6.7456
     7.2466   7.7840   7.8402   8.0549   8.1175   8.3665   8.4199   8.9077
     8.9317   9.0852   9.1846   9.2881   9.5178   9.7843  10.0326

          k = 0.0253 0.0280 0.0000 ( 34687 PWs)   bands (ev):

   -58.2542 -58.2240 -58.0972 -58.0525 -57.9273 -57.8825 -57.7063 -57.6756
   -57.6502 -57.6197 -57.5752 -57.5436 -57.3921 -57.2322 -56.7009 -56.6703
   -34.6669 -34.6374 -34.5369 -34.5122 -34.4505 -34.4504 -34.3969 -34.3695
   -34.3590 -34.3292 -34.3122 -34.2977 -34.2434 -34.1942 -34.1798 -34.1406
   -34.1208 -34.1148 -34.1074 -34.0917 -34.0588 -33.9808 -33.8978 -33.8848
   -33.8805 -33.8625 -33.8410 -33.8397 -33.8330 -33.8252 -33.8204 -33.8152
   -33.7823 -33.7713 -33.7707 -33.7378 -33.7333 -33.6971 -33.6313 -33.6115
   -33.4657 -33.4194 -33.0959 -33.0547 -33.0307 -32.9199 -32.8405 -32.7530
   -22.5262 -18.5193 -18.3250 -18.2468 -17.9965 -17.8975 -17.8878 -17.8366
   -17.6819 -17.6512 -17.6387 -17.5836 -17.5323 -17.4756 -17.4331 -17.3890
   -17.3641 -17.3266 -17.2679 -17.2020 -17.0999 -17.0762 -16.9891 -16.9452
   -16.9118 -16.7809 -16.7599 -16.7319 -16.6222 -16.6133 -15.7167 -15.2913
   -15.2206  -6.8373  -6.4934  -6.2831  -5.8407  -5.7376  -5.6071  -5.5537
    -5.3716  -5.3383  -5.3348  -5.1694  -5.0799  -5.0027  -4.9668  -4.9116
    -4.8315  -4.7892  -4.7611  -4.7139  -4.6874  -4.6540  -4.6378  -4.5844
    -4.5437  -4.5335  -4.4642  -4.4151  -4.4011  -4.3739  -4.2932  -4.2382
    -4.1910  -4.1303  -4.1205  -4.0958  -3.9665  -3.9271  -3.8577  -3.8021
    -3.7462  -3.6392  -3.5618  -3.5318  -3.4859  -3.4102  -3.3345  -3.2372
    -3.2189  -3.1654  -3.1218  -3.0731  -3.0313  -3.0144  -3.0102  -2.9456
    -2.9215  -2.8678  -2.8299  -2.7813  -2.7500  -2.7226  -2.6479  -2.5712
    -2.5259  -2.4428  -2.4367  -2.3621  -2.3152  -2.2565  -2.1957  -2.1644
    -2.1580  -2.1235  -2.0818  -2.0297  -1.9695  -1.9462  -1.9240  -1.8591
    -1.8417  -1.7258  -1.6975  -1.6694  -1.6393  -1.5826  -1.4623  -1.4439
    -1.3589  -1.3241  -1.3158  -1.2451  -1.0679  -0.8413  -0.7456  -0.6316
    -0.4090  -0.3702  -0.3601   1.1607   1.2878   1.3203   1.4583   1.4842
     1.5339   1.6879   1.6963   1.7726   1.8000   1.8225   1.8609   1.8882
     1.9124   1.9514   1.9756   2.0138   2.0634   2.1049   2.1426   2.1631
     2.1925   2.2889   2.3871   2.4343   2.4491   2.4569   2.5136   2.5504
     2.5668   2.6406   2.6681   2.7407   2.7994   2.8089   2.8477   2.8886
     2.8979   2.9709   3.0098   3.0826   3.1022   3.1089   3.1701   3.2959
     3.3951   3.5701   3.6039   3.6214   3.7470   3.7515   3.8966   3.9379
     4.2100   4.2969   4.3597   4.4344   4.5145   4.5649   4.5876   4.7678
     4.9704   5.0941   5.1343   5.1929   5.2345   5.2538   5.3270   5.3344
     5.4769   5.5137   5.5401   5.5502   5.6065   5.6139   5.6667   5.8732
     5.9593   6.0376   6.1060   6.2018   6.3857   6.3990   6.6395   6.7225
     7.3596   7.6416   7.8774   7.9829   8.1876   8.2387   8.3701   8.5676
     8.9151   9.0428   9.2233   9.3337   9.4105   9.7808   9.8173

          k = 0.0253 0.0560 0.0000 ( 34699 PWs)   bands (ev):

   -58.2479 -58.2304 -58.0929 -58.0567 -57.9234 -57.8865 -57.6998 -57.6821
   -57.6439 -57.6261 -57.5691 -57.5497 -57.3911 -57.2333 -56.6945 -56.6768
   -34.5970 -34.5640 -34.5315 -34.5173 -34.4336 -34.4022 -34.3890 -34.3868
   -34.3778 -34.3535 -34.3379 -34.3204 -34.2894 -34.1956 -34.1526 -34.1345
   -34.1281 -34.1062 -34.1037 -34.0510 -34.0016 -33.9624 -33.9122 -33.9047
   -33.8833 -33.8774 -33.8672 -33.8551 -33.8348 -33.8329 -33.8234 -33.8185
   -33.7989 -33.7844 -33.7738 -33.7647 -33.7360 -33.6961 -33.6300 -33.6110
   -33.4952 -33.4631 -33.0497 -33.0358 -33.0251 -32.9033 -32.8574 -32.8272
   -22.5153 -18.3633 -18.1892 -18.1233 -17.9410 -17.8594 -17.8354 -17.7770
   -17.7578 -17.7256 -17.6446 -17.6049 -17.5589 -17.4665 -17.4414 -17.4309
   -17.3371 -17.3284 -17.2652 -17.2153 -17.1732 -17.1341 -17.0166 -16.9696
   -16.8633 -16.8176 -16.7832 -16.7481 -16.7350 -16.6683 -15.7186 -15.3091
   -15.2710  -6.7736  -6.4544  -6.2310  -5.6140  -5.5038  -5.4401  -5.3976
    -5.3403  -5.1453  -5.1375  -5.0938  -5.0364  -4.9921  -4.9560  -4.9261
    -4.8904  -4.8501  -4.8334  -4.7813  -4.7756  -4.7276  -4.7106  -4.6475
    -4.6400  -4.5995  -4.5143  -4.5005  -4.4500  -4.3846  -4.3724  -4.3041
    -4.1927  -4.1740  -4.0593  -4.0167  -3.9148  -3.8866  -3.8398  -3.7615
    -3.6811  -3.6276  -3.5519  -3.4662  -3.4231  -3.4070  -3.3523  -3.2579
    -3.2176  -3.1439  -3.1005  -3.0757  -2.9956  -2.9860  -2.9255  -2.9120
    -2.8987  -2.8601  -2.7925  -2.7316  -2.7091  -2.7071  -2.6644  -2.6077
    -2.5445  -2.5167  -2.4838  -2.4588  -2.3886  -2.3813  -2.3014  -2.2704
    -2.2133  -2.2000  -2.1716  -2.1325  -2.0388  -2.0094  -1.9666  -1.9307
    -1.8624  -1.8145  -1.7745  -1.6972  -1.6877  -1.6201  -1.5965  -1.5267
    -1.4199  -1.3744  -1.3229  -1.2389  -1.2024  -1.0974  -0.8728  -0.4563
    -0.4210  -0.3932  -0.3662   1.3011   1.3817   1.4913   1.5282   1.5740
     1.6177   1.6561   1.7183   1.7414   1.8124   1.8287   1.8522   1.9001
     1.9485   1.9623   1.9790   2.0770   2.1073   2.1641   2.2073   2.2198
     2.2411   2.2610   2.3460   2.3615   2.3810   2.4384   2.4634   2.5085
     2.6438   2.6618   2.7140   2.7562   2.7834   2.8130   2.8712   2.9211
     2.9726   3.0108   3.0423   3.1671   3.2029   3.2234   3.2893   3.3117
     3.3338   3.4483   3.5550   3.5876   3.6536   3.7851   3.8365   3.9543
     4.3090   4.3808   4.4385   4.5739   4.5990   4.6485   4.6814   4.7793
     4.8233   4.9160   5.0040   5.0906   5.1600   5.2432   5.2652   5.3024
     5.3551   5.4352   5.4765   5.4988   5.5722   5.6197   5.7512   5.8286
     5.9200   6.0328   6.0457   6.2443   6.2762   6.4518   6.5761   6.9185
     7.0201   7.3630   7.7182   7.8929   8.2243   8.3657   8.4267   8.5964
     8.7347   8.9160   9.0456   9.3733   9.5223   9.5845   9.7560

          k = 0.0253-0.0840 0.0000 ( 34722 PWs)   bands (ev):

   -58.2392 -58.2391 -58.0904 -58.0593 -57.9211 -57.8888 -57.6912 -57.6908
   -57.6363 -57.6336 -57.5635 -57.5554 -57.3905 -57.2339 -56.6857 -56.6856
   -34.5244 -34.5244 -34.5005 -34.5004 -34.4901 -34.4180 -34.4103 -34.4103
   -34.3689 -34.3454 -34.3368 -34.3137 -34.2796 -34.2606 -34.1628 -34.1345
   -34.1306 -34.1063 -34.0119 -34.0115 -33.9562 -33.9541 -33.9327 -33.9322
   -33.9153 -33.9044 -33.8744 -33.8737 -33.8572 -33.8550 -33.8215 -33.8188
   -33.8056 -33.7990 -33.7620 -33.7546 -33.7015 -33.6987 -33.6342 -33.6096
   -33.5431 -33.4683 -33.0427 -33.0427 -32.9272 -32.9271 -32.8803 -32.8803
   -22.5099 -18.1971 -18.1070 -18.0361 -17.9625 -17.9279 -17.9063 -17.7454
   -17.7271 -17.6723 -17.6211 -17.6189 -17.5693 -17.5648 -17.4411 -17.4399
   -17.3655 -17.3622 -17.2262 -17.2237 -17.1182 -17.1126 -17.0603 -17.0321
   -16.8524 -16.8499 -16.7801 -16.7788 -16.7403 -16.7279 -15.7196 -15.3075
   -15.3075  -6.7430  -6.4303  -6.2138  -5.4599  -5.3194  -5.3014  -5.1903
    -5.1901  -5.1434  -5.1340  -5.1224  -5.1173  -5.0687  -4.9539  -4.9334
    -4.9215  -4.8841  -4.8706  -4.8555  -4.8160  -4.7969  -4.7724  -4.6580
    -4.6275  -4.5839  -4.5510  -4.5122  -4.4804  -4.3982  -4.3805  -4.2984
    -4.2159  -4.0412  -3.9843  -3.9503  -3.9330  -3.8971  -3.6884  -3.6593
    -3.6550  -3.6001  -3.5505  -3.5026  -3.4358  -3.4199  -3.4005  -3.3941
    -3.2466  -3.2164  -3.1923  -3.1752  -3.1324  -3.0889  -2.9790  -2.9698
    -2.8885  -2.8684  -2.7910  -2.6975  -2.6515  -2.6157  -2.5891  -2.5043
    -2.4935  -2.4600  -2.4578  -2.4350  -2.4250  -2.3883  -2.3830  -2.3350
    -2.3031  -2.2251  -2.2013  -2.0934  -2.0758  -1.9970  -1.9950  -1.8941
    -1.8582  -1.8573  -1.7805  -1.7742  -1.6978  -1.6492  -1.6400  -1.6190
[...]
    -4.7305  -4.7160  -4.7107  -4.6634  -4.6541  -4.5859  -4.5851  -4.5837
    -4.5425  -4.5257  -4.4985  -4.4794  -4.4492  -4.4391  -4.4276  -4.3488
    -4.2633  -4.1868  -4.0669  -4.0519  -4.0381  -3.9798  -3.9547  -3.9418
    -3.9027  -3.9019  -3.6762  -3.6690  -3.5968  -3.5301  -3.4302  -3.4187
    -3.3755  -3.3483  -3.3092  -3.2238  -3.1844  -3.1175  -3.0988  -3.0682
    -3.0362  -2.9635  -2.9504  -2.9328  -2.9287  -2.9116  -2.8725  -2.8370
    -2.8034  -2.7005  -2.6976  -2.6006  -2.5925  -2.5753  -2.4935  -2.4750
    -2.3932  -2.2964  -2.2182  -2.0905  -2.0616  -1.9043  -1.8985  -1.8155
    -1.7633  -1.7475  -1.7399  -1.6826  -1.6142  -1.5817  -1.5642  -1.5004
    -1.4919  -1.3611  -1.1799  -1.1764  -1.1708  -1.1271  -0.9917  -0.4811
    -0.4810  -0.3390  -0.3386   1.5030   1.5358   1.5657   1.6005   1.6068
     1.6445   1.6473   1.7232   1.8409   1.8757   1.9308   1.9439   1.9975
     2.0110   2.0508   2.0697   2.1171   2.1257   2.1315   2.2214   2.2775
     2.3745   2.3840   2.4073   2.4438   2.4472   2.6051   2.6329   2.7004
     2.7048   2.8076   2.8100   2.8493   2.8637   2.9092   2.9219   2.9418
     2.9467   3.0659   3.0798   3.2125   3.2463   3.3336   3.3989   3.3993
     3.3994   3.5183   3.5294   3.5513   3.5515   3.7585   3.8459   3.9358
     4.0832   4.1570   4.2309   4.2310   4.2817   4.3188   4.3370   4.3399
     4.6627   4.6720   4.7896   4.8224   5.1992   5.2180   5.3586   5.3619
     5.4567   5.5881   5.7408   5.7423   5.7680   5.7863   6.0152   6.0773
     6.1164   6.1166   6.2900   6.2907   6.3910   6.3929   6.7696   7.2611
     7.5000   7.5735   7.6910   7.7236   7.8813   7.9030   7.9941   8.0870
     8.4233   8.4499   8.5693   8.6953   9.1797   9.2179   9.3242

          k =-0.0253 0.0280 0.0000 ( 34687 PWs)   bands (ev):

   -58.2543 -58.2241 -58.0971 -58.0524 -57.9273 -57.8825 -57.7063 -57.6756
   -57.6502 -57.6196 -57.5752 -57.5436 -57.3921 -57.2322 -56.7011 -56.6706
   -34.6669 -34.6374 -34.5370 -34.5123 -34.4506 -34.4504 -34.3968 -34.3696
   -34.3590 -34.3293 -34.3121 -34.2976 -34.2433 -34.1942 -34.1798 -34.1406
   -34.1208 -34.1148 -34.1073 -34.0916 -34.0587 -33.9808 -33.8978 -33.8848
   -33.8805 -33.8625 -33.8410 -33.8397 -33.8330 -33.8252 -33.8204 -33.8152
   -33.7823 -33.7713 -33.7707 -33.7378 -33.7332 -33.6970 -33.6313 -33.6115
   -33.4657 -33.4194 -33.0961 -33.0549 -33.0309 -32.9201 -32.8407 -32.7532
   -22.5263 -18.5194 -18.3251 -18.2470 -17.9965 -17.8996 -17.8852 -17.8368
   -17.6818 -17.6548 -17.6344 -17.5848 -17.5323 -17.4756 -17.4335 -17.3889
   -17.3641 -17.3263 -17.2679 -17.2014 -17.0999 -17.0764 -16.9892 -16.9452
   -16.9118 -16.7809 -16.7599 -16.7318 -16.6222 -16.6135 -15.7168 -15.2909
   -15.2202  -6.8367  -6.4935  -6.2855  -5.8402  -5.7376  -5.6070  -5.5537
    -5.3710  -5.3358  -5.3348  -5.1692  -5.0795  -5.0005  -4.9661  -4.9115
    -4.8319  -4.7873  -4.7623  -4.7168  -4.6896  -4.6545  -4.6413  -4.5851
    -4.5447  -4.5335  -4.4631  -4.4150  -4.4017  -4.3750  -4.2934  -4.2371
    -4.1914  -4.1285  -4.1204  -4.0879  -3.9715  -3.9253  -3.8624  -3.8057
    -3.7477  -3.6369  -3.5581  -3.5307  -3.4874  -3.4129  -3.3352  -3.2362
    -3.2189  -3.1633  -3.1227  -3.0711  -3.0299  -3.0137  -3.0053  -2.9451
    -2.9193  -2.8677  -2.8304  -2.7801  -2.7530  -2.7213  -2.6476  -2.5733
    -2.5292  -2.4423  -2.4364  -2.3634  -2.3193  -2.2578  -2.1944  -2.1643
    -2.1572  -2.1240  -2.0824  -2.0299  -1.9678  -1.9409  -1.9241  -1.8610
    -1.8353  -1.7353  -1.6922  -1.6676  -1.6475  -1.5853  -1.4674  -1.4416
    -1.3554  -1.3247  -1.3166  -1.2398  -1.0674  -0.8412  -0.7453  -0.6314
    -0.4088  -0.3698  -0.3597   1.1606   1.2877   1.3190   1.4582   1.4832
     1.5352   1.6887   1.7002   1.7728   1.7962   1.8143   1.8604   1.8848
     1.9159   1.9496   1.9755   2.0128   2.0641   2.1067   2.1413   2.1653
     2.1928   2.2966   2.3893   2.4372   2.4488   2.4596   2.5135   2.5482
     2.5634   2.6400   2.6729   2.7351   2.7996   2.8092   2.8488   2.8877
     2.9000   2.9716   3.0088   3.0820   3.1015   3.1085   3.1700   3.2940
     3.3865   3.5709   3.6125   3.6205   3.7474   3.7527   3.8932   3.9377
     4.2123   4.2984   4.3548   4.4385   4.5145   4.5650   4.5879   4.7665
     4.9683   5.0845   5.1423   5.1929   5.2362   5.2535   5.3262   5.3321
     5.4777   5.5180   5.5358   5.5525   5.6070   5.6145   5.6667   5.8732
     5.9589   6.0384   6.1061   6.2021   6.3857   6.3989   6.6394   6.7228
     7.3596   7.6416   7.8768   7.9834   8.1880   8.2408   8.3698   8.5671
     8.9151   9.0433   9.2232   9.3379   9.4054   9.7825   9.8164

          k =-0.0253 0.0560 0.0000 ( 34699 PWs)   bands (ev):

   -58.2480 -58.2305 -58.0929 -58.0567 -57.9234 -57.8864 -57.6998 -57.6821
   -57.6439 -57.6261 -57.5691 -57.5497 -57.3910 -57.2333 -56.6947 -56.6770
   -34.5971 -34.5640 -34.5316 -34.5174 -34.4337 -34.4023 -34.3888 -34.3869
   -34.3780 -34.3537 -34.3374 -34.3204 -34.2894 -34.1956 -34.1526 -34.1345
   -34.1281 -34.1062 -34.1037 -34.0509 -34.0015 -33.9624 -33.9122 -33.9047
   -33.8833 -33.8774 -33.8672 -33.8551 -33.8348 -33.8329 -33.8234 -33.8185
   -33.7988 -33.7844 -33.7738 -33.7646 -33.7360 -33.6961 -33.6300 -33.6109
   -33.4952 -33.4631 -33.0499 -33.0360 -33.0253 -32.9035 -32.8576 -32.8274
   -22.5154 -18.3635 -18.1895 -18.1233 -17.9404 -17.8598 -17.8353 -17.7765
   -17.7583 -17.7256 -17.6423 -17.6072 -17.5588 -17.4665 -17.4414 -17.4320
   -17.3370 -17.3283 -17.2640 -17.2150 -17.1732 -17.1345 -17.0166 -16.9698
   -16.8632 -16.8175 -16.7832 -16.7483 -16.7350 -16.6684 -15.7186 -15.3087
   -15.2706  -6.7731  -6.4542  -6.2335  -5.6130  -5.5037  -5.4370  -5.3972
    -5.3404  -5.1452  -5.1383  -5.0948  -5.0411  -4.9864  -4.9573  -4.9288
    -4.8914  -4.8486  -4.8328  -4.7818  -4.7762  -4.7268  -4.7108  -4.6468
    -4.6391  -4.5992  -4.5130  -4.4999  -4.4524  -4.3845  -4.3727  -4.3042
    -4.1924  -4.1712  -4.0553  -4.0210  -3.9168  -3.8842  -3.8464  -3.7693
    -3.6779  -3.6304  -3.5486  -3.4650  -3.4236  -3.4057  -3.3515  -3.2542
    -3.2148  -3.1446  -3.1026  -3.0713  -2.9966  -2.9820  -2.9260  -2.9145
    -2.8980  -2.8612  -2.7904  -2.7312  -2.7128  -2.7046  -2.6610  -2.6101
    -2.5437  -2.5200  -2.4832  -2.4555  -2.3963  -2.3843  -2.2997  -2.2761
    -2.2089  -2.1972  -2.1685  -2.1279  -2.0408  -2.0091  -1.9651  -1.9297
    -1.8565  -1.8206  -1.7808  -1.6998  -1.6867  -1.6210  -1.5997  -1.5335
    -1.4204  -1.3758  -1.3101  -1.2390  -1.1999  -1.0984  -0.8729  -0.4561
    -0.4206  -0.3928  -0.3660   1.3008   1.3796   1.4911   1.5273   1.5694
     1.6184   1.6585   1.7200   1.7406   1.8071   1.8272   1.8595   1.9018
     1.9494   1.9625   1.9790   2.0761   2.1084   2.1565   2.2056   2.2209
     2.2442   2.2602   2.3434   2.3627   2.3936   2.4376   2.4610   2.5136
     2.6371   2.6601   2.7104   2.7598   2.7853   2.8173   2.8720   2.9185
     2.9689   3.0152   3.0415   3.1677   3.2013   3.2221   3.2861   3.3116
     3.3332   3.4459   3.5549   3.5882   3.6567   3.7851   3.8364   3.9541
     4.3145   4.3781   4.4388   4.5785   4.5997   4.6452   4.6836   4.7663
     4.8227   4.9210   5.0039   5.0922   5.1591   5.2431   5.2660   5.3011
     5.3523   5.4369   5.4786   5.4989   5.5730   5.6203   5.7494   5.8286
     5.9214   6.0325   6.0470   6.2443   6.2762   6.4520   6.5762   6.9185
     7.0203   7.3626   7.7184   7.8931   8.2234   8.3671   8.4271   8.5966
     8.7348   8.9169   9.0456   9.3739   9.5240   9.5843   9.7543

          k =-0.0506 0.0280 0.0000 ( 34685 PWs)   bands (ev):

   -58.2543 -58.2241 -58.0971 -58.0524 -57.9273 -57.8825 -57.7062 -57.6756
   -57.6503 -57.6197 -57.5752 -57.5436 -57.3921 -57.2322 -56.7011 -56.6706
   -34.6676 -34.6386 -34.5369 -34.5123 -34.4506 -34.4492 -34.3946 -34.3696
   -34.3585 -34.3293 -34.3121 -34.2976 -34.2435 -34.1942 -34.1830 -34.1406
   -34.1218 -34.1214 -34.1100 -34.0916 -34.0418 -33.9661 -33.8972 -33.8854
   -33.8772 -33.8625 -33.8523 -33.8470 -33.8327 -33.8286 -33.8197 -33.8152
   -33.7826 -33.7713 -33.7708 -33.7378 -33.7331 -33.6986 -33.6314 -33.6115
   -33.4657 -33.4194 -33.0960 -33.0567 -33.0300 -32.9201 -32.8407 -32.7533
   -22.5215 -18.4601 -18.2417 -18.1906 -17.9386 -17.8971 -17.8710 -17.8442
   -17.7682 -17.7125 -17.6669 -17.6277 -17.5381 -17.4988 -17.4777 -17.4457
   -17.4091 -17.2995 -17.2875 -17.1664 -17.1272 -17.0279 -17.0087 -16.9766
   -16.8861 -16.7699 -16.7611 -16.7309 -16.6226 -16.6121 -15.7029 -15.2890
   -15.2202  -6.6999  -6.4226  -6.3295  -5.8112  -5.4491  -5.4094  -5.3423
    -5.2898  -5.2702  -5.2337  -5.2113  -5.1306  -5.0734  -5.0050  -4.9490
    -4.9046  -4.7724  -4.7224  -4.6729  -4.6267  -4.5993  -4.5773  -4.5647
    -4.5463  -4.4954  -4.4381  -4.3941  -4.3503  -4.3192  -4.2731  -4.2588
    -4.1877  -4.1691  -4.0416  -3.9948  -3.9262  -3.8568  -3.8334  -3.7937
    -3.7420  -3.6853  -3.5861  -3.5516  -3.5051  -3.4540  -3.3743  -3.3208
    -3.3094  -3.2531  -3.2323  -3.1624  -3.0984  -3.0857  -3.0368  -2.9875
    -2.9597  -2.9275  -2.9033  -2.8562  -2.8127  -2.7745  -2.6844  -2.6097
    -2.5652  -2.5417  -2.4931  -2.4343  -2.3904  -2.3655  -2.3226  -2.2907
    -2.2005  -2.1488  -2.1017  -2.0763  -2.0541  -1.9934  -1.9686  -1.8985
    -1.8392  -1.8080  -1.7108  -1.6738  -1.6388  -1.5429  -1.4703  -1.4373
    -1.3830  -1.3270  -1.2773  -1.2475  -1.0774  -0.8838  -0.8350  -0.6186
    -0.4394  -0.4089  -0.3954   1.1447   1.3472   1.3954   1.5004   1.5067
     1.5351   1.6016   1.6610   1.7438   1.7717   1.8263   1.8999   1.9342
     1.9719   1.9968   2.0217   2.0394   2.0705   2.1303   2.1829   2.2233
     2.3007   2.3454   2.3867   2.4691   2.4823   2.5369   2.5515   2.5757
     2.6115   2.6798   2.7343   2.7771   2.8213   2.8776   2.9018   2.9249
     2.9789   3.0583   3.0729   3.1085   3.1183   3.1845   3.2533   3.2797
     3.3239   3.4843   3.6098   3.6862   3.7256   3.8016   3.8377   3.8666
     4.0587   4.1146   4.2042   4.2290   4.3962   4.4640   4.5682   4.8060
     4.9146   5.0215   5.0555   5.1987   5.2554   5.2673   5.3023   5.4469
     5.4909   5.5451   5.5776   5.6797   5.8602   5.8984   5.9418   5.9811
     6.0827   6.1210   6.2619   6.2727   6.4087   6.4492   6.6115   6.8830
     7.1631   7.3395   7.6811   7.7039   7.7581   8.3154   8.4043   8.5687
     8.6576   9.0939   9.1764   9.4103   9.5117   9.6269   9.7649

          k =-0.0506 0.0560 0.0000 ( 34596 PWs)   bands (ev):

   -58.2480 -58.2305 -58.0929 -58.0567 -57.9234 -57.8864 -57.6998 -57.6821
   -57.6439 -57.6261 -57.5691 -57.5497 -57.3910 -57.2333 -56.6947 -56.6770
   -34.5977 -34.5651 -34.5316 -34.5173 -34.4325 -34.4025 -34.3887 -34.3865
   -34.3766 -34.3535 -34.3373 -34.3199 -34.2893 -34.1955 -34.1527 -34.1333
   -34.1283 -34.1095 -34.1068 -34.0517 -33.9929 -33.9500 -33.9157 -33.8965
   -33.8821 -33.8786 -33.8671 -33.8549 -33.8390 -33.8329 -33.8320 -33.8223
   -33.7991 -33.7859 -33.7737 -33.7646 -33.7360 -33.6969 -33.6301 -33.6112
   -33.4951 -33.4630 -33.0510 -33.0355 -33.0252 -32.9035 -32.8576 -32.8273
   -22.5110 -18.3125 -18.1217 -18.0511 -17.9429 -17.8291 -17.8187 -17.7793
   -17.7448 -17.7292 -17.6937 -17.6191 -17.6049 -17.5029 -17.4466 -17.4192
   -17.4174 -17.3572 -17.2638 -17.2357 -17.1782 -17.1444 -17.1028 -16.9546
   -16.8409 -16.8113 -16.7822 -16.7476 -16.7349 -16.6675 -15.7059 -15.3075
   -15.2710  -6.6652  -6.3649  -6.2353  -5.5945  -5.2602  -5.2178  -5.1853
    -5.1342  -5.1104  -5.0868  -5.0504  -5.0319  -4.9633  -4.8990  -4.8712
    -4.8632  -4.7872  -4.7692  -4.7138  -4.7064  -4.6697  -4.6512  -4.6229
    -4.5986  -4.5890  -4.5315  -4.4810  -4.4640  -4.4107  -4.3412  -4.2701
    -4.2170  -4.1873  -4.0986  -4.0169  -3.9519  -3.9138  -3.8464  -3.8144
    -3.6825  -3.6204  -3.5635  -3.5061  -3.4864  -3.4471  -3.3844  -3.3575
    -3.2971  -3.2643  -3.2316  -3.1904  -3.1153  -3.0892  -3.0504  -3.0012
    -2.9465  -2.9191  -2.8986  -2.8652  -2.8425  -2.7849  -2.7488  -2.7374
    -2.6964  -2.6766  -2.5743  -2.5340  -2.5163  -2.4718  -2.4401  -2.3741
    -2.3154  -2.2515  -2.1838  -2.0975  -2.0418  -1.9946  -1.9588  -1.8912
    -1.8770  -1.8188  -1.7497  -1.6668  -1.6270  -1.5620  -1.5305  -1.4716
    -1.3769  -1.3510  -1.2840  -1.2362  -1.2231  -1.0567  -0.9111  -0.4707
    -0.4347  -0.4182  -0.3606   1.3025   1.4281   1.5196   1.5222   1.6290
     1.6539   1.6917   1.7041   1.7580   1.8294   1.8497   1.9393   1.9799
     2.0010   2.0279   2.0425   2.0739   2.1406   2.1613   2.2118   2.2457
     2.2627   2.3458   2.4116   2.4375   2.4446   2.4799   2.5439   2.5666
     2.6945   2.7227   2.7700   2.7828   2.8480   2.8628   2.8991   2.9277
     2.9911   3.0583   3.0825   3.1799   3.2156   3.2622   3.3172   3.3519
     3.3670   3.3844   3.5523   3.5991   3.7119   3.7337   3.8498   3.9016
     4.1177   4.2413   4.2538   4.3061   4.4504   4.4776   4.5724   4.6760
     4.7148   4.7716   4.8759   5.0103   5.1489   5.2184   5.2792   5.3562
     5.4822   5.5261   5.6284   5.7599   5.7879   5.7950   5.8482   5.9954
     6.0736   6.0960   6.1717   6.2696   6.3476   6.4333   6.7615   6.9564
     7.1738   7.4495   7.6224   7.7312   8.0433   8.1042   8.1881   8.5312
     8.7109   8.7925   8.9080   9.0769   9.0926   9.4033   9.4762

     the Fermi energy is     0.4341 ev

!    total energy              =   -3004.17606629 Ry
     Harris-Foulkes estimate   =   -3004.17606228 Ry
     estimated scf accuracy    <       0.00000023 Ry

     The total energy is the sum of the following terms:

     one-electron contribution =  -42058.97757952 Ry
     hartree contribution      =   21091.87222125 Ry
     xc contribution           =    -546.24208049 Ry
     ewald contribution        =   18509.17161167 Ry
     smearing contrib. (-TS)   =      -0.00023920 Ry

     total magnetization       =     0.00 Bohr mag/cell
     absolute magnetization    =     0.00 Bohr mag/cell

     convergence has been achieved in  10 iterations

     Forces acting on atoms (Ry/au):


     negative rho (up, down):  1.430E-02 1.430E-02
     atom    1 type  1   force =    -0.00015255    0.00030492   -0.13693394
     atom    2 type  2   force =     0.00005588   -0.00007822    0.07534371
     atom    3 type  1   force =     0.00070912    0.00085405   -0.05920766
     atom    4 type  2   force =     0.00465151   -0.00028973    0.00931830
     atom    5 type  1   force =     0.00003622   -0.00073387    0.00013154
     atom    6 type  2   force =    -0.00005684    0.00011786    0.00012574
     atom    7 type  1   force =     0.00040154    0.00134484    0.00002073
     atom    8 type  2   force =    -0.00068145    0.00103949   -0.00015244
     atom    9 type  1   force =    -0.00006582    0.00041093   -0.13695785
     atom   10 type  2   force =     0.00014755   -0.00022821    0.07532979
     atom   11 type  1   force =     0.00073906   -0.00085977   -0.05940770
     atom   12 type  2   force =     0.00432036   -0.00007409    0.00813828
     atom   13 type  1   force =    -0.00054689    0.00037018    0.00016489
     atom   14 type  2   force =    -0.00014358   -0.00039577   -0.00205159
     atom   15 type  1   force =     0.00002359    0.00231562    0.00072848
     atom   16 type  2   force =    -0.00011821   -0.00066307   -0.00049949
     atom   17 type  2   force =     0.00024226   -0.00005381    0.08102328
     atom   18 type  1   force =    -0.00020091    0.00033792    0.11718249
     atom   19 type  2   force =     0.00024829    0.00015815   -0.06538164
     atom   20 type  2   force =    -0.06320182    0.00000119   -0.03167743
     atom   21 type  2   force =     0.06298100    0.00017315   -0.03164927
     atom   22 type  1   force =    -0.00062480    0.00002529    0.05924859
     atom   23 type  2   force =    -0.00013594    0.00026312   -0.00018792
     atom   24 type  2   force =     0.00059280   -0.00017003   -0.02268771
     atom   25 type  2   force =    -0.00451835   -0.00026697    0.00819473
     atom   26 type  1   force =     0.00005119    0.00046487    0.00006934
     atom   27 type  2   force =    -0.00011386    0.00003131   -0.00039720
     atom   28 type  2   force =    -0.00124611    0.00003375   -0.00016526
     atom   29 type  2   force =     0.00029340   -0.00013861   -0.00009433
     atom   30 type  1   force =     0.00009141    0.00040961    0.00106488
     atom   31 type  2   force =    -0.00031256   -0.00023802   -0.00002353
     atom   32 type  2   force =     0.00006553    0.00129479   -0.00022594
     atom   33 type  2   force =     0.00019739    0.00010016    0.08100568
     atom   34 type  1   force =    -0.00021924    0.00027799    0.11710773
     atom   35 type  2   force =     0.00029895    0.00022002   -0.06548665
     atom   36 type  2   force =    -0.06307105    0.00018134   -0.03187946
     atom   37 type  2   force =     0.06314610    0.00021884   -0.03157619
     atom   38 type  1   force =    -0.00049468   -0.00024646    0.05895159
     atom   39 type  2   force =     0.00007257   -0.00053245   -0.00078291
     atom   40 type  2   force =     0.00041336   -0.00218589   -0.02226108
     atom   41 type  2   force =    -0.00416973   -0.00022748    0.00763541
     atom   42 type  1   force =    -0.00032404   -0.00044052    0.00020925
     atom   43 type  2   force =     0.00019710    0.00030562   -0.00029543
     atom   44 type  2   force =     0.00025573    0.00018174   -0.00001757
     atom   45 type  2   force =    -0.00017060   -0.00020640   -0.00022491
     atom   46 type  1   force =    -0.00144407    0.00043877    0.00067795
     atom   47 type  2   force =     0.00029799    0.00059631   -0.00062394
     atom   48 type  2   force =     0.00077211    0.00043354    0.00051152
     atom   49 type  2   force =     0.00071111   -0.00487600   -0.00133486

     Total force =     0.365227     Total SCF correction =     0.001287
 !ASE

     Writing output data file calc.save
 
     init_run     :     54.35s CPU     68.78s WALL (       1 calls)
     electrons    :   2091.95s CPU   2552.42s WALL (       1 calls)
     forces       :     39.40s CPU     41.52s WALL (       1 calls)

     Called by init_run:
     wfcinit      :     47.23s CPU     60.91s WALL (       1 calls)
     potinit      :      1.34s CPU      1.67s WALL (       1 calls)

     Called by electrons:
     c_bands      :   1811.88s CPU   2196.97s WALL (      10 calls)
     sum_band     :    235.82s CPU    304.49s WALL (      10 calls)
     v_of_rho     :     11.20s CPU     14.31s WALL (      11 calls)
     newd         :     36.51s CPU     40.30s WALL (      11 calls)
     mix_rho      :      0.42s CPU      0.60s WALL (      10 calls)
     vdW_energy   :      2.06s CPU      2.68s WALL (      12 calls)
     vdW_ffts     :      2.91s CPU      3.84s WALL (      24 calls)
     vdW_v        :      1.19s CPU      1.43s WALL (      12 calls)

     Called by c_bands:
     init_us_2    :      5.66s CPU      6.24s WALL (     880 calls)
     cegterg      :   1774.71s CPU   2157.51s WALL (     400 calls)

     Called by *egterg:
     h_psi        :    750.89s CPU   1053.89s WALL (    1983 calls)
     s_psi        :     90.60s CPU     95.25s WALL (    1983 calls)
     g_psi        :      5.11s CPU      5.25s WALL (    1543 calls)
     cdiaghg      :    590.51s CPU    604.27s WALL (    1943 calls)

     Called by h_psi:
     add_vuspsi   :     91.18s CPU     96.54s WALL (    1983 calls)

     General routines
     calbec       :    139.89s CPU    144.06s WALL (    2423 calls)
     fft          :      6.89s CPU      8.81s WALL (     948 calls)
     ffts         :      0.05s CPU      0.07s WALL (      42 calls)
     fftw         :    502.51s CPU    851.80s WALL (  711676 calls)
     interpolate  :      0.33s CPU      0.54s WALL (      42 calls)
     davcio       :      0.00s CPU      0.68s WALL (      40 calls)
 
     Parallel routines
     fft_scatter  :    277.43s CPU    471.30s WALL (  712666 calls)
 
     PWSCF        : 36m29.49s CPU    44m28.13s WALL

 
   This run was terminated on:  21:19:35  10Feb2018            

=------------------------------------------------------------------------------=
   JOB DONE.
=------------------------------------------------------------------------------=
