  python dir          : /home/vossj/suncat/lib/python2.7/site-packages/espresso
  espresso dir        : /home/vossj/suncat/esdld/espresso-dynpy-beef/bin
  pseudo dir          : /home/alatimer/bin/psp/esp_psp_w_gbrvRu/
  ase-espresso py git : ffa2778-git



     Program PWSCF v.5.1rc2 (svn rev. ) starts on 12Feb2018 at  9: 8:52 

     This program is part of the open-source Quantum ESPRESSO suite
     for quantum simulation of materials; please cite
         "P. Giannozzi et al., J. Phys.:Condens. Matter 21 395502 (2009);
          URL http://www.quantum-espresso.org", 
     in publications or presentations arising from this work. More details at
     http://www.quantum-espresso.org/quote

     Parallel version (MPI), running on    16 processors
     R & G space division:  proc/nbgrp/npool/nimage =      16
     Reading input from pw.inp
     Message from routine read_cards :
     DEPRECATED: no units specified in CELL_PARAMETERS card

     Current dimensions of program PWSCF are:
     Max number of different atomic species (ntypx) = 10
     Max number of k-points (npk) =  40000
     Max angular momentum in pseudopotentials (lmaxx) =  3

     **************************************************************************
     Initializing libbeef V0.1.1 with the BEEF-vdW functional.
     Citation: Wellendorff et al., PRB 85, 235149 (2012).
     **************************************************************************


     IMPORTANT: XC functional enforced from input :
     Exchange-correlation      = BEEF ( 1  4 27 13 2)
     Any further DFT definition will be discarded
     Please, verify this is what you really want


     Subspace diagonalization in iterative solution of the eigenvalue problem:
     a serial algorithm will be used

 
     Parallelization info
     --------------------
     sticks:   dense  smooth     PW     G-vecs:    dense   smooth      PW
     Min         281     112     31                68535    17318    2565
     Max         282     113     32                68545    17369    2582
     Sum        4501    1795    503              1096637   277353   41113
 
     Generating pointlists ...
     new r_m :   0.4125 (alat units)  0.7795 (a.u.) for type    1
     new r_m :   0.3995 (alat units)  0.7549 (a.u.) for type    2
     new r_m :   0.4125 (alat units)  0.7795 (a.u.) for type    3
     new r_m :   0.3995 (alat units)  0.7549 (a.u.) for type    4


     bravais-lattice index     =            0
     lattice parameter (alat)  =       1.8897  a.u.
     unit-cell volume          =    7990.9933 (a.u.)^3
     number of atoms/cell      =           54
     number of atomic types    =            4
     number of electrons       =       398.00
     number of Kohn-Sham states=          299
     kinetic-energy cutoff     =      40.4243  Ry
     charge density cutoff     =     404.2426  Ry
     convergence threshold     =      7.3E-07
     mixing beta               =       0.1000
     number of iterations used =           10  plain     mixing
     Exchange-correlation      = BEEF ( 1  4 27 13 2)
     nstep                     =           50


     celldm(1)=   1.889726  celldm(2)=   0.000000  celldm(3)=   0.000000
     celldm(4)=   0.000000  celldm(5)=   0.000000  celldm(6)=   0.000000

     crystal axes: (cart. coord. in units of alat)
               a(1) = (   6.590708   0.000000   0.000000 )  
               a(2) = (   0.000000   5.950229   0.000000 )  
               a(3) = (   0.000000   0.000000  30.195235 )  

     reciprocal axes: (cart. coord. in units 2 pi/alat)
               b(1) = (  0.151729  0.000000  0.000000 )  
               b(2) = (  0.000000  0.168061  0.000000 )  
               b(3) = (  0.000000  0.000000  0.033118 )  


     PseudoPot. # 1 for Ti read from file:
     /home/alatimer/bin/psp/esp_psp_w_gbrvRu/Ti.UPF
     MD5 check sum: 8e4df49b7f0d34bbd5052bf3f5ea0213
     Pseudo is Ultrasoft, Zval = 12.0
     Generated by new atomic code, or converted to UPF format
     Using radial grid of  851 points,  6 beta functions with: 
                l(1) =   0
                l(2) =   0
                l(3) =   1
                l(4) =   1
                l(5) =   2
                l(6) =   2
     Q(r) pseudized with  8 coefficients,  rinner =    1.000   1.000   1.000
                                                       1.000   1.000

     PseudoPot. # 2 for  O read from file:
     /home/alatimer/bin/psp/esp_psp_w_gbrvRu/O.UPF
     MD5 check sum: e057bbcf3229fb5d8c36c0c92f9568b4
     Pseudo is Ultrasoft + core correction, Zval =  6.0
     Generated using "atomic" code by A. Dal Corso  v.5.0.2 svn rev. 9415
     Using radial grid of 1095 points,  4 beta functions with: 
                l(1) =   0
                l(2) =   0
                l(3) =   1
                l(4) =   1
     Q(r) pseudized with 0 coefficients 


     PseudoPot. # 3 for  C read from file:
     /home/alatimer/bin/psp/esp_psp_w_gbrvRu/C.UPF
     MD5 check sum: ab446d787031eba755f1d5ee46644bb0
     Pseudo is Ultrasoft + core correction, Zval =  4.0
     Generated using "atomic" code by A. Dal Corso  v.5.0.2 svn rev. 9415
     Using radial grid of 1073 points,  4 beta functions with: 
                l(1) =   0
                l(2) =   0
                l(3) =   1
                l(4) =   1
     Q(r) pseudized with 0 coefficients 


     PseudoPot. # 4 for  H read from file:
     /home/alatimer/bin/psp/esp_psp_w_gbrvRu/H.UPF
     MD5 check sum: bd57da0722753ddfd9833a65b40bb853
     Pseudo is Ultrasoft, Zval =  1.0
     Generated using "atomic" code by A. Dal Corso  v.5.0.2 svn rev. 9415
     Using radial grid of  929 points,  2 beta functions with: 
                l(1) =   0
                l(2) =   0
     Q(r) pseudized with 0 coefficients 


     vdW kernel table read from file vdW_kernel_table
     MD5 check sum: 095c7af220d748ca6e76c0b4c6cfb241

     atomic species   valence    mass     pseudopotential
        Ti1           12.00    47.88000     Ti( 1.00)
        O1             6.00    15.99940      O( 1.00)
        C1             4.00    12.01100      C( 1.00)
        H1             1.00     1.00794      H( 1.00)

     Starting magnetic structure 
     atomic species   magnetization
        Ti1          0.250
        O1           0.500
        C1           0.750
        H1           0.000

     No symmetry found



   Cartesian axes

     site n.     atom                  positions (alat units)
         1           Ti1 tau(   1) = (   1.6476770   0.7437786   2.6545865  )
         2           O1  tau(   2) = (   1.6476770   2.2313359   3.9361215  )
         3           Ti1 tau(   3) = (   1.6476770   2.2313359   5.9499405  )
         4           O1  tau(   4) = (   0.3661420   0.7437786   5.9499405  )
         5           Ti1 tau(   5) = (   1.7592931   0.7557636   9.1813031  )
         6           O1  tau(   6) = (   1.6162490   2.2572048  10.5951269  )
         7           Ti1 tau(   7) = (   1.5595004   2.2680265  12.4668274  )
         8           O1  tau(   8) = (   0.3709531   0.7738127  12.6996540  )
         9           Ti1 tau(   9) = (   1.6476770   3.7188931   2.6545865  )
        10           O1  tau(  10) = (   1.6476770   5.2064503   3.9361215  )
        11           Ti1 tau(  11) = (   1.6476770   5.2064503   5.9499405  )
        12           O1  tau(  12) = (   0.3661420   3.7188931   5.9499405  )
        13           Ti1 tau(  13) = (   1.7607536   3.7112867   9.1949733  )
        14           O1  tau(  14) = (   1.6133076   5.2250699  10.5465640  )
        15           Ti1 tau(  15) = (   1.6492307   5.2431137  12.3448001  )
        16           O1  tau(  16) = (   0.3719744   3.7598389  12.7007434  )
        17           O1  tau(  17) = (   1.6476770   2.2313359   1.3730516  )
        18           Ti1 tau(  18) = (   4.9430310   2.2313359   2.6545865  )
        19           O1  tau(  19) = (   4.9430310   2.2313359   4.6684056  )
        20           O1  tau(  20) = (   6.2245660   0.7437786   2.6545865  )
        21           O1  tau(  21) = (   3.6614961   0.7437786   2.6545865  )
        22           Ti1 tau(  22) = (   4.9430310   0.7437786   5.9499405  )
        23           O1  tau(  23) = (   1.6387103   2.2391978   8.0037664  )
        24           O1  tau(  24) = (   4.9430310   2.2313359   7.2314755  )
        25           O1  tau(  25) = (   2.9292120   0.7437786   5.9499405  )
        26           Ti1 tau(  26) = (   5.0158092   2.2383949   9.3973727  )
        27           O1  tau(  27) = (   4.9391445   2.2276729  11.2675731  )
        28           O1  tau(  28) = (   6.2094020   0.7514556   9.2742047  )
        29           O1  tau(  29) = (   3.6131301   0.7515640   9.2682932  )
        30           Ti1 tau(  30) = (   4.8940083   0.8207741  12.7348365  )
        31           O1  tau(  31) = (   4.8487174   2.2703822  13.8475395  )
        32           O1  tau(  32) = (   2.8766274   0.7418004  12.6316555  )
        33           O1  tau(  33) = (   1.6476770   5.2064503   1.3730516  )
        34           Ti1 tau(  34) = (   4.9430310   5.2064503   2.6545865  )
        35           O1  tau(  35) = (   4.9430310   5.2064503   4.6684056  )
        36           O1  tau(  36) = (   6.2245660   3.7188931   2.6545865  )
        37           O1  tau(  37) = (   3.6614961   3.7188931   2.6545865  )
        38           Ti1 tau(  38) = (   4.9430310   3.7188931   5.9499405  )
        39           O1  tau(  39) = (   1.6418458   5.2133935   8.0066417  )
        40           O1  tau(  40) = (   4.9430310   5.2064503   7.2314755  )
        41           O1  tau(  41) = (   2.9292120   3.7188931   5.9499405  )
        42           Ti1 tau(  42) = (   5.0218241   5.2139137   9.3870600  )
        43           O1  tau(  43) = (   4.9399496   5.2040061  11.2598200  )
        44           O1  tau(  44) = (   6.2073000   3.7245411   9.2731052  )
        45           O1  tau(  45) = (   3.6137513   3.7232133   9.2682466  )
        46           Ti1 tau(  46) = (   4.8936935   3.8094630  12.7397413  )
        47           O1  tau(  47) = (   4.9051259   5.2510468  13.8339921  )
        48           O1  tau(  48) = (   2.8743370   3.7938830  12.6403791  )
        49           C1  tau(  49) = (   1.0287210   2.2268971  15.9066084  )
        50           O1  tau(  50) = (   1.8917182   2.2355032  14.7378010  )
        51           H1  tau(  51) = (   0.0310076   2.2200215  15.5603933  )
        52           H1  tau(  52) = (   2.8355400   2.2288152  14.9543747  )
        53           H1  tau(  53) = (   1.2478062   1.3326534  16.5039879  )
        54           H1  tau(  54) = (   1.2341453   3.1195140  16.5098874  )

     number of k points=    40  Fermi-Dirac smearing, width (Ry)=  0.0073
                       cart. coord. in units 2pi/alat
        k(    1) = (   0.0000000   0.0000000   0.0000000), wk =   0.0277778
        k(    2) = (   0.0000000   0.0280101   0.0000000), wk =   0.0555556
        k(    3) = (   0.0000000   0.0560203   0.0000000), wk =   0.0555556
        k(    4) = (   0.0000000  -0.0840304   0.0000000), wk =   0.0277778
        k(    5) = (   0.0252881   0.0000000   0.0000000), wk =   0.0555556
        k(    6) = (   0.0252881   0.0280101   0.0000000), wk =   0.0555556
        k(    7) = (   0.0252881   0.0560203   0.0000000), wk =   0.0555556
        k(    8) = (   0.0252881  -0.0840304   0.0000000), wk =   0.0555556
        k(    9) = (   0.0505763   0.0000000   0.0000000), wk =   0.0555556
        k(   10) = (   0.0505763   0.0280101   0.0000000), wk =   0.0555556
        k(   11) = (   0.0505763   0.0560203   0.0000000), wk =   0.0555556
        k(   12) = (   0.0505763  -0.0840304   0.0000000), wk =   0.0555556
        k(   13) = (  -0.0758644   0.0000000   0.0000000), wk =   0.0277778
        k(   14) = (  -0.0758644   0.0280101   0.0000000), wk =   0.0555556
        k(   15) = (  -0.0758644   0.0560203   0.0000000), wk =   0.0555556
        k(   16) = (  -0.0758644  -0.0840304   0.0000000), wk =   0.0277778
        k(   17) = (  -0.0252881   0.0280101   0.0000000), wk =   0.0555556
        k(   18) = (  -0.0252881   0.0560203   0.0000000), wk =   0.0555556
        k(   19) = (  -0.0505763   0.0280101   0.0000000), wk =   0.0555556
        k(   20) = (  -0.0505763   0.0560203   0.0000000), wk =   0.0555556
        k(   21) = (   0.0000000   0.0000000   0.0000000), wk =   0.0277778
        k(   22) = (   0.0000000   0.0280101   0.0000000), wk =   0.0555556
        k(   23) = (   0.0000000   0.0560203   0.0000000), wk =   0.0555556
        k(   24) = (   0.0000000  -0.0840304   0.0000000), wk =   0.0277778
        k(   25) = (   0.0252881   0.0000000   0.0000000), wk =   0.0555556
        k(   26) = (   0.0252881   0.0280101   0.0000000), wk =   0.0555556
        k(   27) = (   0.0252881   0.0560203   0.0000000), wk =   0.0555556
        k(   28) = (   0.0252881  -0.0840304   0.0000000), wk =   0.0555556
        k(   29) = (   0.0505763   0.0000000   0.0000000), wk =   0.0555556
        k(   30) = (   0.0505763   0.0280101   0.0000000), wk =   0.0555556
        k(   31) = (   0.0505763   0.0560203   0.0000000), wk =   0.0555556
        k(   32) = (   0.0505763  -0.0840304   0.0000000), wk =   0.0555556
        k(   33) = (  -0.0758644   0.0000000   0.0000000), wk =   0.0277778
        k(   34) = (  -0.0758644   0.0280101   0.0000000), wk =   0.0555556
        k(   35) = (  -0.0758644   0.0560203   0.0000000), wk =   0.0555556
        k(   36) = (  -0.0758644  -0.0840304   0.0000000), wk =   0.0277778
        k(   37) = (  -0.0252881   0.0280101   0.0000000), wk =   0.0555556
        k(   38) = (  -0.0252881   0.0560203   0.0000000), wk =   0.0555556
        k(   39) = (  -0.0505763   0.0280101   0.0000000), wk =   0.0555556
        k(   40) = (  -0.0505763   0.0560203   0.0000000), wk =   0.0555556

     Dense  grid:  1096637 G-vectors     FFT dimensions: (  80,  72, 375)

     Smooth grid:   277353 G-vectors     FFT dimensions: (  54,  45, 240)

     Largest allocated arrays     est. size (Mb)     dimensions
        Kohn-Sham Wavefunctions         9.95 Mb     (    2180,  299)
        NL pseudopotentials            18.89 Mb     (    2180,  568)
        Each V/rho on FFT grid          4.22 Mb     (  138240,   2)
        Each G-vector array             0.52 Mb     (   68538)
        G-vector shells                 0.25 Mb     (   33046)
     Largest temporary arrays     est. size (Mb)     dimensions
        Auxiliary wavefunctions        39.78 Mb     (    2180, 1196)
        Each subspace H/S matrix       21.83 Mb     (    1196, 1196)
        Each <psi_i|beta_j> matrix      2.59 Mb     (     568,  299)
        Arrays for rho mixing          21.09 Mb     (  138240,   10)

     Check: negative/imaginary core charge=   -0.000049    0.000000

     The initial density is read from file :
     ./calc.save/charge-density.dat


     negative rho (up, down):  1.209E-02 1.209E-02


     ************************************************************************
     *
     * You are using vdW-DF for exchange-correlation in this calculation.
     * Please cite the following three references that made this development
     * possible:
     *
     *   M. Dion, H. Rydberg, E. Schroder, D. C. Langreth, and
     *   B. I. Lundqvist, Phys. Rev. Lett. 92, 246401 (2004).
     *
     *   T. Thonhauser, V. R. Cooper, S. Li, A. Puzder, P. Hyldgaard, and
     *   D. C. Langreth, Phys. Rev. B 76, 125112 (2007).
     *
     *   G. Roman-Perez and J. M. Soler, Phys. Rev. Lett. 103, 096102 (2009).
     *
     *
     * If you are using vdW-DF2, please also cite:
     *
     *   K. Lee, E. D. Murray, L. Kong, B. I. Lundqvist, and
     *   D. C. Langreth, Phys. Rev. B 82, 081101(R) (2010).
     *
     *
     * If you are calculating the stress with vdW-DF, please also cite:
     *
     *   R. Sabatini, E. Kucukbenli, B. Kolb, T. Thonhauser, and
     *   S. de Gironcoli, J. Phys.: Condens. Matter 24, 424209 (2012).
     *
     ************************************************************************

     Carrying out vdW-DF run using the following parameters:

     Nqs =      20    Nr_points =    1024   r_max =   100.000
     q_mesh =
               0.00001000     0.04494208     0.09755937     0.15916263
               0.23128650     0.31572767     0.41458969     0.53033537
               0.66584808     0.82450364     1.01025438     1.22772762
               1.48234092     1.78043706     2.12944203     2.53805004
               3.01644009     3.57652955     4.23227104     5.00000000

     Gradients computed in reciprocal space

     ************************************************************************


     Starting wfc are  300 randomized atomic wfcs

     total cpu time spent up to now is       70.1 secs

     Self-consistent Calculation

     iteration #  1     ecut=    40.42 Ry     beta=0.10
     Davidson diagonalization with overlap
     ethr =  1.00E-05,  avg # of iterations = 14.6

     negative rho (up, down):  1.209E-02 1.209E-02
 
     Magnetic moment per site:
     atom:    1    charge:    3.1250    magn:   -0.0002    constr:    0.0000
     atom:    2    charge:    1.9452    magn:    0.0000    constr:    0.0000
     atom:    3    charge:    3.1198    magn:    0.0000    constr:    0.0000
     atom:    4    charge:    1.9504    magn:   -0.0001    constr:    0.0000
     atom:    5    charge:    3.1166    magn:    0.0000    constr:    0.0000
     atom:    6    charge:    1.9477    magn:   -0.0001    constr:    0.0000
     atom:    7    charge:    3.1156    magn:    0.0001    constr:    0.0000
     atom:    8    charge:    1.9454    magn:   -0.0001    constr:    0.0000
     atom:    9    charge:    3.1250    magn:   -0.0002    constr:    0.0000
     atom:   10    charge:    1.9452    magn:    0.0000    constr:    0.0000
     atom:   11    charge:    3.1197    magn:    0.0000    constr:    0.0000
     atom:   12    charge:    1.9504    magn:   -0.0001    constr:    0.0000
     atom:   13    charge:    3.1158    magn:    0.0000    constr:    0.0000
     atom:   14    charge:    1.9587    magn:   -0.0001    constr:    0.0000
     atom:   15    charge:    3.1188    magn:    0.0001    constr:    0.0000
     atom:   16    charge:    1.9447    magn:   -0.0001    constr:    0.0000
     atom:   17    charge:    1.9184    magn:    0.0004    constr:    0.0000
     atom:   18    charge:    3.1240    magn:   -0.0001    constr:    0.0000
     atom:   19    charge:    1.9408    magn:   -0.0000    constr:    0.0000
     atom:   20    charge:    1.9471    magn:    0.0000    constr:    0.0000
     atom:   21    charge:    1.9471    magn:    0.0000    constr:    0.0000
     atom:   22    charge:    3.1196    magn:    0.0000    constr:    0.0000
     atom:   23    charge:    1.9566    magn:   -0.0001    constr:    0.0000
     atom:   24    charge:    1.9379    magn:   -0.0001    constr:    0.0000
     atom:   25    charge:    1.9505    magn:   -0.0001    constr:    0.0000
     atom:   26    charge:    3.1145    magn:    0.0001    constr:    0.0000
     atom:   27    charge:    1.9398    magn:   -0.0001    constr:    0.0000
     atom:   28    charge:    1.9517    magn:   -0.0001    constr:    0.0000
     atom:   29    charge:    1.9476    magn:   -0.0001    constr:    0.0000
     atom:   30    charge:    3.1166    magn:    0.0000    constr:    0.0000
     atom:   31    charge:    1.9449    magn:   -0.0000    constr:    0.0000
     atom:   32    charge:    1.9439    magn:   -0.0001    constr:    0.0000
     atom:   33    charge:    1.9184    magn:    0.0004    constr:    0.0000
     atom:   34    charge:    3.1239    magn:   -0.0001    constr:    0.0000
     atom:   35    charge:    1.9408    magn:   -0.0000    constr:    0.0000
     atom:   36    charge:    1.9471    magn:    0.0000    constr:    0.0000
     atom:   37    charge:    1.9471    magn:    0.0000    constr:    0.0000
     atom:   38    charge:    3.1196    magn:    0.0000    constr:    0.0000
     atom:   39    charge:    1.9549    magn:   -0.0001    constr:    0.0000
     atom:   40    charge:    1.9383    magn:   -0.0001    constr:    0.0000
     atom:   41    charge:    1.9505    magn:   -0.0001    constr:    0.0000
     atom:   42    charge:    3.1141    magn:    0.0001    constr:    0.0000
     atom:   43    charge:    1.9413    magn:   -0.0001    constr:    0.0000
     atom:   44    charge:    1.9518    magn:   -0.0001    constr:    0.0000
     atom:   45    charge:    1.9468    magn:   -0.0001    constr:    0.0000
     atom:   46    charge:    3.1165    magn:    0.0000    constr:    0.0000
     atom:   47    charge:    1.9432    magn:   -0.0000    constr:    0.0000
     atom:   48    charge:    1.9443    magn:   -0.0001    constr:    0.0000
     atom:   49    charge:    0.6599    magn:   -0.0001    constr:    0.0000
     atom:   50    charge:    1.9559    magn:   -0.0001    constr:    0.0000
     atom:   51    charge:    0.4051    magn:    0.0000    constr:    0.0000
     atom:   52    charge:    0.4005    magn:    0.0000    constr:    0.0000
     atom:   53    charge:    0.4027    magn:    0.0000    constr:    0.0000
     atom:   54    charge:    0.4033    magn:    0.0000    constr:    0.0000

     total cpu time spent up to now is      805.2 secs

     total energy              =   -3021.42340732 Ry
     Harris-Foulkes estimate   =   -3021.42597132 Ry
     estimated scf accuracy    <       0.01732985 Ry

     total magnetization       =     0.00 Bohr mag/cell
     absolute magnetization    =     0.01 Bohr mag/cell

     iteration #  2     ecut=    40.42 Ry     beta=0.10
     Davidson diagonalization with overlap
     ethr =  4.35E-06,  avg # of iterations =  2.0

     negative rho (up, down):  1.209E-02 1.209E-02
 
     Magnetic moment per site:
     atom:    1    charge:    3.1250    magn:   -0.0001    constr:    0.0000
     atom:    2    charge:    1.9452    magn:    0.0000    constr:    0.0000
     atom:    3    charge:    3.1197    magn:    0.0000    constr:    0.0000
     atom:    4    charge:    1.9504    magn:   -0.0000    constr:    0.0000
     atom:    5    charge:    3.1166    magn:    0.0000    constr:    0.0000
     atom:    6    charge:    1.9478    magn:   -0.0001    constr:    0.0000
     atom:    7    charge:    3.1156    magn:    0.0000    constr:    0.0000
     atom:    8    charge:    1.9456    magn:   -0.0001    constr:    0.0000
     atom:    9    charge:    3.1250    magn:   -0.0001    constr:    0.0000
     atom:   10    charge:    1.9452    magn:    0.0000    constr:    0.0000
     atom:   11    charge:    3.1197    magn:    0.0000    constr:    0.0000
     atom:   12    charge:    1.9504    magn:   -0.0000    constr:    0.0000
     atom:   13    charge:    3.1158    magn:    0.0000    constr:    0.0000
     atom:   14    charge:    1.9587    magn:   -0.0001    constr:    0.0000
     atom:   15    charge:    3.1188    magn:    0.0000    constr:    0.0000
     atom:   16    charge:    1.9449    magn:   -0.0001    constr:    0.0000
     atom:   17    charge:    1.9184    magn:    0.0003    constr:    0.0000
     atom:   18    charge:    3.1239    magn:   -0.0001    constr:    0.0000
     atom:   19    charge:    1.9408    magn:   -0.0000    constr:    0.0000
     atom:   20    charge:    1.9471    magn:    0.0000    constr:    0.0000
     atom:   21    charge:    1.9471    magn:    0.0000    constr:    0.0000
     atom:   22    charge:    3.1196    magn:    0.0000    constr:    0.0000
     atom:   23    charge:    1.9566    magn:   -0.0001    constr:    0.0000
     atom:   24    charge:    1.9379    magn:   -0.0000    constr:    0.0000
     atom:   25    charge:    1.9505    magn:   -0.0000    constr:    0.0000
     atom:   26    charge:    3.1145    magn:    0.0000    constr:    0.0000
     atom:   27    charge:    1.9398    magn:   -0.0000    constr:    0.0000
     atom:   28    charge:    1.9517    magn:   -0.0001    constr:    0.0000
     atom:   29    charge:    1.9476    magn:   -0.0001    constr:    0.0000
     atom:   30    charge:    3.1166    magn:    0.0000    constr:    0.0000
     atom:   31    charge:    1.9453    magn:   -0.0000    constr:    0.0000
     atom:   32    charge:    1.9438    magn:   -0.0001    constr:    0.0000
     atom:   33    charge:    1.9184    magn:    0.0003    constr:    0.0000
     atom:   34    charge:    3.1239    magn:   -0.0001    constr:    0.0000
     atom:   35    charge:    1.9408    magn:   -0.0000    constr:    0.0000
     atom:   36    charge:    1.9471    magn:    0.0000    constr:    0.0000
     atom:   37    charge:    1.9471    magn:    0.0000    constr:    0.0000
     atom:   38    charge:    3.1196    magn:    0.0000    constr:    0.0000
     atom:   39    charge:    1.9550    magn:   -0.0001    constr:    0.0000
     atom:   40    charge:    1.9383    magn:   -0.0000    constr:    0.0000
     atom:   41    charge:    1.9505    magn:   -0.0000    constr:    0.0000
     atom:   42    charge:    3.1141    magn:    0.0000    constr:    0.0000
     atom:   43    charge:    1.9413    magn:   -0.0000    constr:    0.0000
     atom:   44    charge:    1.9517    magn:   -0.0001    constr:    0.0000
     atom:   45    charge:    1.9469    magn:   -0.0001    constr:    0.0000
     atom:   46    charge:    3.1165    magn:    0.0000    constr:    0.0000
     atom:   47    charge:    1.9433    magn:   -0.0000    constr:    0.0000
     atom:   48    charge:    1.9442    magn:   -0.0001    constr:    0.0000
     atom:   49    charge:    0.6590    magn:   -0.0000    constr:    0.0000
     atom:   50    charge:    1.9504    magn:   -0.0000    constr:    0.0000
     atom:   51    charge:    0.4168    magn:    0.0000    constr:    0.0000
     atom:   52    charge:    0.4001    magn:    0.0000    constr:    0.0000
     atom:   53    charge:    0.4002    magn:    0.0000    constr:    0.0000
     atom:   54    charge:    0.4010    magn:    0.0000    constr:    0.0000

     total cpu time spent up to now is      987.4 secs

     total energy              =   -3021.41689408 Ry
     Harris-Foulkes estimate   =   -3021.42354862 Ry
     estimated scf accuracy    <       0.01163685 Ry

     total magnetization       =     0.00 Bohr mag/cell
     absolute magnetization    =     0.01 Bohr mag/cell

     iteration #  3     ecut=    40.42 Ry     beta=0.10
     Davidson diagonalization with overlap
     ethr =  2.92E-06,  avg # of iterations =  4.8

     negative rho (up, down):  1.209E-02 1.209E-02
 
     Magnetic moment per site:
     atom:    1    charge:    3.1250    magn:   -0.0001    constr:    0.0000
     atom:    2    charge:    1.9452    magn:    0.0000    constr:    0.0000
     atom:    3    charge:    3.1198    magn:    0.0000    constr:    0.0000
     atom:    4    charge:    1.9504    magn:   -0.0000    constr:    0.0000
     atom:    5    charge:    3.1166    magn:    0.0000    constr:    0.0000
     atom:    6    charge:    1.9476    magn:   -0.0001    constr:    0.0000
     atom:    7    charge:    3.1157    magn:    0.0000    constr:    0.0000
     atom:    8    charge:    1.9449    magn:   -0.0001    constr:    0.0000
     atom:    9    charge:    3.1250    magn:   -0.0001    constr:    0.0000
     atom:   10    charge:    1.9452    magn:    0.0000    constr:    0.0000
     atom:   11    charge:    3.1197    magn:    0.0000    constr:    0.0000
     atom:   12    charge:    1.9504    magn:   -0.0000    constr:    0.0000
     atom:   13    charge:    3.1158    magn:    0.0000    constr:    0.0000
     atom:   14    charge:    1.9586    magn:   -0.0001    constr:    0.0000
     atom:   15    charge:    3.1189    magn:    0.0000    constr:    0.0000
     atom:   16    charge:    1.9442    magn:   -0.0001    constr:    0.0000
     atom:   17    charge:    1.9184    magn:    0.0003    constr:    0.0000
     atom:   18    charge:    3.1240    magn:   -0.0001    constr:    0.0000
     atom:   19    charge:    1.9408    magn:   -0.0000    constr:    0.0000
     atom:   20    charge:    1.9471    magn:    0.0000    constr:    0.0000
     atom:   21    charge:    1.9471    magn:    0.0000    constr:    0.0000
     atom:   22    charge:    3.1196    magn:    0.0000    constr:    0.0000
     atom:   23    charge:    1.9566    magn:   -0.0001    constr:    0.0000
     atom:   24    charge:    1.9379    magn:   -0.0000    constr:    0.0000
     atom:   25    charge:    1.9505    magn:   -0.0000    constr:    0.0000
     atom:   26    charge:    3.1145    magn:    0.0000    constr:    0.0000
     atom:   27    charge:    1.9398    magn:   -0.0000    constr:    0.0000
     atom:   28    charge:    1.9517    magn:   -0.0000    constr:    0.0000
     atom:   29    charge:    1.9476    magn:   -0.0001    constr:    0.0000
     atom:   30    charge:    3.1167    magn:    0.0000    constr:    0.0000
     atom:   31    charge:    1.9444    magn:   -0.0000    constr:    0.0000
     atom:   32    charge:    1.9443    magn:   -0.0001    constr:    0.0000
     atom:   33    charge:    1.9184    magn:    0.0003    constr:    0.0000
     atom:   34    charge:    3.1240    magn:   -0.0001    constr:    0.0000
     atom:   35    charge:    1.9408    magn:   -0.0000    constr:    0.0000
     atom:   36    charge:    1.9471    magn:    0.0000    constr:    0.0000
     atom:   37    charge:    1.9471    magn:    0.0000    constr:    0.0000
     atom:   38    charge:    3.1196    magn:    0.0000    constr:    0.0000
     atom:   39    charge:    1.9550    magn:   -0.0001    constr:    0.0000
     atom:   40    charge:    1.9383    magn:   -0.0000    constr:    0.0000
     atom:   41    charge:    1.9505    magn:   -0.0000    constr:    0.0000
     atom:   42    charge:    3.1141    magn:    0.0000    constr:    0.0000
     atom:   43    charge:    1.9413    magn:   -0.0000    constr:    0.0000
     atom:   44    charge:    1.9517    magn:   -0.0000    constr:    0.0000
     atom:   45    charge:    1.9469    magn:   -0.0001    constr:    0.0000
     atom:   46    charge:    3.1165    magn:    0.0000    constr:    0.0000
     atom:   47    charge:    1.9431    magn:   -0.0000    constr:    0.0000
     atom:   48    charge:    1.9447    magn:   -0.0001    constr:    0.0000
     atom:   49    charge:    0.6586    magn:   -0.0000    constr:    0.0000
     atom:   50    charge:    1.9543    magn:   -0.0000    constr:    0.0000
     atom:   51    charge:    0.4181    magn:    0.0000    constr:    0.0000
     atom:   52    charge:    0.3999    magn:    0.0000    constr:    0.0000
     atom:   53    charge:    0.3999    magn:    0.0000    constr:    0.0000
     atom:   54    charge:    0.4007    magn:    0.0000    constr:    0.0000

     total cpu time spent up to now is     1223.2 secs

     total energy              =   -3021.41836557 Ry
     Harris-Foulkes estimate   =   -3021.41872055 Ry
     estimated scf accuracy    <       0.00090003 Ry

     total magnetization       =     0.00 Bohr mag/cell
     absolute magnetization    =     0.00 Bohr mag/cell

     iteration #  4     ecut=    40.42 Ry     beta=0.10
     Davidson diagonalization with overlap
     ethr =  2.26E-07,  avg # of iterations =  3.0

     negative rho (up, down):  1.209E-02 1.209E-02
 
     Magnetic moment per site:
     atom:    1    charge:    3.1250    magn:   -0.0001    constr:    0.0000
     atom:    2    charge:    1.9452    magn:    0.0000    constr:    0.0000
     atom:    3    charge:    3.1198    magn:    0.0000    constr:    0.0000
     atom:    4    charge:    1.9504    magn:   -0.0000    constr:    0.0000
     atom:    5    charge:    3.1166    magn:    0.0000    constr:    0.0000
     atom:    6    charge:    1.9476    magn:   -0.0000    constr:    0.0000
     atom:    7    charge:    3.1156    magn:    0.0000    constr:    0.0000
     atom:    8    charge:    1.9451    magn:   -0.0000    constr:    0.0000
     atom:    9    charge:    3.1250    magn:   -0.0001    constr:    0.0000
     atom:   10    charge:    1.9452    magn:    0.0000    constr:    0.0000
     atom:   11    charge:    3.1197    magn:    0.0000    constr:    0.0000
     atom:   12    charge:    1.9504    magn:   -0.0000    constr:    0.0000
     atom:   13    charge:    3.1158    magn:    0.0000    constr:    0.0000
     atom:   14    charge:    1.9587    magn:   -0.0000    constr:    0.0000
     atom:   15    charge:    3.1189    magn:    0.0000    constr:    0.0000
     atom:   16    charge:    1.9444    magn:   -0.0000    constr:    0.0000
     atom:   17    charge:    1.9184    magn:    0.0002    constr:    0.0000
     atom:   18    charge:    3.1239    magn:   -0.0000    constr:    0.0000
     atom:   19    charge:    1.9408    magn:   -0.0000    constr:    0.0000
     atom:   20    charge:    1.9471    magn:    0.0000    constr:    0.0000
     atom:   21    charge:    1.9471    magn:    0.0000    constr:    0.0000
     atom:   22    charge:    3.1196    magn:    0.0000    constr:    0.0000
     atom:   23    charge:    1.9566    magn:   -0.0000    constr:    0.0000
     atom:   24    charge:    1.9379    magn:   -0.0000    constr:    0.0000
     atom:   25    charge:    1.9505    magn:   -0.0000    constr:    0.0000
     atom:   26    charge:    3.1145    magn:    0.0000    constr:    0.0000
     atom:   27    charge:    1.9398    magn:   -0.0000    constr:    0.0000
     atom:   28    charge:    1.9517    magn:   -0.0000    constr:    0.0000
     atom:   29    charge:    1.9476    magn:   -0.0000    constr:    0.0000
     atom:   30    charge:    3.1166    magn:    0.0000    constr:    0.0000
     atom:   31    charge:    1.9446    magn:   -0.0000    constr:    0.0000
     atom:   32    charge:    1.9441    magn:   -0.0000    constr:    0.0000
     atom:   33    charge:    1.9184    magn:    0.0002    constr:    0.0000
     atom:   34    charge:    3.1239    magn:   -0.0000    constr:    0.0000
     atom:   35    charge:    1.9408    magn:   -0.0000    constr:    0.0000
     atom:   36    charge:    1.9471    magn:    0.0000    constr:    0.0000
     atom:   37    charge:    1.9471    magn:    0.0000    constr:    0.0000
     atom:   38    charge:    3.1196    magn:    0.0000    constr:    0.0000
     atom:   39    charge:    1.9549    magn:   -0.0000    constr:    0.0000
     atom:   40    charge:    1.9383    magn:   -0.0000    constr:    0.0000
     atom:   41    charge:    1.9505    magn:   -0.0000    constr:    0.0000
     atom:   42    charge:    3.1141    magn:    0.0000    constr:    0.0000
     atom:   43    charge:    1.9413    magn:   -0.0000    constr:    0.0000
     atom:   44    charge:    1.9518    magn:   -0.0000    constr:    0.0000
     atom:   45    charge:    1.9468    magn:   -0.0000    constr:    0.0000
     atom:   46    charge:    3.1165    magn:    0.0000    constr:    0.0000
     atom:   47    charge:    1.9431    magn:   -0.0000    constr:    0.0000
     atom:   48    charge:    1.9445    magn:   -0.0000    constr:    0.0000
     atom:   49    charge:    0.6585    magn:   -0.0000    constr:    0.0000
     atom:   50    charge:    1.9550    magn:   -0.0000    constr:    0.0000
     atom:   51    charge:    0.4188    magn:    0.0000    constr:    0.0000
     atom:   52    charge:    0.3999    magn:    0.0000    constr:    0.0000
     atom:   53    charge:    0.3999    magn:    0.0000    constr:    0.0000
     atom:   54    charge:    0.4007    magn:    0.0000    constr:    0.0000

     total cpu time spent up to now is     1423.7 secs

     total energy              =   -3021.41843066 Ry
     Harris-Foulkes estimate   =   -3021.41846570 Ry
     estimated scf accuracy    <       0.00012767 Ry

     total magnetization       =     0.00 Bohr mag/cell
     absolute magnetization    =     0.00 Bohr mag/cell

     iteration #  5     ecut=    40.42 Ry     beta=0.10
     Davidson diagonalization with overlap
     ethr =  3.21E-08,  avg # of iterations =  3.0

     negative rho (up, down):  1.209E-02 1.209E-02
 
     Magnetic moment per site:
     atom:    1    charge:    3.1250    magn:   -0.0001    constr:    0.0000
     atom:    2    charge:    1.9452    magn:    0.0000    constr:    0.0000
     atom:    3    charge:    3.1198    magn:    0.0000    constr:    0.0000
     atom:    4    charge:    1.9504    magn:   -0.0000    constr:    0.0000
     atom:    5    charge:    3.1166    magn:    0.0000    constr:    0.0000
     atom:    6    charge:    1.9477    magn:   -0.0000    constr:    0.0000
     atom:    7    charge:    3.1156    magn:    0.0000    constr:    0.0000
     atom:    8    charge:    1.9452    magn:   -0.0000    constr:    0.0000
     atom:    9    charge:    3.1250    magn:   -0.0001    constr:    0.0000
     atom:   10    charge:    1.9452    magn:    0.0000    constr:    0.0000
     atom:   11    charge:    3.1197    magn:    0.0000    constr:    0.0000
     atom:   12    charge:    1.9504    magn:   -0.0000    constr:    0.0000
     atom:   13    charge:    3.1158    magn:    0.0000    constr:    0.0000
     atom:   14    charge:    1.9587    magn:   -0.0000    constr:    0.0000
     atom:   15    charge:    3.1189    magn:    0.0000    constr:    0.0000
     atom:   16    charge:    1.9445    magn:   -0.0000    constr:    0.0000
     atom:   17    charge:    1.9184    magn:    0.0002    constr:    0.0000
     atom:   18    charge:    3.1239    magn:   -0.0000    constr:    0.0000
     atom:   19    charge:    1.9408    magn:   -0.0000    constr:    0.0000
     atom:   20    charge:    1.9471    magn:    0.0000    constr:    0.0000
     atom:   21    charge:    1.9471    magn:    0.0000    constr:    0.0000
     atom:   22    charge:    3.1196    magn:    0.0000    constr:    0.0000
     atom:   23    charge:    1.9566    magn:   -0.0000    constr:    0.0000
     atom:   24    charge:    1.9379    magn:   -0.0000    constr:    0.0000
     atom:   25    charge:    1.9505    magn:   -0.0000    constr:    0.0000
     atom:   26    charge:    3.1145    magn:    0.0000    constr:    0.0000
     atom:   27    charge:    1.9398    magn:   -0.0000    constr:    0.0000
     atom:   28    charge:    1.9517    magn:   -0.0000    constr:    0.0000
     atom:   29    charge:    1.9476    magn:   -0.0000    constr:    0.0000
     atom:   30    charge:    3.1166    magn:    0.0000    constr:    0.0000
     atom:   31    charge:    1.9446    magn:   -0.0000    constr:    0.0000
     atom:   32    charge:    1.9440    magn:   -0.0000    constr:    0.0000
     atom:   33    charge:    1.9184    magn:    0.0002    constr:    0.0000
     atom:   34    charge:    3.1239    magn:   -0.0000    constr:    0.0000
     atom:   35    charge:    1.9408    magn:   -0.0000    constr:    0.0000
     atom:   36    charge:    1.9471    magn:    0.0000    constr:    0.0000
     atom:   37    charge:    1.9471    magn:    0.0000    constr:    0.0000
     atom:   38    charge:    3.1196    magn:    0.0000    constr:    0.0000
     atom:   39    charge:    1.9549    magn:   -0.0000    constr:    0.0000
     atom:   40    charge:    1.9383    magn:   -0.0000    constr:    0.0000
     atom:   41    charge:    1.9505    magn:   -0.0000    constr:    0.0000
     atom:   42    charge:    3.1141    magn:    0.0000    constr:    0.0000
     atom:   43    charge:    1.9413    magn:   -0.0000    constr:    0.0000
     atom:   44    charge:    1.9518    magn:   -0.0000    constr:    0.0000
     atom:   45    charge:    1.9468    magn:   -0.0000    constr:    0.0000
     atom:   46    charge:    3.1165    magn:    0.0000    constr:    0.0000
     atom:   47    charge:    1.9431    magn:   -0.0000    constr:    0.0000
     atom:   48    charge:    1.9444    magn:   -0.0000    constr:    0.0000
     atom:   49    charge:    0.6585    magn:   -0.0000    constr:    0.0000
     atom:   50    charge:    1.9558    magn:   -0.0000    constr:    0.0000
     atom:   51    charge:    0.4184    magn:    0.0000    constr:    0.0000
     atom:   52    charge:    0.3999    magn:    0.0000    constr:    0.0000
     atom:   53    charge:    0.4000    magn:    0.0000    constr:    0.0000
     atom:   54    charge:    0.4008    magn:    0.0000    constr:    0.0000

     total cpu time spent up to now is     1622.5 secs

     total energy              =   -3021.41843218 Ry
     Harris-Foulkes estimate   =   -3021.41844256 Ry
     estimated scf accuracy    <       0.00004264 Ry

     total magnetization       =     0.00 Bohr mag/cell
     absolute magnetization    =     0.00 Bohr mag/cell

     iteration #  6     ecut=    40.42 Ry     beta=0.10
     Davidson diagonalization with overlap
     ethr =  1.07E-08,  avg # of iterations =  3.0

     negative rho (up, down):  1.209E-02 1.209E-02
 
     Magnetic moment per site:
     atom:    1    charge:    3.1250    magn:   -0.0001    constr:    0.0000
     atom:    2    charge:    1.9452    magn:    0.0000    constr:    0.0000
     atom:    3    charge:    3.1198    magn:    0.0000    constr:    0.0000
     atom:    4    charge:    1.9504    magn:   -0.0000    constr:    0.0000
     atom:    5    charge:    3.1166    magn:    0.0000    constr:    0.0000
     atom:    6    charge:    1.9477    magn:   -0.0000    constr:    0.0000
     atom:    7    charge:    3.1157    magn:    0.0000    constr:    0.0000
     atom:    8    charge:    1.9452    magn:   -0.0000    constr:    0.0000
     atom:    9    charge:    3.1250    magn:   -0.0001    constr:    0.0000
     atom:   10    charge:    1.9452    magn:    0.0000    constr:    0.0000
     atom:   11    charge:    3.1197    magn:    0.0000    constr:    0.0000
     atom:   12    charge:    1.9504    magn:   -0.0000    constr:    0.0000
     atom:   13    charge:    3.1158    magn:    0.0000    constr:    0.0000
     atom:   14    charge:    1.9587    magn:   -0.0000    constr:    0.0000
     atom:   15    charge:    3.1188    magn:    0.0000    constr:    0.0000
     atom:   16    charge:    1.9446    magn:   -0.0000    constr:    0.0000
     atom:   17    charge:    1.9184    magn:    0.0002    constr:    0.0000
     atom:   18    charge:    3.1239    magn:   -0.0000    constr:    0.0000
     atom:   19    charge:    1.9408    magn:   -0.0000    constr:    0.0000
     atom:   20    charge:    1.9471    magn:    0.0000    constr:    0.0000
     atom:   21    charge:    1.9471    magn:    0.0000    constr:    0.0000
     atom:   22    charge:    3.1196    magn:    0.0000    constr:    0.0000
     atom:   23    charge:    1.9566    magn:   -0.0000    constr:    0.0000
     atom:   24    charge:    1.9379    magn:   -0.0000    constr:    0.0000
     atom:   25    charge:    1.9505    magn:   -0.0000    constr:    0.0000
     atom:   26    charge:    3.1145    magn:    0.0000    constr:    0.0000
     atom:   27    charge:    1.9398    magn:   -0.0000    constr:    0.0000
     atom:   28    charge:    1.9517    magn:   -0.0000    constr:    0.0000
     atom:   29    charge:    1.9476    magn:   -0.0000    constr:    0.0000
     atom:   30    charge:    3.1167    magn:    0.0000    constr:    0.0000
     atom:   31    charge:    1.9447    magn:   -0.0000    constr:    0.0000
     atom:   32    charge:    1.9440    magn:   -0.0000    constr:    0.0000
     atom:   33    charge:    1.9184    magn:    0.0002    constr:    0.0000
     atom:   34    charge:    3.1239    magn:   -0.0000    constr:    0.0000
     atom:   35    charge:    1.9408    magn:   -0.0000    constr:    0.0000
     atom:   36    charge:    1.9471    magn:    0.0000    constr:    0.0000
     atom:   37    charge:    1.9471    magn:    0.0000    constr:    0.0000
     atom:   38    charge:    3.1196    magn:    0.0000    constr:    0.0000
     atom:   39    charge:    1.9549    magn:   -0.0000    constr:    0.0000
     atom:   40    charge:    1.9383    magn:   -0.0000    constr:    0.0000
     atom:   41    charge:    1.9505    magn:   -0.0000    constr:    0.0000
     atom:   42    charge:    3.1141    magn:    0.0000    constr:    0.0000
     atom:   43    charge:    1.9413    magn:   -0.0000    constr:    0.0000
     atom:   44    charge:    1.9517    magn:   -0.0000    constr:    0.0000
     atom:   45    charge:    1.9468    magn:   -0.0000    constr:    0.0000
     atom:   46    charge:    3.1165    magn:    0.0000    constr:    0.0000
     atom:   47    charge:    1.9431    magn:   -0.0000    constr:    0.0000
     atom:   48    charge:    1.9444    magn:   -0.0000    constr:    0.0000
     atom:   49    charge:    0.6584    magn:   -0.0000    constr:    0.0000
     atom:   50    charge:    1.9559    magn:   -0.0000    constr:    0.0000
     atom:   51    charge:    0.4180    magn:    0.0000    constr:    0.0000
     atom:   52    charge:    0.4000    magn:    0.0000    constr:    0.0000
     atom:   53    charge:    0.4002    magn:    0.0000    constr:    0.0000
     atom:   54    charge:    0.4010    magn:    0.0000    constr:    0.0000

     total cpu time spent up to now is     1821.9 secs

     total energy              =   -3021.41843348 Ry
     Harris-Foulkes estimate   =   -3021.41843579 Ry
     estimated scf accuracy    <       0.00001470 Ry

     total magnetization       =     0.00 Bohr mag/cell
     absolute magnetization    =     0.00 Bohr mag/cell

     iteration #  7     ecut=    40.42 Ry     beta=0.10
     Davidson diagonalization with overlap
     ethr =  3.69E-09,  avg # of iterations =  3.0

     negative rho (up, down):  1.209E-02 1.209E-02
 
     Magnetic moment per site:
     atom:    1    charge:    3.1250    magn:   -0.0001    constr:    0.0000
     atom:    2    charge:    1.9452    magn:    0.0000    constr:    0.0000
     atom:    3    charge:    3.1198    magn:    0.0000    constr:    0.0000
     atom:    4    charge:    1.9504    magn:   -0.0000    constr:    0.0000
     atom:    5    charge:    3.1166    magn:    0.0000    constr:    0.0000
     atom:    6    charge:    1.9477    magn:   -0.0000    constr:    0.0000
     atom:    7    charge:    3.1157    magn:    0.0000    constr:    0.0000
     atom:    8    charge:    1.9453    magn:   -0.0000    constr:    0.0000
     atom:    9    charge:    3.1250    magn:   -0.0001    constr:    0.0000
     atom:   10    charge:    1.9452    magn:    0.0000    constr:    0.0000
     atom:   11    charge:    3.1197    magn:    0.0000    constr:    0.0000
     atom:   12    charge:    1.9504    magn:   -0.0000    constr:    0.0000
     atom:   13    charge:    3.1158    magn:    0.0000    constr:    0.0000
     atom:   14    charge:    1.9587    magn:   -0.0000    constr:    0.0000
     atom:   15    charge:    3.1188    magn:    0.0000    constr:    0.0000
     atom:   16    charge:    1.9446    magn:   -0.0000    constr:    0.0000
     atom:   17    charge:    1.9184    magn:    0.0001    constr:    0.0000
     atom:   18    charge:    3.1239    magn:   -0.0000    constr:    0.0000
     atom:   19    charge:    1.9408    magn:   -0.0000    constr:    0.0000
     atom:   20    charge:    1.9471    magn:    0.0000    constr:    0.0000
     atom:   21    charge:    1.9471    magn:    0.0000    constr:    0.0000
     atom:   22    charge:    3.1196    magn:    0.0000    constr:    0.0000
     atom:   23    charge:    1.9566    magn:   -0.0000    constr:    0.0000
     atom:   24    charge:    1.9379    magn:   -0.0000    constr:    0.0000
     atom:   25    charge:    1.9505    magn:   -0.0000    constr:    0.0000
     atom:   26    charge:    3.1145    magn:    0.0000    constr:    0.0000
     atom:   27    charge:    1.9398    magn:   -0.0000    constr:    0.0000
     atom:   28    charge:    1.9517    magn:   -0.0000    constr:    0.0000
     atom:   29    charge:    1.9476    magn:   -0.0000    constr:    0.0000
     atom:   30    charge:    3.1167    magn:    0.0000    constr:    0.0000
     atom:   31    charge:    1.9448    magn:   -0.0000    constr:    0.0000
     atom:   32    charge:    1.9439    magn:   -0.0000    constr:    0.0000
     atom:   33    charge:    1.9184    magn:    0.0001    constr:    0.0000
     atom:   34    charge:    3.1239    magn:   -0.0000    constr:    0.0000
     atom:   35    charge:    1.9408    magn:   -0.0000    constr:    0.0000
     atom:   36    charge:    1.9471    magn:    0.0000    constr:    0.0000
     atom:   37    charge:    1.9471    magn:    0.0000    constr:    0.0000
     atom:   38    charge:    3.1196    magn:    0.0000    constr:    0.0000
     atom:   39    charge:    1.9549    magn:   -0.0000    constr:    0.0000
     atom:   40    charge:    1.9383    magn:   -0.0000    constr:    0.0000
     atom:   41    charge:    1.9505    magn:   -0.0000    constr:    0.0000
     atom:   42    charge:    3.1141    magn:    0.0000    constr:    0.0000
     atom:   43    charge:    1.9413    magn:   -0.0000    constr:    0.0000
     atom:   44    charge:    1.9517    magn:   -0.0000    constr:    0.0000
     atom:   45    charge:    1.9468    magn:   -0.0000    constr:    0.0000
     atom:   46    charge:    3.1165    magn:    0.0000    constr:    0.0000
     atom:   47    charge:    1.9431    magn:   -0.0000    constr:    0.0000
     atom:   48    charge:    1.9444    magn:   -0.0000    constr:    0.0000
     atom:   49    charge:    0.6584    magn:   -0.0000    constr:    0.0000
     atom:   50    charge:    1.9558    magn:   -0.0000    constr:    0.0000
     atom:   51    charge:    0.4178    magn:    0.0000    constr:    0.0000
     atom:   52    charge:    0.4001    magn:    0.0000    constr:    0.0000
     atom:   53    charge:    0.4003    magn:    0.0000    constr:    0.0000
     atom:   54    charge:    0.4011    magn:    0.0000    constr:    0.0000

     total cpu time spent up to now is     2019.1 secs

     total energy              =   -3021.41843422 Ry
     Harris-Foulkes estimate   =   -3021.41843431 Ry
     estimated scf accuracy    <       0.00000315 Ry

     total magnetization       =     0.00 Bohr mag/cell
     absolute magnetization    =     0.00 Bohr mag/cell

     iteration #  8     ecut=    40.42 Ry     beta=0.10
     Davidson diagonalization with overlap
     ethr =  7.92E-10,  avg # of iterations =  3.0

     negative rho (up, down):  1.209E-02 1.209E-02
 
     Magnetic moment per site:
     atom:    1    charge:    3.1250    magn:   -0.0000    constr:    0.0000
     atom:    2    charge:    1.9452    magn:    0.0000    constr:    0.0000
     atom:    3    charge:    3.1198    magn:    0.0000    constr:    0.0000
     atom:    4    charge:    1.9504    magn:   -0.0000    constr:    0.0000
     atom:    5    charge:    3.1166    magn:    0.0000    constr:    0.0000
     atom:    6    charge:    1.9477    magn:   -0.0000    constr:    0.0000
     atom:    7    charge:    3.1157    magn:    0.0000    constr:    0.0000
     atom:    8    charge:    1.9453    magn:   -0.0000    constr:    0.0000
     atom:    9    charge:    3.1250    magn:   -0.0000    constr:    0.0000
     atom:   10    charge:    1.9452    magn:    0.0000    constr:    0.0000
     atom:   11    charge:    3.1197    magn:    0.0000    constr:    0.0000
     atom:   12    charge:    1.9504    magn:   -0.0000    constr:    0.0000
     atom:   13    charge:    3.1158    magn:    0.0000    constr:    0.0000
     atom:   14    charge:    1.9587    magn:   -0.0000    constr:    0.0000
     atom:   15    charge:    3.1188    magn:    0.0000    constr:    0.0000
     atom:   16    charge:    1.9446    magn:   -0.0000    constr:    0.0000
     atom:   17    charge:    1.9184    magn:    0.0001    constr:    0.0000
     atom:   18    charge:    3.1239    magn:   -0.0000    constr:    0.0000
     atom:   19    charge:    1.9408    magn:   -0.0000    constr:    0.0000
     atom:   20    charge:    1.9471    magn:    0.0000    constr:    0.0000
     atom:   21    charge:    1.9471    magn:    0.0000    constr:    0.0000
     atom:   22    charge:    3.1196    magn:    0.0000    constr:    0.0000
     atom:   23    charge:    1.9566    magn:   -0.0000    constr:    0.0000
     atom:   24    charge:    1.9379    magn:   -0.0000    constr:    0.0000
     atom:   25    charge:    1.9505    magn:   -0.0000    constr:    0.0000
     atom:   26    charge:    3.1145    magn:    0.0000    constr:    0.0000
     atom:   27    charge:    1.9398    magn:   -0.0000    constr:    0.0000
     atom:   28    charge:    1.9517    magn:   -0.0000    constr:    0.0000
     atom:   29    charge:    1.9476    magn:   -0.0000    constr:    0.0000
     atom:   30    charge:    3.1167    magn:    0.0000    constr:    0.0000
     atom:   31    charge:    1.9447    magn:   -0.0000    constr:    0.0000
     atom:   32    charge:    1.9440    magn:   -0.0000    constr:    0.0000
     atom:   33    charge:    1.9184    magn:    0.0001    constr:    0.0000
     atom:   34    charge:    3.1239    magn:   -0.0000    constr:    0.0000
     atom:   35    charge:    1.9408    magn:   -0.0000    constr:    0.0000
     atom:   36    charge:    1.9471    magn:    0.0000    constr:    0.0000
     atom:   37    charge:    1.9471    magn:    0.0000    constr:    0.0000
     atom:   38    charge:    3.1196    magn:    0.0000    constr:    0.0000
     atom:   39    charge:    1.9549    magn:   -0.0000    constr:    0.0000
     atom:   40    charge:    1.9383    magn:   -0.0000    constr:    0.0000
     atom:   41    charge:    1.9505    magn:   -0.0000    constr:    0.0000
     atom:   42    charge:    3.1141    magn:    0.0000    constr:    0.0000
     atom:   43    charge:    1.9413    magn:   -0.0000    constr:    0.0000
     atom:   44    charge:    1.9517    magn:   -0.0000    constr:    0.0000
     atom:   45    charge:    1.9468    magn:   -0.0000    constr:    0.0000
     atom:   46    charge:    3.1165    magn:    0.0000    constr:    0.0000
     atom:   47    charge:    1.9431    magn:   -0.0000    constr:    0.0000
     atom:   48    charge:    1.9444    magn:   -0.0000    constr:    0.0000
     atom:   49    charge:    0.6583    magn:   -0.0000    constr:    0.0000
     atom:   50    charge:    1.9558    magn:   -0.0000    constr:    0.0000
     atom:   51    charge:    0.4177    magn:    0.0000    constr:    0.0000
     atom:   52    charge:    0.4001    magn:    0.0000    constr:    0.0000
     atom:   53    charge:    0.4003    magn:    0.0000    constr:    0.0000
     atom:   54    charge:    0.4011    magn:    0.0000    constr:    0.0000

     total cpu time spent up to now is     2221.8 secs

     total energy              =   -3021.41843446 Ry
     Harris-Foulkes estimate   =   -3021.41843459 Ry
     estimated scf accuracy    <       0.00000094 Ry

     total magnetization       =     0.00 Bohr mag/cell
     absolute magnetization    =     0.00 Bohr mag/cell

     iteration #  9     ecut=    40.42 Ry     beta=0.10
     Davidson diagonalization with overlap
     ethr =  2.35E-10,  avg # of iterations =  2.0

     negative rho (up, down):  1.209E-02 1.209E-02
 
     Magnetic moment per site:
     atom:    1    charge:    3.1250    magn:   -0.0000    constr:    0.0000
     atom:    2    charge:    1.9452    magn:    0.0000    constr:    0.0000
     atom:    3    charge:    3.1198    magn:    0.0000    constr:    0.0000
     atom:    4    charge:    1.9504    magn:   -0.0000    constr:    0.0000
     atom:    5    charge:    3.1166    magn:    0.0000    constr:    0.0000
     atom:    6    charge:    1.9477    magn:   -0.0000    constr:    0.0000
     atom:    7    charge:    3.1156    magn:    0.0000    constr:    0.0000
     atom:    8    charge:    1.9452    magn:   -0.0000    constr:    0.0000
     atom:    9    charge:    3.1250    magn:   -0.0000    constr:    0.0000
     atom:   10    charge:    1.9452    magn:    0.0000    constr:    0.0000
     atom:   11    charge:    3.1197    magn:    0.0000    constr:    0.0000
     atom:   12    charge:    1.9504    magn:   -0.0000    constr:    0.0000
     atom:   13    charge:    3.1158    magn:    0.0000    constr:    0.0000
     atom:   14    charge:    1.9587    magn:   -0.0000    constr:    0.0000
     atom:   15    charge:    3.1188    magn:    0.0000    constr:    0.0000
     atom:   16    charge:    1.9446    magn:   -0.0000    constr:    0.0000
     atom:   17    charge:    1.9184    magn:    0.0001    constr:    0.0000
     atom:   18    charge:    3.1239    magn:   -0.0000    constr:    0.0000
     atom:   19    charge:    1.9408    magn:   -0.0000    constr:    0.0000
     atom:   20    charge:    1.9471    magn:    0.0000    constr:    0.0000
     atom:   21    charge:    1.9471    magn:    0.0000    constr:    0.0000
     atom:   22    charge:    3.1196    magn:    0.0000    constr:    0.0000
     atom:   23    charge:    1.9566    magn:   -0.0000    constr:    0.0000
     atom:   24    charge:    1.9379    magn:   -0.0000    constr:    0.0000
     atom:   25    charge:    1.9505    magn:   -0.0000    constr:    0.0000
     atom:   26    charge:    3.1145    magn:    0.0000    constr:    0.0000
     atom:   27    charge:    1.9398    magn:   -0.0000    constr:    0.0000
     atom:   28    charge:    1.9517    magn:   -0.0000    constr:    0.0000
     atom:   29    charge:    1.9476    magn:   -0.0000    constr:    0.0000
     atom:   30    charge:    3.1167    magn:    0.0000    constr:    0.0000
     atom:   31    charge:    1.9447    magn:   -0.0000    constr:    0.0000
     atom:   32    charge:    1.9440    magn:   -0.0000    constr:    0.0000
     atom:   33    charge:    1.9184    magn:    0.0001    constr:    0.0000
     atom:   34    charge:    3.1239    magn:   -0.0000    constr:    0.0000
     atom:   35    charge:    1.9408    magn:   -0.0000    constr:    0.0000
     atom:   36    charge:    1.9471    magn:    0.0000    constr:    0.0000
     atom:   37    charge:    1.9471    magn:    0.0000    constr:    0.0000
     atom:   38    charge:    3.1196    magn:    0.0000    constr:    0.0000
     atom:   39    charge:    1.9549    magn:   -0.0000    constr:    0.0000
     atom:   40    charge:    1.9383    magn:   -0.0000    constr:    0.0000
     atom:   41    charge:    1.9505    magn:   -0.0000    constr:    0.0000
     atom:   42    charge:    3.1141    magn:    0.0000    constr:    0.0000
     atom:   43    charge:    1.9413    magn:   -0.0000    constr:    0.0000
     atom:   44    charge:    1.9517    magn:   -0.0000    constr:    0.0000
     atom:   45    charge:    1.9468    magn:   -0.0000    constr:    0.0000
     atom:   46    charge:    3.1165    magn:    0.0000    constr:    0.0000
     atom:   47    charge:    1.9431    magn:   -0.0000    constr:    0.0000
     atom:   48    charge:    1.9444    magn:   -0.0000    constr:    0.0000
     atom:   49    charge:    0.6583    magn:   -0.0000    constr:    0.0000
     atom:   50    charge:    1.9558    magn:   -0.0000    constr:    0.0000
     atom:   51    charge:    0.4176    magn:    0.0000    constr:    0.0000
     atom:   52    charge:    0.4001    magn:    0.0000    constr:    0.0000
     atom:   53    charge:    0.4003    magn:    0.0000    constr:    0.0000
     atom:   54    charge:    0.4011    magn:    0.0000    constr:    0.0000

     total cpu time spent up to now is     2404.6 secs

     End of self-consistent calculation

 ------ SPIN UP ------------


          k = 0.0000 0.0000 0.0000 ( 34665 PWs)   bands (ev):

   -57.6909 -57.6560 -57.3078 -57.2715 -57.2190 -57.1013 -57.0648 -57.0639
   -57.0397 -57.0291 -56.9807 -56.9453 -56.7229 -56.6854 -56.1417 -56.1064
   -34.1271 -33.9731 -33.9446 -33.8919 -33.8600 -33.7976 -33.7372 -33.6408
   -33.6081 -33.5966 -33.5592 -33.5308 -33.5091 -33.4978 -33.4799 -33.4712
   -33.4519 -33.4443 -33.4199 -33.3903 -33.3156 -33.2834 -33.2633 -33.2540
   -33.2449 -33.2437 -33.2354 -33.2346 -33.2285 -33.2210 -33.2175 -33.2040
   -33.1710 -33.1708 -33.1662 -33.1317 -33.1089 -32.9889 -32.9703 -32.9494
   -32.9005 -32.7978 -32.5595 -32.4940 -32.4679 -32.3636 -32.2720 -32.1637
   -20.1524 -18.0028 -17.8332 -17.5475 -17.4518 -17.3631 -17.2419 -17.0686
   -17.0586 -16.9648 -16.9305 -16.8765 -16.7743 -16.7675 -16.7185 -16.6987
   -16.6946 -16.6529 -16.6034 -16.5934 -16.5274 -16.4060 -16.3944 -16.3901
   -16.3104 -16.2592 -16.1862 -16.1592 -16.1418 -15.9722 -15.9223 -14.7262
   -14.6426 -11.5208  -7.1603  -5.4710  -5.3897  -5.3201  -5.1965  -5.1370
    -5.1315  -5.1187  -4.8306  -4.8051  -4.4636  -4.4333  -4.3498  -4.3465
    -4.3145  -4.2250  -4.0814  -4.0526  -4.0464  -4.0092  -3.9893  -3.9825
    -3.9529  -3.9457  -3.9430  -3.8313  -3.7780  -3.7562  -3.7368  -3.7165
    -3.6235  -3.6076  -3.5770  -3.5681  -3.5114  -3.5018  -3.4178  -3.3986
    -3.3766  -3.3019  -3.2378  -3.1901  -3.0047  -2.9279  -2.8711  -2.8298
    -2.6877  -2.5969  -2.5814  -2.5722  -2.5681  -2.5587  -2.4240  -2.4055
    -2.3276  -2.2604  -2.2383  -2.1962  -2.1915  -2.1560  -2.1291  -2.0838
    -2.0388  -2.0148  -2.0105  -1.8801  -1.8570  -1.7510  -1.7262  -1.6160
    -1.5337  -1.5314  -1.4805  -1.4713  -1.4546  -1.4148  -1.3207  -1.3007
    -1.2929  -1.2705  -1.2338  -1.1261  -1.0781  -1.0646  -1.0575  -1.0117
    -0.9452  -0.9069  -0.8059  -0.7527  -0.6018  -0.5789  -0.5611  -0.4701
    -0.3671  -0.2347  -0.0770  -0.0174   0.1391   0.2558   0.2695   1.6505
     1.6831   1.9943   2.0100   2.0752   2.1063   2.2135   2.2540   2.2966
     2.4400   2.5065   2.5347   2.5386   2.5506   2.6402   2.6581   2.6661
     2.7244   2.8086   2.8361   2.8487   2.9203   3.0102   3.0429   3.1108
     3.1132   3.1250   3.1697   3.2108   3.2177   3.2343   3.2490   3.2603
     3.2685   3.2986   3.4044   3.4394   3.4659   3.4755   3.5362   3.5954
     3.6621   3.7043   3.8174   3.9907   4.0249   4.1002   4.1877   4.3292
     4.3477   4.3997   4.5807   4.6067   4.8169   4.8474   5.0962   5.1764
     5.2528   5.3385   5.4804   5.5221   5.5263   5.6029   5.6853   5.7228
     5.8085   5.8742   5.8853   5.8950   5.9644   6.0274   6.0559   6.0778
     6.1523   6.2379   6.2546   6.3065   6.3868   6.5851   6.6445   6.7498
     6.8472   7.0161   7.0467   7.1635   7.3102   7.5339   7.8971   8.2566
     8.2873   8.6621   8.8010   8.8544   8.9396   9.0012   9.1499   9.2355
     9.3572   9.3787   9.5196

          k = 0.0000 0.0280 0.0000 ( 34717 PWs)   bands (ev):

   -57.6886 -57.6583 -57.3054 -57.2739 -57.2186 -57.0990 -57.0669 -57.0618
   -57.0401 -57.0315 -56.9784 -56.9476 -56.7204 -56.6878 -56.1393 -56.1088
   -34.1017 -33.9711 -33.9465 -33.8858 -33.8341 -33.8041 -33.7642 -33.6181
   -33.6013 -33.5716 -33.5338 -33.5278 -33.5106 -33.4909 -33.4801 -33.4747
   -33.4597 -33.4491 -33.4180 -33.3834 -33.3095 -33.2817 -33.2770 -33.2555
   -33.2479 -33.2411 -33.2408 -33.2311 -33.2294 -33.2276 -33.2273 -33.2099
   -33.1940 -33.1758 -33.1679 -33.1355 -33.1325 -32.9851 -32.9690 -32.9507
   -32.9056 -32.8258 -32.5338 -32.4923 -32.4697 -32.3575 -32.2783 -32.1912
   -20.1522 -17.9411 -17.7756 -17.4945 -17.3996 -17.3194 -17.2153 -17.0818
   -17.0283 -16.9902 -16.9838 -16.8779 -16.8094 -16.7519 -16.6967 -16.6800
   -16.6670 -16.6551 -16.6465 -16.6341 -16.5864 -16.4298 -16.3756 -16.3602
   -16.3371 -16.2887 -16.2032 -16.1657 -16.1456 -16.0031 -15.9592 -14.7363
   -14.6660 -11.5204  -7.1599  -5.4432  -5.3082  -5.2525  -5.1354  -5.1216
    -5.0597  -5.0385  -4.7551  -4.6923  -4.4264  -4.3916  -4.3857  -4.3030
    -4.2936  -4.1522  -4.1146  -4.1055  -4.0829  -4.0620  -4.0237  -4.0223
    -3.9581  -3.9530  -3.9413  -3.8815  -3.8449  -3.8399  -3.8304  -3.7614
    -3.7155  -3.6958  -3.6575  -3.6075  -3.5666  -3.5541  -3.4362  -3.3827
    -3.3274  -3.2293  -3.2210  -3.0981  -2.9253  -2.8637  -2.7413  -2.7155
    -2.6057  -2.5932  -2.5171  -2.5015  -2.4688  -2.4320  -2.4036  -2.3986
    -2.3772  -2.3519  -2.2801  -2.2677  -2.1590  -2.1340  -2.1278  -2.0848
    -2.0134  -1.9867  -1.9447  -1.8695  -1.8024  -1.7568  -1.6978  -1.6726
    -1.6333  -1.6154  -1.5541  -1.5168  -1.4749  -1.4288  -1.4269  -1.3870
    -1.3492  -1.2630  -1.2089  -1.2040  -1.1483  -1.0797  -1.0565  -1.0133
    -0.9990  -0.8960  -0.8532  -0.7818  -0.7506  -0.6979  -0.5994  -0.5819
    -0.3854  -0.2626  -0.0841  -0.0716   0.1539   0.2094   0.2360   1.7369
     1.7828   1.9939   2.0752   2.1415   2.1601   2.2283   2.2829   2.3224
     2.4338   2.4701   2.5069   2.5448   2.5951   2.6112   2.6402   2.7013
     2.7417   2.7803   2.8060   2.9220   2.9318   2.9614   2.9851   3.0185
     3.1215   3.1265   3.1431   3.1837   3.2012   3.2142   3.2678   3.3135
     3.3436   3.3791   3.4165   3.4829   3.5153   3.5598   3.5703   3.6569
     3.6739   3.6943   3.7809   3.9686   4.0430   4.1234   4.1989   4.2954
     4.3310   4.4069   4.5488   4.6835   4.8692   4.9339   5.1002   5.2673
     5.3124   5.3430   5.5459   5.5708   5.6121   5.6207   5.6956   5.7274
     5.7930   5.8015   5.8603   5.8868   5.9071   5.9556   6.0726   6.1243
     6.1572   6.1668   6.1768   6.2146   6.2838   6.5645   6.6111   6.6950
     6.8465   6.9563   6.9872   7.0758   7.2357   7.5423   7.8953   7.9945
     8.0656   8.4593   8.5460   8.7963   8.8747   8.9982   9.0882   9.1273
     9.2679   9.4277   9.4621

          k = 0.0000 0.0560 0.0000 ( 34721 PWs)   bands (ev):

   -57.6822 -57.6648 -57.2989 -57.2805 -57.2178 -57.0929 -57.0730 -57.0554
   -57.0410 -57.0379 -56.9719 -56.9541 -56.7138 -56.6945 -56.1329 -56.1153
   -34.0319 -33.9658 -33.9515 -33.8687 -33.8372 -33.8216 -33.7630 -33.5858
   -33.5618 -33.5602 -33.5244 -33.5175 -33.4976 -33.4941 -33.4638 -33.4629
   -33.4433 -33.4152 -33.4094 -33.3639 -33.3047 -33.3044 -33.3042 -33.2930
   -33.2774 -33.2676 -33.2592 -33.2527 -33.2448 -33.2370 -33.2256 -33.2235
   -33.2008 -33.1889 -33.1614 -33.1563 -33.1184 -32.9801 -32.9654 -32.9540
   -32.9185 -32.8955 -32.4875 -32.4745 -32.4631 -32.3410 -32.2952 -32.2653
   -20.1519 -17.7699 -17.6170 -17.3632 -17.2661 -17.2501 -17.2093 -17.1588
   -17.1266 -16.9526 -16.9455 -16.9105 -16.8647 -16.8091 -16.7780 -16.7178
   -16.7074 -16.6744 -16.6141 -16.5882 -16.5315 -16.4952 -16.4118 -16.3694
   -16.3536 -16.2937 -16.2324 -16.1866 -16.1491 -16.1041 -16.0321 -14.7545
   -14.7166 -11.5196  -7.1590  -5.4178  -5.1459  -5.0691  -5.0316  -4.9151
    -4.8498  -4.8149  -4.5534  -4.4994  -4.4641  -4.4080  -4.4013  -4.3576
    -4.3226  -4.2517  -4.2256  -4.2031  -4.1878  -4.1776  -4.1488  -4.0677
    -4.0482  -3.9973  -3.9780  -3.9597  -3.9223  -3.8817  -3.8492  -3.8128
    -3.7892  -3.7245  -3.6288  -3.5779  -3.4354  -3.4208  -3.4008  -3.2604
    -3.2300  -3.2035  -3.1856  -3.0754  -2.9017  -2.8362  -2.8309  -2.7899
    -2.7133  -2.6592  -2.5404  -2.4649  -2.4346  -2.3140  -2.3094  -2.3026
    -2.2947  -2.2411  -2.1985  -2.1704  -2.1402  -2.1084  -2.0230  -2.0010
    -1.9515  -1.9385  -1.9083  -1.8970  -1.8747  -1.8395  -1.8075  -1.7749
    -1.7357  -1.6844  -1.6158  -1.5332  -1.5180  -1.5004  -1.4467  -1.4109
    -1.3722  -1.3566  -1.3425  -1.2809  -1.2296  -1.2085  -1.1474  -1.0917
    -1.0680  -1.0152  -0.9115  -0.8774  -0.8422  -0.7762  -0.7539  -0.6523
    -0.5782  -0.4543  -0.2328   0.0987   0.1511   0.1861   0.1928   1.8725
     2.0324   2.1079   2.1170   2.2202   2.2439   2.2777   2.3761   2.3980
     2.4036   2.4205   2.4439   2.4844   2.5110   2.5488   2.6835   2.7047
     2.7441   2.7835   2.8388   2.9127   2.9248   2.9472   2.9801   2.9822
     3.0238   3.1072   3.1476   3.1657   3.2590   3.2713   3.2955   3.3372
     3.3776   3.3963   3.4487   3.5457   3.5522   3.6455   3.6855   3.7350
     3.7683   3.8309   3.8665   3.8978   3.9402   4.1387   4.1500   4.1663
     4.3370   4.3832   4.5760   4.9129   5.0242   5.0552   5.1828   5.3860
     5.3898   5.4874   5.5273   5.5586   5.6590   5.7316   5.7317   5.7415
     5.7877   5.7958   5.8059   5.8637   5.8927   5.9451   5.9844   5.9949
     6.0103   6.0630   6.1626   6.1774   6.3066   6.3748   6.4081   6.6122
     6.6626   6.7882   6.8714   7.0412   7.1942   7.3371   7.4400   7.7001
     8.0613   8.1727   8.3233   8.5994   8.8572   8.9965   9.2963   9.3266
     9.4229   9.4367   9.5634

          k = 0.0000-0.0840 0.0000 ( 34678 PWs)   bands (ev):

   -57.6736 -57.6734 -57.2913 -57.2880 -57.2173 -57.0874 -57.0785 -57.0467
   -57.0466 -57.0414 -56.9635 -56.9626 -56.7068 -56.7015 -56.1241 -56.1241
   -33.9588 -33.9586 -33.9353 -33.9352 -33.8453 -33.8451 -33.6762 -33.6522
   -33.5560 -33.5519 -33.5156 -33.5081 -33.5039 -33.4630 -33.4404 -33.4132
   -33.4053 -33.3990 -33.3666 -33.3664 -33.3514 -33.3386 -33.3327 -33.3148
   -33.3135 -33.2763 -33.2695 -33.2674 -33.2605 -33.2562 -33.2241 -33.2223
   -33.2062 -33.2044 -33.1544 -33.1537 -33.0415 -33.0208 -32.9623 -32.9568
   -32.9324 -32.9293 -32.4810 -32.4810 -32.3652 -32.3651 -32.3181 -32.3181
   -20.1517 -17.5591 -17.4960 -17.4023 -17.3819 -17.2199 -17.1649 -17.0574
   -17.0521 -17.0063 -16.9930 -16.9799 -16.8613 -16.8319 -16.8319 -16.7924
   -16.7858 -16.5868 -16.5847 -16.5148 -16.5124 -16.4799 -16.4785 -16.3958
   -16.3939 -16.2547 -16.2526 -16.1932 -16.1891 -16.1250 -16.0946 -14.7533
   -14.7532 -11.5193  -7.1585  -5.4108  -5.1517  -4.7897  -4.7256  -4.7245
    -4.6489  -4.6328  -4.6290  -4.5931  -4.5687  -4.4990  -4.4945  -4.3914
    -4.3640  -4.3306  -4.3290  -4.3002  -4.2872  -4.2722  -4.2662  -4.0450
    -4.0249  -4.0151  -4.0014  -3.9833  -3.9345  -3.8033  -3.7948  -3.7836
    -3.7056  -3.6855  -3.6303  -3.5142  -3.4644  -3.3366  -3.3212  -3.3035
    -3.1300  -3.1078  -3.0355  -3.0119  -2.9548  -2.9264  -2.7980  -2.7793
    -2.6896  -2.6857  -2.5685  -2.5308  -2.5047  -2.4867  -2.4781  -2.4388
    -2.4299  -2.4118  -2.3213  -2.2344  -2.0192  -1.9990  -1.9580  -1.9318
    -1.9186  -1.8216  -1.8143  -1.8004  -1.7740  -1.7364  -1.7225  -1.6901
    -1.6558  -1.6311  -1.6039  -1.5487  -1.5055  -1.4791  -1.4726  -1.4435
    -1.4168  -1.4092  -1.4017  -1.3733  -1.3495  -1.3170  -1.2104  -1.1793
    -1.0907  -1.0657  -0.9943  -0.9691  -0.9621  -0.9519  -0.9290  -0.5152
    -0.5099  -0.4477  -0.4336   0.1511   0.1512   0.1937   0.1954   2.0472
     2.0503   2.2272   2.2278   2.2300   2.2470   2.2953   2.3496   2.3549
     2.3550   2.3823   2.3933   2.5380   2.5620   2.5631   2.6108   2.6737
     2.7242   2.7455   2.7588   2.9011   2.9316   2.9986   3.0063   3.0660
     3.0672   3.1107   3.1214   3.1902   3.2290   3.2426   3.2555   3.4132
     3.4347   3.4458   3.4485   3.4816   3.4928   3.7334   3.7742   3.8123
     3.8159   3.8407   3.9172   3.9397   3.9776   4.0814   4.0837   4.1336
     4.1343   4.4288   4.6850   4.9695   5.0096   5.2675   5.3390   5.4662
     5.4978   5.5161   5.5161   5.5677   5.5975   5.6558   5.6746   5.6822
     5.8075   5.8130   5.8347   5.8590   5.8704   5.8752   5.8936   5.9817
     6.0265   6.0644   6.0751   6.1663   6.2007   6.3987   6.4687   6.5669
     6.6085   6.7443   6.7744   6.9645   7.0372   7.0897   7.3244   7.6704
     7.8598   8.1508   8.3688   8.7719   8.8311   8.8459   9.1294   9.6846
     9.7028   9.7533   9.8002

          k = 0.0253 0.0000 0.0000 ( 34707 PWs)   bands (ev):

   -57.6909 -57.6560 -57.3078 -57.2715 -57.2190 -57.1012 -57.0648 -57.0640
   -57.0397 -57.0291 -56.9807 -56.9453 -56.7229 -56.6854 -56.1417 -56.1064
   -34.1274 -33.9731 -33.9447 -33.8912 -33.8601 -33.7977 -33.7373 -33.6416
   -33.6081 -33.5983 -33.5594 -33.5274 -33.5228 -33.4986 -33.4712 -33.4651
   -33.4507 -33.4443 -33.4199 -33.3834 -33.3155 -33.2836 -33.2630 -33.2540
   -33.2489 -33.2472 -33.2358 -33.2327 -33.2309 -33.2211 -33.2176 -33.2038
   -33.1710 -33.1707 -33.1665 -33.1317 -33.1090 -32.9889 -32.9728 -32.9485
   -32.9005 -32.7980 -32.5594 -32.4950 -32.4674 -32.3636 -32.2721 -32.1638
   -20.1522 -17.9729 -17.7933 -17.5052 -17.4230 -17.3464 -17.2484 -17.1367
   -17.0832 -16.9656 -16.9301 -16.8617 -16.8108 -16.7947 -16.7798 -16.7721
   -16.7202 -16.6850 -16.5468 -16.5229 -16.4453 -16.4430 -16.3953 -16.3620
   -16.3282 -16.3037 -16.1748 -16.1569 -16.1431 -15.9720 -15.9220 -14.7251
   -14.6424 -11.5195  -7.1574  -5.4693  -5.3101  -5.2577  -5.1304  -5.0882
    -5.0356  -5.0067  -4.8252  -4.8004  -4.6087  -4.4606  -4.4277  -4.3213
    -4.3023  -4.2921  -4.2375  -4.0978  -4.0269  -4.0232  -3.9866  -3.9371
    -3.9295  -3.9019  -3.8219  -3.7969  -3.7409  -3.7173  -3.6865  -3.6830
    -3.6133  -3.5885  -3.5602  -3.5526  -3.5080  -3.4464  -3.3944  -3.3017
    -3.2487  -3.2386  -3.1825  -3.0976  -3.0256  -2.9674  -2.9175  -2.8882
    -2.7468  -2.6637  -2.6221  -2.5912  -2.5713  -2.5217  -2.5108  -2.4951
    -2.4236  -2.3269  -2.3138  -2.2274  -2.2116  -2.1736  -2.1478  -2.0609
    -1.9997  -1.9891  -1.9547  -1.8740  -1.8394  -1.7439  -1.7313  -1.6426
    -1.5757  -1.5725  -1.5283  -1.4539  -1.4480  -1.3567  -1.3483  -1.3390
    -1.3280  -1.2814  -1.2650  -1.1804  -1.1192  -1.1087  -1.0677  -1.0330
    -0.9623  -0.9064  -0.8200  -0.7712  -0.7652  -0.6424  -0.6338  -0.5427
    -0.4118  -0.2291  -0.1071  -0.0455   0.1250   0.2130   0.2139   1.6700
     1.7330   2.0092   2.0812   2.1575   2.2338   2.2481   2.2792   2.3869
     2.3947   2.4669   2.5141   2.5321   2.5492   2.5869   2.6066   2.6455
     2.6647   2.7439   2.7669   2.8765   2.8935   2.9801   3.0403   3.1157
     3.1291   3.1545   3.1712   3.2120   3.2181   3.2629   3.2774   3.3474
     3.3858   3.4100   3.4600   3.4818   3.5435   3.5701   3.6016   3.6079
     3.6735   3.7397   3.7566   3.9230   4.0113   4.1045   4.1819   4.2855
     4.3822   4.4025   4.5603   4.6688   4.8721   4.9181   4.9359   5.0777
     5.1308   5.1547   5.1988   5.3568   5.5675   5.6195   5.7001   5.8734
     5.8909   5.9350   5.9671   6.0289   6.0877   6.1128   6.1704   6.2187
     6.2278   6.2609   6.2691   6.3166   6.4564   6.5232   6.6434   6.6691
     6.8254   6.8729   7.0420   7.1421   7.3100   7.7447   7.8350   8.0751
     8.2993   8.3347   8.4325   8.6632   8.8519   8.9280   9.1519   9.3365
     9.3680   9.4321   9.5000

          k = 0.0253 0.0280 0.0000 ( 34687 PWs)   bands (ev):

   -57.6886 -57.6583 -57.3054 -57.2739 -57.2186 -57.0989 -57.0669 -57.0619
   -57.0401 -57.0315 -56.9784 -56.9476 -56.7204 -56.6878 -56.1393 -56.1088
   -34.1020 -33.9712 -33.9465 -33.8851 -33.8342 -33.8040 -33.7642 -33.6188
   -33.6013 -33.5733 -33.5341 -33.5246 -33.5120 -33.5063 -33.4804 -33.4606
   -33.4561 -33.4479 -33.4180 -33.3766 -33.3094 -33.2818 -33.2748 -33.2555
   -33.2480 -33.2447 -33.2410 -33.2390 -33.2290 -33.2276 -33.2264 -33.2086
   -33.1942 -33.1758 -33.1680 -33.1354 -33.1325 -32.9851 -32.9711 -32.9500
   -32.9056 -32.8258 -32.5337 -32.4932 -32.4692 -32.3576 -32.2783 -32.1912
   -20.1520 -17.9127 -17.7366 -17.4540 -17.3732 -17.2993 -17.2220 -17.1204
   -17.0882 -16.9967 -16.9548 -16.8488 -16.8222 -16.7951 -16.7737 -16.7610
   -16.7049 -16.6908 -16.5905 -16.5683 -16.4977 -16.4655 -16.3726 -16.3555
   -16.3465 -16.3209 -16.1918 -16.1652 -16.1453 -16.0036 -15.9589 -14.7353
   -14.6660 -11.5191  -7.1569  -5.4485  -5.2414  -5.1741  -5.1340  -5.0117
    -4.9573  -4.9264  -4.7500  -4.6892  -4.5531  -4.3947  -4.3620  -4.3374
    -4.2503  -4.2438  -4.1776  -4.1100  -4.0806  -4.0555  -4.0263  -4.0109
    -3.9680  -3.9335  -3.9041  -3.8591  -3.8132  -3.8013  -3.7751  -3.7143
    -3.6922  -3.6559  -3.6065  -3.5966  -3.5331  -3.5257  -3.3907  -3.3183
    -3.2432  -3.2217  -3.1467  -3.0669  -2.9726  -2.9414  -2.7792  -2.6978
    -2.6725  -2.6274  -2.6028  -2.5257  -2.4938  -2.4453  -2.4392  -2.4115
    -2.3959  -2.3781  -2.3303  -2.2934  -2.2071  -2.1691  -2.1068  -2.0917
    -2.0579  -1.9848  -1.9393  -1.8830  -1.8559  -1.8168  -1.7531  -1.6643
    -1.6354  -1.6073  -1.5796  -1.5526  -1.4995  -1.4544  -1.4307  -1.3915
    -1.3361  -1.3200  -1.2607  -1.2454  -1.1964  -1.0967  -1.0876  -1.0522
    -0.9971  -0.8764  -0.8282  -0.8251  -0.7556  -0.7299  -0.6871  -0.6494
    -0.4228  -0.2734  -0.1249  -0.0781   0.1571   0.1863   0.1965   1.7290
     1.8531   2.0245   2.1093   2.2055   2.2554   2.2910   2.3254   2.4066
     2.4260   2.4768   2.4983   2.5337   2.5409   2.5620   2.6009   2.6833
     2.7145   2.7366   2.7965   2.8167   2.9398   2.9963   3.0190   3.0453
     3.1161   3.1445   3.1545   3.1820   3.2175   3.2518   3.3528   3.3821
     3.4143   3.4454   3.4717   3.5188   3.5624   3.5780   3.6454   3.6692
     3.6819   3.7177   3.7588   3.9035   4.0025   4.1475   4.1936   4.2623
     4.3146   4.4611   4.5174   4.7633   4.9381   4.9574   5.0029   5.0861
     5.1693   5.1842   5.2336   5.3940   5.6469   5.6828   5.7348   5.7842
     5.8609   5.8730   5.8793   6.0176   6.0793   6.0904   6.1279   6.1535
     6.2050   6.2123   6.2210   6.2409   6.4365   6.5327   6.6168   6.6624
     6.7868   6.8718   6.9710   7.1465   7.2290   7.4845   7.9067   8.0153
     8.0995   8.2232   8.4394   8.5669   8.6327   8.7603   8.9325   9.2532
     9.3651   9.4509   9.5008

          k = 0.0253 0.0560 0.0000 ( 34699 PWs)   bands (ev):

   -57.6822 -57.6648 -57.2988 -57.2805 -57.2178 -57.0928 -57.0730 -57.0555
   -57.0410 -57.0379 -56.9719 -56.9541 -56.7138 -56.6945 -56.1329 -56.1153
   -34.0322 -33.9658 -33.9516 -33.8682 -33.8373 -33.8214 -33.7631 -33.5858
   -33.5619 -33.5607 -33.5245 -33.5155 -33.4995 -33.4980 -33.4641 -33.4630
   -33.4424 -33.4153 -33.4041 -33.3585 -33.3052 -33.3050 -33.2999 -33.2928
   -33.2775 -33.2680 -33.2591 -33.2515 -33.2449 -33.2392 -33.2297 -33.2258
   -33.2009 -33.1896 -33.1614 -33.1562 -33.1182 -32.9801 -32.9668 -32.9539
   -32.9185 -32.8954 -32.4881 -32.4743 -32.4630 -32.3410 -32.2952 -32.2653
   -20.1517 -17.7464 -17.5812 -17.3338 -17.2547 -17.2342 -17.1839 -17.1596
   -17.1296 -16.9877 -16.9604 -16.8720 -16.8673 -16.8186 -16.7862 -16.7645
   -16.7391 -16.6608 -16.6119 -16.5951 -16.5706 -16.5208 -16.4179 -16.4020
   -16.3469 -16.2767 -16.2255 -16.1859 -16.1488 -16.1049 -16.0315 -14.7539
   -14.7168 -11.5183  -7.1559  -5.4258  -5.1450  -5.0258  -4.9409  -4.8033
    -4.7480  -4.7048  -4.5497  -4.4906  -4.4825  -4.4038  -4.3860  -4.3309
    -4.2614  -4.2226  -4.2071  -4.1826  -4.1388  -4.1323  -4.0982  -4.0535
    -4.0231  -4.0035  -3.9837  -3.9263  -3.9158  -3.8666  -3.8506  -3.8138
    -3.7680  -3.7094  -3.6482  -3.5637  -3.4727  -3.4303  -3.3435  -3.2761
    -3.2300  -3.2138  -3.1858  -3.0047  -2.9442  -2.8554  -2.8206  -2.7705
    -2.7519  -2.6372  -2.5850  -2.5009  -2.4801  -2.4280  -2.3843  -2.3587
    -2.3345  -2.3163  -2.2798  -2.2541  -2.1806  -2.1325  -2.1186  -2.0301
    -2.0023  -2.0005  -1.9376  -1.9297  -1.8935  -1.8522  -1.8253  -1.8030
    -1.7352  -1.6940  -1.6692  -1.6281  -1.5630  -1.5284  -1.4850  -1.4666
    -1.4226  -1.3653  -1.3302  -1.2921  -1.2146  -1.1962  -1.1190  -1.0971
    -1.0463  -1.0023  -0.9030  -0.8614  -0.8124  -0.7904  -0.7340  -0.6728
    -0.5978  -0.4560  -0.2468   0.0996   0.1363   0.1633   0.1959   1.8699
     2.0561   2.1431   2.1870   2.2412   2.2820   2.3143   2.3575   2.3930
     2.4361   2.4705   2.4908   2.5185   2.5284   2.5924   2.7035   2.7315
     2.7483   2.7847   2.8333   2.8488   2.9130   2.9616   2.9840   2.9960
     3.0366   3.0425   3.1663   3.2170   3.2956   3.3379   3.3502   3.3926
     3.4169   3.4476   3.4703   3.5500   3.5681   3.6395   3.6654   3.7424
     3.8013   3.8284   3.8695   3.9089   3.9130   4.0811   4.1247   4.1734
     4.3510   4.3950   4.6267   4.9714   5.0216   5.1209   5.1486   5.1663
     5.2710   5.2980   5.3235   5.4448   5.5195   5.5693   5.6460   5.7677
     5.8312   5.8588   5.9002   5.9397   5.9674   6.0057   6.0506   6.0662
     6.1446   6.1646   6.2277   6.3305   6.3866   6.4054   6.4808   6.6404
     6.6928   6.8040   6.8458   7.0374   7.1386   7.3686   7.4672   7.5742
     7.9532   8.1570   8.3359   8.4993   8.6249   8.8508   9.0434   9.1204
     9.1745   9.4814   9.6144

          k = 0.0253-0.0840 0.0000 ( 34722 PWs)   bands (ev):

   -57.6736 -57.6734 -57.2913 -57.2880 -57.2173 -57.0874 -57.0785 -57.0468
   -57.0467 -57.0414 -56.9635 -56.9626 -56.7068 -56.7015 -56.1241 -56.1241
   -33.9588 -33.9586 -33.9356 -33.9355 -33.8450 -33.8448 -33.6763 -33.6523
   -33.5560 -33.5520 -33.5162 -33.5079 -33.5037 -33.4630 -33.4396 -33.4135
   -33.4072 -33.4014 -33.3675 -33.3674 -33.3522 -33.3317 -33.3258 -33.3134
   -33.3120 -33.2761 -33.2693 -33.2676 -33.2608 -33.2547 -33.2276 -33.2262
   -33.2078 -33.2061 -33.1544 -33.1537 -33.0415 -33.0208 -32.9629 -32.9576
   -32.9324 -32.9293 -32.4812 -32.4812 -32.3652 -32.3651 -32.3181 -32.3181
   -20.1515 -17.5457 -17.4778 -17.3741 -17.3555 -17.2039 -17.1437 -17.0507
   -17.0405 -16.9942 -16.9694 -16.9655 -16.8802 -16.8714 -16.8591 -16.7772
[...]
    -1.2878  -1.2580  -1.2347  -1.1819  -1.1378  -1.0222  -1.0116  -1.0032
    -0.9789  -0.9391  -0.8987  -0.8283  -0.7463  -0.6929  -0.6348  -0.5854
    -0.5813  -0.5256  -0.5072   0.0738   0.0739   0.2186   0.2202   2.1619
     2.1627   2.2092   2.2110   2.2485   2.2498   2.2770   2.3082   2.4966
     2.5018   2.5349   2.5649   2.6184   2.6263   2.6877   2.6895   2.6997
     2.7009   2.8547   2.9198   2.9918   3.0071   3.0431   3.0508   3.1103
     3.2293   3.2582   3.2814   3.3426   3.3826   3.3989   3.4540   3.5021
     3.5094   3.5314   3.5583   3.5902   3.6127   3.6892   3.7084   3.7537
     3.8443   3.8996   3.9158   3.9606   3.9610   4.1042   4.1111   4.1197
     4.1202   4.6250   4.7915   4.7950   4.8116   4.8808   4.9294   4.9343
     4.9515   4.9952   5.0368   5.2583   5.3473   5.3674   5.3767   5.7170
     5.8078   5.9161   5.9376   5.9861   6.0396   6.1445   6.2995   6.3581
     6.3731   6.3839   6.4167   6.5798   6.5963   6.6728   6.6729   6.7106
     6.7613   6.8503   6.8513   6.8603   6.8612   7.3536   7.3930   7.5140
     7.6540   7.8189   8.0003   8.1620   8.2244   8.3148   8.3631   8.8204
     8.9016   9.0147   9.0778

          k =-0.0253 0.0280 0.0000 ( 34687 PWs)   bands (ev):

   -57.6887 -57.6584 -57.3053 -57.2739 -57.2185 -57.0989 -57.0669 -57.0618
   -57.0401 -57.0315 -56.9783 -56.9476 -56.7204 -56.6878 -56.1395 -56.1090
   -34.1021 -33.9713 -33.9466 -33.8852 -33.8341 -33.8041 -33.7643 -33.6187
   -33.6013 -33.5733 -33.5340 -33.5246 -33.5120 -33.5063 -33.4803 -33.4605
   -33.4560 -33.4478 -33.4180 -33.3766 -33.3093 -33.2818 -33.2747 -33.2555
   -33.2477 -33.2447 -33.2412 -33.2389 -33.2290 -33.2276 -33.2264 -33.2086
   -33.1941 -33.1758 -33.1679 -33.1353 -33.1324 -32.9851 -32.9710 -32.9500
   -32.9055 -32.8258 -32.5339 -32.4934 -32.4694 -32.3578 -32.2785 -32.1914
   -20.1520 -17.9127 -17.7365 -17.4540 -17.3732 -17.2993 -17.2221 -17.1203
   -17.0884 -16.9964 -16.9548 -16.8493 -16.8222 -16.7960 -16.7733 -16.7609
   -16.7049 -16.6910 -16.5903 -16.5680 -16.4977 -16.4655 -16.3726 -16.3556
   -16.3466 -16.3209 -16.1919 -16.1652 -16.1453 -16.0036 -15.9590 -14.7349
   -14.6656 -11.5191  -7.1569  -5.4484  -5.2412  -5.1741  -5.1340  -5.0121
    -4.9573  -4.9267  -4.7501  -4.6900  -4.5529  -4.3944  -4.3620  -4.3377
    -4.2515  -4.2406  -4.1789  -4.1084  -4.0850  -4.0555  -4.0285  -4.0109
    -3.9668  -3.9318  -3.9054  -3.8597  -3.8132  -3.8028  -3.7754  -3.7146
    -3.6943  -3.6542  -3.6063  -3.5959  -3.5313  -3.5255  -3.3971  -3.3086
    -3.2461  -3.2232  -3.1437  -3.0654  -2.9737  -2.9376  -2.7781  -2.6972
    -2.6718  -2.6279  -2.6026  -2.5232  -2.4946  -2.4424  -2.4388  -2.4134
    -2.3968  -2.3762  -2.3299  -2.2924  -2.2090  -2.1664  -2.1123  -2.0950
    -2.0538  -1.9811  -1.9406  -1.8861  -1.8545  -1.8173  -1.7345  -1.6971
    -1.6431  -1.5901  -1.5838  -1.5500  -1.5064  -1.4624  -1.4268  -1.3836
    -1.3361  -1.3248  -1.2720  -1.2324  -1.1862  -1.0983  -1.0870  -1.0502
    -0.9985  -0.8821  -0.8316  -0.8180  -0.7465  -0.7292  -0.6994  -0.6504
    -0.4237  -0.2734  -0.1254  -0.0779   0.1573   0.1867   0.1969   1.7289
     1.8530   2.0244   2.1108   2.2053   2.2566   2.2943   2.3281   2.4137
     2.4241   2.4596   2.4953   2.5389   2.5412   2.5572   2.6178   2.6779
     2.7147   2.7482   2.7848   2.8222   2.9483   2.9955   3.0142   3.0371
     3.1170   3.1462   3.1550   3.1835   3.2178   3.2491   3.3562   3.3812
     3.4122   3.4290   3.4731   3.5151   3.5714   3.5801   3.6463   3.6691
     3.6817   3.7187   3.7582   3.9023   4.0013   4.1492   4.1936   4.2628
     4.3146   4.4614   4.5177   4.7643   4.9458   4.9569   4.9937   5.0861
     5.1683   5.1838   5.2334   5.3930   5.6495   5.6752   5.7311   5.7943
     5.8590   5.8727   5.8802   6.0170   6.0794   6.0855   6.1320   6.1545
     6.2040   6.2101   6.2203   6.2487   6.4364   6.5303   6.6168   6.6679
     6.7909   6.8651   6.9710   7.1467   7.2292   7.4837   7.9061   8.0145
     8.0995   8.2211   8.4340   8.5680   8.6306   8.7616   8.9382   9.2578
     9.3627   9.4536   9.4996

          k =-0.0253 0.0560 0.0000 ( 34699 PWs)   bands (ev):

   -57.6823 -57.6648 -57.2988 -57.2804 -57.2177 -57.0928 -57.0730 -57.0555
   -57.0409 -57.0379 -56.9719 -56.9541 -56.7138 -56.6944 -56.1331 -56.1155
   -34.0322 -33.9659 -33.9517 -33.8683 -33.8373 -33.8214 -33.7630 -33.5857
   -33.5619 -33.5607 -33.5245 -33.5154 -33.4995 -33.4979 -33.4641 -33.4629
   -33.4423 -33.4152 -33.4040 -33.3585 -33.3052 -33.3049 -33.2999 -33.2928
   -33.2775 -33.2680 -33.2591 -33.2515 -33.2449 -33.2393 -33.2296 -33.2258
   -33.2007 -33.1895 -33.1613 -33.1561 -33.1181 -32.9801 -32.9667 -32.9540
   -32.9185 -32.8954 -32.4883 -32.4745 -32.4632 -32.3412 -32.2954 -32.2655
   -20.1517 -17.7464 -17.5812 -17.3338 -17.2547 -17.2343 -17.1841 -17.1595
   -17.1294 -16.9877 -16.9603 -16.8720 -16.8676 -16.8191 -16.7866 -16.7645
   -16.7389 -16.6605 -16.6118 -16.5947 -16.5706 -16.5211 -16.4179 -16.4021
   -16.3470 -16.2766 -16.2255 -16.1859 -16.1488 -16.1050 -16.0315 -14.7535
   -14.7163 -11.5183  -7.1559  -5.4257  -5.1450  -5.0254  -4.9409  -4.8039
    -4.7481  -4.7049  -4.5497  -4.4888  -4.4832  -4.4033  -4.3862  -4.3357
    -4.2618  -4.2237  -4.2067  -4.1828  -4.1386  -4.1318  -4.0995  -4.0535
    -4.0221  -4.0008  -3.9849  -3.9274  -3.9156  -3.8641  -3.8545  -3.8148
    -3.7672  -3.7071  -3.6497  -3.5636  -3.4734  -3.4315  -3.3453  -3.2783
    -3.2293  -3.2075  -3.1811  -3.0054  -2.9411  -2.8571  -2.8177  -2.7743
    -2.7484  -2.6366  -2.5839  -2.5015  -2.4786  -2.4293  -2.3857  -2.3553
    -2.3348  -2.3160  -2.2820  -2.2565  -2.1803  -2.1323  -2.1176  -2.0271
    -2.0113  -1.9933  -1.9358  -1.9341  -1.8949  -1.8527  -1.8210  -1.7975
    -1.7331  -1.7014  -1.6627  -1.6328  -1.5696  -1.5298  -1.4955  -1.4512
    -1.4224  -1.3644  -1.3388  -1.2909  -1.2144  -1.1969  -1.1175  -1.0953
    -1.0475  -1.0031  -0.9147  -0.8622  -0.8053  -0.7907  -0.7275  -0.6724
    -0.5977  -0.4576  -0.2482   0.0999   0.1366   0.1637   0.1962   1.8697
     2.0560   2.1460   2.1869   2.2381   2.2801   2.3149   2.3433   2.3919
     2.4542   2.4680   2.4956   2.5236   2.5293   2.5925   2.7027   2.7341
     2.7544   2.7842   2.8372   2.8500   2.9023   2.9591   2.9806   2.9964
     3.0332   3.0436   3.1805   3.2179   3.2997   3.3261   3.3430   3.3803
     3.4213   3.4454   3.4694   3.5525   3.5679   3.6435   3.6671   3.7430
     3.8017   3.8259   3.8704   3.9072   3.9152   4.0819   4.1247   4.1735
     4.3508   4.3949   4.6274   4.9730   5.0287   5.1192   5.1436   5.1644
     5.2685   5.2959   5.3250   5.4365   5.5213   5.5690   5.6491   5.7719
     5.8324   5.8569   5.9037   5.9416   5.9624   5.9998   6.0541   6.0698
     6.1442   6.1632   6.2354   6.3210   6.3869   6.4125   6.4777   6.6444
     6.6956   6.8038   6.8391   7.0380   7.1365   7.3686   7.4678   7.5725
     7.9519   8.1567   8.3366   8.5007   8.6255   8.8538   9.0479   9.1223
     9.1710   9.4866   9.6145

          k =-0.0506 0.0280 0.0000 ( 34685 PWs)   bands (ev):

   -57.6887 -57.6584 -57.3053 -57.2739 -57.2185 -57.0988 -57.0669 -57.0620
   -57.0400 -57.0315 -56.9783 -56.9476 -56.7204 -56.6878 -56.1396 -56.1090
   -34.1027 -33.9712 -33.9466 -33.8838 -33.8344 -33.8041 -33.7643 -33.6202
   -33.6012 -33.5766 -33.5346 -33.5258 -33.5175 -33.5096 -33.4802 -33.4600
   -33.4454 -33.4390 -33.4180 -33.3604 -33.3091 -33.2821 -33.2704 -33.2566
   -33.2555 -33.2519 -33.2476 -33.2418 -33.2290 -33.2276 -33.2253 -33.2060
   -33.1946 -33.1760 -33.1678 -33.1352 -33.1323 -32.9851 -32.9754 -32.9486
   -32.9055 -32.8258 -32.5338 -32.4952 -32.4685 -32.3578 -32.2785 -32.1914
   -20.1516 -17.8503 -17.6430 -17.3596 -17.3312 -17.2396 -17.2144 -17.2066
   -17.1130 -17.0335 -16.9550 -16.9110 -16.8599 -16.8487 -16.8466 -16.8235
   -16.7528 -16.7370 -16.5496 -16.5185 -16.4925 -16.4293 -16.4067 -16.3659
   -16.3596 -16.3034 -16.1828 -16.1635 -16.1441 -16.0049 -15.9588 -14.7329
   -14.6656 -11.5166  -7.1509  -5.4641  -5.2248  -5.1323  -4.8843  -4.8253
    -4.7103  -4.6945  -4.6657  -4.6452  -4.6206  -4.5013  -4.4193  -4.3362
    -4.3076  -4.2933  -4.1508  -4.1206  -4.0520  -4.0180  -3.9998  -3.9842
    -3.9750  -3.9013  -3.8509  -3.8067  -3.7639  -3.7522  -3.7123  -3.6843
    -3.6509  -3.6242  -3.5765  -3.5420  -3.4632  -3.3555  -3.2912  -3.2554
    -3.2228  -3.1622  -3.0927  -3.0490  -2.9446  -2.9290  -2.8674  -2.8316
    -2.7345  -2.6862  -2.6511  -2.6432  -2.5947  -2.5816  -2.5274  -2.4855
    -2.4275  -2.3785  -2.3720  -2.3266  -2.2991  -2.2446  -2.1699  -2.1253
    -2.1038  -2.0539  -2.0158  -1.9656  -1.9310  -1.8953  -1.8499  -1.8215
    -1.7452  -1.7310  -1.7028  -1.6313  -1.5304  -1.4982  -1.4768  -1.4083
    -1.3577  -1.3384  -1.2711  -1.2506  -1.2280  -1.1381  -1.0960  -1.0041
    -0.9646  -0.8703  -0.8464  -0.8035  -0.7682  -0.7542  -0.6958  -0.6814
    -0.5033  -0.3034  -0.2507  -0.0652   0.1179   0.1472   0.1707   1.7124
     1.9132   2.0685   2.1332   2.1372   2.1813   2.2508   2.3714   2.3814
     2.4157   2.4492   2.5272   2.5774   2.5827   2.6119   2.6938   2.7066
     2.7525   2.8130   2.8431   2.9120   2.9661   2.9914   3.0504   3.0701
     3.1023   3.1705   3.1801   3.2091   3.3120   3.3668   3.3847   3.4194
     3.4545   3.4670   3.5569   3.5948   3.6126   3.6631   3.6847   3.6943
     3.7268   3.7803   3.8267   3.8789   3.9411   4.0681   4.1768   4.2904
     4.3034   4.4309   4.6280   4.6996   4.7725   4.8201   4.8657   4.9777
     5.0214   5.1319   5.2330   5.4764   5.6025   5.6457   5.7245   5.8074
     5.8681   5.8800   5.9343   5.9536   5.9857   6.0969   6.1233   6.1466
     6.2329   6.4410   6.4881   6.5501   6.5865   6.6094   6.6938   6.7396
     6.8030   6.8254   6.9819   7.1069   7.1735   7.3841   7.5575   7.6856
     8.1180   8.1696   8.2256   8.3649   8.7496   8.9620   9.0061   9.0487
     9.3670   9.4321   9.5957

          k =-0.0506 0.0560 0.0000 ( 34596 PWs)   bands (ev):

   -57.6823 -57.6648 -57.2988 -57.2804 -57.2177 -57.0927 -57.0729 -57.0556
   -57.0409 -57.0379 -56.9719 -56.9541 -56.7138 -56.6944 -56.1331 -56.1155
   -34.0328 -33.9659 -33.9516 -33.8671 -33.8375 -33.8210 -33.7632 -33.5857
   -33.5621 -33.5617 -33.5249 -33.5114 -33.5054 -33.5018 -33.4648 -33.4630
   -33.4403 -33.4152 -33.3944 -33.3449 -33.3093 -33.3059 -33.2924 -33.2902
   -33.2778 -33.2679 -33.2590 -33.2492 -33.2450 -33.2439 -33.2389 -33.2309
   -33.2009 -33.1911 -33.1613 -33.1558 -33.1177 -32.9801 -32.9696 -32.9537
   -32.9184 -32.8952 -32.4895 -32.4740 -32.4631 -32.3412 -32.2954 -32.2654
   -20.1513 -17.6958 -17.4923 -17.2813 -17.2302 -17.1878 -17.1652 -17.1520
   -17.0797 -17.0287 -16.9965 -16.9044 -16.8473 -16.8403 -16.8343 -16.7963
   -16.7676 -16.7118 -16.6529 -16.6118 -16.6019 -16.5420 -16.5038 -16.3890
   -16.3343 -16.2553 -16.2176 -16.1844 -16.1481 -16.1067 -16.0307 -14.7522
   -14.7167 -11.5157  -7.1496  -5.4421  -5.1436  -5.0158  -4.6510  -4.6086
    -4.5063  -4.4906  -4.4754  -4.4487  -4.4217  -4.3578  -4.3163  -4.2931
    -4.2166  -4.1967  -4.1382  -4.1231  -4.0736  -4.0580  -4.0372  -4.0274
    -4.0046  -3.9867  -3.9595  -3.9053  -3.8851  -3.8796  -3.8135  -3.7781
    -3.7228  -3.6559  -3.6256  -3.5199  -3.4983  -3.4072  -3.3203  -3.2536
    -3.2495  -3.2385  -3.1541  -3.0159  -2.9269  -2.8965  -2.8424  -2.8218
    -2.7475  -2.7180  -2.6763  -2.6008  -2.5827  -2.5586  -2.5223  -2.4812
    -2.4198  -2.3970  -2.3569  -2.3204  -2.3076  -2.2917  -2.2460  -2.1683
    -2.1429  -2.1122  -2.1050  -2.0687  -2.0377  -1.9919  -1.9731  -1.8928
    -1.8825  -1.8422  -1.8241  -1.7157  -1.6280  -1.5968  -1.5643  -1.4696
    -1.3991  -1.3667  -1.2990  -1.2352  -1.1971  -1.0996  -1.0620  -1.0074
    -0.9923  -0.9280  -0.8419  -0.8111  -0.7604  -0.7473  -0.6818  -0.6482
    -0.6433  -0.5075  -0.3154   0.0859   0.1200   0.1380   0.2016   1.8750
     2.0848   2.1766   2.2097   2.2300   2.2520   2.3080   2.3582   2.4032
     2.4122   2.5462   2.5800   2.5890   2.6163   2.6383   2.6936   2.7639
     2.7908   2.8136   2.8481   2.8911   2.9730   3.0149   3.0377   3.0723
     3.1071   3.1458   3.1772   3.2667   3.3446   3.3763   3.4062   3.4506
     3.4885   3.5094   3.5312   3.5524   3.6240   3.6565   3.7212   3.7525
     3.7888   3.8600   3.8892   3.9277   3.9335   3.9634   4.1198   4.1831
     4.2975   4.4844   4.7344   4.8151   4.8265   4.9052   4.9528   5.1003
     5.1745   5.2367   5.2797   5.3202   5.3811   5.4448   5.5047   5.6356
     5.7889   5.8346   5.8891   5.9587   6.0365   6.1317   6.2224   6.2655
     6.2931   6.3470   6.4253   6.4580   6.5027   6.5836   6.6530   6.7230
     6.7376   6.8271   6.8437   6.9910   7.0380   7.4083   7.4183   7.5628
     7.7366   7.9378   8.0631   8.3730   8.5734   8.5896   8.7106   8.9991
     9.2174   9.3223   9.4547

     the Fermi energy is     1.0051 ev

!    total energy              =   -3021.41843461 Ry
     Harris-Foulkes estimate   =   -3021.41843453 Ry
     estimated scf accuracy    <       0.00000032 Ry

     The total energy is the sum of the following terms:

     one-electron contribution =  -41241.40070011 Ry
     hartree contribution      =   20695.08961072 Ry
     xc contribution           =    -553.68912476 Ry
     ewald contribution        =   18078.58199033 Ry
     smearing contrib. (-TS)   =      -0.00021078 Ry

     total magnetization       =     0.00 Bohr mag/cell
     absolute magnetization    =     0.00 Bohr mag/cell

     convergence has been achieved in   9 iterations

     Forces acting on atoms (Ry/au):


     negative rho (up, down):  1.209E-02 1.209E-02
     atom    1 type  1   force =     0.00001584   -0.00035495   -0.13373055
     atom    2 type  2   force =     0.00000337    0.00003056    0.07207681
     atom    3 type  1   force =    -0.00135829    0.00030812   -0.06087725
     atom    4 type  2   force =     0.00289686    0.00048671    0.00637023
     atom    5 type  1   force =     0.00026645    0.00190043    0.00363975
     atom    6 type  2   force =     0.00010590    0.00000981   -0.00321754
     atom    7 type  1   force =     0.00008484   -0.00074905    0.00575923
     atom    8 type  2   force =     0.00070569   -0.00029652   -0.00066749
     atom    9 type  1   force =    -0.00002925    0.00002080   -0.13349078
     atom   10 type  2   force =    -0.00006834    0.00006596    0.07125729
     atom   11 type  1   force =    -0.00131801   -0.00024152   -0.05579271
     atom   12 type  2   force =     0.00299038   -0.00006841    0.00608625
     atom   13 type  1   force =     0.00028392   -0.00153757    0.00359005
     atom   14 type  2   force =    -0.00120274   -0.00038901   -0.00297886
     atom   15 type  1   force =    -0.00038266    0.00021344    0.00457850
     atom   16 type  2   force =     0.00034121   -0.00010356   -0.00004600
     atom   17 type  2   force =    -0.00007258   -0.00007088    0.07934977
     atom   18 type  1   force =     0.00014013   -0.00017148    0.11917816
     atom   19 type  2   force =    -0.00010814   -0.00017369   -0.06672302
     atom   20 type  2   force =    -0.06321959    0.00014870   -0.03225453
     atom   21 type  2   force =     0.06319863    0.00001621   -0.03245840
     atom   22 type  1   force =     0.00072407    0.00108009    0.05979566
     atom   23 type  2   force =    -0.00017911    0.00005684   -0.00183687
     atom   24 type  2   force =    -0.00143600   -0.00000360   -0.02329152
     atom   25 type  2   force =    -0.00312692    0.00058938    0.00785555
     atom   26 type  1   force =     0.00063661    0.00029320    0.00461310
     atom   27 type  2   force =     0.00051952    0.00059216   -0.00373069
     atom   28 type  2   force =     0.00011890   -0.00008933   -0.00120731
     atom   29 type  2   force =     0.00025262   -0.00034834   -0.00059549
     atom   30 type  1   force =     0.00012380   -0.00080856    0.00355555
     atom   31 type  2   force =     0.00017760    0.00012979   -0.00226908
     atom   32 type  2   force =     0.00021953   -0.00022024   -0.00134510
     atom   33 type  2   force =    -0.00012188    0.00003811    0.07895378
     atom   34 type  1   force =     0.00006713   -0.00021894    0.11909750
     atom   35 type  2   force =    -0.00030511   -0.00005424   -0.06642391
     atom   36 type  2   force =    -0.06317914   -0.00005219   -0.03234399
     atom   37 type  2   force =     0.06332895   -0.00020250   -0.03249760
     atom   38 type  1   force =     0.00066182   -0.00098154    0.06001176
     atom   39 type  2   force =    -0.00046088    0.00010699   -0.00257294
     atom   40 type  2   force =    -0.00118865    0.00030744   -0.02220299
     atom   41 type  2   force =    -0.00316863   -0.00014897    0.00788160
     atom   42 type  1   force =     0.00050531    0.00006279    0.00374348
     atom   43 type  2   force =     0.00069476    0.00023152   -0.00291857
     atom   44 type  2   force =     0.00020327    0.00010608   -0.00116670
     atom   45 type  2   force =     0.00023180    0.00031459   -0.00062289
     atom   46 type  1   force =     0.00038321    0.00039276    0.00364627
     atom   47 type  2   force =     0.00011189   -0.00031705   -0.00115517
     atom   48 type  2   force =     0.00028610    0.00026414   -0.00107549
     atom   49 type  3   force =     0.06376852   -0.00074009    0.01494258
     atom   50 type  2   force =    -0.01252304   -0.00020165   -0.00068991
     atom   51 type  4   force =    -0.03539908   -0.00014496   -0.01285121
     atom   52 type  4   force =    -0.00142443    0.00030480    0.00462391
     atom   53 type  4   force =    -0.00708636    0.00598342   -0.00390711
     atom   54 type  4   force =    -0.00668981   -0.00536599   -0.00366510

     Total force =     0.370845     Total SCF correction =     0.001821
 !ASE

     Writing output data file calc.save
 
     init_run     :     55.20s CPU     69.62s WALL (       1 calls)
     electrons    :   1938.89s CPU   2334.76s WALL (       1 calls)
     forces       :     40.36s CPU     41.57s WALL (       1 calls)

     Called by init_run:
     wfcinit      :     47.30s CPU     60.89s WALL (       1 calls)
     potinit      :      1.27s CPU      1.59s WALL (       1 calls)

     Called by electrons:
     c_bands      :   1689.16s CPU   2023.32s WALL (       9 calls)
     sum_band     :    209.77s CPU    265.87s WALL (       9 calls)
     v_of_rho     :      9.73s CPU     12.22s WALL (      10 calls)
     newd         :     33.81s CPU     37.21s WALL (      10 calls)
     mix_rho      :      0.36s CPU      0.53s WALL (       9 calls)
     vdW_energy   :      1.82s CPU      2.22s WALL (      11 calls)
     vdW_ffts     :      2.66s CPU      3.57s WALL (      22 calls)
     vdW_v        :      1.02s CPU      1.16s WALL (      11 calls)

     Called by c_bands:
     init_us_2    :      5.41s CPU      5.87s WALL (     800 calls)
     cegterg      :   1657.75s CPU   1990.19s WALL (     360 calls)

     Called by *egterg:
     h_psi        :    679.33s CPU    939.43s WALL (    1935 calls)
     s_psi        :     84.19s CPU     88.52s WALL (    1935 calls)
     g_psi        :      4.60s CPU      4.70s WALL (    1535 calls)
     cdiaghg      :    580.09s CPU    595.68s WALL (    1895 calls)

     Called by h_psi:
     add_vuspsi   :     84.76s CPU     89.00s WALL (    1935 calls)

     General routines
     calbec       :    128.39s CPU    131.92s WALL (    2335 calls)
     fft          :      5.70s CPU      7.45s WALL (     867 calls)
     ffts         :      0.04s CPU      0.07s WALL (      38 calls)
     fftw         :    436.46s CPU    737.66s WALL (  667904 calls)
     interpolate  :      0.30s CPU      0.49s WALL (      38 calls)
     davcio       :      0.15s CPU      2.85s WALL (      40 calls)
 
     Parallel routines
     fft_scatter  :    224.82s CPU    404.23s WALL (  668809 calls)
 
     PWSCF        : 33m55.46s CPU    40m50.58s WALL

 
   This run was terminated on:   9:49:43  12Feb2018            

=------------------------------------------------------------------------------=
   JOB DONE.
=------------------------------------------------------------------------------=
