  python dir          : /home/vossj/suncat/lib/python2.7/site-packages/espresso
  espresso dir        : /home/vossj/suncat/esdld/espresso-dynpy-beef/bin
  pseudo dir          : /home/alatimer/bin/psp/esp_psp_w_gbrvRu/
  ase-espresso py git : ffa2778-git



     Program PWSCF v.5.1rc2 (svn rev. ) starts on 26Feb2018 at 10:13:18 

     This program is part of the open-source Quantum ESPRESSO suite
     for quantum simulation of materials; please cite
         "P. Giannozzi et al., J. Phys.:Condens. Matter 21 395502 (2009);
          URL http://www.quantum-espresso.org", 
     in publications or presentations arising from this work. More details at
     http://www.quantum-espresso.org/quote

     Parallel version (MPI), running on    16 processors
     R & G space division:  proc/nbgrp/npool/nimage =      16
     Reading input from pw.inp
     Message from routine read_cards :
     DEPRECATED: no units specified in CELL_PARAMETERS card

     Current dimensions of program PWSCF are:
     Max number of different atomic species (ntypx) = 10
     Max number of k-points (npk) =  40000
     Max angular momentum in pseudopotentials (lmaxx) =  3

     **************************************************************************
     Initializing libbeef V0.1.1 with the BEEF-vdW functional.
     Citation: Wellendorff et al., PRB 85, 235149 (2012).
     **************************************************************************


     IMPORTANT: XC functional enforced from input :
     Exchange-correlation      = BEEF ( 1  4 27 13 2)
     Any further DFT definition will be discarded
     Please, verify this is what you really want


     Subspace diagonalization in iterative solution of the eigenvalue problem:
     a serial algorithm will be used

 
     Parallelization info
     --------------------
     sticks:   dense  smooth     PW     G-vecs:    dense   smooth      PW
     Min         281     112     31                68535    17318    2565
     Max         282     113     32                68545    17369    2582
     Sum        4501    1795    503              1096637   277353   41113
 
     Generating pointlists ...
     new r_m :   0.4125 (alat units)  0.7795 (a.u.) for type    1
     new r_m :   0.4125 (alat units)  0.7795 (a.u.) for type    2
     new r_m :   0.4125 (alat units)  0.7795 (a.u.) for type    3
     new r_m :   0.4125 (alat units)  0.7795 (a.u.) for type    4


     bravais-lattice index     =            0
     lattice parameter (alat)  =       1.8897  a.u.
     unit-cell volume          =    7990.9933 (a.u.)^3
     number of atoms/cell      =           54
     number of atomic types    =            4
     number of electrons       =       398.00
     number of Kohn-Sham states=          299
     kinetic-energy cutoff     =      40.4243  Ry
     charge density cutoff     =     404.2426  Ry
     convergence threshold     =      7.3E-07
     mixing beta               =       0.1000
     number of iterations used =           10  plain     mixing
     Exchange-correlation      = BEEF ( 1  4 27 13 2)
     nstep                     =           50


     celldm(1)=   1.889726  celldm(2)=   0.000000  celldm(3)=   0.000000
     celldm(4)=   0.000000  celldm(5)=   0.000000  celldm(6)=   0.000000

     crystal axes: (cart. coord. in units of alat)
               a(1) = (   6.590708   0.000000   0.000000 )  
               a(2) = (   0.000000   5.950229   0.000000 )  
               a(3) = (   0.000000   0.000000  30.195235 )  

     reciprocal axes: (cart. coord. in units 2 pi/alat)
               b(1) = (  0.151729  0.000000  0.000000 )  
               b(2) = (  0.000000  0.168061  0.000000 )  
               b(3) = (  0.000000  0.000000  0.033118 )  


     PseudoPot. # 1 for Ti read from file:
     /home/alatimer/bin/psp/esp_psp_w_gbrvRu/Ti.UPF
     MD5 check sum: 8e4df49b7f0d34bbd5052bf3f5ea0213
     Pseudo is Ultrasoft, Zval = 12.0
     Generated by new atomic code, or converted to UPF format
     Using radial grid of  851 points,  6 beta functions with: 
                l(1) =   0
                l(2) =   0
                l(3) =   1
                l(4) =   1
                l(5) =   2
                l(6) =   2
     Q(r) pseudized with  8 coefficients,  rinner =    1.000   1.000   1.000
                                                       1.000   1.000

     PseudoPot. # 2 for  O read from file:
     /home/alatimer/bin/psp/esp_psp_w_gbrvRu/O.UPF
     MD5 check sum: e057bbcf3229fb5d8c36c0c92f9568b4
     Pseudo is Ultrasoft + core correction, Zval =  6.0
     Generated using "atomic" code by A. Dal Corso  v.5.0.2 svn rev. 9415
     Using radial grid of 1095 points,  4 beta functions with: 
                l(1) =   0
                l(2) =   0
                l(3) =   1
                l(4) =   1
     Q(r) pseudized with 0 coefficients 


     PseudoPot. # 3 for  C read from file:
     /home/alatimer/bin/psp/esp_psp_w_gbrvRu/C.UPF
     MD5 check sum: ab446d787031eba755f1d5ee46644bb0
     Pseudo is Ultrasoft + core correction, Zval =  4.0
     Generated using "atomic" code by A. Dal Corso  v.5.0.2 svn rev. 9415
     Using radial grid of 1073 points,  4 beta functions with: 
                l(1) =   0
                l(2) =   0
                l(3) =   1
                l(4) =   1
     Q(r) pseudized with 0 coefficients 


     PseudoPot. # 4 for  H read from file:
     /home/alatimer/bin/psp/esp_psp_w_gbrvRu/H.UPF
     MD5 check sum: bd57da0722753ddfd9833a65b40bb853
     Pseudo is Ultrasoft, Zval =  1.0
     Generated using "atomic" code by A. Dal Corso  v.5.0.2 svn rev. 9415
     Using radial grid of  929 points,  2 beta functions with: 
                l(1) =   0
                l(2) =   0
     Q(r) pseudized with 0 coefficients 


     vdW kernel table read from file vdW_kernel_table
     MD5 check sum: 095c7af220d748ca6e76c0b4c6cfb241

     atomic species   valence    mass     pseudopotential
        Ti1           12.00    47.88000     Ti( 1.00)
        O1             6.00    15.99940      O( 1.00)
        C1             4.00    12.01100      C( 1.00)
        H1             1.00     1.00794      H( 1.00)

     Starting magnetic structure 
     atomic species   magnetization
        Ti1          0.250
        O1           0.500
        C1           0.750
        H1           0.000

     No symmetry found



   Cartesian axes

     site n.     atom                  positions (alat units)
         1           Ti1 tau(   1) = (   1.6476770   0.7437786   2.6545865  )
         2           O1  tau(   2) = (   1.6476770   2.2313359   3.9361215  )
         3           Ti1 tau(   3) = (   1.6476770   2.2313359   5.9499405  )
         4           O1  tau(   4) = (   0.3661420   0.7437786   5.9499405  )
         5           Ti1 tau(   5) = (   1.6407309   0.9134410   9.3139491  )
         6           O1  tau(   6) = (   1.6648823   2.2608486  10.4895904  )
         7           Ti1 tau(   7) = (   1.7578240   2.2899216  13.0472362  )
         8           O1  tau(   8) = (   0.4801583   0.7600008  12.7739736  )
         9           Ti1 tau(   9) = (   1.6476770   3.7188931   2.6545865  )
        10           O1  tau(  10) = (   1.6476770   5.2064503   3.9361215  )
        11           Ti1 tau(  11) = (   1.6476770   5.2064503   5.9499405  )
        12           O1  tau(  12) = (   0.3661420   3.7188931   5.9499405  )
        13           Ti1 tau(  13) = (   1.6336050   3.7786827   9.1566831  )
        14           O1  tau(  14) = (   1.6678212   5.2513959  10.5409436  )
        15           Ti1 tau(  15) = (   1.7144009   5.2558216  12.3462911  )
        16           O1  tau(  16) = (   0.4635505   3.7986228  12.7318280  )
        17           O1  tau(  17) = (   1.6476770   2.2313359   1.3730516  )
        18           Ti1 tau(  18) = (   4.9430310   2.2313359   2.6545865  )
        19           O1  tau(  19) = (   4.9430310   2.2313359   4.6684056  )
        20           O1  tau(  20) = (   6.2245660   0.7437786   2.6545865  )
        21           O1  tau(  21) = (   3.6614961   0.7437786   2.6545865  )
        22           Ti1 tau(  22) = (   4.9430310   0.7437786   5.9499405  )
        23           O1  tau(  23) = (   1.6683653   2.2752577   7.9427336  )
        24           O1  tau(  24) = (   4.9430310   2.2313359   7.2314755  )
        25           O1  tau(  25) = (   2.9292120   0.7437786   5.9499405  )
        26           Ti1 tau(  26) = (   4.9404121   2.2664794   9.4552217  )
        27           O1  tau(  27) = (   5.0099888   2.2616732  11.2946145  )
        28           O1  tau(  28) = (   6.2612001   0.7714827   9.2659748  )
        29           O1  tau(  29) = (   3.6791272   0.7744986   9.2965846  )
        30           Ti1 tau(  30) = (   5.0117873   0.7976728  12.8161605  )
        31           O1  tau(  31) = (   4.9963122   2.2836652  13.8750618  )
        32           O1  tau(  32) = (   2.9819382   0.7448324  12.7109220  )
        33           O1  tau(  33) = (   1.6476770   5.2064503   1.3730516  )
        34           Ti1 tau(  34) = (   4.9430310   5.2064503   2.6545865  )
        35           O1  tau(  35) = (   4.9430310   5.2064503   4.6684056  )
        36           O1  tau(  36) = (   6.2245660   3.7188931   2.6545865  )
        37           O1  tau(  37) = (   3.6614961   3.7188931   2.6545865  )
        38           Ti1 tau(  38) = (   4.9430310   3.7188931   5.9499405  )
        39           O1  tau(  39) = (   1.6664207   5.2035600   7.9365221  )
        40           O1  tau(  40) = (   4.9430310   5.2064503   7.2314755  )
        41           O1  tau(  41) = (   2.9292120   3.7188931   5.9499405  )
        42           Ti1 tau(  42) = (   4.9524353   5.2460635   9.4426343  )
        43           O1  tau(  43) = (   5.0107556   5.2394944  11.2927493  )
        44           O1  tau(  44) = (   6.2663940   3.7551737   9.2646230  )
        45           O1  tau(  45) = (   3.6780957   3.7542261   9.2971476  )
        46           Ti1 tau(  46) = (   5.0587989   3.7766986  12.8010349  )
        47           O1  tau(  47) = (   5.0196089   5.2502198  13.8813978  )
        48           O1  tau(  48) = (   2.9624133   3.7943242  12.7299881  )
        49           O1  tau(  49) = (   1.7427453   2.2533568  14.8370015  )
        50           C1  tau(  50) = (   2.7196098   4.2826273  16.2318421  )
        51           H1  tau(  51) = (   3.3037454   4.9255546  15.5527400  )
        52           H1  tau(  52) = (   3.3286606   3.7870117  16.9822022  )
        53           H1  tau(  53) = (   2.3125587   3.4026405  15.5729816  )
        54           H1  tau(  54) = (   1.8391288   4.7650601  16.6448379  )

     number of k points=    40  Fermi-Dirac smearing, width (Ry)=  0.0073
                       cart. coord. in units 2pi/alat
        k(    1) = (   0.0000000   0.0000000   0.0000000), wk =   0.0277778
        k(    2) = (   0.0000000   0.0280101   0.0000000), wk =   0.0555556
        k(    3) = (   0.0000000   0.0560203   0.0000000), wk =   0.0555556
        k(    4) = (   0.0000000  -0.0840304   0.0000000), wk =   0.0277778
        k(    5) = (   0.0252881   0.0000000   0.0000000), wk =   0.0555556
        k(    6) = (   0.0252881   0.0280101   0.0000000), wk =   0.0555556
        k(    7) = (   0.0252881   0.0560203   0.0000000), wk =   0.0555556
        k(    8) = (   0.0252881  -0.0840304   0.0000000), wk =   0.0555556
        k(    9) = (   0.0505763   0.0000000   0.0000000), wk =   0.0555556
        k(   10) = (   0.0505763   0.0280101   0.0000000), wk =   0.0555556
        k(   11) = (   0.0505763   0.0560203   0.0000000), wk =   0.0555556
        k(   12) = (   0.0505763  -0.0840304   0.0000000), wk =   0.0555556
        k(   13) = (  -0.0758644   0.0000000   0.0000000), wk =   0.0277778
        k(   14) = (  -0.0758644   0.0280101   0.0000000), wk =   0.0555556
        k(   15) = (  -0.0758644   0.0560203   0.0000000), wk =   0.0555556
        k(   16) = (  -0.0758644  -0.0840304   0.0000000), wk =   0.0277778
        k(   17) = (  -0.0252881   0.0280101   0.0000000), wk =   0.0555556
        k(   18) = (  -0.0252881   0.0560203   0.0000000), wk =   0.0555556
        k(   19) = (  -0.0505763   0.0280101   0.0000000), wk =   0.0555556
        k(   20) = (  -0.0505763   0.0560203   0.0000000), wk =   0.0555556
        k(   21) = (   0.0000000   0.0000000   0.0000000), wk =   0.0277778
        k(   22) = (   0.0000000   0.0280101   0.0000000), wk =   0.0555556
        k(   23) = (   0.0000000   0.0560203   0.0000000), wk =   0.0555556
        k(   24) = (   0.0000000  -0.0840304   0.0000000), wk =   0.0277778
        k(   25) = (   0.0252881   0.0000000   0.0000000), wk =   0.0555556
        k(   26) = (   0.0252881   0.0280101   0.0000000), wk =   0.0555556
        k(   27) = (   0.0252881   0.0560203   0.0000000), wk =   0.0555556
        k(   28) = (   0.0252881  -0.0840304   0.0000000), wk =   0.0555556
        k(   29) = (   0.0505763   0.0000000   0.0000000), wk =   0.0555556
        k(   30) = (   0.0505763   0.0280101   0.0000000), wk =   0.0555556
        k(   31) = (   0.0505763   0.0560203   0.0000000), wk =   0.0555556
        k(   32) = (   0.0505763  -0.0840304   0.0000000), wk =   0.0555556
        k(   33) = (  -0.0758644   0.0000000   0.0000000), wk =   0.0277778
        k(   34) = (  -0.0758644   0.0280101   0.0000000), wk =   0.0555556
        k(   35) = (  -0.0758644   0.0560203   0.0000000), wk =   0.0555556
        k(   36) = (  -0.0758644  -0.0840304   0.0000000), wk =   0.0277778
        k(   37) = (  -0.0252881   0.0280101   0.0000000), wk =   0.0555556
        k(   38) = (  -0.0252881   0.0560203   0.0000000), wk =   0.0555556
        k(   39) = (  -0.0505763   0.0280101   0.0000000), wk =   0.0555556
        k(   40) = (  -0.0505763   0.0560203   0.0000000), wk =   0.0555556

     Dense  grid:  1096637 G-vectors     FFT dimensions: (  80,  72, 375)

     Smooth grid:   277353 G-vectors     FFT dimensions: (  54,  45, 240)

     Largest allocated arrays     est. size (Mb)     dimensions
        Kohn-Sham Wavefunctions         9.95 Mb     (    2180,  299)
        NL pseudopotentials            18.89 Mb     (    2180,  568)
        Each V/rho on FFT grid          4.22 Mb     (  138240,   2)
        Each G-vector array             0.52 Mb     (   68538)
        G-vector shells                 0.25 Mb     (   33046)
     Largest temporary arrays     est. size (Mb)     dimensions
        Auxiliary wavefunctions        39.78 Mb     (    2180, 1196)
        Each subspace H/S matrix       21.83 Mb     (    1196, 1196)
        Each <psi_i|beta_j> matrix      2.59 Mb     (     568,  299)
        Arrays for rho mixing          21.09 Mb     (  138240,   10)

     Check: negative/imaginary core charge=   -0.000049    0.000000

     The initial density is read from file :
     ./calc.save/charge-density.dat


     negative rho (up, down):  1.189E-02 1.196E-02


     ************************************************************************
     *
     * You are using vdW-DF for exchange-correlation in this calculation.
     * Please cite the following three references that made this development
     * possible:
     *
     *   M. Dion, H. Rydberg, E. Schroder, D. C. Langreth, and
     *   B. I. Lundqvist, Phys. Rev. Lett. 92, 246401 (2004).
     *
     *   T. Thonhauser, V. R. Cooper, S. Li, A. Puzder, P. Hyldgaard, and
     *   D. C. Langreth, Phys. Rev. B 76, 125112 (2007).
     *
     *   G. Roman-Perez and J. M. Soler, Phys. Rev. Lett. 103, 096102 (2009).
     *
     *
     * If you are using vdW-DF2, please also cite:
     *
     *   K. Lee, E. D. Murray, L. Kong, B. I. Lundqvist, and
     *   D. C. Langreth, Phys. Rev. B 82, 081101(R) (2010).
     *
     *
     * If you are calculating the stress with vdW-DF, please also cite:
     *
     *   R. Sabatini, E. Kucukbenli, B. Kolb, T. Thonhauser, and
     *   S. de Gironcoli, J. Phys.: Condens. Matter 24, 424209 (2012).
     *
     ************************************************************************

     Carrying out vdW-DF run using the following parameters:

     Nqs =      20    Nr_points =    1024   r_max =   100.000
     q_mesh =
               0.00001000     0.04494208     0.09755937     0.15916263
               0.23128650     0.31572767     0.41458969     0.53033537
               0.66584808     0.82450364     1.01025438     1.22772762
               1.48234092     1.78043706     2.12944203     2.53805004
               3.01644009     3.57652955     4.23227104     5.00000000

     Gradients computed in reciprocal space

     ************************************************************************


     Starting wfc are  300 randomized atomic wfcs

     total cpu time spent up to now is       79.0 secs

     Self-consistent Calculation

     iteration #  1     ecut=    40.42 Ry     beta=0.10
     Davidson diagonalization with overlap
     ethr =  1.00E-05,  avg # of iterations = 15.1

     negative rho (up, down):  1.189E-02 1.196E-02
 
     Magnetic moment per site:
     atom:    1    charge:    3.1244    magn:   -0.0003    constr:    0.0000
     atom:    2    charge:    2.0895    magn:    0.0003    constr:    0.0000
     atom:    3    charge:    3.1198    magn:   -0.0000    constr:    0.0000
     atom:    4    charge:    2.0867    magn:   -0.0001    constr:    0.0000
     atom:    5    charge:    3.1161    magn:   -0.0002    constr:    0.0000
     atom:    6    charge:    2.0797    magn:    0.0020    constr:    0.0000
     atom:    7    charge:    3.1167    magn:   -0.0052    constr:    0.0000
     atom:    8    charge:    2.0795    magn:    0.0248    constr:    0.0000
     atom:    9    charge:    3.1244    magn:   -0.0003    constr:    0.0000
     atom:   10    charge:    2.0897    magn:    0.0003    constr:    0.0000
     atom:   11    charge:    3.1198    magn:   -0.0000    constr:    0.0000
     atom:   12    charge:    2.0870    magn:   -0.0000    constr:    0.0000
     atom:   13    charge:    3.1150    magn:   -0.0002    constr:    0.0000
     atom:   14    charge:    2.0940    magn:    0.0022    constr:    0.0000
     atom:   15    charge:    3.1185    magn:   -0.0008    constr:    0.0000
     atom:   16    charge:    2.0830    magn:    0.0046    constr:    0.0000
     atom:   17    charge:    2.0618    magn:    0.0018    constr:    0.0000
     atom:   18    charge:    3.1239    magn:   -0.0001    constr:    0.0000
     atom:   19    charge:    2.0875    magn:    0.0001    constr:    0.0000
     atom:   20    charge:    2.0847    magn:    0.0002    constr:    0.0000
     atom:   21    charge:    2.0847    magn:    0.0002    constr:    0.0000
     atom:   22    charge:    3.1199    magn:    0.0000    constr:    0.0000
     atom:   23    charge:    2.0908    magn:    0.0002    constr:    0.0000
     atom:   24    charge:    2.0755    magn:   -0.0002    constr:    0.0000
     atom:   25    charge:    2.0867    magn:    0.0000    constr:    0.0000
     atom:   26    charge:    3.1126    magn:   -0.0002    constr:    0.0000
     atom:   27    charge:    2.0805    magn:    0.0024    constr:    0.0000
     atom:   28    charge:    2.0840    magn:    0.0006    constr:    0.0000
     atom:   29    charge:    2.0861    magn:    0.0008    constr:    0.0000
     atom:   30    charge:    3.1171    magn:   -0.0008    constr:    0.0000
     atom:   31    charge:    2.0825    magn:    0.0006    constr:    0.0000
     atom:   32    charge:    2.0832    magn:    0.0064    constr:    0.0000
     atom:   33    charge:    2.0618    magn:    0.0018    constr:    0.0000
     atom:   34    charge:    3.1239    magn:   -0.0001    constr:    0.0000
     atom:   35    charge:    2.0875    magn:    0.0001    constr:    0.0000
     atom:   36    charge:    2.0847    magn:    0.0002    constr:    0.0000
     atom:   37    charge:    2.0847    magn:    0.0002    constr:    0.0000
     atom:   38    charge:    3.1200    magn:    0.0000    constr:    0.0000
     atom:   39    charge:    2.0839    magn:    0.0002    constr:    0.0000
     atom:   40    charge:    2.0757    magn:   -0.0003    constr:    0.0000
     atom:   41    charge:    2.0870    magn:   -0.0000    constr:    0.0000
     atom:   42    charge:    3.1151    magn:   -0.0002    constr:    0.0000
     atom:   43    charge:    2.0805    magn:    0.0030    constr:    0.0000
     atom:   44    charge:    2.0852    magn:    0.0008    constr:    0.0000
     atom:   45    charge:    2.0860    magn:    0.0004    constr:    0.0000
     atom:   46    charge:    3.1148    magn:   -0.0007    constr:    0.0000
     atom:   47    charge:    2.0810    magn:    0.0046    constr:    0.0000
     atom:   48    charge:    2.0840    magn:    0.0135    constr:    0.0000
     atom:   49    charge:    2.0520    magn:    0.2394    constr:    0.0000
     atom:   50    charge:    0.6702    magn:    0.0548    constr:    0.0000
     atom:   51    charge:    0.4118    magn:    0.0006    constr:    0.0000
     atom:   52    charge:    0.4226    magn:    0.0008    constr:    0.0000
     atom:   53    charge:    0.3674    magn:    0.0235    constr:    0.0000
     atom:   54    charge:    0.4231    magn:    0.0006    constr:    0.0000

     total cpu time spent up to now is     1048.9 secs

     total energy              =   -3021.14902770 Ry
     Harris-Foulkes estimate   =   -3021.15021790 Ry
     estimated scf accuracy    <       0.00738098 Ry

     total magnetization       =     1.06 Bohr mag/cell
     absolute magnetization    =     1.23 Bohr mag/cell

     iteration #  2     ecut=    40.42 Ry     beta=0.10
     Davidson diagonalization with overlap
     c_bands:  1 eigenvalues not converged
     c_bands:  1 eigenvalues not converged
     ethr =  1.85E-06,  avg # of iterations =  7.5

     negative rho (up, down):  1.189E-02 1.196E-02
 
     Magnetic moment per site:
     atom:    1    charge:    3.1244    magn:   -0.0003    constr:    0.0000
     atom:    2    charge:    2.0897    magn:    0.0003    constr:    0.0000
     atom:    3    charge:    3.1198    magn:   -0.0000    constr:    0.0000
     atom:    4    charge:    2.0867    magn:   -0.0001    constr:    0.0000
     atom:    5    charge:    3.1161    magn:   -0.0002    constr:    0.0000
     atom:    6    charge:    2.0795    magn:    0.0020    constr:    0.0000
     atom:    7    charge:    3.1167    magn:   -0.0052    constr:    0.0000
     atom:    8    charge:    2.0794    magn:    0.0248    constr:    0.0000
     atom:    9    charge:    3.1244    magn:   -0.0003    constr:    0.0000
     atom:   10    charge:    2.0898    magn:    0.0003    constr:    0.0000
     atom:   11    charge:    3.1198    magn:   -0.0000    constr:    0.0000
     atom:   12    charge:    2.0871    magn:   -0.0000    constr:    0.0000
     atom:   13    charge:    3.1150    magn:   -0.0002    constr:    0.0000
     atom:   14    charge:    2.0939    magn:    0.0022    constr:    0.0000
     atom:   15    charge:    3.1185    magn:   -0.0008    constr:    0.0000
     atom:   16    charge:    2.0828    magn:    0.0046    constr:    0.0000
     atom:   17    charge:    2.0624    magn:    0.0018    constr:    0.0000
     atom:   18    charge:    3.1239    magn:   -0.0001    constr:    0.0000
     atom:   19    charge:    2.0876    magn:    0.0001    constr:    0.0000
     atom:   20    charge:    2.0847    magn:    0.0002    constr:    0.0000
     atom:   21    charge:    2.0847    magn:    0.0002    constr:    0.0000
     atom:   22    charge:    3.1199    magn:    0.0000    constr:    0.0000
     atom:   23    charge:    2.0908    magn:    0.0002    constr:    0.0000
     atom:   24    charge:    2.0754    magn:   -0.0002    constr:    0.0000
     atom:   25    charge:    2.0868    magn:    0.0000    constr:    0.0000
     atom:   26    charge:    3.1127    magn:   -0.0002    constr:    0.0000
     atom:   27    charge:    2.0803    magn:    0.0025    constr:    0.0000
     atom:   28    charge:    2.0839    magn:    0.0006    constr:    0.0000
     atom:   29    charge:    2.0860    magn:    0.0008    constr:    0.0000
     atom:   30    charge:    3.1171    magn:   -0.0008    constr:    0.0000
     atom:   31    charge:    2.0824    magn:    0.0006    constr:    0.0000
     atom:   32    charge:    2.0830    magn:    0.0064    constr:    0.0000
     atom:   33    charge:    2.0624    magn:    0.0018    constr:    0.0000
     atom:   34    charge:    3.1239    magn:   -0.0001    constr:    0.0000
     atom:   35    charge:    2.0876    magn:    0.0001    constr:    0.0000
     atom:   36    charge:    2.0847    magn:    0.0002    constr:    0.0000
     atom:   37    charge:    2.0847    magn:    0.0002    constr:    0.0000
     atom:   38    charge:    3.1200    magn:    0.0000    constr:    0.0000
     atom:   39    charge:    2.0839    magn:    0.0002    constr:    0.0000
     atom:   40    charge:    2.0756    magn:   -0.0003    constr:    0.0000
     atom:   41    charge:    2.0870    magn:   -0.0000    constr:    0.0000
     atom:   42    charge:    3.1151    magn:   -0.0002    constr:    0.0000
     atom:   43    charge:    2.0803    magn:    0.0030    constr:    0.0000
     atom:   44    charge:    2.0851    magn:    0.0008    constr:    0.0000
     atom:   45    charge:    2.0859    magn:    0.0004    constr:    0.0000
     atom:   46    charge:    3.1148    magn:   -0.0007    constr:    0.0000
     atom:   47    charge:    2.0809    magn:    0.0046    constr:    0.0000
     atom:   48    charge:    2.0839    magn:    0.0135    constr:    0.0000
     atom:   49    charge:    2.0519    magn:    0.2394    constr:    0.0000
     atom:   50    charge:    0.6699    magn:    0.0549    constr:    0.0000
     atom:   51    charge:    0.4118    magn:    0.0007    constr:    0.0000
     atom:   52    charge:    0.4226    magn:    0.0008    constr:    0.0000
     atom:   53    charge:    0.3675    magn:    0.0236    constr:    0.0000
     atom:   54    charge:    0.4231    magn:    0.0006    constr:    0.0000

     total cpu time spent up to now is     1368.0 secs

     total energy              =   -3021.14906088 Ry
     Harris-Foulkes estimate   =   -3021.15065362 Ry
     estimated scf accuracy    <       0.02718712 Ry

     total magnetization       =     1.08 Bohr mag/cell
     absolute magnetization    =     1.24 Bohr mag/cell

     iteration #  3     ecut=    40.42 Ry     beta=0.10
     Davidson diagonalization with overlap
     ethr =  1.85E-06,  avg # of iterations =  6.3

     negative rho (up, down):  1.189E-02 1.196E-02
 
     Magnetic moment per site:
     atom:    1    charge:    3.1244    magn:   -0.0003    constr:    0.0000
     atom:    2    charge:    2.0897    magn:    0.0003    constr:    0.0000
     atom:    3    charge:    3.1198    magn:   -0.0000    constr:    0.0000
     atom:    4    charge:    2.0867    magn:   -0.0001    constr:    0.0000
     atom:    5    charge:    3.1161    magn:   -0.0002    constr:    0.0000
     atom:    6    charge:    2.0795    magn:    0.0021    constr:    0.0000
     atom:    7    charge:    3.1167    magn:   -0.0051    constr:    0.0000
     atom:    8    charge:    2.0794    magn:    0.0246    constr:    0.0000
     atom:    9    charge:    3.1244    magn:   -0.0003    constr:    0.0000
     atom:   10    charge:    2.0899    magn:    0.0003    constr:    0.0000
     atom:   11    charge:    3.1198    magn:   -0.0000    constr:    0.0000
     atom:   12    charge:    2.0870    magn:   -0.0000    constr:    0.0000
     atom:   13    charge:    3.1150    magn:   -0.0002    constr:    0.0000
     atom:   14    charge:    2.0939    magn:    0.0022    constr:    0.0000
     atom:   15    charge:    3.1185    magn:   -0.0008    constr:    0.0000
     atom:   16    charge:    2.0828    magn:    0.0046    constr:    0.0000
     atom:   17    charge:    2.0627    magn:    0.0016    constr:    0.0000
     atom:   18    charge:    3.1240    magn:   -0.0001    constr:    0.0000
     atom:   19    charge:    2.0875    magn:    0.0001    constr:    0.0000
     atom:   20    charge:    2.0847    magn:    0.0002    constr:    0.0000
     atom:   21    charge:    2.0847    magn:    0.0002    constr:    0.0000
     atom:   22    charge:    3.1199    magn:    0.0000    constr:    0.0000
     atom:   23    charge:    2.0907    magn:    0.0002    constr:    0.0000
     atom:   24    charge:    2.0753    magn:   -0.0002    constr:    0.0000
     atom:   25    charge:    2.0867    magn:    0.0000    constr:    0.0000
     atom:   26    charge:    3.1126    magn:   -0.0002    constr:    0.0000
     atom:   27    charge:    2.0802    magn:    0.0025    constr:    0.0000
     atom:   28    charge:    2.0838    magn:    0.0006    constr:    0.0000
     atom:   29    charge:    2.0860    magn:    0.0008    constr:    0.0000
     atom:   30    charge:    3.1171    magn:   -0.0008    constr:    0.0000
     atom:   31    charge:    2.0825    magn:    0.0006    constr:    0.0000
     atom:   32    charge:    2.0830    magn:    0.0064    constr:    0.0000
     atom:   33    charge:    2.0627    magn:    0.0016    constr:    0.0000
     atom:   34    charge:    3.1239    magn:   -0.0001    constr:    0.0000
     atom:   35    charge:    2.0875    magn:    0.0001    constr:    0.0000
     atom:   36    charge:    2.0847    magn:    0.0002    constr:    0.0000
     atom:   37    charge:    2.0847    magn:    0.0001    constr:    0.0000
     atom:   38    charge:    3.1200    magn:    0.0000    constr:    0.0000
     atom:   39    charge:    2.0839    magn:    0.0002    constr:    0.0000
     atom:   40    charge:    2.0755    magn:   -0.0002    constr:    0.0000
     atom:   41    charge:    2.0870    magn:   -0.0000    constr:    0.0000
     atom:   42    charge:    3.1151    magn:   -0.0002    constr:    0.0000
     atom:   43    charge:    2.0802    magn:    0.0030    constr:    0.0000
     atom:   44    charge:    2.0850    magn:    0.0008    constr:    0.0000
     atom:   45    charge:    2.0858    magn:    0.0004    constr:    0.0000
     atom:   46    charge:    3.1148    magn:   -0.0007    constr:    0.0000
     atom:   47    charge:    2.0812    magn:    0.0046    constr:    0.0000
     atom:   48    charge:    2.0840    magn:    0.0134    constr:    0.0000
     atom:   49    charge:    2.0520    magn:    0.2389    constr:    0.0000
     atom:   50    charge:    0.6678    magn:    0.0551    constr:    0.0000
     atom:   51    charge:    0.4119    magn:    0.0009    constr:    0.0000
     atom:   52    charge:    0.4226    magn:    0.0008    constr:    0.0000
     atom:   53    charge:    0.3676    magn:    0.0240    constr:    0.0000
     atom:   54    charge:    0.4232    magn:    0.0006    constr:    0.0000

     total cpu time spent up to now is     1663.5 secs

     total energy              =   -3021.14938933 Ry
     Harris-Foulkes estimate   =   -3021.14977999 Ry
     estimated scf accuracy    <       0.00145571 Ry

     total magnetization       =     1.06 Bohr mag/cell
     absolute magnetization    =     1.23 Bohr mag/cell

     iteration #  4     ecut=    40.42 Ry     beta=0.10
     Davidson diagonalization with overlap
     ethr =  3.66E-07,  avg # of iterations =  4.9

     negative rho (up, down):  1.189E-02 1.196E-02
 
     Magnetic moment per site:
     atom:    1    charge:    3.1244    magn:   -0.0003    constr:    0.0000
     atom:    2    charge:    2.0897    magn:    0.0003    constr:    0.0000
     atom:    3    charge:    3.1198    magn:   -0.0000    constr:    0.0000
     atom:    4    charge:    2.0867    magn:   -0.0001    constr:    0.0000
     atom:    5    charge:    3.1161    magn:   -0.0002    constr:    0.0000
     atom:    6    charge:    2.0795    magn:    0.0021    constr:    0.0000
     atom:    7    charge:    3.1167    magn:   -0.0051    constr:    0.0000
     atom:    8    charge:    2.0793    magn:    0.0245    constr:    0.0000
     atom:    9    charge:    3.1245    magn:   -0.0003    constr:    0.0000
     atom:   10    charge:    2.0899    magn:    0.0003    constr:    0.0000
     atom:   11    charge:    3.1198    magn:   -0.0000    constr:    0.0000
     atom:   12    charge:    2.0871    magn:   -0.0000    constr:    0.0000
     atom:   13    charge:    3.1150    magn:   -0.0002    constr:    0.0000
     atom:   14    charge:    2.0939    magn:    0.0022    constr:    0.0000
     atom:   15    charge:    3.1185    magn:   -0.0008    constr:    0.0000
     atom:   16    charge:    2.0828    magn:    0.0047    constr:    0.0000
     atom:   17    charge:    2.0626    magn:    0.0016    constr:    0.0000
     atom:   18    charge:    3.1240    magn:   -0.0001    constr:    0.0000
     atom:   19    charge:    2.0875    magn:    0.0001    constr:    0.0000
     atom:   20    charge:    2.0847    magn:    0.0001    constr:    0.0000
     atom:   21    charge:    2.0847    magn:    0.0001    constr:    0.0000
     atom:   22    charge:    3.1199    magn:    0.0000    constr:    0.0000
     atom:   23    charge:    2.0908    magn:    0.0002    constr:    0.0000
     atom:   24    charge:    2.0754    magn:   -0.0001    constr:    0.0000
     atom:   25    charge:    2.0867    magn:    0.0000    constr:    0.0000
     atom:   26    charge:    3.1127    magn:   -0.0002    constr:    0.0000
     atom:   27    charge:    2.0802    magn:    0.0025    constr:    0.0000
     atom:   28    charge:    2.0838    magn:    0.0006    constr:    0.0000
     atom:   29    charge:    2.0860    magn:    0.0008    constr:    0.0000
     atom:   30    charge:    3.1171    magn:   -0.0008    constr:    0.0000
     atom:   31    charge:    2.0825    magn:    0.0006    constr:    0.0000
     atom:   32    charge:    2.0830    magn:    0.0064    constr:    0.0000
     atom:   33    charge:    2.0626    magn:    0.0016    constr:    0.0000
     atom:   34    charge:    3.1239    magn:   -0.0001    constr:    0.0000
     atom:   35    charge:    2.0876    magn:    0.0001    constr:    0.0000
     atom:   36    charge:    2.0847    magn:    0.0001    constr:    0.0000
     atom:   37    charge:    2.0847    magn:    0.0001    constr:    0.0000
     atom:   38    charge:    3.1200    magn:    0.0000    constr:    0.0000
     atom:   39    charge:    2.0839    magn:    0.0002    constr:    0.0000
     atom:   40    charge:    2.0756    magn:   -0.0002    constr:    0.0000
     atom:   41    charge:    2.0870    magn:   -0.0000    constr:    0.0000
     atom:   42    charge:    3.1151    magn:   -0.0002    constr:    0.0000
     atom:   43    charge:    2.0802    magn:    0.0030    constr:    0.0000
     atom:   44    charge:    2.0850    magn:    0.0009    constr:    0.0000
     atom:   45    charge:    2.0858    magn:    0.0004    constr:    0.0000
     atom:   46    charge:    3.1148    magn:   -0.0007    constr:    0.0000
     atom:   47    charge:    2.0811    magn:    0.0046    constr:    0.0000
     atom:   48    charge:    2.0840    magn:    0.0134    constr:    0.0000
     atom:   49    charge:    2.0519    magn:    0.2389    constr:    0.0000
     atom:   50    charge:    0.6675    magn:    0.0551    constr:    0.0000
     atom:   51    charge:    0.4118    magn:    0.0009    constr:    0.0000
     atom:   52    charge:    0.4225    magn:    0.0008    constr:    0.0000
     atom:   53    charge:    0.3676    magn:    0.0240    constr:    0.0000
     atom:   54    charge:    0.4232    magn:    0.0006    constr:    0.0000

     total cpu time spent up to now is     1939.9 secs

     total energy              =   -3021.14951075 Ry
     Harris-Foulkes estimate   =   -3021.14956312 Ry
     estimated scf accuracy    <       0.00094971 Ry

     total magnetization       =     1.06 Bohr mag/cell
     absolute magnetization    =     1.23 Bohr mag/cell

     iteration #  5     ecut=    40.42 Ry     beta=0.10
     Davidson diagonalization with overlap
     ethr =  2.39E-07,  avg # of iterations =  1.1

     negative rho (up, down):  1.189E-02 1.196E-02
 
     Magnetic moment per site:
     atom:    1    charge:    3.1244    magn:   -0.0002    constr:    0.0000
     atom:    2    charge:    2.0896    magn:    0.0002    constr:    0.0000
     atom:    3    charge:    3.1198    magn:   -0.0000    constr:    0.0000
     atom:    4    charge:    2.0867    magn:   -0.0001    constr:    0.0000
     atom:    5    charge:    3.1161    magn:   -0.0002    constr:    0.0000
     atom:    6    charge:    2.0795    magn:    0.0021    constr:    0.0000
     atom:    7    charge:    3.1166    magn:   -0.0051    constr:    0.0000
     atom:    8    charge:    2.0792    magn:    0.0246    constr:    0.0000
     atom:    9    charge:    3.1244    magn:   -0.0003    constr:    0.0000
     atom:   10    charge:    2.0898    magn:    0.0003    constr:    0.0000
     atom:   11    charge:    3.1198    magn:   -0.0000    constr:    0.0000
     atom:   12    charge:    2.0871    magn:   -0.0000    constr:    0.0000
     atom:   13    charge:    3.1150    magn:   -0.0002    constr:    0.0000
     atom:   14    charge:    2.0939    magn:    0.0022    constr:    0.0000
     atom:   15    charge:    3.1183    magn:   -0.0008    constr:    0.0000
     atom:   16    charge:    2.0829    magn:    0.0047    constr:    0.0000
     atom:   17    charge:    2.0623    magn:    0.0014    constr:    0.0000
     atom:   18    charge:    3.1240    magn:   -0.0001    constr:    0.0000
     atom:   19    charge:    2.0875    magn:    0.0001    constr:    0.0000
     atom:   20    charge:    2.0847    magn:    0.0001    constr:    0.0000
     atom:   21    charge:    2.0847    magn:    0.0001    constr:    0.0000
     atom:   22    charge:    3.1199    magn:    0.0000    constr:    0.0000
     atom:   23    charge:    2.0908    magn:    0.0002    constr:    0.0000
     atom:   24    charge:    2.0754    magn:   -0.0001    constr:    0.0000
     atom:   25    charge:    2.0868    magn:    0.0000    constr:    0.0000
     atom:   26    charge:    3.1127    magn:   -0.0002    constr:    0.0000
     atom:   27    charge:    2.0803    magn:    0.0025    constr:    0.0000
     atom:   28    charge:    2.0839    magn:    0.0007    constr:    0.0000
     atom:   29    charge:    2.0861    magn:    0.0008    constr:    0.0000
     atom:   30    charge:    3.1171    magn:   -0.0008    constr:    0.0000
     atom:   31    charge:    2.0827    magn:    0.0006    constr:    0.0000
     atom:   32    charge:    2.0828    magn:    0.0064    constr:    0.0000
     atom:   33    charge:    2.0623    magn:    0.0014    constr:    0.0000
     atom:   34    charge:    3.1240    magn:   -0.0001    constr:    0.0000
     atom:   35    charge:    2.0875    magn:    0.0001    constr:    0.0000
     atom:   36    charge:    2.0847    magn:    0.0001    constr:    0.0000
     atom:   37    charge:    2.0847    magn:    0.0001    constr:    0.0000
     atom:   38    charge:    3.1200    magn:    0.0000    constr:    0.0000
     atom:   39    charge:    2.0840    magn:    0.0002    constr:    0.0000
     atom:   40    charge:    2.0757    magn:   -0.0002    constr:    0.0000
     atom:   41    charge:    2.0871    magn:   -0.0000    constr:    0.0000
     atom:   42    charge:    3.1151    magn:   -0.0002    constr:    0.0000
     atom:   43    charge:    2.0802    magn:    0.0030    constr:    0.0000
     atom:   44    charge:    2.0851    magn:    0.0009    constr:    0.0000
     atom:   45    charge:    2.0859    magn:    0.0004    constr:    0.0000
     atom:   46    charge:    3.1147    magn:   -0.0007    constr:    0.0000
     atom:   47    charge:    2.0807    magn:    0.0046    constr:    0.0000
     atom:   48    charge:    2.0835    magn:    0.0135    constr:    0.0000
     atom:   49    charge:    2.0516    magn:    0.2390    constr:    0.0000
     atom:   50    charge:    0.6680    magn:    0.0551    constr:    0.0000
     atom:   51    charge:    0.4117    magn:    0.0010    constr:    0.0000
     atom:   52    charge:    0.4225    magn:    0.0008    constr:    0.0000
     atom:   53    charge:    0.3678    magn:    0.0238    constr:    0.0000
     atom:   54    charge:    0.4232    magn:    0.0006    constr:    0.0000

     total cpu time spent up to now is     2143.8 secs

     total energy              =   -3021.14947476 Ry
     Harris-Foulkes estimate   =   -3021.14952654 Ry
     estimated scf accuracy    <       0.00031743 Ry

     total magnetization       =     1.06 Bohr mag/cell
     absolute magnetization    =     1.23 Bohr mag/cell

     iteration #  6     ecut=    40.42 Ry     beta=0.10
     Davidson diagonalization with overlap
     ethr =  7.98E-08,  avg # of iterations =  3.0

     negative rho (up, down):  1.189E-02 1.196E-02
 
     Magnetic moment per site:
     atom:    1    charge:    3.1244    magn:   -0.0002    constr:    0.0000
     atom:    2    charge:    2.0897    magn:    0.0002    constr:    0.0000
     atom:    3    charge:    3.1198    magn:   -0.0000    constr:    0.0000
     atom:    4    charge:    2.0867    magn:   -0.0001    constr:    0.0000
     atom:    5    charge:    3.1161    magn:   -0.0002    constr:    0.0000
     atom:    6    charge:    2.0795    magn:    0.0021    constr:    0.0000
     atom:    7    charge:    3.1166    magn:   -0.0051    constr:    0.0000
     atom:    8    charge:    2.0792    magn:    0.0246    constr:    0.0000
     atom:    9    charge:    3.1244    magn:   -0.0002    constr:    0.0000
     atom:   10    charge:    2.0898    magn:    0.0002    constr:    0.0000
     atom:   11    charge:    3.1198    magn:   -0.0000    constr:    0.0000
     atom:   12    charge:    2.0870    magn:   -0.0000    constr:    0.0000
     atom:   13    charge:    3.1150    magn:   -0.0002    constr:    0.0000
     atom:   14    charge:    2.0939    magn:    0.0022    constr:    0.0000
     atom:   15    charge:    3.1183    magn:   -0.0008    constr:    0.0000
     atom:   16    charge:    2.0828    magn:    0.0047    constr:    0.0000
     atom:   17    charge:    2.0625    magn:    0.0013    constr:    0.0000
     atom:   18    charge:    3.1240    magn:   -0.0001    constr:    0.0000
     atom:   19    charge:    2.0875    magn:    0.0001    constr:    0.0000
     atom:   20    charge:    2.0847    magn:    0.0001    constr:    0.0000
     atom:   21    charge:    2.0847    magn:    0.0001    constr:    0.0000
     atom:   22    charge:    3.1199    magn:    0.0000    constr:    0.0000
     atom:   23    charge:    2.0908    magn:    0.0002    constr:    0.0000
     atom:   24    charge:    2.0753    magn:   -0.0001    constr:    0.0000
     atom:   25    charge:    2.0867    magn:    0.0000    constr:    0.0000
     atom:   26    charge:    3.1127    magn:   -0.0002    constr:    0.0000
     atom:   27    charge:    2.0803    magn:    0.0026    constr:    0.0000
     atom:   28    charge:    2.0839    magn:    0.0007    constr:    0.0000
     atom:   29    charge:    2.0860    magn:    0.0008    constr:    0.0000
     atom:   30    charge:    3.1171    magn:   -0.0008    constr:    0.0000
     atom:   31    charge:    2.0826    magn:    0.0006    constr:    0.0000
     atom:   32    charge:    2.0829    magn:    0.0064    constr:    0.0000
     atom:   33    charge:    2.0625    magn:    0.0013    constr:    0.0000
     atom:   34    charge:    3.1239    magn:   -0.0001    constr:    0.0000
     atom:   35    charge:    2.0875    magn:    0.0000    constr:    0.0000
     atom:   36    charge:    2.0847    magn:    0.0001    constr:    0.0000
     atom:   37    charge:    2.0847    magn:    0.0001    constr:    0.0000
     atom:   38    charge:    3.1200    magn:    0.0000    constr:    0.0000
     atom:   39    charge:    2.0839    magn:    0.0002    constr:    0.0000
     atom:   40    charge:    2.0756    magn:   -0.0002    constr:    0.0000
     atom:   41    charge:    2.0870    magn:   -0.0000    constr:    0.0000
     atom:   42    charge:    3.1151    magn:   -0.0002    constr:    0.0000
     atom:   43    charge:    2.0803    magn:    0.0031    constr:    0.0000
     atom:   44    charge:    2.0851    magn:    0.0009    constr:    0.0000
     atom:   45    charge:    2.0858    magn:    0.0005    constr:    0.0000
     atom:   46    charge:    3.1147    magn:   -0.0007    constr:    0.0000
     atom:   47    charge:    2.0806    magn:    0.0046    constr:    0.0000
     atom:   48    charge:    2.0835    magn:    0.0135    constr:    0.0000
     atom:   49    charge:    2.0516    magn:    0.2390    constr:    0.0000
     atom:   50    charge:    0.6682    magn:    0.0551    constr:    0.0000
     atom:   51    charge:    0.4116    magn:    0.0010    constr:    0.0000
     atom:   52    charge:    0.4225    magn:    0.0007    constr:    0.0000
     atom:   53    charge:    0.3677    magn:    0.0237    constr:    0.0000
     atom:   54    charge:    0.4232    magn:    0.0005    constr:    0.0000

     total cpu time spent up to now is     2382.3 secs

     total energy              =   -3021.14946173 Ry
     Harris-Foulkes estimate   =   -3021.14952061 Ry
     estimated scf accuracy    <       0.00062777 Ry

     total magnetization       =     1.06 Bohr mag/cell
     absolute magnetization    =     1.23 Bohr mag/cell

     iteration #  7     ecut=    40.42 Ry     beta=0.10
     Davidson diagonalization with overlap
     ethr =  7.98E-08,  avg # of iterations =  1.0

     negative rho (up, down):  1.189E-02 1.196E-02
 
     Magnetic moment per site:
     atom:    1    charge:    3.1244    magn:   -0.0002    constr:    0.0000
     atom:    2    charge:    2.0897    magn:    0.0002    constr:    0.0000
     atom:    3    charge:    3.1198    magn:   -0.0000    constr:    0.0000
     atom:    4    charge:    2.0867    magn:   -0.0001    constr:    0.0000
     atom:    5    charge:    3.1161    magn:   -0.0002    constr:    0.0000
     atom:    6    charge:    2.0795    magn:    0.0021    constr:    0.0000
     atom:    7    charge:    3.1166    magn:   -0.0051    constr:    0.0000
     atom:    8    charge:    2.0793    magn:    0.0246    constr:    0.0000
     atom:    9    charge:    3.1244    magn:   -0.0002    constr:    0.0000
     atom:   10    charge:    2.0898    magn:    0.0002    constr:    0.0000
     atom:   11    charge:    3.1198    magn:   -0.0000    constr:    0.0000
     atom:   12    charge:    2.0870    magn:   -0.0000    constr:    0.0000
     atom:   13    charge:    3.1150    magn:   -0.0002    constr:    0.0000
     atom:   14    charge:    2.0939    magn:    0.0022    constr:    0.0000
     atom:   15    charge:    3.1183    magn:   -0.0008    constr:    0.0000
     atom:   16    charge:    2.0828    magn:    0.0047    constr:    0.0000
     atom:   17    charge:    2.0624    magn:    0.0012    constr:    0.0000
     atom:   18    charge:    3.1239    magn:   -0.0001    constr:    0.0000
     atom:   19    charge:    2.0876    magn:    0.0000    constr:    0.0000
     atom:   20    charge:    2.0847    magn:    0.0001    constr:    0.0000
     atom:   21    charge:    2.0847    magn:    0.0001    constr:    0.0000
     atom:   22    charge:    3.1199    magn:    0.0000    constr:    0.0000
     atom:   23    charge:    2.0908    magn:    0.0002    constr:    0.0000
     atom:   24    charge:    2.0754    magn:   -0.0001    constr:    0.0000
     atom:   25    charge:    2.0867    magn:    0.0000    constr:    0.0000
     atom:   26    charge:    3.1127    magn:   -0.0002    constr:    0.0000
     atom:   27    charge:    2.0803    magn:    0.0026    constr:    0.0000
     atom:   28    charge:    2.0839    magn:    0.0007    constr:    0.0000
     atom:   29    charge:    2.0860    magn:    0.0009    constr:    0.0000
     atom:   30    charge:    3.1171    magn:   -0.0008    constr:    0.0000
     atom:   31    charge:    2.0825    magn:    0.0006    constr:    0.0000
     atom:   32    charge:    2.0828    magn:    0.0065    constr:    0.0000
     atom:   33    charge:    2.0624    magn:    0.0012    constr:    0.0000
     atom:   34    charge:    3.1239    magn:   -0.0000    constr:    0.0000
     atom:   35    charge:    2.0876    magn:    0.0000    constr:    0.0000
     atom:   36    charge:    2.0847    magn:    0.0001    constr:    0.0000
     atom:   37    charge:    2.0847    magn:    0.0001    constr:    0.0000
     atom:   38    charge:    3.1200    magn:    0.0000    constr:    0.0000
     atom:   39    charge:    2.0839    magn:    0.0002    constr:    0.0000
     atom:   40    charge:    2.0756    magn:   -0.0001    constr:    0.0000
     atom:   41    charge:    2.0870    magn:   -0.0000    constr:    0.0000
     atom:   42    charge:    3.1151    magn:   -0.0002    constr:    0.0000
     atom:   43    charge:    2.0803    magn:    0.0031    constr:    0.0000
     atom:   44    charge:    2.0851    magn:    0.0009    constr:    0.0000
     atom:   45    charge:    2.0858    magn:    0.0005    constr:    0.0000
     atom:   46    charge:    3.1147    magn:   -0.0007    constr:    0.0000
     atom:   47    charge:    2.0806    magn:    0.0046    constr:    0.0000
     atom:   48    charge:    2.0836    magn:    0.0136    constr:    0.0000
     atom:   49    charge:    2.0516    magn:    0.2390    constr:    0.0000
     atom:   50    charge:    0.6684    magn:    0.0551    constr:    0.0000
     atom:   51    charge:    0.4115    magn:    0.0010    constr:    0.0000
     atom:   52    charge:    0.4225    magn:    0.0007    constr:    0.0000
     atom:   53    charge:    0.3677    magn:    0.0236    constr:    0.0000
     atom:   54    charge:    0.4231    magn:    0.0005    constr:    0.0000

     total cpu time spent up to now is     2584.9 secs

     total energy              =   -3021.14949778 Ry
     Harris-Foulkes estimate   =   -3021.14950817 Ry
     estimated scf accuracy    <       0.00023617 Ry

     total magnetization       =     1.06 Bohr mag/cell
     absolute magnetization    =     1.23 Bohr mag/cell

     iteration #  8     ecut=    40.42 Ry     beta=0.10
     Davidson diagonalization with overlap
     ethr =  5.93E-08,  avg # of iterations =  2.0

     negative rho (up, down):  1.189E-02 1.196E-02
 
     Magnetic moment per site:
     atom:    1    charge:    3.1244    magn:   -0.0002    constr:    0.0000
     atom:    2    charge:    2.0897    magn:    0.0002    constr:    0.0000
     atom:    3    charge:    3.1198    magn:   -0.0000    constr:    0.0000
     atom:    4    charge:    2.0867    magn:   -0.0001    constr:    0.0000
     atom:    5    charge:    3.1161    magn:   -0.0003    constr:    0.0000
     atom:    6    charge:    2.0795    magn:    0.0021    constr:    0.0000
     atom:    7    charge:    3.1167    magn:   -0.0052    constr:    0.0000
     atom:    8    charge:    2.0793    magn:    0.0246    constr:    0.0000
     atom:    9    charge:    3.1244    magn:   -0.0002    constr:    0.0000
     atom:   10    charge:    2.0898    magn:    0.0002    constr:    0.0000
     atom:   11    charge:    3.1198    magn:   -0.0000    constr:    0.0000
     atom:   12    charge:    2.0870    magn:   -0.0000    constr:    0.0000
     atom:   13    charge:    3.1150    magn:   -0.0002    constr:    0.0000
     atom:   14    charge:    2.0939    magn:    0.0022    constr:    0.0000
     atom:   15    charge:    3.1184    magn:   -0.0008    constr:    0.0000
     atom:   16    charge:    2.0828    magn:    0.0047    constr:    0.0000
     atom:   17    charge:    2.0624    magn:    0.0011    constr:    0.0000
     atom:   18    charge:    3.1239    magn:   -0.0000    constr:    0.0000
     atom:   19    charge:    2.0876    magn:    0.0000    constr:    0.0000
     atom:   20    charge:    2.0847    magn:    0.0001    constr:    0.0000
     atom:   21    charge:    2.0847    magn:    0.0001    constr:    0.0000
     atom:   22    charge:    3.1199    magn:    0.0000    constr:    0.0000
     atom:   23    charge:    2.0908    magn:    0.0002    constr:    0.0000
     atom:   24    charge:    2.0754    magn:   -0.0001    constr:    0.0000
     atom:   25    charge:    2.0867    magn:    0.0000    constr:    0.0000
     atom:   26    charge:    3.1127    magn:   -0.0003    constr:    0.0000
     atom:   27    charge:    2.0802    magn:    0.0026    constr:    0.0000
     atom:   28    charge:    2.0839    magn:    0.0007    constr:    0.0000
     atom:   29    charge:    2.0860    magn:    0.0009    constr:    0.0000
     atom:   30    charge:    3.1171    magn:   -0.0008    constr:    0.0000
     atom:   31    charge:    2.0825    magn:    0.0006    constr:    0.0000
     atom:   32    charge:    2.0829    magn:    0.0065    constr:    0.0000
     atom:   33    charge:    2.0624    magn:    0.0012    constr:    0.0000
     atom:   34    charge:    3.1239    magn:   -0.0000    constr:    0.0000
     atom:   35    charge:    2.0876    magn:    0.0000    constr:    0.0000
     atom:   36    charge:    2.0847    magn:    0.0001    constr:    0.0000
     atom:   37    charge:    2.0847    magn:    0.0001    constr:    0.0000
     atom:   38    charge:    3.1200    magn:    0.0000    constr:    0.0000
     atom:   39    charge:    2.0839    magn:    0.0002    constr:    0.0000
     atom:   40    charge:    2.0756    magn:   -0.0001    constr:    0.0000
     atom:   41    charge:    2.0870    magn:   -0.0000    constr:    0.0000
     atom:   42    charge:    3.1151    magn:   -0.0002    constr:    0.0000
     atom:   43    charge:    2.0803    magn:    0.0031    constr:    0.0000
     atom:   44    charge:    2.0851    magn:    0.0010    constr:    0.0000
     atom:   45    charge:    2.0858    magn:    0.0005    constr:    0.0000
     atom:   46    charge:    3.1147    magn:   -0.0007    constr:    0.0000
     atom:   47    charge:    2.0806    magn:    0.0046    constr:    0.0000
     atom:   48    charge:    2.0837    magn:    0.0136    constr:    0.0000
     atom:   49    charge:    2.0517    magn:    0.2390    constr:    0.0000
     atom:   50    charge:    0.6687    magn:    0.0551    constr:    0.0000
     atom:   51    charge:    0.4115    magn:    0.0010    constr:    0.0000
     atom:   52    charge:    0.4225    magn:    0.0007    constr:    0.0000
     atom:   53    charge:    0.3675    magn:    0.0236    constr:    0.0000
     atom:   54    charge:    0.4231    magn:    0.0005    constr:    0.0000

     total cpu time spent up to now is     2804.0 secs

     total energy              =   -3021.14950233 Ry
     Harris-Foulkes estimate   =   -3021.14950487 Ry
     estimated scf accuracy    <       0.00001031 Ry

     total magnetization       =     1.06 Bohr mag/cell
     absolute magnetization    =     1.23 Bohr mag/cell

     iteration #  9     ecut=    40.42 Ry     beta=0.10
     Davidson diagonalization with overlap
     ethr =  2.59E-09,  avg # of iterations =  3.9

     negative rho (up, down):  1.189E-02 1.196E-02
 
     Magnetic moment per site:
     atom:    1    charge:    3.1244    magn:   -0.0002    constr:    0.0000
     atom:    2    charge:    2.0897    magn:    0.0002    constr:    0.0000
     atom:    3    charge:    3.1198    magn:   -0.0000    constr:    0.0000
     atom:    4    charge:    2.0867    magn:   -0.0001    constr:    0.0000
     atom:    5    charge:    3.1161    magn:   -0.0003    constr:    0.0000
     atom:    6    charge:    2.0795    magn:    0.0021    constr:    0.0000
     atom:    7    charge:    3.1167    magn:   -0.0052    constr:    0.0000
     atom:    8    charge:    2.0793    magn:    0.0246    constr:    0.0000
     atom:    9    charge:    3.1244    magn:   -0.0002    constr:    0.0000
     atom:   10    charge:    2.0898    magn:    0.0002    constr:    0.0000
     atom:   11    charge:    3.1198    magn:   -0.0000    constr:    0.0000
     atom:   12    charge:    2.0870    magn:   -0.0000    constr:    0.0000
     atom:   13    charge:    3.1150    magn:   -0.0002    constr:    0.0000
     atom:   14    charge:    2.0939    magn:    0.0022    constr:    0.0000
     atom:   15    charge:    3.1184    magn:   -0.0008    constr:    0.0000
     atom:   16    charge:    2.0828    magn:    0.0047    constr:    0.0000
     atom:   17    charge:    2.0624    magn:    0.0011    constr:    0.0000
     atom:   18    charge:    3.1239    magn:   -0.0000    constr:    0.0000
     atom:   19    charge:    2.0875    magn:    0.0000    constr:    0.0000
     atom:   20    charge:    2.0847    magn:    0.0001    constr:    0.0000
     atom:   21    charge:    2.0847    magn:    0.0001    constr:    0.0000
     atom:   22    charge:    3.1199    magn:    0.0000    constr:    0.0000
     atom:   23    charge:    2.0908    magn:    0.0003    constr:    0.0000
     atom:   24    charge:    2.0754    magn:   -0.0000    constr:    0.0000
     atom:   25    charge:    2.0867    magn:    0.0000    constr:    0.0000
     atom:   26    charge:    3.1127    magn:   -0.0003    constr:    0.0000
     atom:   27    charge:    2.0802    magn:    0.0026    constr:    0.0000
     atom:   28    charge:    2.0839    magn:    0.0007    constr:    0.0000
     atom:   29    charge:    2.0860    magn:    0.0009    constr:    0.0000
     atom:   30    charge:    3.1171    magn:   -0.0008    constr:    0.0000
     atom:   31    charge:    2.0825    magn:    0.0006    constr:    0.0000
     atom:   32    charge:    2.0829    magn:    0.0065    constr:    0.0000
     atom:   33    charge:    2.0624    magn:    0.0011    constr:    0.0000
     atom:   34    charge:    3.1239    magn:   -0.0000    constr:    0.0000
     atom:   35    charge:    2.0876    magn:    0.0000    constr:    0.0000
     atom:   36    charge:    2.0847    magn:    0.0001    constr:    0.0000
     atom:   37    charge:    2.0847    magn:    0.0001    constr:    0.0000
     atom:   38    charge:    3.1200    magn:    0.0000    constr:    0.0000
     atom:   39    charge:    2.0839    magn:    0.0002    constr:    0.0000
     atom:   40    charge:    2.0756    magn:   -0.0001    constr:    0.0000
     atom:   41    charge:    2.0870    magn:   -0.0000    constr:    0.0000
     atom:   42    charge:    3.1151    magn:   -0.0002    constr:    0.0000
     atom:   43    charge:    2.0803    magn:    0.0031    constr:    0.0000
     atom:   44    charge:    2.0851    magn:    0.0010    constr:    0.0000
     atom:   45    charge:    2.0858    magn:    0.0005    constr:    0.0000
     atom:   46    charge:    3.1147    magn:   -0.0007    constr:    0.0000
     atom:   47    charge:    2.0807    magn:    0.0046    constr:    0.0000
     atom:   48    charge:    2.0837    magn:    0.0136    constr:    0.0000
     atom:   49    charge:    2.0517    magn:    0.2389    constr:    0.0000
     atom:   50    charge:    0.6687    magn:    0.0552    constr:    0.0000
     atom:   51    charge:    0.4115    magn:    0.0010    constr:    0.0000
     atom:   52    charge:    0.4225    magn:    0.0007    constr:    0.0000
     atom:   53    charge:    0.3674    magn:    0.0236    constr:    0.0000
     atom:   54    charge:    0.4231    magn:    0.0005    constr:    0.0000

     total cpu time spent up to now is     3062.0 secs

     total energy              =   -3021.14950340 Ry
     Harris-Foulkes estimate   =   -3021.14950347 Ry
     estimated scf accuracy    <       0.00000364 Ry

     total magnetization       =     1.06 Bohr mag/cell
     absolute magnetization    =     1.23 Bohr mag/cell

     iteration # 10     ecut=    40.42 Ry     beta=0.10
     Davidson diagonalization with overlap
     ethr =  9.15E-10,  avg # of iterations =  3.0

     negative rho (up, down):  1.189E-02 1.196E-02
 
     Magnetic moment per site:
     atom:    1    charge:    3.1244    magn:   -0.0002    constr:    0.0000
     atom:    2    charge:    2.0897    magn:    0.0001    constr:    0.0000
     atom:    3    charge:    3.1198    magn:   -0.0000    constr:    0.0000
     atom:    4    charge:    2.0867    magn:   -0.0001    constr:    0.0000
     atom:    5    charge:    3.1161    magn:   -0.0003    constr:    0.0000
     atom:    6    charge:    2.0795    magn:    0.0022    constr:    0.0000
     atom:    7    charge:    3.1167    magn:   -0.0052    constr:    0.0000
     atom:    8    charge:    2.0793    magn:    0.0246    constr:    0.0000
     atom:    9    charge:    3.1244    magn:   -0.0002    constr:    0.0000
     atom:   10    charge:    2.0898    magn:    0.0002    constr:    0.0000
     atom:   11    charge:    3.1198    magn:   -0.0000    constr:    0.0000
     atom:   12    charge:    2.0870    magn:   -0.0000    constr:    0.0000
     atom:   13    charge:    3.1150    magn:   -0.0002    constr:    0.0000
     atom:   14    charge:    2.0939    magn:    0.0022    constr:    0.0000
     atom:   15    charge:    3.1184    magn:   -0.0008    constr:    0.0000
     atom:   16    charge:    2.0828    magn:    0.0047    constr:    0.0000
     atom:   17    charge:    2.0624    magn:    0.0010    constr:    0.0000
     atom:   18    charge:    3.1239    magn:   -0.0000    constr:    0.0000
     atom:   19    charge:    2.0875    magn:    0.0000    constr:    0.0000
     atom:   20    charge:    2.0847    magn:    0.0001    constr:    0.0000
     atom:   21    charge:    2.0847    magn:    0.0001    constr:    0.0000
     atom:   22    charge:    3.1199    magn:    0.0000    constr:    0.0000
     atom:   23    charge:    2.0908    magn:    0.0003    constr:    0.0000
     atom:   24    charge:    2.0754    magn:   -0.0000    constr:    0.0000
     atom:   25    charge:    2.0867    magn:    0.0000    constr:    0.0000
     atom:   26    charge:    3.1127    magn:   -0.0003    constr:    0.0000
     atom:   27    charge:    2.0802    magn:    0.0027    constr:    0.0000
     atom:   28    charge:    2.0839    magn:    0.0008    constr:    0.0000
     atom:   29    charge:    2.0860    magn:    0.0009    constr:    0.0000
     atom:   30    charge:    3.1171    magn:   -0.0008    constr:    0.0000
     atom:   31    charge:    2.0825    magn:    0.0006    constr:    0.0000
     atom:   32    charge:    2.0829    magn:    0.0065    constr:    0.0000
     atom:   33    charge:    2.0624    magn:    0.0010    constr:    0.0000
     atom:   34    charge:    3.1239    magn:   -0.0000    constr:    0.0000
     atom:   35    charge:    2.0876    magn:    0.0000    constr:    0.0000
     atom:   36    charge:    2.0847    magn:    0.0001    constr:    0.0000
     atom:   37    charge:    2.0847    magn:    0.0001    constr:    0.0000
     atom:   38    charge:    3.1200    magn:    0.0000    constr:    0.0000
     atom:   39    charge:    2.0839    magn:    0.0002    constr:    0.0000
     atom:   40    charge:    2.0756    magn:   -0.0001    constr:    0.0000
     atom:   41    charge:    2.0870    magn:   -0.0000    constr:    0.0000
     atom:   42    charge:    3.1151    magn:   -0.0002    constr:    0.0000
     atom:   43    charge:    2.0803    magn:    0.0032    constr:    0.0000
     atom:   44    charge:    2.0851    magn:    0.0010    constr:    0.0000
     atom:   45    charge:    2.0858    magn:    0.0005    constr:    0.0000
     atom:   46    charge:    3.1148    magn:   -0.0007    constr:    0.0000
     atom:   47    charge:    2.0807    magn:    0.0046    constr:    0.0000
     atom:   48    charge:    2.0837    magn:    0.0136    constr:    0.0000
     atom:   49    charge:    2.0518    magn:    0.2389    constr:    0.0000
     atom:   50    charge:    0.6688    magn:    0.0552    constr:    0.0000
     atom:   51    charge:    0.4114    magn:    0.0010    constr:    0.0000
     atom:   52    charge:    0.4225    magn:    0.0007    constr:    0.0000
     atom:   53    charge:    0.3674    magn:    0.0236    constr:    0.0000
     atom:   54    charge:    0.4231    magn:    0.0005    constr:    0.0000

     total cpu time spent up to now is     3300.8 secs

     total energy              =   -3021.14950338 Ry
     Harris-Foulkes estimate   =   -3021.14950369 Ry
     estimated scf accuracy    <       0.00000405 Ry

     total magnetization       =     1.06 Bohr mag/cell
     absolute magnetization    =     1.23 Bohr mag/cell

     iteration # 11     ecut=    40.42 Ry     beta=0.10
     Davidson diagonalization with overlap
     ethr =  9.15E-10,  avg # of iterations =  3.0

     negative rho (up, down):  1.189E-02 1.196E-02
 
     Magnetic moment per site:
     atom:    1    charge:    3.1244    magn:   -0.0001    constr:    0.0000
     atom:    2    charge:    2.0897    magn:    0.0001    constr:    0.0000
     atom:    3    charge:    3.1198    magn:   -0.0000    constr:    0.0000
     atom:    4    charge:    2.0867    magn:   -0.0001    constr:    0.0000
     atom:    5    charge:    3.1161    magn:   -0.0003    constr:    0.0000
     atom:    6    charge:    2.0795    magn:    0.0022    constr:    0.0000
     atom:    7    charge:    3.1167    magn:   -0.0052    constr:    0.0000
     atom:    8    charge:    2.0793    magn:    0.0246    constr:    0.0000
     atom:    9    charge:    3.1244    magn:   -0.0001    constr:    0.0000
     atom:   10    charge:    2.0898    magn:    0.0001    constr:    0.0000
     atom:   11    charge:    3.1198    magn:   -0.0000    constr:    0.0000
     atom:   12    charge:    2.0870    magn:   -0.0000    constr:    0.0000
     atom:   13    charge:    3.1150    magn:   -0.0002    constr:    0.0000
     atom:   14    charge:    2.0939    magn:    0.0022    constr:    0.0000
     atom:   15    charge:    3.1184    magn:   -0.0008    constr:    0.0000
     atom:   16    charge:    2.0828    magn:    0.0047    constr:    0.0000
     atom:   17    charge:    2.0624    magn:    0.0007    constr:    0.0000
     atom:   18    charge:    3.1239    magn:   -0.0000    constr:    0.0000
     atom:   19    charge:    2.0875    magn:    0.0000    constr:    0.0000
     atom:   20    charge:    2.0847    magn:    0.0000    constr:    0.0000
     atom:   21    charge:    2.0847    magn:    0.0000    constr:    0.0000
     atom:   22    charge:    3.1199    magn:    0.0000    constr:    0.0000
     atom:   23    charge:    2.0908    magn:    0.0003    constr:    0.0000
     atom:   24    charge:    2.0754    magn:   -0.0000    constr:    0.0000
     atom:   25    charge:    2.0867    magn:    0.0000    constr:    0.0000
     atom:   26    charge:    3.1127    magn:   -0.0003    constr:    0.0000
     atom:   27    charge:    2.0803    magn:    0.0027    constr:    0.0000
     atom:   28    charge:    2.0839    magn:    0.0008    constr:    0.0000
     atom:   29    charge:    2.0860    magn:    0.0009    constr:    0.0000
     atom:   30    charge:    3.1171    magn:   -0.0008    constr:    0.0000
     atom:   31    charge:    2.0825    magn:    0.0006    constr:    0.0000
     atom:   32    charge:    2.0829    magn:    0.0065    constr:    0.0000
     atom:   33    charge:    2.0624    magn:    0.0007    constr:    0.0000
     atom:   34    charge:    3.1239    magn:   -0.0000    constr:    0.0000
     atom:   35    charge:    2.0876    magn:    0.0000    constr:    0.0000
     atom:   36    charge:    2.0847    magn:    0.0000    constr:    0.0000
     atom:   37    charge:    2.0847    magn:    0.0000    constr:    0.0000
     atom:   38    charge:    3.1200    magn:    0.0000    constr:    0.0000
     atom:   39    charge:    2.0839    magn:    0.0002    constr:    0.0000
     atom:   40    charge:    2.0756    magn:   -0.0001    constr:    0.0000
     atom:   41    charge:    2.0870    magn:   -0.0000    constr:    0.0000
     atom:   42    charge:    3.1151    magn:   -0.0003    constr:    0.0000
     atom:   43    charge:    2.0803    magn:    0.0032    constr:    0.0000
     atom:   44    charge:    2.0851    magn:    0.0010    constr:    0.0000
     atom:   45    charge:    2.0858    magn:    0.0006    constr:    0.0000
     atom:   46    charge:    3.1148    magn:   -0.0007    constr:    0.0000
     atom:   47    charge:    2.0807    magn:    0.0046    constr:    0.0000
     atom:   48    charge:    2.0837    magn:    0.0136    constr:    0.0000
     atom:   49    charge:    2.0517    magn:    0.2389    constr:    0.0000
     atom:   50    charge:    0.6687    magn:    0.0552    constr:    0.0000
     atom:   51    charge:    0.4115    magn:    0.0010    constr:    0.0000
     atom:   52    charge:    0.4225    magn:    0.0007    constr:    0.0000
     atom:   53    charge:    0.3674    magn:    0.0236    constr:    0.0000
     atom:   54    charge:    0.4231    magn:    0.0004    constr:    0.0000

     total cpu time spent up to now is     3540.0 secs

     End of self-consistent calculation

 ------ SPIN UP ------------


          k = 0.0000 0.0000 0.0000 ( 34665 PWs)   bands (ev):

   -58.3023 -58.2672 -57.3842 -57.3785 -57.3455 -57.3078 -57.2564 -57.0875
   -57.0610 -57.0556 -57.0173 -56.9183 -56.8924 -56.8830 -56.7993 -56.7608
   -34.7475 -34.5709 -34.5421 -34.5088 -34.4139 -34.3570 -33.8792 -33.8668
   -33.7488 -33.6757 -33.6338 -33.5909 -33.5589 -33.5517 -33.5458 -33.5393
   -33.5276 -33.5128 -33.4874 -33.4860 -33.4715 -33.4695 -33.4671 -33.4481
   -33.3377 -33.3342 -33.3283 -33.3256 -33.3127 -33.2846 -33.2794 -33.2590
   -33.2389 -33.2335 -33.2334 -33.2240 -33.1938 -33.1735 -33.1374 -33.1369
   -33.0981 -33.0772 -33.0470 -33.0269 -33.0134 -32.9881 -32.9452 -32.8806
   -18.4676 -18.0347 -17.8104 -17.7100 -17.5495 -17.5280 -17.4839 -17.3823
   -17.3556 -17.2555 -17.0433 -17.0227 -17.0148 -16.9808 -16.9200 -16.8527
   -16.8340 -16.7962 -16.7382 -16.7059 -16.6875 -16.6551 -16.5916 -16.5868
   -16.4641 -16.4164 -16.3978 -16.3598 -16.3238 -16.1461 -16.0855 -15.5975
   -15.5367 -11.1711  -6.0461  -5.4949  -5.2808  -5.2008  -5.0919  -4.9893
    -4.9799  -4.9038  -4.8767  -4.7302  -4.6481  -4.5978  -4.5837  -4.5082
    -4.4270  -4.4119  -4.3506  -4.3144  -4.2317  -4.2172  -4.1956  -4.1406
    -4.0294  -4.0224  -3.9785  -3.9065  -3.8902  -3.8841  -3.8813  -3.8235
    -3.7748  -3.7509  -3.7030  -3.6544  -3.6262  -3.5811  -3.5398  -3.5260
    -3.5128  -3.4182  -3.4066  -3.3586  -3.2708  -3.2311  -3.1862  -3.0849
    -2.9185  -2.8948  -2.8483  -2.8000  -2.7439  -2.6917  -2.6700  -2.6601
    -2.6313  -2.5347  -2.4854  -2.4368  -2.3759  -2.3308  -2.2441  -2.2271
    -2.2228  -2.1580  -2.0678  -2.0389  -1.9929  -1.9573  -1.9273  -1.8966
    -1.8515  -1.7347  -1.6907  -1.6653  -1.6384  -1.6280  -1.5832  -1.5010
    -1.4185  -1.3648  -1.3505  -1.3356  -1.3137  -1.2649  -1.2211  -1.1677
    -1.1579  -1.1082  -1.1057  -1.0892  -1.0589  -0.9774  -0.8710  -0.8281
    -0.8062  -0.6909  -0.6848  -0.6217  -0.5498  -0.5088  -0.4811  -0.1843
     1.0286   1.1254   1.4202   1.6986   1.8067   1.9247   1.9720   2.0188
     2.0489   2.1362   2.2129   2.2336   2.2797   2.3986   2.4736   2.4876
     2.4948   2.5218   2.6245   2.6698   2.6743   2.6902   2.7135   2.8303
     2.8450   2.8897   2.9041   2.9556   2.9716   3.0246   3.0335   3.0546
     3.1088   3.1633   3.2020   3.2032   3.2507   3.2588   3.4147   3.4478
     3.4810   3.5236   3.6009   3.6292   3.6740   3.7177   3.8316   3.9589
     4.1065   4.1381   4.3291   4.4756   4.5969   4.7098   4.7876   4.8378
     5.0882   5.1360   5.2120   5.3565   5.4003   5.4066   5.4263   5.4362
     5.4474   5.5258   5.5575   5.6647   5.7215   5.7367   5.9094   5.9192
     5.9587   6.0780   6.0973   6.1394   6.2196   6.2990   6.4250   6.4928
     6.5458   6.5648   6.7848   6.8160   7.2134   7.9160   8.1536   8.1794
     8.3441   8.3918   8.6357   8.7128   8.7551   8.9657   9.1433   9.2383
     9.2834   9.4451   9.6179

          k = 0.0000 0.0280 0.0000 ( 34717 PWs)   bands (ev):

   -58.2999 -58.2696 -57.3825 -57.3768 -57.3478 -57.3088 -57.2560 -57.0873
   -57.0610 -57.0540 -57.0193 -56.9159 -56.8927 -56.8854 -56.7968 -56.7633
   -34.7221 -34.5689 -34.5440 -34.5026 -34.4204 -34.3841 -33.8538 -33.8414
   -33.7280 -33.6694 -33.6276 -33.5883 -33.5655 -33.5481 -33.5401 -33.5322
   -33.5269 -33.5146 -33.5114 -33.4942 -33.4865 -33.4699 -33.4614 -33.4416
   -33.3320 -33.3263 -33.3127 -33.3107 -33.3076 -33.3012 -33.2770 -33.2574
   -33.2437 -33.2352 -33.2342 -33.2233 -33.1997 -33.1957 -33.1436 -33.1309
   -33.1100 -33.0738 -33.0531 -33.0269 -33.0131 -32.9929 -32.9727 -32.9093
   -18.4092 -17.9750 -17.7604 -17.6798 -17.6043 -17.5048 -17.4350 -17.3703
   -17.3243 -17.2862 -17.0943 -17.0012 -16.9935 -16.9696 -16.9237 -16.8736
   -16.7949 -16.7718 -16.7592 -16.7338 -16.7051 -16.6803 -16.6161 -16.5650
   -16.4782 -16.4417 -16.4046 -16.3830 -16.3560 -16.1651 -16.1271 -15.6116
   -15.5621 -11.1721  -5.9606  -5.4107  -5.2014  -5.1302  -5.0217  -4.9506
    -4.9228  -4.8858  -4.8057  -4.7274  -4.6666  -4.6517  -4.5247  -4.5136
    -4.4145  -4.3749  -4.3611  -4.3212  -4.2558  -4.2117  -4.1974  -4.1762
    -4.0979  -4.0662  -4.0148  -3.9997  -3.9767  -3.9691  -3.9200  -3.8540
    -3.8127  -3.7521  -3.7504  -3.7154  -3.6948  -3.6411  -3.5540  -3.4361
    -3.4008  -3.3195  -3.2996  -3.2983  -3.2658  -3.1225  -3.1024  -2.9428
    -2.9021  -2.8804  -2.7987  -2.7462  -2.7421  -2.7191  -2.6858  -2.6495
    -2.5958  -2.5152  -2.4560  -2.4417  -2.4137  -2.2774  -2.2533  -2.2209
    -2.2102  -2.1507  -2.1418  -2.0255  -1.9816  -1.9552  -1.9235  -1.9106
    -1.8702  -1.7652  -1.7561  -1.7163  -1.6777  -1.6065  -1.5802  -1.5696
    -1.4993  -1.4581  -1.3886  -1.3771  -1.3730  -1.3555  -1.2826  -1.2686
    -1.2327  -1.1728  -1.1394  -1.0675  -0.9910  -0.9509  -0.9236  -0.8947
    -0.8741  -0.8359  -0.7273  -0.5973  -0.5705  -0.5568  -0.5371  -0.2254
     1.1612   1.1663   1.4214   1.8349   1.8792   1.8966   1.9293   2.0056
     2.0641   2.0821   2.3032   2.3114   2.3441   2.4612   2.4972   2.5178
     2.5255   2.5472   2.5521   2.6005   2.7178   2.7349   2.8051   2.8169
     2.8388   2.9034   2.9395   2.9681   2.9846   2.9975   3.0182   3.0693
     3.0895   3.1257   3.1795   3.2380   3.2503   3.3305   3.4394   3.4802
     3.5158   3.5468   3.5674   3.5914   3.6469   3.6706   3.7900   3.9110
     4.0608   4.2053   4.2853   4.5290   4.7076   4.7111   4.8177   4.9129
     5.1152   5.1765   5.2587   5.3060   5.3760   5.4152   5.4381   5.4813
     5.5103   5.5323   5.5520   5.6643   5.7073   5.7166   5.8256   5.8872
     5.9483   5.9951   6.0370   6.0541   6.1839   6.2539   6.3916   6.4365
     6.4544   6.5550   6.7261   6.8189   7.3188   7.4559   7.9921   8.0628
     8.3440   8.5001   8.5225   8.7004   8.7744   8.9850   9.1067   9.3049
     9.3658   9.4339   9.5170

          k = 0.0000 0.0560 0.0000 ( 34721 PWs)   bands (ev):

   -58.2936 -58.2760 -57.3790 -57.3717 -57.3542 -57.3111 -57.2553 -57.0869
   -57.0615 -57.0494 -57.0243 -56.9095 -56.8931 -56.8919 -56.7901 -56.7700
   -34.6522 -34.5636 -34.5492 -34.4854 -34.4572 -34.4380 -33.7840 -33.7719
   -33.6773 -33.6525 -33.6109 -33.5887 -33.5879 -33.5820 -33.5673 -33.5640
   -33.5360 -33.5269 -33.5097 -33.4912 -33.4680 -33.4633 -33.4598 -33.4074
   -33.3666 -33.3221 -33.3195 -33.3046 -33.2784 -33.2685 -33.2531 -33.2527
   -33.2520 -33.2430 -33.2399 -33.2220 -33.2158 -33.2053 -33.1607 -33.1294
   -33.1147 -33.0710 -33.0697 -33.0466 -33.0265 -33.0129 -33.0049 -32.9797
   -18.2481 -17.8103 -17.7880 -17.6306 -17.5971 -17.4070 -17.3880 -17.3698
   -17.3041 -17.2620 -17.2275 -17.0407 -16.9820 -16.9173 -16.9139 -16.8963
   -16.8367 -16.8133 -16.7249 -16.7015 -16.6959 -16.6707 -16.6200 -16.5576
   -16.5109 -16.5055 -16.4496 -16.4377 -16.4113 -16.2316 -16.2070 -15.6401
   -15.6158 -11.1739  -5.7212  -5.1779  -5.0421  -4.9852  -4.9486  -4.9024
    -4.8448  -4.8288  -4.8115  -4.7667  -4.7296  -4.5501  -4.5044  -4.4618
    -4.3901  -4.3890  -4.3475  -4.3165  -4.3021  -4.2839  -4.2461  -4.2097
    -4.2052  -4.1880  -4.1269  -4.0556  -4.0122  -3.9744  -3.9622  -3.9045
    -3.8694  -3.8125  -3.7408  -3.7119  -3.6318  -3.5412  -3.4086  -3.4010
    -3.3611  -3.2825  -3.2429  -3.1315  -3.0850  -3.0668  -3.0354  -3.0076
    -2.9641  -2.9538  -2.8232  -2.7932  -2.7366  -2.6919  -2.6470  -2.5524
    -2.4794  -2.4708  -2.4379  -2.3504  -2.2983  -2.2928  -2.2177  -2.1846
    -2.1495  -2.1351  -2.1156  -2.0822  -2.0501  -2.0065  -1.9916  -1.9656
    -1.9297  -1.8883  -1.8770  -1.8570  -1.8062  -1.7480  -1.6526  -1.6032
    -1.5915  -1.5741  -1.5086  -1.4697  -1.4487  -1.4426  -1.4274  -1.3728
    -1.2879  -1.2670  -1.2108  -1.1883  -1.0859  -0.9958  -0.9726  -0.9407
    -0.8559  -0.8322  -0.7344  -0.7120  -0.6168  -0.5785  -0.5606  -0.3288
     1.2901   1.4319   1.5045   1.7258   1.8024   1.8954   1.9660   2.0639
     2.1444   2.2800   2.2852   2.3368   2.4208   2.4902   2.5095   2.5355
     2.5762   2.6158   2.6663   2.7126   2.7566   2.7739   2.8051   2.8532
     2.8690   2.8878   2.8976   2.9671   3.0137   3.0320   3.0408   3.0676
     3.1287   3.1620   3.1855   3.2638   3.3119   3.3433   3.3903   3.4385
     3.4756   3.4916   3.5672   3.6155   3.6781   3.6893   3.7286   3.8050
     3.9276   4.1625   4.3278   4.6564   4.7467   4.8470   4.9386   5.0765
     5.0826   5.1799   5.2862   5.3378   5.4060   5.4414   5.4748   5.5036
     5.5042   5.5655   5.5853   5.6515   5.6568   5.7570   5.7762   5.8146
     5.8455   5.8712   5.8923   5.9350   6.1214   6.1608   6.2996   6.3702
     6.4268   6.4454   6.7227   6.7516   6.9964   7.2057   7.6109   7.7440
     8.1975   8.3748   8.6977   8.8241   8.8366   8.8848   9.1762   9.3312
     9.4076   9.5960   9.7047

          k = 0.0000-0.0840 0.0000 ( 34678 PWs)   bands (ev):

   -58.2855 -58.2841 -57.3774 -57.3653 -57.3610 -57.3122 -57.2549 -57.0867
   -57.0618 -57.0461 -57.0277 -56.9010 -56.9004 -56.8933 -56.7835 -56.7767
   -34.5573 -34.5563 -34.5553 -34.5548 -34.4624 -34.4612 -33.7001 -33.6870
   -33.6834 -33.6446 -33.6433 -33.6375 -33.6058 -33.5897 -33.5857 -33.5749
   -33.5344 -33.5288 -33.5091 -33.5004 -33.4649 -33.4585 -33.3966 -33.3816
   -33.3770 -33.3611 -33.3234 -33.3189 -33.3015 -33.2706 -33.2575 -33.2487
   -33.2465 -33.2460 -33.2218 -33.2186 -33.1697 -33.1462 -33.1454 -33.1374
   -33.1252 -33.1227 -33.0926 -33.0920 -33.0269 -33.0186 -33.0157 -33.0095
   -18.0230 -18.0223 -17.5905 -17.5813 -17.5075 -17.4838 -17.4835 -17.3931
   -17.2562 -17.2150 -17.1272 -17.1024 -17.0705 -17.0350 -16.8865 -16.8428
   -16.8058 -16.8055 -16.8041 -16.6727 -16.6109 -16.6076 -16.6012 -16.5774
   -16.5462 -16.5224 -16.5054 -16.4735 -16.4641 -16.2742 -16.2484 -15.6493
   -15.6493 -11.1748  -5.3817  -5.3815  -4.8970  -4.8855  -4.8845  -4.8715
    -4.8495  -4.7679  -4.7564  -4.7171  -4.6566  -4.6022  -4.5652  -4.5582
    -4.4893  -4.4671  -4.4439  -4.3896  -4.3739  -4.2637  -4.2514  -4.2437
    -4.1567  -4.1148  -4.0647  -4.0313  -3.9903  -3.9001  -3.8821  -3.8621
    -3.7809  -3.7281  -3.6984  -3.6710  -3.6594  -3.6465  -3.6208  -3.4070
    -3.3584  -3.3449  -3.1486  -3.0750  -3.0691  -3.0296  -2.9268  -2.9246
    -2.9153  -2.8476  -2.8247  -2.7894  -2.7708  -2.6915  -2.6674  -2.6416
    -2.5202  -2.5003  -2.4176  -2.4014  -2.3935  -2.3716  -2.3080  -2.2382
    -2.2240  -2.1633  -2.1163  -2.0544  -2.0034  -1.9774  -1.9733  -1.9680
    -1.9637  -1.9391  -1.8319  -1.7957  -1.7759  -1.7259  -1.6898  -1.6541
    -1.6381  -1.6078  -1.5892  -1.5153  -1.5052  -1.4628  -1.4433  -1.4209
    -1.3800  -1.3288  -1.2747  -1.1759  -1.1352  -1.1143  -1.0874  -1.0505
    -0.8353  -0.8124  -0.6146  -0.6056  -0.6009  -0.5925  -0.5439  -0.4951
     1.4863   1.4890   1.6386   1.6393   1.7183   1.7191   2.0892   2.0900
     2.1532   2.2081   2.3786   2.4136   2.4501   2.4961   2.5438   2.5511
     2.6585   2.6704   2.6799   2.6935   2.7453   2.7559   2.8130   2.8163
     2.9160   2.9511   2.9949   3.0226   3.0276   3.0305   3.0370   3.0405
     3.0476   3.2287   3.2385   3.2690   3.3014   3.3433   3.3698   3.4001
     3.4375   3.4523   3.5069   3.6295   3.6985   3.7380   3.7526   3.7942
     3.8498   4.0392   4.3802   4.7607   4.8363   4.8699   4.8706   5.0566
     5.1481   5.2281   5.3185   5.3344   5.3689   5.4120   5.4724   5.5475
     5.5688   5.6007   5.6035   5.6904   5.7029   5.7222   5.7329   5.7465
     5.7715   5.8122   5.8458   5.9462   6.0284   6.1616   6.2801   6.3856
     6.4635   6.4793   6.5875   6.6073   6.9313   6.9817   7.4499   7.6123
[...]
    -1.7263  -1.5036  -1.4620  -1.4511  -1.4317  -1.3944  -1.3147  -1.1493
    -1.1410  -1.0841  -1.0667  -1.0502  -0.9664  -0.9076  -0.8678  -0.7836
    -0.7300  -0.7231  -0.6939  -0.6668  -0.5914  -0.5699  -0.5560   0.3054
     1.6053   1.6088   1.6213   1.6267   1.9691   1.9699   2.0988   2.0998
     2.2824   2.3031   2.3164   2.3982   2.4210   2.4913   2.5770   2.6373
     2.6593   2.7038   2.7873   2.8206   2.8779   2.9295   2.9515   2.9795
     2.9941   3.0026   3.0435   3.1015   3.1159   3.2130   3.2385   3.2476
     3.2634   3.2868   3.3445   3.3908   3.4040   3.4097   3.4656   3.4770
     3.4871   3.5150   3.5295   3.5838   3.6408   3.6568   3.7799   3.8807
     3.9165   3.9269   4.1441   4.1445   4.5945   4.6237   4.6461   4.7314
     4.8861   4.9027   4.9354   5.0856   5.1643   5.1692   5.1887   5.4512
     5.6770   5.6860   5.6973   5.9301   5.9355   5.9694   6.0193   6.0223
     6.0970   6.1095   6.1780   6.2697   6.2745   6.2820   6.3868   6.4641
     6.5026   6.6091   7.0612   7.2269   7.3366   7.3904   7.5550   7.5881
     7.7160   7.7690   7.9230   8.1078   8.2942   8.3405   8.4505   8.8682
     8.9942   9.0645   9.2123

          k =-0.0253 0.0280 0.0000 ( 34687 PWs)   bands (ev):

   -58.3001 -58.2698 -57.3821 -57.3772 -57.3478 -57.3089 -57.2569 -57.0913
   -57.0621 -57.0554 -57.0205 -56.9167 -56.9164 -56.8862 -56.8003 -56.7669
   -34.7226 -34.5691 -34.5442 -34.5020 -34.4205 -34.3843 -33.8540 -33.8434
   -33.7289 -33.6618 -33.6275 -33.5886 -33.5627 -33.5486 -33.5451 -33.5363
   -33.5282 -33.5156 -33.5139 -33.4939 -33.4875 -33.4644 -33.4633 -33.4445
   -33.3330 -33.3239 -33.3165 -33.3134 -33.3086 -33.3023 -33.2785 -33.2590
   -33.2486 -33.2357 -33.2353 -33.2267 -33.2079 -33.2000 -33.1615 -33.1316
   -33.1283 -33.0771 -33.0538 -33.0366 -33.0175 -32.9961 -32.9734 -32.9119
   -18.3653 -17.9361 -17.7708 -17.7287 -17.5179 -17.5114 -17.3705 -17.3633
   -17.3401 -17.3102 -17.1065 -17.0636 -16.9789 -16.9339 -16.8679 -16.8258
   -16.7873 -16.7454 -16.7276 -16.6641 -16.6577 -16.5778 -16.5389 -16.4802
   -16.4560 -16.4007 -16.3608 -16.3429 -16.1527 -16.1187 -15.8759 -15.6070
   -15.5584 -10.7666  -5.8362  -5.3047  -5.1386  -5.1204  -4.9886  -4.9477
    -4.9087  -4.8200  -4.6934  -4.6725  -4.6314  -4.5312  -4.4932  -4.4367
    -4.4030  -4.3085  -4.2851  -4.2444  -4.1970  -4.1767  -4.1370  -4.1221
    -4.0877  -4.0390  -4.0032  -3.9855  -3.9506  -3.9082  -3.8681  -3.7948
    -3.7811  -3.7191  -3.6752  -3.6225  -3.5964  -3.5824  -3.5020  -3.3881
    -3.3394  -3.3155  -3.2843  -3.2581  -3.2196  -3.1780  -3.1081  -3.0913
    -2.9157  -2.8775  -2.8179  -2.7728  -2.7169  -2.6805  -2.6696  -2.6126
    -2.5831  -2.5043  -2.4948  -2.4377  -2.4050  -2.3538  -2.2834  -2.2609
    -2.2086  -2.1878  -2.0995  -2.0379  -1.9550  -1.9360  -1.9116  -1.8462
    -1.8346  -1.7863  -1.7411  -1.6800  -1.6309  -1.5901  -1.5576  -1.5049
    -1.4718  -1.4312  -1.4020  -1.3755  -1.3576  -1.3415  -1.3095  -1.2858
    -1.2004  -1.1207  -1.0585  -1.0060  -0.9820  -0.9489  -0.9248  -0.8804
    -0.8383  -0.8162  -0.6270  -0.6052  -0.5810  -0.5175  -0.2605   0.3307
     1.1572   1.2508   1.4348   1.8241   1.8635   1.9307   1.9671   2.0346
     2.0456   2.1947   2.3055   2.3513   2.3928   2.4359   2.4592   2.5091
     2.5293   2.5534   2.5943   2.6547   2.7025   2.7270   2.7821   2.8371
     2.8817   2.9192   2.9356   2.9790   2.9960   3.0196   3.0455   3.0986
     3.1755   3.1961   3.2386   3.2636   3.2995   3.3417   3.4351   3.4701
     3.5001   3.5624   3.6164   3.6472   3.6689   3.7491   3.8268   3.8702
     4.0169   4.2133   4.2895   4.4411   4.6297   4.7274   4.8490   4.8662
     5.0065   5.0304   5.1177   5.2033   5.2462   5.3611   5.4655   5.5531
     5.6602   5.6999   5.7176   5.8079   5.8548   5.8882   5.9143   5.9366
     5.9715   5.9944   6.0692   6.1261   6.1799   6.2865   6.4032   6.4533
     6.4669   6.5844   6.7552   6.8108   7.3764   7.4884   7.7921   7.8909
     8.0912   8.2291   8.4894   8.5343   8.7833   8.8904   9.0668   9.3102
     9.3723   9.5136   9.6124

          k =-0.0253 0.0560 0.0000 ( 34699 PWs)   bands (ev):

   -58.2937 -58.2762 -57.3789 -57.3718 -57.3542 -57.3112 -57.2561 -57.0908
   -57.0626 -57.0508 -57.0255 -56.9169 -56.9103 -56.8926 -56.7936 -56.7736
   -34.6526 -34.5638 -34.5494 -34.4850 -34.4574 -34.4379 -33.7842 -33.7742
   -33.6782 -33.6465 -33.6108 -33.5872 -33.5832 -33.5822 -33.5708 -33.5640
   -33.5377 -33.5278 -33.5143 -33.4925 -33.4796 -33.4620 -33.4516 -33.4104
   -33.3679 -33.3210 -33.3175 -33.3087 -33.2803 -33.2708 -33.2544 -33.2540
   -33.2534 -33.2437 -33.2403 -33.2273 -33.2185 -33.2097 -33.1767 -33.1575
   -33.1154 -33.0742 -33.0705 -33.0473 -33.0336 -33.0198 -33.0082 -32.9825
   -18.2076 -17.7977 -17.7759 -17.6072 -17.5959 -17.4517 -17.3892 -17.3654
   -17.2444 -17.2372 -17.1997 -17.0536 -16.9440 -16.9151 -16.8768 -16.8362
   -16.7933 -16.7394 -16.7288 -16.7136 -16.6797 -16.5938 -16.5438 -16.5271
   -16.4957 -16.4370 -16.4072 -16.4024 -16.2157 -16.1992 -15.8747 -15.6357
   -15.6122 -10.7686  -5.6010  -5.0773  -5.0198  -4.9517  -4.9194  -4.8129
    -4.7909  -4.7536  -4.6834  -4.6692  -4.5216  -4.5049  -4.4418  -4.3911
    -4.3733  -4.3649  -4.3166  -4.2725  -4.2459  -4.2357  -4.1998  -4.1686
    -4.1282  -4.1174  -4.0484  -4.0138  -3.9893  -3.9494  -3.9231  -3.8856
    -3.8256  -3.7875  -3.6790  -3.6130  -3.5717  -3.5326  -3.4554  -3.3803
    -3.3615  -3.2870  -3.1835  -3.1559  -3.1147  -3.1067  -3.0549  -3.0200
    -2.9784  -2.9225  -2.8389  -2.7891  -2.7579  -2.7005  -2.6051  -2.5857
    -2.5200  -2.5060  -2.4527  -2.3869  -2.3717  -2.3137  -2.2958  -2.2546
    -2.1843  -2.1311  -2.1168  -2.0843  -2.0444  -2.0023  -1.9811  -1.9441
    -1.9270  -1.9017  -1.8887  -1.8420  -1.7638  -1.6981  -1.6856  -1.5887
    -1.5683  -1.5397  -1.5133  -1.4807  -1.4384  -1.4086  -1.3789  -1.3201
    -1.2849  -1.2176  -1.1512  -1.0292  -0.9998  -0.9658  -0.9333  -0.8530
    -0.7587  -0.7321  -0.7004  -0.6357  -0.6047  -0.5511  -0.3577   0.3113
     1.2915   1.4734   1.5687   1.7627   1.7781   1.9164   1.9831   2.0627
     2.2698   2.2804   2.3468   2.3831   2.4196   2.4919   2.5269   2.5527
     2.5773   2.6007   2.6584   2.7101   2.7256   2.7690   2.8118   2.8616
     2.8871   2.9221   2.9664   3.0114   3.0375   3.0508   3.0607   3.1143
     3.1636   3.2035   3.2226   3.2935   3.3222   3.3508   3.3823   3.4626
     3.5136   3.5391   3.6172   3.6389   3.6729   3.7311   3.7502   3.8036
     3.8997   4.1035   4.3969   4.5056   4.7206   4.8636   4.9148   4.9656
     5.0001   5.0945   5.1916   5.2125   5.3409   5.3926   5.4386   5.5330
     5.5686   5.6038   5.6566   5.7142   5.7436   5.8084   5.8249   5.8651
     5.9314   5.9469   5.9942   6.0944   6.1374   6.2152   6.3326   6.4350
     6.4599   6.4781   6.7219   6.7730   7.0734   7.2903   7.6700   7.8288
     8.0981   8.2346   8.3185   8.4885   8.7689   8.8960   9.0088   9.1729
     9.3651   9.5528   9.6442

          k =-0.0506 0.0280 0.0000 ( 34685 PWs)   bands (ev):

   -58.3001 -58.2698 -57.3813 -57.3780 -57.3478 -57.3089 -57.2569 -57.0913
   -57.0618 -57.0558 -57.0205 -56.9167 -56.9164 -56.8862 -56.8003 -56.7669
   -34.7233 -34.5691 -34.5442 -34.5004 -34.4205 -34.3843 -33.8544 -33.8475
   -33.7292 -33.6422 -33.6273 -33.5887 -33.5678 -33.5505 -33.5491 -33.5416
   -33.5284 -33.5230 -33.5128 -33.4937 -33.4876 -33.4645 -33.4521 -33.4457
   -33.3332 -33.3177 -33.3158 -33.3132 -33.3039 -33.3019 -33.2787 -33.2610
   -33.2585 -33.2358 -33.2344 -33.2296 -33.2081 -33.1994 -33.1574 -33.1316
   -33.1286 -33.0772 -33.0538 -33.0436 -33.0159 -32.9961 -32.9734 -32.9120
   -18.2570 -17.8589 -17.8465 -17.6959 -17.5825 -17.4505 -17.4329 -17.3393
   -17.3122 -17.2458 -17.1751 -17.0811 -16.9917 -16.9465 -16.9177 -16.8910
   -16.8054 -16.7622 -16.7511 -16.6911 -16.6284 -16.5445 -16.5179 -16.4845
   -16.4560 -16.4016 -16.3849 -16.3477 -16.1492 -16.1192 -15.8767 -15.6052
   -15.5585 -10.7664  -5.5348  -5.1822  -5.1489  -5.1157  -4.9441  -4.8645
    -4.7626  -4.7046  -4.6775  -4.6473  -4.5964  -4.5823  -4.5281  -4.4023
    -4.3576  -4.3184  -4.2367  -4.2109  -4.1752  -4.1604  -4.1435  -4.0517
    -4.0211  -4.0064  -3.9698  -3.9218  -3.8794  -3.8341  -3.8072  -3.7674
    -3.7166  -3.6652  -3.6326  -3.5953  -3.5806  -3.5307  -3.4830  -3.4526
    -3.3764  -3.3638  -3.2970  -3.2603  -3.1990  -3.1437  -3.1139  -3.0533
    -3.0048  -2.9755  -2.8978  -2.8313  -2.7525  -2.6937  -2.6845  -2.6615
    -2.6118  -2.5890  -2.5762  -2.5206  -2.5120  -2.3883  -2.3363  -2.3281
    -2.2656  -2.1957  -2.1808  -2.1543  -2.0760  -2.0056  -1.9994  -1.9384
    -1.9191  -1.8893  -1.8063  -1.7174  -1.7043  -1.6796  -1.6099  -1.5813
    -1.5182  -1.4707  -1.4495  -1.3897  -1.3744  -1.3232  -1.3074  -1.2561
    -1.2382  -1.1161  -1.0533  -1.0300  -1.0060  -0.9518  -0.9194  -0.8722
    -0.8236  -0.7924  -0.7154  -0.6768  -0.6555  -0.5313  -0.3866   0.3157
     1.1441   1.3441   1.4692   1.5700   1.9379   1.9480   1.9704   2.0622
     2.1284   2.2032   2.2580   2.3338   2.4094   2.4438   2.5326   2.5500
     2.5966   2.6550   2.6914   2.7052   2.7589   2.8324   2.8554   2.8859
     2.9442   2.9504   2.9841   2.9887   2.9954   3.1062   3.1130   3.1417
     3.1894   3.2185   3.2927   3.3139   3.3597   3.3869   3.4108   3.4591
     3.4735   3.5511   3.6057   3.6708   3.7465   3.7830   3.8028   3.9041
     3.9623   4.0649   4.1134   4.4109   4.5144   4.6599   4.7518   4.8127
     4.8457   4.9180   4.9703   5.2925   5.3333   5.4161   5.5309   5.5630
     5.6442   5.7707   5.7907   5.8577   5.9022   5.9171   5.9639   6.0588
     6.0980   6.1691   6.2541   6.3375   6.3901   6.4015   6.4468   6.4936
     6.5451   6.5554   6.7138   6.9164   7.0704   7.2205   7.5540   7.6093
     7.7252   8.2147   8.4119   8.4841   8.8669   8.9315   9.0635   9.2079
     9.4245   9.5992   9.6786

          k =-0.0506 0.0560 0.0000 ( 34596 PWs)   bands (ev):

   -58.2937 -58.2762 -57.3785 -57.3722 -57.3542 -57.3112 -57.2561 -57.0908
   -57.0625 -57.0509 -57.0255 -56.9169 -56.9103 -56.8926 -56.7936 -56.7736
   -34.6532 -34.5638 -34.5494 -34.4837 -34.4576 -34.4375 -33.7845 -33.7787
   -33.6784 -33.6308 -33.6106 -33.5864 -33.5848 -33.5820 -33.5652 -33.5640
   -33.5410 -33.5280 -33.5265 -33.4927 -33.4889 -33.4621 -33.4399 -33.4121
   -33.3682 -33.3208 -33.3063 -33.3039 -33.2828 -33.2730 -33.2553 -33.2542
   -33.2530 -33.2435 -33.2398 -33.2373 -33.2191 -33.2101 -33.1761 -33.1532
   -33.1154 -33.0742 -33.0705 -33.0472 -33.0378 -33.0205 -33.0081 -32.9823
   -18.1044 -17.8155 -17.6979 -17.6100 -17.5938 -17.5540 -17.3769 -17.3655
   -17.2153 -17.2030 -17.1141 -17.0916 -16.9741 -16.9086 -16.8640 -16.8393
   -16.8201 -16.8043 -16.7586 -16.7324 -16.7174 -16.6242 -16.5932 -16.5031
   -16.4927 -16.4346 -16.4176 -16.4077 -16.2149 -16.1958 -15.8746 -15.6345
   -15.6126 -10.7683  -5.2983  -4.9884  -4.9377  -4.9297  -4.7798  -4.7721
    -4.7130  -4.6362  -4.5231  -4.5031  -4.4973  -4.4143  -4.4003  -4.3773
    -4.3577  -4.3240  -4.3058  -4.2441  -4.1966  -4.1726  -4.1619  -4.1107
    -4.0991  -4.0508  -4.0418  -3.9894  -3.9761  -3.8982  -3.8792  -3.8213
    -3.7751  -3.7014  -3.6640  -3.6162  -3.6045  -3.5517  -3.5008  -3.4314
    -3.3939  -3.3163  -3.2577  -3.2275  -3.1302  -3.1251  -3.0763  -3.0494
    -2.9922  -2.9742  -2.9545  -2.9002  -2.7972  -2.7603  -2.7456  -2.7026
    -2.6260  -2.5837  -2.5424  -2.4993  -2.4748  -2.4108  -2.3858  -2.3660
    -2.3476  -2.2863  -2.1912  -2.1688  -2.1435  -2.1253  -2.0988  -2.0443
    -2.0096  -1.9681  -1.9407  -1.8668  -1.8451  -1.7780  -1.7276  -1.6531
    -1.5626  -1.5454  -1.5345  -1.4927  -1.4402  -1.3814  -1.3491  -1.3022
    -1.2403  -1.1704  -1.0732  -1.0183  -0.9845  -0.8994  -0.8490  -0.8415
    -0.7892  -0.7028  -0.6885  -0.6672  -0.6520  -0.5493  -0.4717   0.3131
     1.3121   1.5017   1.6504   1.6722   1.8568   2.0079   2.0364   2.0717
     2.2475   2.2601   2.3640   2.3806   2.4370   2.4656   2.5522   2.5892
     2.6544   2.6995   2.7338   2.7484   2.8156   2.8468   2.8751   2.9075
     2.9382   2.9552   3.0108   3.0458   3.0764   3.1176   3.1491   3.1949
     3.1999   3.2541   3.2888   3.3288   3.3379   3.3810   3.4201   3.4713
     3.4855   3.5532   3.5828   3.6451   3.6718   3.7481   3.8080   3.8439
     3.8867   3.9633   4.1568   4.5077   4.6008   4.6203   4.7585   4.8261
     4.8927   4.9691   5.0141   5.1909   5.3060   5.3800   5.4159   5.4485
     5.5983   5.6200   5.6722   5.7209   5.8835   5.9009   5.9915   6.0102
     6.0718   6.1127   6.1734   6.2093   6.3137   6.3402   6.4139   6.4272
     6.5440   6.6173   6.7620   6.8114   7.1807   7.3553   7.5061   7.6187
     7.9348   8.0137   8.1034   8.3720   8.6060   8.7162   8.7998   9.0384
     9.1791   9.3296   9.4301

     the Fermi energy is    -0.2870 ev

!    total energy              =   -3021.14950359 Ry
     Harris-Foulkes estimate   =   -3021.14950363 Ry
     estimated scf accuracy    <       0.00000036 Ry

     The total energy is the sum of the following terms:

     one-electron contribution =  -40440.29318312 Ry
     hartree contribution      =   20291.56305028 Ry
     xc contribution           =    -553.19667029 Ry
     ewald contribution        =   17680.79709765 Ry
     smearing contrib. (-TS)   =      -0.01979811 Ry

     total magnetization       =     1.06 Bohr mag/cell
     absolute magnetization    =     1.23 Bohr mag/cell

     convergence has been achieved in  11 iterations

     Forces acting on atoms (Ry/au):


     negative rho (up, down):  1.189E-02 1.196E-02
     atom    1 type  1   force =     0.00018343   -0.00089821   -0.10469202
     atom    2 type  2   force =     0.00014268    0.00068327    0.04001953
     atom    3 type  1   force =     0.00074850   -0.00175156   -0.02053787
     atom    4 type  2   force =    -0.00326876    0.00312329   -0.00324467
     atom    5 type  1   force =     0.00034174    0.00006536    0.00033979
     atom    6 type  2   force =    -0.00012817   -0.00008744    0.00025292
     atom    7 type  1   force =    -0.00036276   -0.00011354    0.00014587
     atom    8 type  2   force =    -0.00022743   -0.00027793   -0.00028165
     atom    9 type  1   force =    -0.00003475    0.00056560   -0.10482708
     atom   10 type  2   force =     0.00034892   -0.00021169    0.03599054
     atom   11 type  1   force =     0.00067750    0.00183869    0.00261421
     atom   12 type  2   force =    -0.00519631   -0.00266782   -0.00521095
     atom   13 type  1   force =     0.00041126    0.00008645   -0.00023510
     atom   14 type  2   force =     0.00013401   -0.00008726   -0.00006839
     atom   15 type  1   force =    -0.00025253    0.00006390   -0.00014432
     atom   16 type  2   force =    -0.00027250    0.00004520   -0.00034923
     atom   17 type  2   force =     0.00000711   -0.00001433    0.06659522
     atom   18 type  1   force =     0.00005736    0.00003204    0.13146894
     atom   19 type  2   force =     0.00017599   -0.00052804   -0.08522667
     atom   20 type  2   force =    -0.05793213    0.00014355   -0.03609074
     atom   21 type  2   force =     0.05782092   -0.00004820   -0.03605188
     atom   22 type  1   force =    -0.00043098    0.00075252    0.08017438
     atom   23 type  2   force =     0.00019861   -0.00004794    0.00003017
     atom   24 type  2   force =     0.00064260    0.00185837   -0.03467397
     atom   25 type  2   force =     0.00414034    0.00332595   -0.00511994
     atom   26 type  1   force =     0.00040976   -0.00004888    0.00005980
     atom   27 type  2   force =    -0.00010684   -0.00012015    0.00011915
     atom   28 type  2   force =     0.00004482   -0.00019393   -0.00001976
     atom   29 type  2   force =     0.00000439   -0.00007671    0.00007446
     atom   30 type  1   force =    -0.00008083   -0.00003190   -0.00008702
     atom   31 type  2   force =     0.00009883   -0.00005278    0.00002593
     atom   32 type  2   force =    -0.00003820   -0.00006234    0.00009604
     atom   33 type  2   force =    -0.00016719    0.00005003    0.06632933
     atom   34 type  1   force =     0.00007713   -0.00003517    0.13125106
     atom   35 type  2   force =     0.00018848   -0.00012905   -0.08483767
     atom   36 type  2   force =    -0.05782632    0.00006312   -0.03570221
     atom   37 type  2   force =     0.05799601   -0.00017549   -0.03610324
     atom   38 type  1   force =    -0.00037541   -0.00020328    0.07984442
     atom   39 type  2   force =     0.00007435   -0.00025952   -0.00009250
     atom   40 type  2   force =     0.00048856    0.00123871   -0.03528052
     atom   41 type  2   force =     0.00588558   -0.00243448   -0.00724005
     atom   42 type  1   force =     0.00024598   -0.00006617    0.00000489
     atom   43 type  2   force =    -0.00019858   -0.00010349    0.00011526
     atom   44 type  2   force =    -0.00000124   -0.00016295   -0.00002958
     atom   45 type  2   force =     0.00000761   -0.00016973    0.00005573
     atom   46 type  1   force =    -0.00002789   -0.00023915   -0.00019658
     atom   47 type  2   force =     0.00003488   -0.00012623    0.00015898
     atom   48 type  2   force =    -0.00004273    0.00007845    0.00033547
     atom   49 type  2   force =    -0.00035300   -0.00022559   -0.00018969
     atom   50 type  3   force =     0.00851831    0.01067548   -0.01478858
     atom   51 type  4   force =    -0.01144130   -0.01266212    0.01604026
     atom   52 type  4   force =     0.00072361    0.00128493   -0.00071666
     atom   53 type  4   force =    -0.00176501   -0.00215495    0.00026102
     atom   54 type  4   force =    -0.00029842    0.00049308   -0.00036485

     Total force =     0.343717     Total SCF correction =     0.001842
 !ASE

     Writing output data file calc.save
 
     init_run     :     66.60s CPU     78.42s WALL (       1 calls)
     electrons    :   3017.42s CPU   3461.28s WALL (       1 calls)
     forces       :     48.62s CPU     50.66s WALL (       1 calls)

     Called by init_run:
     wfcinit      :     58.64s CPU     69.82s WALL (       1 calls)
     potinit      :      1.38s CPU      1.63s WALL (       1 calls)

     Called by electrons:
     c_bands      :   2672.86s CPU   3055.81s WALL (      11 calls)
     sum_band     :    295.56s CPU    350.73s WALL (      11 calls)
     v_of_rho     :     12.30s CPU     14.65s WALL (      12 calls)
     newd         :     40.17s CPU     43.74s WALL (      12 calls)
     mix_rho      :      0.46s CPU      0.60s WALL (      11 calls)
     vdW_energy   :      2.64s CPU      3.01s WALL (      13 calls)
     vdW_ffts     :      3.26s CPU      3.95s WALL (      26 calls)
     vdW_v        :      1.22s CPU      1.43s WALL (      13 calls)

     Called by c_bands:
     init_us_2    :      6.77s CPU      7.36s WALL (     960 calls)
     cegterg      :   2629.15s CPU   3009.92s WALL (     440 calls)

     Called by *egterg:
     h_psi        :    963.36s CPU   1253.23s WALL (    2512 calls)
     s_psi        :    166.01s CPU    172.52s WALL (    2512 calls)
     g_psi        :      4.79s CPU      4.93s WALL (    2032 calls)
     cdiaghg      :    932.85s CPU    954.39s WALL (    2472 calls)

     Called by h_psi:
     add_vuspsi   :    167.71s CPU    172.67s WALL (    2512 calls)

     General routines
     calbec       :    245.76s CPU    251.69s WALL (    2992 calls)
     fft          :      6.61s CPU      8.17s WALL (    1029 calls)
     ffts         :      0.06s CPU      0.09s WALL (      46 calls)
     fftw         :    546.86s CPU    870.53s WALL (  780916 calls)
     interpolate  :      0.35s CPU      0.59s WALL (      46 calls)
     davcio       :      0.14s CPU      2.38s WALL (      40 calls)
 
     Parallel routines
     fft_scatter  :    278.86s CPU    460.23s WALL (  781991 calls)
 
     PWSCF        : 52m13.89s CPU    59m54.48s WALL

 
   This run was terminated on:  11:13:13  26Feb2018            

=------------------------------------------------------------------------------=
   JOB DONE.
=------------------------------------------------------------------------------=
