  python dir          : /home/vossj/suncat/lib/python2.7/site-packages/espresso
  espresso dir        : /home/vossj/suncat/esdld/espresso-dynpy-beef/bin
  pseudo dir          : /home/alatimer/bin/psp/esp_psp_w_gbrvRu/
  ase-espresso py git : ffa2778-git



     Program PWSCF v.5.1rc2 (svn rev. ) starts on 13Feb2018 at  6:54:31 

     This program is part of the open-source Quantum ESPRESSO suite
     for quantum simulation of materials; please cite
         "P. Giannozzi et al., J. Phys.:Condens. Matter 21 395502 (2009);
          URL http://www.quantum-espresso.org", 
     in publications or presentations arising from this work. More details at
     http://www.quantum-espresso.org/quote

     Parallel version (MPI), running on    16 processors
     R & G space division:  proc/nbgrp/npool/nimage =      16
     Reading input from pw.inp
     Message from routine read_cards :
     DEPRECATED: no units specified in CELL_PARAMETERS card

     Current dimensions of program PWSCF are:
     Max number of different atomic species (ntypx) = 10
     Max number of k-points (npk) =  40000
     Max angular momentum in pseudopotentials (lmaxx) =  3

     **************************************************************************
     Initializing libbeef V0.1.1 with the BEEF-vdW functional.
     Citation: Wellendorff et al., PRB 85, 235149 (2012).
     **************************************************************************


     IMPORTANT: XC functional enforced from input :
     Exchange-correlation      = BEEF ( 1  4 27 13 2)
     Any further DFT definition will be discarded
     Please, verify this is what you really want


     Subspace diagonalization in iterative solution of the eigenvalue problem:
     a serial algorithm will be used

 
     Parallelization info
     --------------------
     sticks:   dense  smooth     PW     G-vecs:    dense   smooth      PW
     Min         281     112     31                68535    17318    2565
     Max         282     113     32                68545    17369    2582
     Sum        4501    1795    503              1096637   277353   41113
 
     Generating pointlists ...
     new r_m :   0.4125 (alat units)  0.7795 (a.u.) for type    1
     new r_m :   0.3995 (alat units)  0.7549 (a.u.) for type    2
     new r_m :   0.4125 (alat units)  0.7795 (a.u.) for type    3
     new r_m :   0.3995 (alat units)  0.7549 (a.u.) for type    4


     bravais-lattice index     =            0
     lattice parameter (alat)  =       1.8897  a.u.
     unit-cell volume          =    7990.9933 (a.u.)^3
     number of atoms/cell      =           54
     number of atomic types    =            4
     number of electrons       =       398.00
     number of Kohn-Sham states=          299
     kinetic-energy cutoff     =      40.4243  Ry
     charge density cutoff     =     404.2426  Ry
     convergence threshold     =      7.3E-07
     mixing beta               =       0.1000
     number of iterations used =           10  plain     mixing
     Exchange-correlation      = BEEF ( 1  4 27 13 2)
     nstep                     =           50


     celldm(1)=   1.889726  celldm(2)=   0.000000  celldm(3)=   0.000000
     celldm(4)=   0.000000  celldm(5)=   0.000000  celldm(6)=   0.000000

     crystal axes: (cart. coord. in units of alat)
               a(1) = (   6.590708   0.000000   0.000000 )  
               a(2) = (   0.000000   5.950229   0.000000 )  
               a(3) = (   0.000000   0.000000  30.195235 )  

     reciprocal axes: (cart. coord. in units 2 pi/alat)
               b(1) = (  0.151729  0.000000  0.000000 )  
               b(2) = (  0.000000  0.168061  0.000000 )  
               b(3) = (  0.000000  0.000000  0.033118 )  


     PseudoPot. # 1 for Ti read from file:
     /home/alatimer/bin/psp/esp_psp_w_gbrvRu/Ti.UPF
     MD5 check sum: 8e4df49b7f0d34bbd5052bf3f5ea0213
     Pseudo is Ultrasoft, Zval = 12.0
     Generated by new atomic code, or converted to UPF format
     Using radial grid of  851 points,  6 beta functions with: 
                l(1) =   0
                l(2) =   0
                l(3) =   1
                l(4) =   1
                l(5) =   2
                l(6) =   2
     Q(r) pseudized with  8 coefficients,  rinner =    1.000   1.000   1.000
                                                       1.000   1.000

     PseudoPot. # 2 for  O read from file:
     /home/alatimer/bin/psp/esp_psp_w_gbrvRu/O.UPF
     MD5 check sum: e057bbcf3229fb5d8c36c0c92f9568b4
     Pseudo is Ultrasoft + core correction, Zval =  6.0
     Generated using "atomic" code by A. Dal Corso  v.5.0.2 svn rev. 9415
     Using radial grid of 1095 points,  4 beta functions with: 
                l(1) =   0
                l(2) =   0
                l(3) =   1
                l(4) =   1
     Q(r) pseudized with 0 coefficients 


     PseudoPot. # 3 for  C read from file:
     /home/alatimer/bin/psp/esp_psp_w_gbrvRu/C.UPF
     MD5 check sum: ab446d787031eba755f1d5ee46644bb0
     Pseudo is Ultrasoft + core correction, Zval =  4.0
     Generated using "atomic" code by A. Dal Corso  v.5.0.2 svn rev. 9415
     Using radial grid of 1073 points,  4 beta functions with: 
                l(1) =   0
                l(2) =   0
                l(3) =   1
                l(4) =   1
     Q(r) pseudized with 0 coefficients 


     PseudoPot. # 4 for  H read from file:
     /home/alatimer/bin/psp/esp_psp_w_gbrvRu/H.UPF
     MD5 check sum: bd57da0722753ddfd9833a65b40bb853
     Pseudo is Ultrasoft, Zval =  1.0
     Generated using "atomic" code by A. Dal Corso  v.5.0.2 svn rev. 9415
     Using radial grid of  929 points,  2 beta functions with: 
                l(1) =   0
                l(2) =   0
     Q(r) pseudized with 0 coefficients 


     vdW kernel table read from file vdW_kernel_table
     MD5 check sum: 095c7af220d748ca6e76c0b4c6cfb241

     atomic species   valence    mass     pseudopotential
        Ti1           12.00    47.88000     Ti( 1.00)
        O1             6.00    15.99940      O( 1.00)
        C1             4.00    12.01100      C( 1.00)
        H1             1.00     1.00794      H( 1.00)

     Starting magnetic structure 
     atomic species   magnetization
        Ti1          0.250
        O1           0.500
        C1           0.750
        H1           0.000

     No symmetry found



   Cartesian axes

     site n.     atom                  positions (alat units)
         1           Ti1 tau(   1) = (   1.6476770   0.7437786   2.6545865  )
         2           O1  tau(   2) = (   1.6476770   2.2313359   3.9361215  )
         3           Ti1 tau(   3) = (   1.6476770   2.2313359   5.9499405  )
         4           O1  tau(   4) = (   0.3661420   0.7437786   5.9499405  )
         5           Ti1 tau(   5) = (   1.7592931   0.7557636   9.1813031  )
         6           O1  tau(   6) = (   1.6162490   2.2572048  10.5951269  )
         7           Ti1 tau(   7) = (   1.5595004   2.2680265  12.4668274  )
         8           O1  tau(   8) = (   0.3709531   0.7738127  12.6996540  )
         9           Ti1 tau(   9) = (   1.6476770   3.7188931   2.6545865  )
        10           O1  tau(  10) = (   1.6476770   5.2064503   3.9361215  )
        11           Ti1 tau(  11) = (   1.6476770   5.2064503   5.9499405  )
        12           O1  tau(  12) = (   0.3661420   3.7188931   5.9499405  )
        13           Ti1 tau(  13) = (   1.7607536   3.7112867   9.1949733  )
        14           O1  tau(  14) = (   1.6133076   5.2250699  10.5465640  )
        15           Ti1 tau(  15) = (   1.6492307   5.2431137  12.3448001  )
        16           O1  tau(  16) = (   0.3719744   3.7598389  12.7007434  )
        17           O1  tau(  17) = (   1.6476770   2.2313359   1.3730516  )
        18           Ti1 tau(  18) = (   4.9430310   2.2313359   2.6545865  )
        19           O1  tau(  19) = (   4.9430310   2.2313359   4.6684056  )
        20           O1  tau(  20) = (   6.2245660   0.7437786   2.6545865  )
        21           O1  tau(  21) = (   3.6614961   0.7437786   2.6545865  )
        22           Ti1 tau(  22) = (   4.9430310   0.7437786   5.9499405  )
        23           O1  tau(  23) = (   1.6387103   2.2391978   8.0037664  )
        24           O1  tau(  24) = (   4.9430310   2.2313359   7.2314755  )
        25           O1  tau(  25) = (   2.9292120   0.7437786   5.9499405  )
        26           Ti1 tau(  26) = (   5.0158092   2.2383949   9.3973727  )
        27           O1  tau(  27) = (   4.9391445   2.2276729  11.2675731  )
        28           O1  tau(  28) = (   6.2094020   0.7514556   9.2742047  )
        29           O1  tau(  29) = (   3.6131301   0.7515640   9.2682932  )
        30           Ti1 tau(  30) = (   4.8940083   0.8207741  12.7348365  )
        31           O1  tau(  31) = (   4.8487174   2.2703822  13.8475395  )
        32           O1  tau(  32) = (   2.8766274   0.7418004  12.6316555  )
        33           O1  tau(  33) = (   1.6476770   5.2064503   1.3730516  )
        34           Ti1 tau(  34) = (   4.9430310   5.2064503   2.6545865  )
        35           O1  tau(  35) = (   4.9430310   5.2064503   4.6684056  )
        36           O1  tau(  36) = (   6.2245660   3.7188931   2.6545865  )
        37           O1  tau(  37) = (   3.6614961   3.7188931   2.6545865  )
        38           Ti1 tau(  38) = (   4.9430310   3.7188931   5.9499405  )
        39           O1  tau(  39) = (   1.6418458   5.2133935   8.0066417  )
        40           O1  tau(  40) = (   4.9430310   5.2064503   7.2314755  )
        41           O1  tau(  41) = (   2.9292120   3.7188931   5.9499405  )
        42           Ti1 tau(  42) = (   5.0218241   5.2139137   9.3870600  )
        43           O1  tau(  43) = (   4.9399496   5.2040061  11.2598200  )
        44           O1  tau(  44) = (   6.2073000   3.7245411   9.2731052  )
        45           O1  tau(  45) = (   3.6137513   3.7232133   9.2682466  )
        46           Ti1 tau(  46) = (   4.8936935   3.8094630  12.7397413  )
        47           O1  tau(  47) = (   4.9051259   5.2510468  13.8339921  )
        48           O1  tau(  48) = (   2.8743370   3.7938830  12.6403791  )
        49           C1  tau(  49) = (   1.0587210   2.2268971  15.9066084  )
        50           O1  tau(  50) = (   1.8917182   2.2355032  14.7378010  )
        51           H1  tau(  51) = (   0.0310076   2.2200215  15.5603933  )
        52           H1  tau(  52) = (   2.8355400   2.2288152  14.9543747  )
        53           H1  tau(  53) = (   1.2478062   1.3326534  16.5039879  )
        54           H1  tau(  54) = (   1.2641453   3.1195140  16.5098874  )

     number of k points=    40  Fermi-Dirac smearing, width (Ry)=  0.0073
                       cart. coord. in units 2pi/alat
        k(    1) = (   0.0000000   0.0000000   0.0000000), wk =   0.0277778
        k(    2) = (   0.0000000   0.0280101   0.0000000), wk =   0.0555556
        k(    3) = (   0.0000000   0.0560203   0.0000000), wk =   0.0555556
        k(    4) = (   0.0000000  -0.0840304   0.0000000), wk =   0.0277778
        k(    5) = (   0.0252881   0.0000000   0.0000000), wk =   0.0555556
        k(    6) = (   0.0252881   0.0280101   0.0000000), wk =   0.0555556
        k(    7) = (   0.0252881   0.0560203   0.0000000), wk =   0.0555556
        k(    8) = (   0.0252881  -0.0840304   0.0000000), wk =   0.0555556
        k(    9) = (   0.0505763   0.0000000   0.0000000), wk =   0.0555556
        k(   10) = (   0.0505763   0.0280101   0.0000000), wk =   0.0555556
        k(   11) = (   0.0505763   0.0560203   0.0000000), wk =   0.0555556
        k(   12) = (   0.0505763  -0.0840304   0.0000000), wk =   0.0555556
        k(   13) = (  -0.0758644   0.0000000   0.0000000), wk =   0.0277778
        k(   14) = (  -0.0758644   0.0280101   0.0000000), wk =   0.0555556
        k(   15) = (  -0.0758644   0.0560203   0.0000000), wk =   0.0555556
        k(   16) = (  -0.0758644  -0.0840304   0.0000000), wk =   0.0277778
        k(   17) = (  -0.0252881   0.0280101   0.0000000), wk =   0.0555556
        k(   18) = (  -0.0252881   0.0560203   0.0000000), wk =   0.0555556
        k(   19) = (  -0.0505763   0.0280101   0.0000000), wk =   0.0555556
        k(   20) = (  -0.0505763   0.0560203   0.0000000), wk =   0.0555556
        k(   21) = (   0.0000000   0.0000000   0.0000000), wk =   0.0277778
        k(   22) = (   0.0000000   0.0280101   0.0000000), wk =   0.0555556
        k(   23) = (   0.0000000   0.0560203   0.0000000), wk =   0.0555556
        k(   24) = (   0.0000000  -0.0840304   0.0000000), wk =   0.0277778
        k(   25) = (   0.0252881   0.0000000   0.0000000), wk =   0.0555556
        k(   26) = (   0.0252881   0.0280101   0.0000000), wk =   0.0555556
        k(   27) = (   0.0252881   0.0560203   0.0000000), wk =   0.0555556
        k(   28) = (   0.0252881  -0.0840304   0.0000000), wk =   0.0555556
        k(   29) = (   0.0505763   0.0000000   0.0000000), wk =   0.0555556
        k(   30) = (   0.0505763   0.0280101   0.0000000), wk =   0.0555556
        k(   31) = (   0.0505763   0.0560203   0.0000000), wk =   0.0555556
        k(   32) = (   0.0505763  -0.0840304   0.0000000), wk =   0.0555556
        k(   33) = (  -0.0758644   0.0000000   0.0000000), wk =   0.0277778
        k(   34) = (  -0.0758644   0.0280101   0.0000000), wk =   0.0555556
        k(   35) = (  -0.0758644   0.0560203   0.0000000), wk =   0.0555556
        k(   36) = (  -0.0758644  -0.0840304   0.0000000), wk =   0.0277778
        k(   37) = (  -0.0252881   0.0280101   0.0000000), wk =   0.0555556
        k(   38) = (  -0.0252881   0.0560203   0.0000000), wk =   0.0555556
        k(   39) = (  -0.0505763   0.0280101   0.0000000), wk =   0.0555556
        k(   40) = (  -0.0505763   0.0560203   0.0000000), wk =   0.0555556

     Dense  grid:  1096637 G-vectors     FFT dimensions: (  80,  72, 375)

     Smooth grid:   277353 G-vectors     FFT dimensions: (  54,  45, 240)

     Largest allocated arrays     est. size (Mb)     dimensions
        Kohn-Sham Wavefunctions         9.95 Mb     (    2180,  299)
        NL pseudopotentials            18.89 Mb     (    2180,  568)
        Each V/rho on FFT grid          4.22 Mb     (  138240,   2)
        Each G-vector array             0.52 Mb     (   68538)
        G-vector shells                 0.25 Mb     (   33046)
     Largest temporary arrays     est. size (Mb)     dimensions
        Auxiliary wavefunctions        39.78 Mb     (    2180, 1196)
        Each subspace H/S matrix       21.83 Mb     (    1196, 1196)
        Each <psi_i|beta_j> matrix      2.59 Mb     (     568,  299)
        Arrays for rho mixing          21.09 Mb     (  138240,   10)

     Check: negative/imaginary core charge=   -0.000049    0.000000

     The initial density is read from file :
     ./calc.save/charge-density.dat


     negative rho (up, down):  1.209E-02 1.209E-02


     ************************************************************************
     *
     * You are using vdW-DF for exchange-correlation in this calculation.
     * Please cite the following three references that made this development
     * possible:
     *
     *   M. Dion, H. Rydberg, E. Schroder, D. C. Langreth, and
     *   B. I. Lundqvist, Phys. Rev. Lett. 92, 246401 (2004).
     *
     *   T. Thonhauser, V. R. Cooper, S. Li, A. Puzder, P. Hyldgaard, and
     *   D. C. Langreth, Phys. Rev. B 76, 125112 (2007).
     *
     *   G. Roman-Perez and J. M. Soler, Phys. Rev. Lett. 103, 096102 (2009).
     *
     *
     * If you are using vdW-DF2, please also cite:
     *
     *   K. Lee, E. D. Murray, L. Kong, B. I. Lundqvist, and
     *   D. C. Langreth, Phys. Rev. B 82, 081101(R) (2010).
     *
     *
     * If you are calculating the stress with vdW-DF, please also cite:
     *
     *   R. Sabatini, E. Kucukbenli, B. Kolb, T. Thonhauser, and
     *   S. de Gironcoli, J. Phys.: Condens. Matter 24, 424209 (2012).
     *
     ************************************************************************

     Carrying out vdW-DF run using the following parameters:

     Nqs =      20    Nr_points =    1024   r_max =   100.000
     q_mesh =
               0.00001000     0.04494208     0.09755937     0.15916263
               0.23128650     0.31572767     0.41458969     0.53033537
               0.66584808     0.82450364     1.01025438     1.22772762
               1.48234092     1.78043706     2.12944203     2.53805004
               3.01644009     3.57652955     4.23227104     5.00000000

     Gradients computed in reciprocal space

     ************************************************************************


     Starting wfc are  300 randomized atomic wfcs

     total cpu time spent up to now is       69.8 secs

     Self-consistent Calculation

     iteration #  1     ecut=    40.42 Ry     beta=0.10
     Davidson diagonalization with overlap
     ethr =  1.00E-05,  avg # of iterations = 14.6

     Threshold (ethr) on eigenvalues was too large:
     Diagonalizing with lowered threshold

     Davidson diagonalization with overlap
     ethr =  3.20E-07,  avg # of iterations =  1.0

     negative rho (up, down):  1.209E-02 1.209E-02
 
     Magnetic moment per site:
     atom:    1    charge:    3.1250    magn:   -0.0002    constr:    0.0000
     atom:    2    charge:    1.9452    magn:    0.0000    constr:    0.0000
     atom:    3    charge:    3.1198    magn:    0.0000    constr:    0.0000
     atom:    4    charge:    1.9504    magn:   -0.0001    constr:    0.0000
     atom:    5    charge:    3.1166    magn:    0.0000    constr:    0.0000
     atom:    6    charge:    1.9476    magn:   -0.0001    constr:    0.0000
     atom:    7    charge:    3.1157    magn:    0.0001    constr:    0.0000
     atom:    8    charge:    1.9452    magn:   -0.0001    constr:    0.0000
     atom:    9    charge:    3.1250    magn:   -0.0002    constr:    0.0000
     atom:   10    charge:    1.9452    magn:    0.0000    constr:    0.0000
     atom:   11    charge:    3.1197    magn:    0.0000    constr:    0.0000
     atom:   12    charge:    1.9504    magn:   -0.0001    constr:    0.0000
     atom:   13    charge:    3.1158    magn:    0.0000    constr:    0.0000
     atom:   14    charge:    1.9587    magn:   -0.0001    constr:    0.0000
     atom:   15    charge:    3.1188    magn:    0.0001    constr:    0.0000
     atom:   16    charge:    1.9445    magn:   -0.0001    constr:    0.0000
     atom:   17    charge:    1.9184    magn:    0.0004    constr:    0.0000
     atom:   18    charge:    3.1239    magn:   -0.0001    constr:    0.0000
     atom:   19    charge:    1.9408    magn:   -0.0000    constr:    0.0000
     atom:   20    charge:    1.9471    magn:    0.0000    constr:    0.0000
     atom:   21    charge:    1.9471    magn:    0.0000    constr:    0.0000
     atom:   22    charge:    3.1196    magn:    0.0000    constr:    0.0000
     atom:   23    charge:    1.9566    magn:   -0.0001    constr:    0.0000
     atom:   24    charge:    1.9379    magn:   -0.0001    constr:    0.0000
     atom:   25    charge:    1.9505    magn:   -0.0001    constr:    0.0000
     atom:   26    charge:    3.1145    magn:    0.0001    constr:    0.0000
     atom:   27    charge:    1.9398    magn:   -0.0001    constr:    0.0000
     atom:   28    charge:    1.9517    magn:   -0.0001    constr:    0.0000
     atom:   29    charge:    1.9476    magn:   -0.0001    constr:    0.0000
     atom:   30    charge:    3.1167    magn:    0.0000    constr:    0.0000
     atom:   31    charge:    1.9446    magn:   -0.0000    constr:    0.0000
     atom:   32    charge:    1.9440    magn:   -0.0001    constr:    0.0000
     atom:   33    charge:    1.9184    magn:    0.0004    constr:    0.0000
     atom:   34    charge:    3.1239    magn:   -0.0001    constr:    0.0000
     atom:   35    charge:    1.9408    magn:   -0.0000    constr:    0.0000
     atom:   36    charge:    1.9471    magn:    0.0000    constr:    0.0000
     atom:   37    charge:    1.9471    magn:    0.0000    constr:    0.0000
     atom:   38    charge:    3.1196    magn:    0.0000    constr:    0.0000
     atom:   39    charge:    1.9549    magn:   -0.0001    constr:    0.0000
     atom:   40    charge:    1.9383    magn:   -0.0001    constr:    0.0000
     atom:   41    charge:    1.9505    magn:   -0.0001    constr:    0.0000
     atom:   42    charge:    3.1141    magn:    0.0001    constr:    0.0000
     atom:   43    charge:    1.9413    magn:   -0.0001    constr:    0.0000
     atom:   44    charge:    1.9517    magn:   -0.0001    constr:    0.0000
     atom:   45    charge:    1.9468    magn:   -0.0001    constr:    0.0000
     atom:   46    charge:    3.1165    magn:    0.0000    constr:    0.0000
     atom:   47    charge:    1.9431    magn:   -0.0000    constr:    0.0000
     atom:   48    charge:    1.9444    magn:   -0.0001    constr:    0.0000
     atom:   49    charge:    0.6578    magn:   -0.0001    constr:    0.0000
     atom:   50    charge:    1.9580    magn:   -0.0001    constr:    0.0000
     atom:   51    charge:    0.4021    magn:    0.0000    constr:    0.0000
     atom:   52    charge:    0.4006    magn:    0.0000    constr:    0.0000
     atom:   53    charge:    0.4034    magn:    0.0000    constr:    0.0000
     atom:   54    charge:    0.4009    magn:    0.0000    constr:    0.0000

     total cpu time spent up to now is     1014.3 secs

     total energy              =   -3021.42019240 Ry
     Harris-Foulkes estimate   =   -3021.42028122 Ry
     estimated scf accuracy    <       0.00127314 Ry

     total magnetization       =     0.00 Bohr mag/cell
     absolute magnetization    =     0.01 Bohr mag/cell

     iteration #  2     ecut=    40.42 Ry     beta=0.10
     Davidson diagonalization with overlap
     ethr =  3.20E-07,  avg # of iterations =  1.0

     negative rho (up, down):  1.209E-02 1.209E-02
 
     Magnetic moment per site:
     atom:    1    charge:    3.1250    magn:   -0.0001    constr:    0.0000
     atom:    2    charge:    1.9452    magn:    0.0000    constr:    0.0000
     atom:    3    charge:    3.1198    magn:    0.0000    constr:    0.0000
     atom:    4    charge:    1.9504    magn:   -0.0000    constr:    0.0000
     atom:    5    charge:    3.1166    magn:    0.0000    constr:    0.0000
     atom:    6    charge:    1.9476    magn:   -0.0001    constr:    0.0000
     atom:    7    charge:    3.1157    magn:    0.0000    constr:    0.0000
     atom:    8    charge:    1.9452    magn:   -0.0001    constr:    0.0000
     atom:    9    charge:    3.1250    magn:   -0.0001    constr:    0.0000
     atom:   10    charge:    1.9452    magn:    0.0000    constr:    0.0000
     atom:   11    charge:    3.1197    magn:    0.0000    constr:    0.0000
     atom:   12    charge:    1.9504    magn:   -0.0000    constr:    0.0000
     atom:   13    charge:    3.1158    magn:    0.0000    constr:    0.0000
     atom:   14    charge:    1.9587    magn:   -0.0001    constr:    0.0000
     atom:   15    charge:    3.1189    magn:    0.0000    constr:    0.0000
     atom:   16    charge:    1.9445    magn:   -0.0001    constr:    0.0000
     atom:   17    charge:    1.9184    magn:    0.0003    constr:    0.0000
     atom:   18    charge:    3.1239    magn:   -0.0001    constr:    0.0000
     atom:   19    charge:    1.9408    magn:   -0.0000    constr:    0.0000
     atom:   20    charge:    1.9471    magn:    0.0000    constr:    0.0000
     atom:   21    charge:    1.9471    magn:    0.0000    constr:    0.0000
     atom:   22    charge:    3.1196    magn:    0.0000    constr:    0.0000
     atom:   23    charge:    1.9566    magn:   -0.0001    constr:    0.0000
     atom:   24    charge:    1.9379    magn:   -0.0000    constr:    0.0000
     atom:   25    charge:    1.9505    magn:   -0.0000    constr:    0.0000
     atom:   26    charge:    3.1145    magn:    0.0000    constr:    0.0000
     atom:   27    charge:    1.9398    magn:   -0.0000    constr:    0.0000
     atom:   28    charge:    1.9517    magn:   -0.0001    constr:    0.0000
     atom:   29    charge:    1.9476    magn:   -0.0001    constr:    0.0000
     atom:   30    charge:    3.1167    magn:    0.0000    constr:    0.0000
     atom:   31    charge:    1.9446    magn:   -0.0000    constr:    0.0000
     atom:   32    charge:    1.9441    magn:   -0.0001    constr:    0.0000
     atom:   33    charge:    1.9184    magn:    0.0003    constr:    0.0000
     atom:   34    charge:    3.1239    magn:   -0.0001    constr:    0.0000
     atom:   35    charge:    1.9408    magn:   -0.0000    constr:    0.0000
     atom:   36    charge:    1.9471    magn:    0.0000    constr:    0.0000
     atom:   37    charge:    1.9471    magn:    0.0000    constr:    0.0000
     atom:   38    charge:    3.1196    magn:    0.0000    constr:    0.0000
     atom:   39    charge:    1.9550    magn:   -0.0001    constr:    0.0000
     atom:   40    charge:    1.9383    magn:   -0.0000    constr:    0.0000
     atom:   41    charge:    1.9505    magn:   -0.0000    constr:    0.0000
     atom:   42    charge:    3.1141    magn:    0.0000    constr:    0.0000
     atom:   43    charge:    1.9413    magn:   -0.0000    constr:    0.0000
     atom:   44    charge:    1.9517    magn:   -0.0001    constr:    0.0000
     atom:   45    charge:    1.9469    magn:   -0.0001    constr:    0.0000
     atom:   46    charge:    3.1165    magn:    0.0000    constr:    0.0000
     atom:   47    charge:    1.9431    magn:   -0.0000    constr:    0.0000
     atom:   48    charge:    1.9445    magn:   -0.0001    constr:    0.0000
     atom:   49    charge:    0.6564    magn:   -0.0000    constr:    0.0000
     atom:   50    charge:    1.9587    magn:   -0.0000    constr:    0.0000
     atom:   51    charge:    0.4016    magn:    0.0000    constr:    0.0000
     atom:   52    charge:    0.4008    magn:    0.0000    constr:    0.0000
     atom:   53    charge:    0.4037    magn:    0.0000    constr:    0.0000
     atom:   54    charge:    0.4014    magn:    0.0000    constr:    0.0000

     total cpu time spent up to now is     1191.2 secs

     total energy              =   -3021.41991093 Ry
     Harris-Foulkes estimate   =   -3021.42019748 Ry
     estimated scf accuracy    <       0.00095067 Ry

     total magnetization       =     0.00 Bohr mag/cell
     absolute magnetization    =     0.01 Bohr mag/cell

     iteration #  3     ecut=    40.42 Ry     beta=0.10
     Davidson diagonalization with overlap
     ethr =  2.39E-07,  avg # of iterations =  3.0

     negative rho (up, down):  1.209E-02 1.209E-02
 
     Magnetic moment per site:
     atom:    1    charge:    3.1250    magn:   -0.0001    constr:    0.0000
     atom:    2    charge:    1.9452    magn:    0.0000    constr:    0.0000
     atom:    3    charge:    3.1198    magn:    0.0000    constr:    0.0000
     atom:    4    charge:    1.9504    magn:   -0.0000    constr:    0.0000
     atom:    5    charge:    3.1166    magn:    0.0000    constr:    0.0000
     atom:    6    charge:    1.9477    magn:   -0.0001    constr:    0.0000
     atom:    7    charge:    3.1157    magn:    0.0000    constr:    0.0000
     atom:    8    charge:    1.9453    magn:   -0.0001    constr:    0.0000
     atom:    9    charge:    3.1250    magn:   -0.0001    constr:    0.0000
     atom:   10    charge:    1.9452    magn:    0.0000    constr:    0.0000
     atom:   11    charge:    3.1197    magn:    0.0000    constr:    0.0000
     atom:   12    charge:    1.9504    magn:   -0.0000    constr:    0.0000
     atom:   13    charge:    3.1158    magn:    0.0000    constr:    0.0000
     atom:   14    charge:    1.9587    magn:   -0.0001    constr:    0.0000
     atom:   15    charge:    3.1188    magn:    0.0000    constr:    0.0000
     atom:   16    charge:    1.9446    magn:   -0.0001    constr:    0.0000
     atom:   17    charge:    1.9184    magn:    0.0003    constr:    0.0000
     atom:   18    charge:    3.1239    magn:   -0.0001    constr:    0.0000
     atom:   19    charge:    1.9408    magn:   -0.0000    constr:    0.0000
     atom:   20    charge:    1.9471    magn:    0.0000    constr:    0.0000
     atom:   21    charge:    1.9471    magn:    0.0000    constr:    0.0000
     atom:   22    charge:    3.1196    magn:    0.0000    constr:    0.0000
     atom:   23    charge:    1.9566    magn:   -0.0001    constr:    0.0000
     atom:   24    charge:    1.9379    magn:   -0.0000    constr:    0.0000
     atom:   25    charge:    1.9505    magn:   -0.0000    constr:    0.0000
     atom:   26    charge:    3.1145    magn:    0.0000    constr:    0.0000
     atom:   27    charge:    1.9398    magn:   -0.0000    constr:    0.0000
     atom:   28    charge:    1.9517    magn:   -0.0000    constr:    0.0000
     atom:   29    charge:    1.9476    magn:   -0.0001    constr:    0.0000
     atom:   30    charge:    3.1167    magn:    0.0000    constr:    0.0000
     atom:   31    charge:    1.9447    magn:   -0.0000    constr:    0.0000
     atom:   32    charge:    1.9440    magn:   -0.0001    constr:    0.0000
     atom:   33    charge:    1.9184    magn:    0.0003    constr:    0.0000
     atom:   34    charge:    3.1239    magn:   -0.0001    constr:    0.0000
     atom:   35    charge:    1.9408    magn:   -0.0000    constr:    0.0000
     atom:   36    charge:    1.9471    magn:    0.0000    constr:    0.0000
     atom:   37    charge:    1.9471    magn:    0.0000    constr:    0.0000
     atom:   38    charge:    3.1196    magn:    0.0000    constr:    0.0000
     atom:   39    charge:    1.9549    magn:   -0.0001    constr:    0.0000
     atom:   40    charge:    1.9383    magn:   -0.0000    constr:    0.0000
     atom:   41    charge:    1.9505    magn:   -0.0000    constr:    0.0000
     atom:   42    charge:    3.1141    magn:    0.0000    constr:    0.0000
     atom:   43    charge:    1.9413    magn:   -0.0000    constr:    0.0000
     atom:   44    charge:    1.9518    magn:   -0.0000    constr:    0.0000
     atom:   45    charge:    1.9468    magn:   -0.0001    constr:    0.0000
     atom:   46    charge:    3.1165    magn:    0.0000    constr:    0.0000
     atom:   47    charge:    1.9431    magn:   -0.0000    constr:    0.0000
     atom:   48    charge:    1.9444    magn:   -0.0001    constr:    0.0000
     atom:   49    charge:    0.6568    magn:   -0.0000    constr:    0.0000
     atom:   50    charge:    1.9581    magn:   -0.0000    constr:    0.0000
     atom:   51    charge:    0.4017    magn:    0.0000    constr:    0.0000
     atom:   52    charge:    0.4007    magn:    0.0000    constr:    0.0000
     atom:   53    charge:    0.4037    magn:    0.0000    constr:    0.0000
     atom:   54    charge:    0.4014    magn:    0.0000    constr:    0.0000

     total cpu time spent up to now is     1401.9 secs

     total energy              =   -3021.42000443 Ry
     Harris-Foulkes estimate   =   -3021.42001815 Ry
     estimated scf accuracy    <       0.00008601 Ry

     total magnetization       =     0.00 Bohr mag/cell
     absolute magnetization    =     0.00 Bohr mag/cell

     iteration #  4     ecut=    40.42 Ry     beta=0.10
     Davidson diagonalization with overlap
     ethr =  2.16E-08,  avg # of iterations =  3.0

     negative rho (up, down):  1.209E-02 1.209E-02
 
     Magnetic moment per site:
     atom:    1    charge:    3.1250    magn:   -0.0001    constr:    0.0000
     atom:    2    charge:    1.9452    magn:    0.0000    constr:    0.0000
     atom:    3    charge:    3.1198    magn:    0.0000    constr:    0.0000
     atom:    4    charge:    1.9504    magn:   -0.0000    constr:    0.0000
     atom:    5    charge:    3.1166    magn:    0.0000    constr:    0.0000
     atom:    6    charge:    1.9477    magn:   -0.0000    constr:    0.0000
     atom:    7    charge:    3.1157    magn:    0.0000    constr:    0.0000
     atom:    8    charge:    1.9453    magn:   -0.0000    constr:    0.0000
     atom:    9    charge:    3.1250    magn:   -0.0001    constr:    0.0000
     atom:   10    charge:    1.9452    magn:    0.0000    constr:    0.0000
     atom:   11    charge:    3.1197    magn:    0.0000    constr:    0.0000
     atom:   12    charge:    1.9504    magn:   -0.0000    constr:    0.0000
     atom:   13    charge:    3.1158    magn:    0.0000    constr:    0.0000
     atom:   14    charge:    1.9587    magn:   -0.0000    constr:    0.0000
     atom:   15    charge:    3.1188    magn:    0.0000    constr:    0.0000
     atom:   16    charge:    1.9446    magn:   -0.0000    constr:    0.0000
     atom:   17    charge:    1.9184    magn:    0.0002    constr:    0.0000
     atom:   18    charge:    3.1239    magn:   -0.0000    constr:    0.0000
     atom:   19    charge:    1.9408    magn:   -0.0000    constr:    0.0000
     atom:   20    charge:    1.9471    magn:    0.0000    constr:    0.0000
     atom:   21    charge:    1.9471    magn:    0.0000    constr:    0.0000
     atom:   22    charge:    3.1196    magn:    0.0000    constr:    0.0000
     atom:   23    charge:    1.9566    magn:   -0.0000    constr:    0.0000
     atom:   24    charge:    1.9379    magn:   -0.0000    constr:    0.0000
     atom:   25    charge:    1.9505    magn:   -0.0000    constr:    0.0000
     atom:   26    charge:    3.1145    magn:    0.0000    constr:    0.0000
     atom:   27    charge:    1.9398    magn:   -0.0000    constr:    0.0000
     atom:   28    charge:    1.9517    magn:   -0.0000    constr:    0.0000
     atom:   29    charge:    1.9476    magn:   -0.0000    constr:    0.0000
     atom:   30    charge:    3.1167    magn:    0.0000    constr:    0.0000
     atom:   31    charge:    1.9447    magn:   -0.0000    constr:    0.0000
     atom:   32    charge:    1.9440    magn:   -0.0000    constr:    0.0000
     atom:   33    charge:    1.9184    magn:    0.0002    constr:    0.0000
     atom:   34    charge:    3.1239    magn:   -0.0000    constr:    0.0000
     atom:   35    charge:    1.9408    magn:   -0.0000    constr:    0.0000
     atom:   36    charge:    1.9471    magn:    0.0000    constr:    0.0000
     atom:   37    charge:    1.9471    magn:    0.0000    constr:    0.0000
     atom:   38    charge:    3.1196    magn:    0.0000    constr:    0.0000
     atom:   39    charge:    1.9549    magn:   -0.0000    constr:    0.0000
     atom:   40    charge:    1.9383    magn:   -0.0000    constr:    0.0000
     atom:   41    charge:    1.9505    magn:   -0.0000    constr:    0.0000
     atom:   42    charge:    3.1141    magn:    0.0000    constr:    0.0000
     atom:   43    charge:    1.9413    magn:   -0.0000    constr:    0.0000
     atom:   44    charge:    1.9517    magn:   -0.0000    constr:    0.0000
     atom:   45    charge:    1.9468    magn:   -0.0000    constr:    0.0000
     atom:   46    charge:    3.1165    magn:    0.0000    constr:    0.0000
     atom:   47    charge:    1.9431    magn:   -0.0000    constr:    0.0000
     atom:   48    charge:    1.9444    magn:   -0.0000    constr:    0.0000
     atom:   49    charge:    0.6570    magn:   -0.0000    constr:    0.0000
     atom:   50    charge:    1.9579    magn:   -0.0000    constr:    0.0000
     atom:   51    charge:    0.4017    magn:    0.0000    constr:    0.0000
     atom:   52    charge:    0.4007    magn:    0.0000    constr:    0.0000
     atom:   53    charge:    0.4036    magn:    0.0000    constr:    0.0000
     atom:   54    charge:    0.4014    magn:    0.0000    constr:    0.0000

     total cpu time spent up to now is     1610.1 secs

     total energy              =   -3021.42001164 Ry
     Harris-Foulkes estimate   =   -3021.42000904 Ry
     estimated scf accuracy    <       0.00003156 Ry

     total magnetization       =     0.00 Bohr mag/cell
     absolute magnetization    =     0.00 Bohr mag/cell

     iteration #  5     ecut=    40.42 Ry     beta=0.10
     Davidson diagonalization with overlap
     ethr =  7.93E-09,  avg # of iterations =  3.0

     negative rho (up, down):  1.209E-02 1.209E-02
 
     Magnetic moment per site:
     atom:    1    charge:    3.1250    magn:   -0.0001    constr:    0.0000
     atom:    2    charge:    1.9452    magn:    0.0000    constr:    0.0000
     atom:    3    charge:    3.1198    magn:    0.0000    constr:    0.0000
     atom:    4    charge:    1.9504    magn:   -0.0000    constr:    0.0000
     atom:    5    charge:    3.1166    magn:    0.0000    constr:    0.0000
     atom:    6    charge:    1.9476    magn:   -0.0000    constr:    0.0000
     atom:    7    charge:    3.1157    magn:    0.0000    constr:    0.0000
     atom:    8    charge:    1.9452    magn:   -0.0000    constr:    0.0000
     atom:    9    charge:    3.1250    magn:   -0.0001    constr:    0.0000
     atom:   10    charge:    1.9452    magn:    0.0000    constr:    0.0000
     atom:   11    charge:    3.1197    magn:    0.0000    constr:    0.0000
     atom:   12    charge:    1.9504    magn:   -0.0000    constr:    0.0000
     atom:   13    charge:    3.1158    magn:    0.0000    constr:    0.0000
     atom:   14    charge:    1.9587    magn:   -0.0000    constr:    0.0000
     atom:   15    charge:    3.1188    magn:    0.0000    constr:    0.0000
     atom:   16    charge:    1.9445    magn:   -0.0000    constr:    0.0000
     atom:   17    charge:    1.9184    magn:    0.0002    constr:    0.0000
     atom:   18    charge:    3.1239    magn:   -0.0000    constr:    0.0000
     atom:   19    charge:    1.9408    magn:   -0.0000    constr:    0.0000
     atom:   20    charge:    1.9471    magn:    0.0000    constr:    0.0000
     atom:   21    charge:    1.9471    magn:    0.0000    constr:    0.0000
     atom:   22    charge:    3.1196    magn:    0.0000    constr:    0.0000
     atom:   23    charge:    1.9566    magn:   -0.0000    constr:    0.0000
     atom:   24    charge:    1.9379    magn:   -0.0000    constr:    0.0000
     atom:   25    charge:    1.9505    magn:   -0.0000    constr:    0.0000
     atom:   26    charge:    3.1145    magn:    0.0000    constr:    0.0000
     atom:   27    charge:    1.9398    magn:   -0.0000    constr:    0.0000
     atom:   28    charge:    1.9517    magn:   -0.0000    constr:    0.0000
     atom:   29    charge:    1.9476    magn:   -0.0000    constr:    0.0000
     atom:   30    charge:    3.1167    magn:    0.0000    constr:    0.0000
     atom:   31    charge:    1.9447    magn:   -0.0000    constr:    0.0000
     atom:   32    charge:    1.9440    magn:   -0.0000    constr:    0.0000
     atom:   33    charge:    1.9184    magn:    0.0002    constr:    0.0000
     atom:   34    charge:    3.1239    magn:   -0.0000    constr:    0.0000
     atom:   35    charge:    1.9408    magn:   -0.0000    constr:    0.0000
     atom:   36    charge:    1.9471    magn:    0.0000    constr:    0.0000
     atom:   37    charge:    1.9471    magn:    0.0000    constr:    0.0000
     atom:   38    charge:    3.1196    magn:    0.0000    constr:    0.0000
     atom:   39    charge:    1.9549    magn:   -0.0000    constr:    0.0000
     atom:   40    charge:    1.9383    magn:   -0.0000    constr:    0.0000
     atom:   41    charge:    1.9505    magn:   -0.0000    constr:    0.0000
     atom:   42    charge:    3.1141    magn:    0.0000    constr:    0.0000
     atom:   43    charge:    1.9413    magn:   -0.0000    constr:    0.0000
     atom:   44    charge:    1.9517    magn:   -0.0000    constr:    0.0000
     atom:   45    charge:    1.9468    magn:   -0.0000    constr:    0.0000
     atom:   46    charge:    3.1165    magn:    0.0000    constr:    0.0000
     atom:   47    charge:    1.9431    magn:   -0.0000    constr:    0.0000
     atom:   48    charge:    1.9444    magn:   -0.0000    constr:    0.0000
     atom:   49    charge:    0.6574    magn:   -0.0000    constr:    0.0000
     atom:   50    charge:    1.9577    magn:   -0.0000    constr:    0.0000
     atom:   51    charge:    0.4019    magn:    0.0000    constr:    0.0000
     atom:   52    charge:    0.4006    magn:    0.0000    constr:    0.0000
     atom:   53    charge:    0.4035    magn:    0.0000    constr:    0.0000
     atom:   54    charge:    0.4014    magn:    0.0000    constr:    0.0000

     total cpu time spent up to now is     1817.3 secs

     total energy              =   -3021.42000857 Ry
     Harris-Foulkes estimate   =   -3021.42001274 Ry
     estimated scf accuracy    <       0.00001205 Ry

     total magnetization       =     0.00 Bohr mag/cell
     absolute magnetization    =     0.00 Bohr mag/cell

     iteration #  6     ecut=    40.42 Ry     beta=0.10
     Davidson diagonalization with overlap
     ethr =  3.03E-09,  avg # of iterations =  4.0

     negative rho (up, down):  1.209E-02 1.209E-02
 
     Magnetic moment per site:
     atom:    1    charge:    3.1250    magn:   -0.0001    constr:    0.0000
     atom:    2    charge:    1.9452    magn:    0.0000    constr:    0.0000
     atom:    3    charge:    3.1198    magn:    0.0000    constr:    0.0000
     atom:    4    charge:    1.9504    magn:   -0.0000    constr:    0.0000
     atom:    5    charge:    3.1166    magn:    0.0000    constr:    0.0000
     atom:    6    charge:    1.9476    magn:   -0.0000    constr:    0.0000
     atom:    7    charge:    3.1157    magn:    0.0000    constr:    0.0000
     atom:    8    charge:    1.9452    magn:   -0.0000    constr:    0.0000
     atom:    9    charge:    3.1250    magn:   -0.0001    constr:    0.0000
     atom:   10    charge:    1.9452    magn:    0.0000    constr:    0.0000
     atom:   11    charge:    3.1197    magn:    0.0000    constr:    0.0000
     atom:   12    charge:    1.9504    magn:   -0.0000    constr:    0.0000
     atom:   13    charge:    3.1158    magn:    0.0000    constr:    0.0000
     atom:   14    charge:    1.9587    magn:   -0.0000    constr:    0.0000
     atom:   15    charge:    3.1188    magn:    0.0000    constr:    0.0000
     atom:   16    charge:    1.9445    magn:   -0.0000    constr:    0.0000
     atom:   17    charge:    1.9184    magn:    0.0001    constr:    0.0000
     atom:   18    charge:    3.1239    magn:   -0.0000    constr:    0.0000
     atom:   19    charge:    1.9408    magn:   -0.0000    constr:    0.0000
     atom:   20    charge:    1.9471    magn:    0.0000    constr:    0.0000
     atom:   21    charge:    1.9471    magn:    0.0000    constr:    0.0000
     atom:   22    charge:    3.1196    magn:    0.0000    constr:    0.0000
     atom:   23    charge:    1.9566    magn:   -0.0000    constr:    0.0000
     atom:   24    charge:    1.9379    magn:   -0.0000    constr:    0.0000
     atom:   25    charge:    1.9505    magn:   -0.0000    constr:    0.0000
     atom:   26    charge:    3.1145    magn:    0.0000    constr:    0.0000
     atom:   27    charge:    1.9398    magn:   -0.0000    constr:    0.0000
     atom:   28    charge:    1.9517    magn:   -0.0000    constr:    0.0000
     atom:   29    charge:    1.9476    magn:   -0.0000    constr:    0.0000
     atom:   30    charge:    3.1167    magn:    0.0000    constr:    0.0000
     atom:   31    charge:    1.9447    magn:   -0.0000    constr:    0.0000
     atom:   32    charge:    1.9440    magn:   -0.0000    constr:    0.0000
     atom:   33    charge:    1.9184    magn:    0.0001    constr:    0.0000
     atom:   34    charge:    3.1239    magn:   -0.0000    constr:    0.0000
     atom:   35    charge:    1.9408    magn:   -0.0000    constr:    0.0000
     atom:   36    charge:    1.9471    magn:    0.0000    constr:    0.0000
     atom:   37    charge:    1.9471    magn:    0.0000    constr:    0.0000
     atom:   38    charge:    3.1196    magn:    0.0000    constr:    0.0000
     atom:   39    charge:    1.9549    magn:   -0.0000    constr:    0.0000
     atom:   40    charge:    1.9383    magn:   -0.0000    constr:    0.0000
     atom:   41    charge:    1.9505    magn:   -0.0000    constr:    0.0000
     atom:   42    charge:    3.1141    magn:    0.0000    constr:    0.0000
     atom:   43    charge:    1.9413    magn:   -0.0000    constr:    0.0000
     atom:   44    charge:    1.9517    magn:   -0.0000    constr:    0.0000
     atom:   45    charge:    1.9468    magn:   -0.0000    constr:    0.0000
     atom:   46    charge:    3.1165    magn:    0.0000    constr:    0.0000
     atom:   47    charge:    1.9431    magn:   -0.0000    constr:    0.0000
     atom:   48    charge:    1.9444    magn:   -0.0000    constr:    0.0000
     atom:   49    charge:    0.6573    magn:   -0.0000    constr:    0.0000
     atom:   50    charge:    1.9579    magn:   -0.0000    constr:    0.0000
     atom:   51    charge:    0.4020    magn:    0.0000    constr:    0.0000
     atom:   52    charge:    0.4006    magn:    0.0000    constr:    0.0000
     atom:   53    charge:    0.4035    magn:    0.0000    constr:    0.0000
     atom:   54    charge:    0.4014    magn:    0.0000    constr:    0.0000

     total cpu time spent up to now is     2046.1 secs

     total energy              =   -3021.42001056 Ry
     Harris-Foulkes estimate   =   -3021.42001106 Ry
     estimated scf accuracy    <       0.00000315 Ry

     total magnetization       =     0.00 Bohr mag/cell
     absolute magnetization    =     0.00 Bohr mag/cell

     iteration #  7     ecut=    40.42 Ry     beta=0.10
     Davidson diagonalization with overlap
     ethr =  7.92E-10,  avg # of iterations =  3.0

     negative rho (up, down):  1.209E-02 1.209E-02
 
     Magnetic moment per site:
     atom:    1    charge:    3.1250    magn:   -0.0000    constr:    0.0000
     atom:    2    charge:    1.9451    magn:    0.0000    constr:    0.0000
     atom:    3    charge:    3.1198    magn:    0.0000    constr:    0.0000
     atom:    4    charge:    1.9504    magn:   -0.0000    constr:    0.0000
     atom:    5    charge:    3.1166    magn:    0.0000    constr:    0.0000
     atom:    6    charge:    1.9477    magn:   -0.0000    constr:    0.0000
     atom:    7    charge:    3.1157    magn:    0.0000    constr:    0.0000
     atom:    8    charge:    1.9452    magn:   -0.0000    constr:    0.0000
     atom:    9    charge:    3.1250    magn:   -0.0000    constr:    0.0000
     atom:   10    charge:    1.9452    magn:    0.0000    constr:    0.0000
     atom:   11    charge:    3.1197    magn:    0.0000    constr:    0.0000
     atom:   12    charge:    1.9504    magn:   -0.0000    constr:    0.0000
     atom:   13    charge:    3.1158    magn:    0.0000    constr:    0.0000
     atom:   14    charge:    1.9587    magn:   -0.0000    constr:    0.0000
     atom:   15    charge:    3.1188    magn:    0.0000    constr:    0.0000
     atom:   16    charge:    1.9446    magn:   -0.0000    constr:    0.0000
     atom:   17    charge:    1.9184    magn:    0.0001    constr:    0.0000
     atom:   18    charge:    3.1239    magn:   -0.0000    constr:    0.0000
     atom:   19    charge:    1.9408    magn:   -0.0000    constr:    0.0000
     atom:   20    charge:    1.9471    magn:    0.0000    constr:    0.0000
     atom:   21    charge:    1.9471    magn:    0.0000    constr:    0.0000
     atom:   22    charge:    3.1196    magn:    0.0000    constr:    0.0000
     atom:   23    charge:    1.9566    magn:   -0.0000    constr:    0.0000
     atom:   24    charge:    1.9379    magn:   -0.0000    constr:    0.0000
     atom:   25    charge:    1.9505    magn:   -0.0000    constr:    0.0000
     atom:   26    charge:    3.1145    magn:    0.0000    constr:    0.0000
     atom:   27    charge:    1.9398    magn:   -0.0000    constr:    0.0000
     atom:   28    charge:    1.9517    magn:   -0.0000    constr:    0.0000
     atom:   29    charge:    1.9476    magn:   -0.0000    constr:    0.0000
     atom:   30    charge:    3.1167    magn:    0.0000    constr:    0.0000
     atom:   31    charge:    1.9447    magn:   -0.0000    constr:    0.0000
     atom:   32    charge:    1.9440    magn:   -0.0000    constr:    0.0000
     atom:   33    charge:    1.9184    magn:    0.0001    constr:    0.0000
     atom:   34    charge:    3.1239    magn:   -0.0000    constr:    0.0000
     atom:   35    charge:    1.9408    magn:   -0.0000    constr:    0.0000
     atom:   36    charge:    1.9471    magn:    0.0000    constr:    0.0000
     atom:   37    charge:    1.9471    magn:    0.0000    constr:    0.0000
     atom:   38    charge:    3.1196    magn:    0.0000    constr:    0.0000
     atom:   39    charge:    1.9549    magn:   -0.0000    constr:    0.0000
     atom:   40    charge:    1.9383    magn:   -0.0000    constr:    0.0000
     atom:   41    charge:    1.9505    magn:   -0.0000    constr:    0.0000
     atom:   42    charge:    3.1141    magn:    0.0000    constr:    0.0000
     atom:   43    charge:    1.9413    magn:   -0.0000    constr:    0.0000
     atom:   44    charge:    1.9517    magn:   -0.0000    constr:    0.0000
     atom:   45    charge:    1.9469    magn:   -0.0000    constr:    0.0000
     atom:   46    charge:    3.1165    magn:    0.0000    constr:    0.0000
     atom:   47    charge:    1.9431    magn:   -0.0000    constr:    0.0000
     atom:   48    charge:    1.9444    magn:   -0.0000    constr:    0.0000
     atom:   49    charge:    0.6571    magn:   -0.0000    constr:    0.0000
     atom:   50    charge:    1.9581    magn:   -0.0000    constr:    0.0000
     atom:   51    charge:    0.4019    magn:    0.0000    constr:    0.0000
     atom:   52    charge:    0.4006    magn:    0.0000    constr:    0.0000
     atom:   53    charge:    0.4035    magn:    0.0000    constr:    0.0000
     atom:   54    charge:    0.4014    magn:    0.0000    constr:    0.0000

     total cpu time spent up to now is     2255.3 secs

     End of self-consistent calculation

 ------ SPIN UP ------------


          k = 0.0000 0.0000 0.0000 ( 34665 PWs)   bands (ev):

   -57.6985 -57.6635 -57.3174 -57.2811 -57.2322 -57.1095 -57.0731 -57.0722
   -57.0504 -57.0374 -56.9901 -56.9546 -56.7310 -56.6935 -56.1490 -56.1138
   -34.1346 -33.9807 -33.9522 -33.8995 -33.8697 -33.8052 -33.7447 -33.6530
   -33.6181 -33.6049 -33.5675 -33.5404 -33.5185 -33.5074 -33.4895 -33.4850
   -33.4645 -33.4540 -33.4307 -33.3986 -33.3239 -33.2918 -33.2716 -33.2623
   -33.2546 -33.2541 -33.2435 -33.2429 -33.2369 -33.2294 -33.2289 -33.2123
   -33.1803 -33.1800 -33.1745 -33.1409 -33.1183 -32.9971 -32.9788 -32.9579
   -32.9086 -32.8058 -32.5668 -32.5014 -32.4753 -32.3710 -32.2794 -32.1711
   -20.2987 -18.0124 -17.8411 -17.5568 -17.4617 -17.3726 -17.2516 -17.0774
   -17.0661 -16.9743 -16.9385 -16.8840 -16.7839 -16.7775 -16.7290 -16.7072
   -16.7035 -16.6624 -16.6109 -16.6043 -16.5358 -16.4154 -16.4029 -16.3979
   -16.3212 -16.2676 -16.1945 -16.1673 -16.1498 -15.9799 -15.9299 -14.7336
   -14.6500 -11.4511  -7.2340  -5.4732  -5.3955  -5.3181  -5.2058  -5.1822
    -5.1451  -5.1268  -4.8390  -4.8163  -4.4718  -4.4427  -4.3590  -4.3553
    -4.3219  -4.2324  -4.0897  -4.0611  -4.0555  -4.0176  -3.9991  -3.9910
    -3.9604  -3.9520  -3.9507  -3.8398  -3.7880  -3.7656  -3.7372  -3.7196
    -3.6323  -3.6168  -3.5868  -3.5776  -3.5197  -3.5079  -3.4086  -3.3952
    -3.3759  -3.2789  -3.2397  -3.1928  -3.0133  -2.9356  -2.8786  -2.8348
    -2.6950  -2.6070  -2.5897  -2.5798  -2.5759  -2.5684  -2.4318  -2.4142
    -2.3358  -2.2689  -2.2470  -2.2046  -2.2002  -2.1646  -2.1385  -2.0927
    -2.0476  -2.0282  -2.0200  -1.8869  -1.8654  -1.7595  -1.7358  -1.6239
    -1.5428  -1.5407  -1.4899  -1.4806  -1.4627  -1.4233  -1.3242  -1.3092
    -1.3019  -1.2796  -1.2426  -1.1354  -1.0865  -1.0754  -1.0670  -1.0195
    -0.9543  -0.9155  -0.8169  -0.7627  -0.6102  -0.5873  -0.5690  -0.4792
    -0.3762  -0.2420  -0.0846  -0.0263   0.1315   0.2484   0.2620   1.6430
     1.6754   1.9859   2.0024   2.0656   2.0955   2.2052   2.2442   2.2872
     2.4302   2.4975   2.5262   2.5311   2.5423   2.6313   2.6494   2.6576
     2.7155   2.7998   2.8271   2.8391   2.9111   3.0000   3.0334   3.0995
     3.1056   3.1144   3.1614   3.2024   3.2084   3.2269   3.2401   3.2515
     3.2610   3.2892   3.3966   3.4320   3.4568   3.4664   3.5287   3.5859
     3.6532   3.6952   3.8080   3.9812   4.0164   4.0917   4.1803   4.3206
     4.3386   4.3922   4.5844   4.5995   4.8106   4.8387   5.0874   5.1670
     5.2462   5.3310   5.4788   5.5178   5.5267   5.5933   5.6781   5.7121
     5.8002   5.8655   5.8767   5.8867   5.9550   6.0393   6.0484   6.0724
     6.1449   6.2294   6.2437   6.2972   6.3785   6.5823   6.6363   6.7572
     6.8413   7.0115   7.0408   7.1622   7.3027   7.5750   7.9044   8.2530
     8.3202   8.6774   8.7949   8.8725   8.9387   9.0080   9.1753   9.2507
     9.3524   9.3810   9.5277

          k = 0.0000 0.0280 0.0000 ( 34717 PWs)   bands (ev):

   -57.6961 -57.6659 -57.3150 -57.2836 -57.2318 -57.1072 -57.0752 -57.0701
   -57.0508 -57.0398 -56.9877 -56.9570 -56.7286 -56.6960 -56.1467 -56.1161
   -34.1092 -33.9787 -33.9540 -33.8933 -33.8438 -33.8117 -33.7717 -33.6303
   -33.6113 -33.5800 -33.5421 -33.5375 -33.5203 -33.5005 -33.4922 -33.4842
   -33.4712 -33.4616 -33.4287 -33.3917 -33.3178 -33.2900 -33.2853 -33.2638
   -33.2587 -33.2521 -33.2503 -33.2394 -33.2377 -33.2359 -33.2356 -33.2180
   -33.2024 -33.1852 -33.1771 -33.1448 -33.1416 -32.9932 -32.9774 -32.9592
   -32.9136 -32.8338 -32.5412 -32.4996 -32.4771 -32.3649 -32.2857 -32.1985
   -20.2986 -17.9506 -17.7835 -17.5038 -17.4095 -17.3289 -17.2249 -17.0913
   -17.0358 -16.9981 -16.9927 -16.8857 -16.8194 -16.7614 -16.7070 -16.6892
   -16.6757 -16.6649 -16.6566 -16.6416 -16.5948 -16.4393 -16.3843 -16.3680
   -16.3478 -16.2971 -16.2116 -16.1740 -16.1534 -16.0107 -15.9669 -14.7437
   -14.6734 -11.4508  -7.2337  -5.4394  -5.3146  -5.2564  -5.1857  -5.1303
    -5.0682  -5.0473  -4.7634  -4.7025  -4.4355  -4.4002  -4.3938  -4.3119
    -4.3013  -4.1597  -4.1239  -4.1138  -4.0914  -4.0704  -4.0324  -4.0307
    -3.9656  -3.9612  -3.9498  -3.8909  -3.8531  -3.8467  -3.8379  -3.7666
    -3.7217  -3.7062  -3.6656  -3.6157  -3.5752  -3.5574  -3.4314  -3.3612
    -3.3188  -3.2357  -3.2110  -3.1048  -2.9341  -2.8712  -2.7470  -2.7247
    -2.6135  -2.6005  -2.5252  -2.5097  -2.4779  -2.4405  -2.4119  -2.4075
    -2.3864  -2.3616  -2.2880  -2.2766  -2.1676  -2.1422  -2.1361  -2.0942
    -2.0220  -1.9967  -1.9536  -1.8768  -1.8103  -1.7657  -1.7068  -1.6819
    -1.6426  -1.6256  -1.5636  -1.5255  -1.4816  -1.4380  -1.4353  -1.3959
    -1.3550  -1.2711  -1.2180  -1.2130  -1.1580  -1.0887  -1.0668  -1.0219
    -1.0079  -0.9043  -0.8638  -0.7904  -0.7599  -0.7063  -0.6080  -0.5910
    -0.3945  -0.2701  -0.0914  -0.0805   0.1464   0.2020   0.2286   1.7293
     1.7752   1.9862   2.0653   2.1307   2.1518   2.2188   2.2744   2.3132
     2.4247   2.4615   2.4994   2.5356   2.5862   2.6034   2.6306   2.6919
     2.7329   2.7708   2.7971   2.9124   2.9227   2.9514   2.9761   3.0103
     3.1114   3.1168   3.1349   3.1752   3.1927   3.2055   3.2584   3.3044
     3.3357   3.3711   3.4071   3.4736   3.5066   3.5521   3.5617   3.6493
     3.6650   3.6856   3.7716   3.9598   4.0341   4.1143   4.1914   4.2862
     4.3235   4.3971   4.5412   4.6874   4.8641   4.9253   5.0912   5.2587
     5.3044   5.3355   5.5376   5.5675   5.6035   5.6240   5.6860   5.7203
     5.7846   5.7927   5.8517   5.8780   5.8992   5.9481   6.0693   6.1233
     6.1498   6.1575   6.1757   6.2070   6.2755   6.5586   6.6030   6.6949
     6.8475   6.9494   6.9821   7.0830   7.2314   7.5795   7.9156   8.0071
     8.0605   8.4554   8.5611   8.8345   8.9088   8.9977   9.0878   9.1317
     9.2691   9.4354   9.4859

          k = 0.0000 0.0560 0.0000 ( 34721 PWs)   bands (ev):

   -57.6898 -57.6723 -57.3085 -57.2901 -57.2310 -57.1012 -57.0813 -57.0637
   -57.0517 -57.0462 -56.9812 -56.9635 -56.7219 -56.7027 -56.1402 -56.1226
   -34.0394 -33.9734 -33.9591 -33.8762 -33.8447 -33.8291 -33.7727 -33.5957
   -33.5726 -33.5716 -33.5345 -33.5271 -33.5061 -33.5038 -33.4762 -33.4720
   -33.4560 -33.4258 -33.4188 -33.3722 -33.3157 -33.3127 -33.3126 -33.3013
   -33.2857 -33.2760 -33.2675 -33.2634 -33.2531 -33.2463 -33.2339 -33.2318
   -33.2101 -33.1982 -33.1706 -33.1652 -33.1267 -32.9881 -32.9739 -32.9625
   -32.9266 -32.9034 -32.4949 -32.4819 -32.4704 -32.3484 -32.3025 -32.2727
   -20.2983 -17.7795 -17.6249 -17.3724 -17.2757 -17.2600 -17.2188 -17.1667
   -17.1360 -16.9623 -16.9530 -16.9184 -16.8736 -16.8195 -16.7882 -16.7254
   -16.7158 -16.6839 -16.6249 -16.5967 -16.5401 -16.5047 -16.4226 -16.3778
   -16.3625 -16.3017 -16.2407 -16.1950 -16.1570 -16.1113 -16.0398 -14.7619
   -14.7240 -11.4500  -7.2327  -5.4082  -5.1983  -5.0762  -5.0379  -4.9242
    -4.8583  -4.8243  -4.5617  -4.5058  -4.4730  -4.4174  -4.4093  -4.3665
    -4.3315  -4.2597  -4.2347  -4.2117  -4.1960  -4.1865  -4.1561  -4.0754
    -4.0575  -4.0059  -3.9872  -3.9686  -3.9304  -3.8911  -3.8565  -3.8183
    -3.7971  -3.7313  -3.6357  -3.5857  -3.4337  -3.4270  -3.3502  -3.2684
    -3.2389  -3.2128  -3.1932  -3.0829  -2.8966  -2.8436  -2.8379  -2.7986
    -2.7217  -2.6682  -2.5478  -2.4731  -2.4438  -2.3219  -2.3161  -2.3111
    -2.3033  -2.2492  -2.2070  -2.1792  -2.1477  -2.1172  -2.0316  -2.0102
    -1.9604  -1.9473  -1.9173  -1.9049  -1.8831  -1.8486  -1.8168  -1.7827
    -1.7447  -1.6943  -1.6249  -1.5419  -1.5272  -1.5096  -1.4558  -1.4198
    -1.3804  -1.3646  -1.3504  -1.2904  -1.2385  -1.2171  -1.1552  -1.1008
    -1.0784  -1.0236  -0.9215  -0.8884  -0.8506  -0.7847  -0.7630  -0.6600
    -0.5869  -0.4631  -0.2420   0.0913   0.1436   0.1786   0.1853   1.8649
     2.0249   2.0978   2.1093   2.2098   2.2346   2.2695   2.3665   2.3893
     2.3960   2.4113   2.4343   2.4762   2.5034   2.5381   2.6743   2.6953
     2.7340   2.7753   2.8303   2.9037   2.9154   2.9380   2.9718   2.9731
     3.0151   3.0985   3.1375   3.1571   3.2501   3.2616   3.2862   3.3294
     3.3682   3.3863   3.4406   3.5373   3.5435   3.6362   3.6768   3.7268
     3.7599   3.8232   3.8578   3.8901   3.9314   4.1304   4.1417   4.1585
     4.3271   4.3757   4.5647   4.9062   5.0157   5.0599   5.1742   5.3785
     5.3820   5.4782   5.5181   5.5496   5.6481   5.7228   5.7242   5.7332
     5.7793   5.7876   5.7993   5.8562   5.8852   5.9464   5.9777   5.9901
     6.0012   6.0547   6.1554   6.1709   6.3061   6.3732   6.4101   6.6156
     6.6599   6.7811   6.8686   7.0428   7.2158   7.3347   7.4438   7.7240
     8.0801   8.1957   8.3398   8.6171   8.8813   8.9912   9.3108   9.3318
     9.4284   9.4409   9.5631

          k = 0.0000-0.0840 0.0000 ( 34678 PWs)   bands (ev):

   -57.6811 -57.6809 -57.3010 -57.2977 -57.2306 -57.0957 -57.0868 -57.0550
   -57.0550 -57.0521 -56.9729 -56.9719 -56.7149 -56.7097 -56.1314 -56.1314
   -33.9663 -33.9661 -33.9429 -33.9427 -33.8528 -33.8527 -33.6859 -33.6619
   -33.5658 -33.5623 -33.5284 -33.5178 -33.5134 -33.4765 -33.4531 -33.4236
   -33.4138 -33.4073 -33.3749 -33.3747 -33.3622 -33.3468 -33.3410 -33.3241
   -33.3228 -33.2846 -33.2778 -33.2757 -33.2689 -33.2668 -33.2324 -33.2306
   -33.2156 -33.2138 -33.1637 -33.1629 -33.0495 -33.0287 -32.9708 -32.9653
   -32.9405 -32.9374 -32.4883 -32.4883 -32.3725 -32.3725 -32.3254 -32.3254
   -20.2981 -17.5689 -17.5052 -17.4101 -17.3898 -17.2291 -17.1752 -17.0658
   -17.0616 -17.0158 -17.0030 -16.9894 -16.8718 -16.8394 -16.8394 -16.8007
   -16.7941 -16.5962 -16.5942 -16.5255 -16.5232 -16.4883 -16.4869 -16.4048
   -16.4027 -16.2629 -16.2608 -16.2010 -16.1970 -16.1325 -16.1020 -14.7607
   -14.7606 -11.4496  -7.2322  -5.4002  -5.2033  -4.7995  -4.7331  -4.7320
    -4.6560  -4.6422  -4.6376  -4.6017  -4.5739  -4.5095  -4.5025  -4.4005
    -4.3732  -4.3391  -4.3375  -4.3084  -4.2953  -4.2801  -4.2747  -4.0546
    -4.0330  -4.0236  -4.0106  -3.9923  -3.9427  -3.8098  -3.7940  -3.7895
    -3.7151  -3.6945  -3.6399  -3.5090  -3.4730  -3.3399  -3.3266  -3.2630
    -3.1384  -3.1164  -3.0437  -3.0194  -2.9628  -2.9277  -2.8050  -2.7884
    -2.6978  -2.6937  -2.5767  -2.5392  -2.5130  -2.4950  -2.4797  -2.4472
    -2.4385  -2.4187  -2.3300  -2.2452  -2.0275  -2.0071  -1.9668  -1.9402
    -1.9274  -1.8290  -1.8224  -1.8089  -1.7822  -1.7449  -1.7309  -1.6999
    -1.6650  -1.6403  -1.6144  -1.5585  -1.5155  -1.4875  -1.4810  -1.4530
    -1.4249  -1.4174  -1.4097  -1.3821  -1.3591  -1.3262  -1.2189  -1.1883
    -1.0990  -1.0731  -1.0053  -0.9776  -0.9704  -0.9600  -0.9403  -0.5241
    -0.5189  -0.4568  -0.4427   0.1436   0.1437   0.1863   0.1880   2.0393
     2.0425   2.2187   2.2201   2.2209   2.2369   2.2849   2.3399   2.3473
     2.3474   2.3726   2.3833   2.5278   2.5541   2.5551   2.6011   2.6643
     2.7152   2.7372   2.7502   2.8916   2.9227   2.9899   2.9975   3.0571
     3.0583   3.1021   3.1128   3.1802   3.2183   3.2333   3.2461   3.4039
     3.4263   3.4373   3.4400   3.4730   3.4838   3.7248   3.7656   3.8040
     3.8073   3.8320   3.9091   3.9314   3.9686   4.0737   4.0761   4.1260
     4.1267   4.4183   4.6731   4.9605   5.0008   5.2603   5.3305   5.4575
     5.4891   5.5086   5.5086   5.5718   5.5998   5.6469   5.6653   5.6712
     5.7990   5.8041   5.8262   5.8519   5.8621   5.8669   5.8833   5.9738
     6.0200   6.0590   6.0715   6.1591   6.1964   6.4044   6.4667   6.5645
     6.6043   6.7460   6.7724   6.9796   7.0316   7.1021   7.3271   7.7030
     7.8746   8.1580   8.4081   8.7840   8.8382   8.8604   9.1455   9.6918
     9.7025   9.7466   9.7939

          k = 0.0253 0.0000 0.0000 ( 34707 PWs)   bands (ev):

   -57.6985 -57.6635 -57.3174 -57.2811 -57.2322 -57.1095 -57.0731 -57.0723
   -57.0504 -57.0374 -56.9901 -56.9546 -56.7310 -56.6935 -56.1490 -56.1138
   -34.1349 -33.9807 -33.9522 -33.8988 -33.8698 -33.8052 -33.7448 -33.6537
   -33.6181 -33.6066 -33.5677 -33.5370 -33.5323 -33.5082 -33.4850 -33.4747
   -33.4632 -33.4540 -33.4307 -33.3917 -33.3238 -33.2919 -33.2713 -33.2623
   -33.2583 -33.2572 -33.2441 -33.2410 -33.2397 -33.2294 -33.2290 -33.2121
   -33.1802 -33.1800 -33.1748 -33.1409 -33.1184 -32.9971 -32.9812 -32.9570
   -32.9086 -32.8059 -32.5668 -32.5024 -32.4748 -32.3710 -32.2794 -32.1712
   -20.2985 -17.9826 -17.8012 -17.5144 -17.4328 -17.3559 -17.2582 -17.1442
   -17.0920 -16.9751 -16.9381 -16.8711 -16.8186 -16.8055 -16.7893 -16.7801
   -16.7297 -16.6925 -16.5563 -16.5338 -16.4537 -16.4523 -16.4038 -16.3698
   -16.3387 -16.3122 -16.1831 -16.1651 -16.1511 -15.9797 -15.9296 -14.7325
   -14.6498 -11.4499  -7.2313  -5.4685  -5.3086  -5.2644  -5.1812  -5.0973
    -5.0441  -5.0163  -4.8336  -4.8117  -4.6177  -4.4688  -4.4354  -4.3304
    -4.3111  -4.3012  -4.2474  -4.1000  -4.0364  -4.0326  -3.9962  -3.9446
    -3.9375  -3.9097  -3.8303  -3.8012  -3.7509  -3.7204  -3.6946  -3.6918
    -3.6206  -3.5978  -3.5698  -3.5623  -3.5163  -3.4476  -3.3432  -3.3101
    -3.2520  -3.2383  -3.1851  -3.1061  -3.0336  -2.9763  -2.9242  -2.8957
    -2.7518  -2.6736  -2.6325  -2.6001  -2.5790  -2.5299  -2.5194  -2.5034
    -2.4317  -2.3351  -2.3221  -2.2364  -2.2206  -2.1817  -2.1566  -2.0704
    -2.0091  -1.9996  -1.9628  -1.8825  -1.8484  -1.7528  -1.7394  -1.6505
    -1.5850  -1.5816  -1.5376  -1.4633  -1.4576  -1.3657  -1.3570  -1.3448
    -1.3368  -1.2902  -1.2733  -1.1897  -1.1271  -1.1168  -1.0760  -1.0431
    -0.9715  -0.9150  -0.8290  -0.7823  -0.7739  -0.6509  -0.6425  -0.5505
    -0.4208  -0.2364  -0.1155  -0.0536   0.1174   0.2056   0.2065   1.6623
     1.7254   2.0016   2.0719   2.1490   2.2235   2.2383   2.2701   2.3785
     2.3855   2.4580   2.5048   2.5226   2.5416   2.5786   2.5978   2.6366
     2.6561   2.7346   2.7578   2.8673   2.8842   2.9701   3.0309   3.1043
     3.1215   3.1442   3.1629   3.2037   3.2087   3.2541   3.2698   3.3400
     3.3773   3.4021   3.4511   3.4733   3.5360   3.5605   3.5922   3.6002
     3.6643   3.7302   3.7473   3.9140   4.0021   4.0962   4.1745   4.2765
     4.3747   4.3950   4.5534   4.6731   4.8635   4.9116   4.9264   5.0701
     5.1218   5.1463   5.1888   5.3512   5.5679   5.6209   5.6937   5.8665
     5.8830   5.9252   5.9595   6.0308   6.0805   6.1148   6.1608   6.2097
     6.2192   6.2522   6.2590   6.3083   6.4490   6.5249   6.6422   6.6668
     6.8204   6.8680   7.0345   7.1464   7.3026   7.7515   7.8550   8.0844
     8.3320   8.3377   8.4300   8.6843   8.8459   8.9665   9.1487   9.3427
     9.3632   9.4502   9.4942

          k = 0.0253 0.0280 0.0000 ( 34687 PWs)   bands (ev):

   -57.6961 -57.6659 -57.3150 -57.2836 -57.2318 -57.1072 -57.0752 -57.0702
   -57.0508 -57.0398 -56.9877 -56.9570 -56.7286 -56.6960 -56.1467 -56.1161
   -34.1095 -33.9787 -33.9540 -33.8926 -33.8439 -33.8116 -33.7717 -33.6310
   -33.6113 -33.5816 -33.5424 -33.5342 -33.5216 -33.5159 -33.4924 -33.4719
   -33.4658 -33.4604 -33.4287 -33.3849 -33.3177 -33.2901 -33.2830 -33.2638
   -33.2588 -33.2541 -33.2522 -33.2473 -33.2373 -33.2359 -33.2347 -33.2168
   -33.2025 -33.1852 -33.1772 -33.1448 -33.1416 -32.9932 -32.9796 -32.9584
   -32.9136 -32.8338 -32.5411 -32.5005 -32.4766 -32.3650 -32.2856 -32.1985
   -20.2984 -17.9223 -17.7445 -17.4632 -17.3830 -17.3088 -17.2317 -17.1279
   -17.0975 -17.0058 -16.9627 -16.8583 -16.8299 -16.8053 -16.7837 -16.7698
   -16.7125 -16.6997 -16.5999 -16.5793 -16.5060 -16.4748 -16.3813 -16.3648
   -16.3559 -16.3291 -16.2002 -16.1735 -16.1532 -16.0111 -15.9666 -14.7427
   -14.6734 -11.4495  -7.2308  -5.4429  -5.2452  -5.1862  -5.1791  -5.0210
    -4.9658  -4.9360  -4.7584  -4.6994  -4.5620  -4.4028  -4.3709  -4.3452
    -4.2593  -4.2528  -4.1862  -4.1183  -4.0867  -4.0644  -4.0334  -4.0202
    -3.9759  -3.9421  -3.9126  -3.8673  -3.8217  -3.8096  -3.7837  -3.7197
    -3.6978  -3.6642  -3.6148  -3.6047  -3.5406  -3.5266  -3.3573  -3.3047
    -3.2518  -3.2206  -3.1516  -3.0741  -2.9813  -2.9496  -2.7852  -2.7061
    -2.6805  -2.6359  -2.6105  -2.5343  -2.5030  -2.4539  -2.4476  -2.4202
    -2.4045  -2.3863  -2.3398  -2.3020  -2.2154  -2.1778  -2.1153  -2.1001
    -2.0663  -1.9935  -1.9489  -1.8914  -1.8644  -1.8257  -1.7619  -1.6740
    -1.6443  -1.6163  -1.5884  -1.5618  -1.5087  -1.4619  -1.4398  -1.4001
    -1.3442  -1.3277  -1.2694  -1.2550  -1.2057  -1.1049  -1.0960  -1.0604
    -1.0075  -0.8856  -0.8376  -0.8342  -0.7643  -0.7385  -0.6961  -0.6582
    -0.4318  -0.2810  -0.1338  -0.0855   0.1495   0.1789   0.1890   1.7214
     1.8455   2.0169   2.0994   2.1961   2.2450   2.2824   2.3167   2.3973
     2.4181   2.4675   2.4893   2.5249   2.5332   2.5527   2.5909   2.6745
     2.7057   2.7279   2.7876   2.8071   2.9306   2.9871   3.0102   3.0352
     3.1066   3.1346   3.1463   3.1731   3.2090   3.2425   3.3443   3.3739
     3.4065   3.4367   3.4631   3.5103   3.5528   3.5690   3.6366   3.6615
     3.6738   3.7084   3.7499   3.8949   3.9938   4.1384   4.1859   4.2530
     4.3071   4.4527   4.5099   4.7680   4.9293   4.9521   4.9937   5.0784
     5.1604   5.1758   5.2236   5.3873   5.6430   5.6819   5.7317   5.7777
     5.8546   5.8657   5.8718   6.0077   6.0714   6.0859   6.1198   6.1451
     6.1973   6.2092   6.2198   6.2352   6.4290   6.5297   6.6124   6.6612
     6.7873   6.8656   6.9636   7.1504   7.2261   7.4902   7.9298   8.0292
     8.0941   8.2512   8.4422   8.5776   8.6502   8.7744   8.9407   9.2682
     9.3607   9.4620   9.5085

          k = 0.0253 0.0560 0.0000 ( 34699 PWs)   bands (ev):

   -57.6898 -57.6723 -57.3085 -57.2901 -57.2310 -57.1011 -57.0813 -57.0638
   -57.0517 -57.0462 -56.9813 -56.9635 -56.7219 -56.7027 -56.1402 -56.1226
   -34.0397 -33.9734 -33.9591 -33.8757 -33.8448 -33.8289 -33.7728 -33.5957
   -33.5731 -33.5717 -33.5346 -33.5251 -33.5084 -33.5073 -33.4763 -33.4724
   -33.4550 -33.4259 -33.4135 -33.3668 -33.3162 -33.3134 -33.3082 -33.3011
   -33.2858 -33.2763 -33.2675 -33.2622 -33.2532 -33.2485 -33.2380 -33.2342
   -33.2103 -33.1989 -33.1706 -33.1651 -33.1265 -32.9882 -32.9753 -32.9624
   -32.9266 -32.9034 -32.4955 -32.4816 -32.4704 -32.3484 -32.3026 -32.2726
   -20.2981 -17.7560 -17.5891 -17.3431 -17.2639 -17.2444 -17.1932 -17.1675
   -17.1391 -16.9955 -16.9699 -16.8802 -16.8758 -16.8290 -16.7962 -16.7721
   -16.7476 -16.6702 -16.6227 -16.6045 -16.5790 -16.5301 -16.4265 -16.4119
   -16.3558 -16.2846 -16.2337 -16.1943 -16.1567 -16.1121 -16.0392 -14.7613
   -14.7241 -11.4487  -7.2298  -5.4155  -5.1975  -5.0316  -4.9484  -4.8126
    -4.7565  -4.7144  -4.5579  -4.4981  -4.4904  -4.4134  -4.3937  -4.3393
    -4.2705  -4.2310  -4.2153  -4.1917  -4.1475  -4.1409  -4.1059  -4.0613
    -4.0323  -4.0124  -3.9929  -3.9352  -3.9241  -3.8750  -3.8592  -3.8214
    -3.7744  -3.7156  -3.6547  -3.5715  -3.4733  -3.4017  -3.3310  -3.2828
    -3.2374  -3.2230  -3.1881  -3.0123  -2.9409  -2.8633  -2.8291  -2.7792
    -2.7585  -2.6454  -2.5928  -2.5091  -2.4886  -2.4374  -2.3925  -2.3657
    -2.3426  -2.3242  -2.2881  -2.2628  -2.1892  -2.1405  -2.1272  -2.0393
    -2.0113  -2.0091  -1.9464  -1.9381  -1.9024  -1.8610  -1.8344  -1.8118
    -1.7443  -1.7033  -1.6781  -1.6371  -1.5722  -1.5377  -1.4942  -1.4753
    -1.4307  -1.3732  -1.3385  -1.3013  -1.2230  -1.2047  -1.1277  -1.1051
    -1.0563  -1.0114  -0.9117  -0.8725  -0.8210  -0.7991  -0.7435  -0.6804
    -0.6065  -0.4649  -0.2557   0.0922   0.1288   0.1559   0.1885   1.8622
     2.0485   2.1327   2.1793   2.2318   2.2721   2.3063   2.3478   2.3852
     2.4264   2.4624   2.4811   2.5083   2.5208   2.5840   2.6940   2.7218
     2.7393   2.7768   2.8241   2.8402   2.9041   2.9526   2.9748   2.9863
     3.0276   3.0340   3.1566   3.2077   3.2866   3.3299   3.3406   3.3834
     3.4077   3.4393   3.4611   3.5409   3.5600   3.6310   3.6561   3.7343
     3.7928   3.8197   3.8618   3.9007   3.9050   4.0720   4.1171   4.1658
     4.3434   4.3849   4.6163   4.9650   5.0126   5.1256   5.1414   5.1584
     5.2624   5.2894   5.3135   5.4370   5.5102   5.5617   5.6373   5.7586
     5.8237   5.8504   5.8918   5.9342   5.9609   6.0026   6.0486   6.0612
     6.1363   6.1572   6.2228   6.3302   6.3795   6.4025   6.4809   6.6431
     6.6911   6.7968   6.8455   7.0357   7.1486   7.3640   7.4791   7.5806
     7.9771   8.1775   8.3495   8.5198   8.6475   8.8571   9.0511   9.1145
     9.1823   9.4944   9.6228

          k = 0.0253-0.0840 0.0000 ( 34722 PWs)   bands (ev):

   -57.6811 -57.6809 -57.3010 -57.2977 -57.2306 -57.0957 -57.0868 -57.0551
   -57.0550 -57.0521 -56.9729 -56.9719 -56.7149 -56.7097 -56.1315 -56.1314
   -33.9663 -33.9661 -33.9431 -33.9430 -33.8525 -33.8523 -33.6860 -33.6620
   -33.5657 -33.5624 -33.5289 -33.5176 -33.5133 -33.4765 -33.4522 -33.4238
   -33.4158 -33.4097 -33.3758 -33.3757 -33.3629 -33.3400 -33.3341 -33.3227
   -33.3214 -33.2844 -33.2776 -33.2759 -33.2691 -33.2654 -33.2359 -33.2345
   -33.2172 -33.2154 -33.1637 -33.1629 -33.0495 -33.0287 -32.9714 -32.9662
   -32.9405 -32.9374 -32.4886 -32.4886 -32.3725 -32.3725 -32.3254 -32.3254
   -20.2980 -17.5555 -17.4871 -17.3819 -17.3634 -17.2131 -17.1541 -17.0590
   -17.0495 -17.0038 -16.9795 -16.9752 -16.8887 -16.8790 -16.8688 -16.7855
   -16.7801 -16.6345 -16.6287 -16.5682 -16.5645 -16.5220 -16.5207 -16.3884
   -16.3871 -16.2544 -16.2521 -16.1992 -16.1955 -16.1330 -16.1014 -14.7606
   -14.7605 -11.4483  -7.2293  -5.4075  -5.2029  -4.7997  -4.6455  -4.6352
    -4.6244  -4.5481  -4.5472  -4.5319  -4.5243  -4.4181  -4.4091  -4.3695
    -4.3464  -4.3161  -4.2979  -4.2846  -4.2629  -4.2312  -4.2275  -4.0424
    -4.0385  -4.0142  -3.9832  -3.9643  -3.9202  -3.8479  -3.8429  -3.8158
    -3.7379  -3.6606  -3.6444  -3.4142  -3.4009  -3.3480  -3.3189  -3.2555
    -3.1191  -3.0949  -3.0599  -3.0508  -3.0091  -2.9642  -2.9192  -2.8955
    -2.8089  -2.8049  -2.6225  -2.6028  -2.5770  -2.5594  -2.5298  -2.4668
    -2.4343  -2.3421  -2.3149  -2.2749  -2.1206  -2.0734  -2.0549  -2.0091
    -1.9227  -1.9203  -1.8780  -1.8668  -1.8560  -1.8159  -1.8054  -1.7951
    -1.7668  -1.7290  -1.6855  -1.6562  -1.6204  -1.6071  -1.5944  -1.4759
    -1.4012  -1.3884  -1.2780  -1.2616  -1.2411  -1.2267  -1.1835  -1.1301
    -1.0803  -1.0511  -1.0434  -1.0124  -0.9540  -0.8903  -0.8778  -0.5372
    -0.5290  -0.4572  -0.4448   0.1174   0.1176   0.1968   0.1985   2.0510
     2.0533   2.2180   2.2337   2.2368   2.2403   2.2784   2.3166   2.4240
     2.4261   2.4408   2.4429   2.5582   2.5597   2.5783   2.6556   2.7219
     2.7563   2.8206   2.8294   2.8803   2.9000   2.9384   2.9484   3.0261
     3.0400   3.0857   3.1150   3.2216   3.2695   3.2902   3.3071   3.4229
     3.4283   3.4525   3.4697   3.4944   3.5227   3.7144   3.7402   3.8081
     3.8262   3.8378   3.8862   3.9137   3.9206   4.0813   4.0839   4.1176
     4.1180   4.4738   4.7147   4.9850   5.0242   5.2701   5.3021   5.3104
     5.3281   5.3607   5.3852   5.4269   5.4790   5.5096   5.5534   5.6404
     5.6430   5.7633   5.8338   5.8764   5.8917   6.0159   6.0770   6.0887
     6.1310   6.1858   6.2184   6.2814   6.3018   6.4664   6.5206   6.5949
     6.6379   6.7864   6.7950   6.9902   7.0346   7.1224   7.3838   7.5729
     7.7455   8.0047   8.2726   8.7230   8.7399   8.9675   9.0019   9.2986
     9.3444   9.4517   9.5402

          k = 0.0506 0.0000 0.0000 ( 34729 PWs)   bands (ev):

   -57.6985 -57.6635 -57.3174 -57.2811 -57.2322 -57.1093 -57.0730 -57.0726
   -57.0504 -57.0374 -56.9901 -56.9546 -56.7310 -56.6935 -56.1490 -56.1138
   -34.1356 -33.9807 -33.9523 -33.8974 -33.8700 -33.8053 -33.7448 -33.6552
   -33.6180 -33.6099 -33.5683 -33.5491 -33.5291 -33.5085 -33.4849 -33.4607
   -33.4583 -33.4533 -33.4308 -33.3750 -33.3235 -33.2921 -33.2707 -33.2668
   -33.2623 -33.2613 -33.2604 -33.2372 -33.2344 -33.2294 -33.2290 -33.2115
   -33.1801 -33.1798 -33.1755 -33.1409 -33.1185 -32.9970 -32.9863 -32.9551
   -32.9087 -32.8060 -32.5666 -32.5046 -32.4736 -32.3710 -32.2795 -32.1712
   -20.2981 -17.9166 -17.7063 -17.4158 -17.3901 -17.2827 -17.2656 -17.2371
   -17.1396 -16.9781 -16.9675 -16.9373 -16.8949 -16.8856 -16.8682 -16.8455
   -16.7508 -16.7007 -16.5364 -16.4552 -16.4491 -16.4103 -16.4051 -16.3588
   -16.3539 -16.3273 -16.1753 -16.1601 -16.1536 -15.9798 -15.9292 -14.7303
   -14.6495 -11.4474  -7.2257  -5.4769  -5.2949  -5.1798  -4.9797  -4.9135
    -4.8020  -4.7977  -4.7711  -4.7481  -4.7137  -4.6328  -4.5248  -4.4646
    -4.4181  -4.2477  -4.1322  -4.0412  -4.0249  -4.0194  -3.9737  -3.9298
    -3.9117  -3.8285  -3.7883  -3.7616  -3.7532  -3.6589  -3.6365  -3.6162
    -3.5556  -3.5535  -3.5409  -3.5256  -3.4997  -3.3053  -3.2818  -3.2674
    -3.2453  -3.2024  -3.1559  -3.1104  -2.9948  -2.9421  -2.8850  -2.8513
    -2.8263  -2.7802  -2.7582  -2.6785  -2.6230  -2.6112  -2.5768  -2.5470
    -2.4626  -2.4594  -2.4270  -2.3654  -2.3134  -2.2062  -2.1980  -2.1197
    -2.0863  -1.9912  -1.9389  -1.9317  -1.8420  -1.8175  -1.8009  -1.7141
    -1.6355  -1.5741  -1.5578  -1.5549  -1.4859  -1.4779  -1.4428  -1.4002
    -1.3511  -1.3330  -1.3040  -1.2112  -1.1184  -1.1056  -1.0874  -1.0685
    -0.9860  -0.9540  -0.8882  -0.8148  -0.8077  -0.7930  -0.7570  -0.5321
    -0.5238  -0.2677  -0.2236  -0.0470   0.0931   0.1191   0.1375   1.6423
     1.8187   2.0006   2.0970   2.1010   2.1795   2.1971   2.2812   2.2938
     2.4543   2.4578   2.4709   2.5591   2.5638   2.5855   2.6264   2.6788
     2.7073   2.8227   2.8704   2.8737   2.8993   2.9237   3.0837   3.1083
     3.1478   3.1639   3.2010   3.2017   3.2869   3.2890   3.3316   3.4085
     3.4386   3.4482   3.5003   3.5530   3.5770   3.5860   3.7002   3.7112
     3.7595   3.7629   3.7988   3.8938   3.9249   4.0820   4.1576   4.2113
     4.3476   4.4658   4.5746   4.6514   4.7681   4.7978   4.8610   4.8915
     4.9107   5.1006   5.2090   5.4392   5.6434   5.7591   5.7607   5.8791
     5.8874   5.9185   5.9318   5.9649   6.0275   6.0952   6.1386   6.1581
     6.2406   6.4199   6.5136   6.5972   6.6051   6.6317   6.6845   6.7225
     6.8516   6.8536   7.0308   7.0445   7.2926   7.3026   7.4987   8.0107
     8.1402   8.3608   8.4708   8.7438   8.8119   8.9561   9.0422   9.2715
     9.3380   9.3743   9.6228

          k = 0.0506 0.0280 0.0000 ( 34685 PWs)   bands (ev):

   -57.6961 -57.6659 -57.3150 -57.2836 -57.2318 -57.1070 -57.0752 -57.0703
   -57.0508 -57.0398 -56.9877 -56.9570 -56.7286 -56.6960 -56.1467 -56.1161
   -34.1102 -33.9787 -33.9540 -33.8912 -33.8441 -33.8116 -33.7718 -33.6324
   -33.6113 -33.5850 -33.5430 -33.5353 -33.5271 -33.5194 -33.4923 -33.4715
   -33.4581 -33.4485 -33.4288 -33.3687 -33.3174 -33.2904 -33.2787 -33.2651
   -33.2638 -33.2612 -33.2585 -33.2528 -33.2374 -33.2359 -33.2336 -33.2144
   -33.2030 -33.1854 -33.1771 -33.1446 -33.1416 -32.9932 -32.9839 -32.9571
   -32.9136 -32.8338 -32.5410 -32.5024 -32.4757 -32.3649 -32.2856 -32.1985
   -20.2980 -17.8601 -17.6508 -17.3685 -17.3411 -17.2493 -17.2240 -17.2142
   -17.1216 -17.0435 -16.9630 -16.9198 -16.8700 -16.8573 -16.8544 -16.8328
   -16.7627 -16.7446 -16.5587 -16.5281 -16.5036 -16.4376 -16.4150 -16.3759
   -16.3683 -16.3113 -16.1911 -16.1719 -16.1520 -16.0123 -15.9664 -14.7407
   -14.6734 -11.4470  -7.2251  -5.4565  -5.2300  -5.1824  -4.8919  -4.8337
    -4.7181  -4.7033  -4.6752  -4.6555  -4.6298  -4.5089  -4.4271  -4.3456
    -4.3177  -4.3013  -4.1559  -4.1343  -4.0552  -4.0261  -4.0094  -3.9915
    -3.9829  -3.9093  -3.8600  -3.8149  -3.7733  -3.7607  -3.7178  -3.6900
    -3.6551  -3.6314  -3.5826  -3.5511  -3.4483  -3.3146  -3.2849  -3.2627
    -3.2305  -3.1728  -3.1046  -3.0632  -2.9540  -2.9384  -2.8775  -2.8421
    -2.7427  -2.6933  -2.6587  -2.6495  -2.5998  -2.5907  -2.5364  -2.4980
    -2.4360  -2.3858  -2.3805  -2.3407  -2.3093  -2.2518  -2.1772  -2.1366
    -2.1087  -2.0648  -2.0249  -1.9768  -1.9431  -1.8996  -1.8629  -1.8215
    -1.7525  -1.7372  -1.7108  -1.6301  -1.5367  -1.5054  -1.4795  -1.4317
    -1.3777  -1.3384  -1.2794  -1.2570  -1.2363  -1.1422  -1.1106  -1.0131
    -0.9703  -0.8843  -0.8572  -0.8044  -0.7840  -0.7649  -0.7029  -0.6880
    -0.5115  -0.3110  -0.2589  -0.0728   0.1101   0.1394   0.1629   1.7049
     1.9056   2.0610   2.1228   2.1277   2.1744   2.2515   2.3585   2.3728
     2.4086   2.4373   2.5143   2.5575   2.5752   2.6039   2.6726   2.6941
     2.7454   2.8041   2.8537   2.8978   2.9563   2.9742   3.0422   3.0592
     3.0988   3.1620   3.1718   3.2000   3.3006   3.3610   3.3761   3.4076
     3.4461   3.4781   3.5454   3.5806   3.6039   3.6474   3.6775   3.6868
     3.7190   3.7706   3.8193   3.8708   3.9345   4.0583   4.1695   4.2826
     4.2933   4.4236   4.6209   4.6898   4.7651   4.8124   4.8580   4.9815
     5.0132   5.1282   5.2244   5.4713   5.5960   5.6397   5.7331   5.8060
     5.8628   5.8711   5.9180   5.9479   5.9819   6.0891   6.1186   6.1399
     6.2311   6.4356   6.4737   6.5373   6.5777   6.6136   6.6867   6.7384
     6.7994   6.8181   6.9745   7.1159   7.1679   7.3943   7.5626   7.6945
     8.1332   8.1639   8.2449   8.3892   8.7662   8.9669   9.0137   9.0428
     9.3756   9.4423   9.6016

          k = 0.0506 0.0560 0.0000 ( 34596 PWs)   bands (ev):

   -57.6898 -57.6723 -57.3085 -57.2901 -57.2310 -57.1010 -57.0812 -57.0639
   -57.0517 -57.0463 -56.9813 -56.9635 -56.7219 -56.7027 -56.1402 -56.1226
   -34.0402 -33.9734 -33.9591 -33.8745 -33.8450 -33.8285 -33.7729 -33.5956
   -33.5743 -33.5717 -33.5350 -33.5210 -33.5150 -33.5106 -33.4763 -33.4732
   -33.4530 -33.4259 -33.4039 -33.3532 -33.3176 -33.3170 -33.3008 -33.2985
   -33.2861 -33.2763 -33.2673 -33.2599 -33.2533 -33.2531 -33.2473 -33.2392
   -33.2104 -33.2005 -33.1706 -33.1647 -33.1261 -32.9882 -32.9781 -32.9622
   -32.9265 -32.9032 -32.4966 -32.4812 -32.4702 -32.3484 -32.3025 -32.2725
   -20.2977 -17.7056 -17.5001 -17.2908 -17.2389 -17.1974 -17.1733 -17.1613
   -17.0895 -17.0365 -17.0058 -16.9129 -16.8558 -16.8482 -16.8438 -16.8059
   -16.7760 -16.7214 -16.6624 -16.6224 -16.6122 -16.5504 -16.5121 -16.3986
   -16.3431 -16.2632 -16.2259 -16.1929 -16.1560 -16.1137 -16.0384 -14.7601
   -14.7245 -11.4461  -7.2239  -5.4307  -5.1966  -5.0220  -4.6587  -4.6169
    -4.5139  -4.4989  -4.4855  -4.4560  -4.4311  -4.3676  -4.3234  -4.2993
    -4.2230  -4.2050  -4.1458  -4.1330  -4.0801  -4.0655  -4.0466  -4.0388
    -4.0142  -3.9978  -3.9653  -3.9172  -3.8952  -3.8878  -3.8211  -3.7830
    -3.7304  -3.6603  -3.6289  -3.5255  -3.4913  -3.3745  -3.3294  -3.2668
    -3.2577  -3.2424  -3.1466  -3.0224  -2.9317  -2.9061  -2.8484  -2.8334
    -2.7577  -2.7269  -2.6867  -2.6092  -2.5890  -2.5729  -2.5265  -2.4879
[...]
    -1.2966  -1.2665  -1.2444  -1.1896  -1.1474  -1.0310  -1.0196  -1.0114
    -0.9879  -0.9481  -0.9058  -0.8376  -0.7562  -0.7012  -0.6451  -0.5936
    -0.5895  -0.5344  -0.5171   0.0665   0.0665   0.2112   0.2129   2.1539
     2.1548   2.2013   2.2032   2.2387   2.2396   2.2667   2.2983   2.4884
     2.4939   2.5258   2.5555   2.6093   2.6170   2.6798   2.6818   2.6912
     2.6924   2.8444   2.9102   2.9832   2.9983   3.0344   3.0420   3.0987
     3.2201   3.2496   3.2726   3.3332   3.3739   3.3905   3.4451   3.4930
     3.5005   3.5228   3.5493   3.5812   3.6038   3.6801   3.6998   3.7451
     3.8350   3.8909   3.9072   3.9532   3.9536   4.0966   4.1034   4.1122
     4.1126   4.6146   4.7837   4.7875   4.8030   4.8709   4.9208   4.9259
     4.9422   4.9847   5.0273   5.2493   5.3402   5.3589   5.3695   5.7279
     5.8000   5.9097   5.9271   5.9793   6.0388   6.1495   6.3001   6.3496
     6.3648   6.3748   6.4094   6.5748   6.6188   6.6655   6.6656   6.7033
     6.7620   6.8448   6.8458   6.8528   6.8537   7.3597   7.4071   7.5228
     7.6625   7.8253   8.0112   8.1692   8.2218   8.3186   8.3844   8.8251
     8.9128   9.0443   9.0811

          k =-0.0253 0.0280 0.0000 ( 34687 PWs)   bands (ev):

   -57.6962 -57.6660 -57.3150 -57.2835 -57.2317 -57.1072 -57.0752 -57.0701
   -57.0508 -57.0398 -56.9877 -56.9569 -56.7285 -56.6959 -56.1469 -56.1164
   -34.1096 -33.9788 -33.9541 -33.8927 -33.8438 -33.8117 -33.7718 -33.6309
   -33.6112 -33.5816 -33.5423 -33.5342 -33.5216 -33.5159 -33.4923 -33.4719
   -33.4657 -33.4604 -33.4287 -33.3849 -33.3177 -33.2901 -33.2830 -33.2638
   -33.2585 -33.2541 -33.2524 -33.2473 -33.2373 -33.2359 -33.2347 -33.2167
   -33.2025 -33.1852 -33.1771 -33.1447 -33.1415 -32.9932 -32.9795 -32.9584
   -32.9136 -32.8337 -32.5413 -32.5008 -32.4768 -32.3652 -32.2859 -32.1988
   -20.2984 -17.9223 -17.7444 -17.4632 -17.3831 -17.3089 -17.2318 -17.1279
   -17.0977 -17.0055 -16.9627 -16.8588 -16.8298 -16.8062 -16.7833 -16.7697
   -16.7124 -16.6999 -16.5997 -16.5790 -16.5061 -16.4749 -16.3814 -16.3649
   -16.3559 -16.3291 -16.2003 -16.1735 -16.1531 -16.0111 -15.9667 -14.7422
   -14.6729 -11.4495  -7.2308  -5.4428  -5.2450  -5.1862  -5.1792  -5.0213
    -4.9658  -4.9363  -4.7585  -4.7002  -4.5617  -4.4025  -4.3708  -4.3455
    -4.2606  -4.2495  -4.1876  -4.1166  -4.0913  -4.0640  -4.0360  -4.0201
    -3.9747  -3.9404  -3.9139  -3.8685  -3.8218  -3.8110  -3.7840  -3.7198
    -3.7003  -3.6628  -3.6146  -3.6040  -3.5391  -3.5257  -3.3629  -3.2963
    -3.2532  -3.2222  -3.1494  -3.0724  -2.9824  -2.9458  -2.7841  -2.7055
    -2.6798  -2.6364  -2.6103  -2.5318  -2.5040  -2.4511  -2.4472  -2.4222
    -2.4053  -2.3843  -2.3391  -2.3010  -2.2174  -2.1751  -2.1210  -2.1035
    -2.0621  -1.9897  -1.9502  -1.8945  -1.8627  -1.8262  -1.7427  -1.7071
    -1.6523  -1.5986  -1.5926  -1.5592  -1.5154  -1.4702  -1.4357  -1.3918
    -1.3443  -1.3324  -1.2805  -1.2418  -1.1956  -1.1078  -1.0967  -1.0586
    -1.0076  -0.8909  -0.8402  -0.8280  -0.7551  -0.7378  -0.7081  -0.6590
    -0.4328  -0.2810  -0.1343  -0.0852   0.1498   0.1792   0.1895   1.7212
     1.8454   2.0168   2.1008   2.1959   2.2464   2.2856   2.3195   2.4044
     2.4160   2.4504   2.4864   2.5304   2.5331   2.5477   2.6083   2.6690
     2.7059   2.7395   2.7760   2.8126   2.9392   2.9864   3.0046   3.0277
     3.1076   3.1362   3.1467   3.1747   3.2091   3.2398   3.3478   3.3730
     3.4043   3.4203   3.4647   3.5067   3.5618   3.5710   3.6375   3.6614
     3.6735   3.7094   3.7494   3.8937   3.9925   4.1403   4.1859   4.2535
     4.3071   4.4529   4.5101   4.7686   4.9373   4.9513   4.9844   5.0784
     5.1593   5.1754   5.2235   5.3863   5.6447   5.6750   5.7284   5.7874
     5.8528   5.8655   5.8727   6.0066   6.0741   6.0789   6.1243   6.1458
     6.1973   6.2079   6.2155   6.2439   6.4289   6.5268   6.6122   6.6665
     6.7904   6.8589   6.9635   7.1505   7.2265   7.5047   7.9313   8.0273
     8.0941   8.2451   8.4434   8.5745   8.6413   8.7753   8.9464   9.2629
     9.3465   9.4617   9.5060

          k =-0.0253 0.0560 0.0000 ( 34699 PWs)   bands (ev):

   -57.6899 -57.6724 -57.3084 -57.2901 -57.2309 -57.1011 -57.0813 -57.0638
   -57.0516 -57.0462 -56.9812 -56.9634 -56.7219 -56.7026 -56.1405 -56.1228
   -34.0398 -33.9735 -33.9592 -33.8758 -33.8449 -33.8290 -33.7727 -33.5956
   -33.5731 -33.5716 -33.5346 -33.5250 -33.5084 -33.5072 -33.4762 -33.4724
   -33.4549 -33.4258 -33.4133 -33.3668 -33.3161 -33.3134 -33.3082 -33.3011
   -33.2858 -33.2763 -33.2674 -33.2622 -33.2532 -33.2486 -33.2379 -33.2341
   -33.2101 -33.1989 -33.1706 -33.1650 -33.1264 -32.9881 -32.9752 -32.9625
   -32.9266 -32.9033 -32.4957 -32.4819 -32.4706 -32.3486 -32.3028 -32.2729
   -20.2981 -17.7560 -17.5891 -17.3431 -17.2639 -17.2446 -17.1935 -17.1674
   -17.1389 -16.9954 -16.9699 -16.8803 -16.8761 -16.8296 -16.7966 -16.7721
   -16.7474 -16.6699 -16.6225 -16.6041 -16.5790 -16.5304 -16.4265 -16.4120
   -16.3559 -16.2846 -16.2338 -16.1944 -16.1567 -16.1121 -16.0392 -14.7608
   -14.7237 -11.4487  -7.2298  -5.4154  -5.1976  -5.0312  -4.9484  -4.8132
    -4.7566  -4.7145  -4.5579  -4.4964  -4.4911  -4.4130  -4.3940  -4.3441
    -4.2708  -4.2320  -4.2148  -4.1917  -4.1473  -4.1403  -4.1076  -4.0614
    -4.0313  -4.0098  -3.9941  -3.9362  -3.9238  -3.8729  -3.8629  -3.8220
    -3.7739  -3.7137  -3.6557  -3.5715  -3.4730  -3.4020  -3.3361  -3.2831
    -3.2378  -3.2165  -3.1822  -3.0132  -2.9384  -2.8647  -2.8259  -2.7828
    -2.7556  -2.6450  -2.5919  -2.5097  -2.4871  -2.4387  -2.3938  -2.3625
    -2.3428  -2.3238  -2.2906  -2.2654  -2.1893  -2.1404  -2.1263  -2.0358
    -2.0199  -2.0024  -1.9445  -1.9423  -1.9039  -1.8614  -1.8299  -1.8065
    -1.7423  -1.7102  -1.6717  -1.6417  -1.5788  -1.5389  -1.5045  -1.4598
    -1.4305  -1.3721  -1.3471  -1.2999  -1.2231  -1.2057  -1.1268  -1.1035
    -1.0574  -1.0125  -0.9236  -0.8729  -0.8136  -0.7991  -0.7370  -0.6800
    -0.6064  -0.4666  -0.2572   0.0925   0.1292   0.1563   0.1888   1.8620
     2.0484   2.1356   2.1793   2.2287   2.2702   2.3069   2.3337   2.3842
     2.4448   2.4594   2.4861   2.5137   2.5212   2.5840   2.6932   2.7247
     2.7451   2.7763   2.8281   2.8413   2.8935   2.9500   2.9712   2.9870
     3.0243   3.0352   3.1707   3.2084   3.2907   3.3171   3.3344   3.3712
     3.4120   3.4370   3.4604   3.5434   3.5597   3.6350   3.6576   3.7348
     3.7932   3.8172   3.8626   3.8989   3.9071   4.0728   4.1171   4.1659
     4.3432   4.3849   4.6170   4.9661   5.0197   5.1224   5.1372   5.1566
     5.2599   5.2873   5.3155   5.4286   5.5121   5.5615   5.6403   5.7631
     5.8249   5.8485   5.8954   5.9365   5.9560   5.9964   6.0519   6.0634
     6.1359   6.1555   6.2298   6.3206   6.3798   6.4092   6.4784   6.6459
     6.6937   6.7966   6.8413   7.0370   7.1526   7.3642   7.4815   7.5869
     7.9803   8.1688   8.3500   8.5194   8.6374   8.8542   9.0525   9.1157
     9.1770   9.4949   9.6242

          k =-0.0506 0.0280 0.0000 ( 34685 PWs)   bands (ev):

   -57.6962 -57.6660 -57.3150 -57.2835 -57.2317 -57.1070 -57.0752 -57.0703
   -57.0507 -57.0398 -56.9877 -56.9569 -56.7285 -56.6959 -56.1469 -56.1164
   -34.1103 -33.9788 -33.9541 -33.8913 -33.8441 -33.8116 -33.7719 -33.6323
   -33.6112 -33.5849 -33.5429 -33.5353 -33.5271 -33.5193 -33.4922 -33.4715
   -33.4580 -33.4484 -33.4287 -33.3687 -33.3174 -33.2904 -33.2787 -33.2650
   -33.2638 -33.2612 -33.2582 -33.2530 -33.2373 -33.2359 -33.2336 -33.2143
   -33.2029 -33.1854 -33.1770 -33.1445 -33.1415 -32.9932 -32.9838 -32.9571
   -32.9136 -32.8337 -32.5412 -32.5026 -32.4759 -32.3652 -32.2859 -32.1988
   -20.2980 -17.8601 -17.6508 -17.3685 -17.3411 -17.2493 -17.2240 -17.2141
   -17.1221 -17.0429 -16.9630 -16.9204 -16.8704 -16.8572 -16.8545 -16.8326
   -16.7630 -16.7445 -16.5590 -16.5278 -16.5035 -16.4376 -16.4150 -16.3759
   -16.3686 -16.3112 -16.1911 -16.1719 -16.1519 -16.0124 -15.9665 -14.7403
   -14.6729 -11.4470  -7.2251  -5.4564  -5.2299  -5.1824  -4.8919  -4.8337
    -4.7201  -4.7041  -4.6750  -4.6546  -4.6297  -4.5090  -4.4274  -4.3450
    -4.3179  -4.3016  -4.1593  -4.1268  -4.0605  -4.0263  -4.0083  -3.9928
    -3.9825  -3.9092  -3.8594  -3.8154  -3.7730  -3.7608  -3.7187  -3.6907
    -3.6557  -3.6331  -3.5829  -3.5508  -3.4480  -3.3222  -3.2883  -3.2622
    -3.2255  -3.1702  -3.1011  -3.0579  -2.9531  -2.9372  -2.8743  -2.8399
    -2.7426  -2.6934  -2.6594  -2.6505  -2.6037  -2.5902  -2.5353  -2.4948
    -2.4364  -2.3869  -2.3805  -2.3351  -2.3080  -2.2538  -2.1789  -2.1354
    -2.1128  -2.0620  -2.0246  -1.9738  -1.9393  -1.9041  -1.8592  -1.8309
    -1.7540  -1.7396  -1.7113  -1.6404  -1.5393  -1.5062  -1.4847  -1.4166
    -1.3666  -1.3470  -1.2785  -1.2589  -1.2369  -1.1465  -1.1074  -1.0126
    -0.9743  -0.8791  -0.8548  -0.8126  -0.7771  -0.7632  -0.7047  -0.6893
    -0.5123  -0.3114  -0.2590  -0.0725   0.1105   0.1398   0.1632   1.7047
     1.9056   2.0609   2.1234   2.1281   2.1732   2.2415   2.3618   2.3727
     2.4068   2.4388   2.5185   2.5682   2.5751   2.6034   2.6844   2.6972
     2.7437   2.8034   2.8337   2.9034   2.9565   2.9822   3.0422   3.0608
     3.0917   3.1610   3.1718   3.2012   3.3030   3.3569   3.3767   3.4107
     3.4462   3.4583   3.5475   3.5865   3.6048   3.6541   3.6766   3.6854
     3.7177   3.7715   3.8190   3.8698   3.9325   4.0592   4.1693   4.2826
     4.2938   4.4234   4.6225   4.6902   4.7649   4.8117   4.8559   4.9830
     5.0127   5.1269   5.2245   5.4701   5.5952   5.6414   5.7217   5.8055
     5.8617   5.8730   5.9258   5.9470   5.9812   6.0933   6.1176   6.1397
     6.2319   6.4325   6.4826   6.5408   6.5783   6.6076   6.6857   6.7410
     6.7971   6.8179   6.9744   7.1154   7.1677   7.3953   7.5676   7.6991
     8.1331   8.1639   8.2444   8.3931   8.7416   8.9653   9.0105   9.0484
     9.3745   9.4421   9.6082

          k =-0.0506 0.0560 0.0000 ( 34596 PWs)   bands (ev):

   -57.6899 -57.6724 -57.3084 -57.2901 -57.2309 -57.1010 -57.0812 -57.0639
   -57.0516 -57.0462 -56.9812 -56.9634 -56.7219 -56.7026 -56.1405 -56.1228
   -34.0403 -33.9735 -33.9592 -33.8746 -33.8450 -33.8286 -33.7729 -33.5956
   -33.5742 -33.5717 -33.5350 -33.5210 -33.5149 -33.5105 -33.4763 -33.4731
   -33.4529 -33.4258 -33.4037 -33.3532 -33.3176 -33.3169 -33.3007 -33.2985
   -33.2861 -33.2762 -33.2673 -33.2598 -33.2533 -33.2532 -33.2473 -33.2392
   -33.2102 -33.2004 -33.1705 -33.1647 -33.1260 -32.9882 -32.9780 -32.9622
   -32.9265 -32.9032 -32.4969 -32.4814 -32.4704 -32.3486 -32.3028 -32.2728
   -20.2977 -17.7056 -17.5001 -17.2908 -17.2392 -17.1973 -17.1732 -17.1615
   -17.0894 -17.0365 -17.0055 -16.9131 -16.8562 -16.8486 -16.8440 -16.8060
   -16.7759 -16.7216 -16.6622 -16.6219 -16.6123 -16.5504 -16.5122 -16.3987
   -16.3432 -16.2631 -16.2260 -16.1929 -16.1560 -16.1138 -16.0384 -14.7596
   -14.7240 -11.4461  -7.2239  -5.4306  -5.1966  -5.0217  -4.6587  -4.6168
    -4.5152  -4.4989  -4.4838  -4.4564  -4.4318  -4.3670  -4.3245  -4.3014
    -4.2253  -4.2052  -4.1459  -4.1317  -4.0823  -4.0669  -4.0458  -4.0363
    -4.0140  -3.9961  -3.9683  -3.9144  -3.8939  -3.8879  -3.8219  -3.7870
    -3.7305  -3.6601  -3.6304  -3.5227  -3.4896  -3.3816  -3.3282  -3.2614
    -3.2563  -3.2452  -3.1442  -3.0159  -2.9336  -2.9045  -2.8507  -2.8302
    -2.7561  -2.7263  -2.6845  -2.6095  -2.5912  -2.5673  -2.5291  -2.4895
    -2.4282  -2.4055  -2.3655  -2.3291  -2.3161  -2.2998  -2.2549  -2.1778
    -2.1520  -2.1207  -2.1136  -2.0771  -2.0469  -2.0016  -1.9832  -1.9014
    -1.8911  -1.8513  -1.8326  -1.7241  -1.6372  -1.6058  -1.5726  -1.4781
    -1.4072  -1.3747  -1.3072  -1.2448  -1.2054  -1.1086  -1.0719  -1.0164
    -1.0010  -0.9362  -0.8513  -0.8194  -0.7694  -0.7559  -0.6915  -0.6566
    -0.6512  -0.5170  -0.3242   0.0785   0.1126   0.1306   0.1942   1.8673
     2.0772   2.1661   2.2000   2.2216   2.2442   2.2990   2.3485   2.3937
     2.4042   2.5380   2.5708   2.5799   2.6080   2.6288   2.6840   2.7552
     2.7826   2.8048   2.8393   2.8816   2.9640   3.0050   3.0289   3.0627
     3.0978   3.1367   3.1682   3.2574   3.3361   3.3678   3.3975   3.4415
     3.4793   3.5003   3.5223   3.5431   3.6155   3.6478   3.7120   3.7447
     3.7803   3.8515   3.8805   3.9199   3.9258   3.9546   4.1123   4.1754
     4.2900   4.4740   4.7260   4.8074   4.8171   4.8969   4.9426   5.0925
     5.1658   5.2322   5.2725   5.3245   5.3725   5.4353   5.4962   5.6266
     5.7815   5.8302   5.8819   5.9525   6.0396   6.1243   6.2169   6.2594
     6.2868   6.3468   6.4166   6.4507   6.5028   6.5784   6.6499   6.7166
     6.7313   6.8251   6.8507   6.9848   7.0492   7.4111   7.4296   7.5764
     7.7446   7.9409   8.0737   8.3801   8.5719   8.6092   8.7363   9.0054
     9.2249   9.3236   9.4548

     the Fermi energy is     0.9975 ev

!    total energy              =   -3021.42001038 Ry
     Harris-Foulkes estimate   =   -3021.42001077 Ry
     estimated scf accuracy    <       0.00000063 Ry

     The total energy is the sum of the following terms:

     one-electron contribution =  -41241.38411845 Ry
     hartree contribution      =   20694.94415936 Ry
     xc contribution           =    -553.68805870 Ry
     ewald contribution        =   18078.70821850 Ry
     smearing contrib. (-TS)   =      -0.00021108 Ry

     total magnetization       =     0.00 Bohr mag/cell
     absolute magnetization    =     0.00 Bohr mag/cell

     convergence has been achieved in   7 iterations

     Forces acting on atoms (Ry/au):


     negative rho (up, down):  1.209E-02 1.209E-02
     atom    1 type  1   force =     0.00001983   -0.00035502   -0.13378453
     atom    2 type  2   force =     0.00000768    0.00002877    0.07212403
     atom    3 type  1   force =    -0.00135643    0.00030938   -0.06097023
     atom    4 type  2   force =     0.00290539    0.00048720    0.00637748
     atom    5 type  1   force =     0.00026581    0.00185672    0.00352516
     atom    6 type  2   force =     0.00006697    0.00000237   -0.00291836
     atom    7 type  1   force =    -0.00029515   -0.00076970    0.00474752
     atom    8 type  2   force =     0.00091398   -0.00022421   -0.00064115
     atom    9 type  1   force =    -0.00002608    0.00001923   -0.13354359
     atom   10 type  2   force =    -0.00006507    0.00006533    0.07130596
     atom   11 type  1   force =    -0.00131720   -0.00024168   -0.05588348
     atom   12 type  2   force =     0.00299874   -0.00006916    0.00609441
     atom   13 type  1   force =     0.00028588   -0.00148522    0.00346361
     atom   14 type  2   force =    -0.00119877   -0.00038921   -0.00291509
     atom   15 type  1   force =    -0.00053929    0.00022193    0.00449675
     atom   16 type  2   force =     0.00055015   -0.00017920   -0.00004858
     atom   17 type  2   force =    -0.00006707   -0.00007161    0.07938688
     atom   18 type  1   force =     0.00013830   -0.00017378    0.11912720
     atom   19 type  2   force =    -0.00010411   -0.00017347   -0.06668878
     atom   20 type  2   force =    -0.06322214    0.00014766   -0.03224232
     atom   21 type  2   force =     0.06320592    0.00001353   -0.03244847
     atom   22 type  1   force =     0.00072923    0.00108002    0.05973189
     atom   23 type  2   force =    -0.00017488    0.00005550   -0.00176110
     atom   24 type  2   force =    -0.00142783   -0.00000394   -0.02325922
     atom   25 type  2   force =    -0.00312928    0.00058940    0.00786527
     atom   26 type  1   force =     0.00064887    0.00029174    0.00459257
     atom   27 type  2   force =     0.00052723    0.00060086   -0.00380145
     atom   28 type  2   force =     0.00014190   -0.00008933   -0.00120452
     atom   29 type  2   force =     0.00022559   -0.00034689   -0.00059205
     atom   30 type  1   force =     0.00029523   -0.00074413    0.00381207
     atom   31 type  2   force =     0.00012001    0.00008305   -0.00250857
     atom   32 type  2   force =     0.00007548   -0.00012064   -0.00124323
     atom   33 type  2   force =    -0.00011557    0.00003597    0.07898963
     atom   34 type  1   force =     0.00007039   -0.00021965    0.11904323
     atom   35 type  2   force =    -0.00030005   -0.00005408   -0.06638726
     atom   36 type  2   force =    -0.06318324   -0.00005343   -0.03232978
     atom   37 type  2   force =     0.06333365   -0.00020223   -0.03248469
     atom   38 type  1   force =     0.00066640   -0.00098034    0.05995143
     atom   39 type  2   force =    -0.00045931    0.00010247   -0.00250530
     atom   40 type  2   force =    -0.00118472    0.00030597   -0.02217118
     atom   41 type  2   force =    -0.00316902   -0.00015098    0.00789097
     atom   42 type  1   force =     0.00052528    0.00006258    0.00371584
     atom   43 type  2   force =     0.00070055    0.00022905   -0.00297204
     atom   44 type  2   force =     0.00022569    0.00009985   -0.00116368
     atom   45 type  2   force =     0.00020302    0.00030955   -0.00061881
     atom   46 type  1   force =     0.00059997    0.00035350    0.00392155
     atom   47 type  2   force =     0.00007629   -0.00031821   -0.00132218
     atom   48 type  2   force =     0.00013416    0.00010503   -0.00092415
     atom   49 type  3   force =     0.00576155    0.00427069    0.00650294
     atom   50 type  2   force =     0.00125271   -0.00207367   -0.00586901
     atom   51 type  4   force =     0.00020185    0.00292028    0.00151737
     atom   52 type  4   force =     0.00013807    0.00021893    0.00071756
     atom   53 type  4   force =    -0.00017956    0.00014858   -0.00085591
     atom   54 type  4   force =    -0.00649699   -0.00552538   -0.00284263

     Total force =     0.362889     Total SCF correction =     0.001779
 !ASE

     Writing output data file calc.save
 
     init_run     :     54.84s CPU     69.32s WALL (       1 calls)
     electrons    :   1746.54s CPU   2185.82s WALL (       1 calls)
     forces       :     40.33s CPU     41.59s WALL (       1 calls)

     Called by init_run:
     wfcinit      :     46.74s CPU     59.92s WALL (       1 calls)
     potinit      :      1.30s CPU      2.13s WALL (       1 calls)

     Called by electrons:
     c_bands      :   1528.59s CPU   1911.93s WALL (       8 calls)
     sum_band     :    186.99s CPU    238.33s WALL (       8 calls)
     v_of_rho     :      7.81s CPU     10.06s WALL (       8 calls)
     newd         :     26.98s CPU     29.62s WALL (       8 calls)
     mix_rho      :      0.22s CPU      0.34s WALL (       8 calls)
     vdW_energy   :      1.46s CPU      1.84s WALL (       9 calls)
     vdW_ffts     :      2.15s CPU      2.95s WALL (      18 calls)
     vdW_v        :      0.87s CPU      1.03s WALL (       9 calls)

     Called by c_bands:
     init_us_2    :      4.85s CPU      5.34s WALL (     720 calls)
     cegterg      :   1499.06s CPU   1880.68s WALL (     320 calls)

     Called by *egterg:
     h_psi        :    612.29s CPU    927.31s WALL (    1665 calls)
     s_psi        :     75.65s CPU     79.70s WALL (    1665 calls)
     g_psi        :      4.16s CPU      4.24s WALL (    1305 calls)
     cdiaghg      :    518.38s CPU    530.14s WALL (    1585 calls)

     Called by h_psi:
     add_vuspsi   :     76.10s CPU     80.14s WALL (    1665 calls)

     General routines
     calbec       :    114.68s CPU    118.40s WALL (    2025 calls)
     fft          :      4.53s CPU      6.08s WALL (     713 calls)
     ffts         :      0.04s CPU      0.06s WALL (      32 calls)
     fftw         :    404.85s CPU    746.83s WALL (  602084 calls)
     interpolate  :      0.25s CPU      0.40s WALL (      32 calls)
     davcio       :      0.00s CPU      1.17s WALL (      40 calls)
 
     Parallel routines
     fft_scatter  :    214.88s CPU    393.21s WALL (  602829 calls)
 
     PWSCF        : 30m43.53s CPU    38m20.59s WALL

 
   This run was terminated on:   7:32:51  13Feb2018            

=------------------------------------------------------------------------------=
   JOB DONE.
=------------------------------------------------------------------------------=
