  python dir          : /home/vossj/suncat/lib/python2.7/site-packages/espresso
  espresso dir        : /home/vossj/suncat/esdld/espresso-dynpy-beef/bin
  pseudo dir          : /home/alatimer/bin/psp/esp_psp_w_gbrvRu/
  ase-espresso py git : ffa2778-git



     Program PWSCF v.5.1rc2 (svn rev. ) starts on 11Feb2018 at  2:13:18 

     This program is part of the open-source Quantum ESPRESSO suite
     for quantum simulation of materials; please cite
         "P. Giannozzi et al., J. Phys.:Condens. Matter 21 395502 (2009);
          URL http://www.quantum-espresso.org", 
     in publications or presentations arising from this work. More details at
     http://www.quantum-espresso.org/quote

     Parallel version (MPI), running on    16 processors
     R & G space division:  proc/nbgrp/npool/nimage =      16
     Reading input from pw.inp
     Message from routine read_cards :
     DEPRECATED: no units specified in CELL_PARAMETERS card

     Current dimensions of program PWSCF are:
     Max number of different atomic species (ntypx) = 10
     Max number of k-points (npk) =  40000
     Max angular momentum in pseudopotentials (lmaxx) =  3

     **************************************************************************
     Initializing libbeef V0.1.1 with the BEEF-vdW functional.
     Citation: Wellendorff et al., PRB 85, 235149 (2012).
     **************************************************************************


     IMPORTANT: XC functional enforced from input :
     Exchange-correlation      = BEEF ( 1  4 27 13 2)
     Any further DFT definition will be discarded
     Please, verify this is what you really want


     Subspace diagonalization in iterative solution of the eigenvalue problem:
     a serial algorithm will be used

 
     Parallelization info
     --------------------
     sticks:   dense  smooth     PW     G-vecs:    dense   smooth      PW
     Min         281     112     31                68535    17318    2565
     Max         282     113     32                68545    17369    2582
     Sum        4501    1795    503              1096637   277353   41113
 
     Generating pointlists ...
     new r_m :   0.4125 (alat units)  0.7795 (a.u.) for type    1
     new r_m :   0.4057 (alat units)  0.7667 (a.u.) for type    2
     new r_m :   0.4057 (alat units)  0.7667 (a.u.) for type    3


     bravais-lattice index     =            0
     lattice parameter (alat)  =       1.8897  a.u.
     unit-cell volume          =    7990.9933 (a.u.)^3
     number of atoms/cell      =           50
     number of atomic types    =            3
     number of electrons       =       391.00
     number of Kohn-Sham states=          295
     kinetic-energy cutoff     =      40.4243  Ry
     charge density cutoff     =     404.2426  Ry
     convergence threshold     =      7.3E-07
     mixing beta               =       0.1000
     number of iterations used =           10  plain     mixing
     Exchange-correlation      = BEEF ( 1  4 27 13 2)
     nstep                     =           50


     celldm(1)=   1.889726  celldm(2)=   0.000000  celldm(3)=   0.000000
     celldm(4)=   0.000000  celldm(5)=   0.000000  celldm(6)=   0.000000

     crystal axes: (cart. coord. in units of alat)
               a(1) = (   6.590708   0.000000   0.000000 )  
               a(2) = (   0.000000   5.950229   0.000000 )  
               a(3) = (   0.000000   0.000000  30.195235 )  

     reciprocal axes: (cart. coord. in units 2 pi/alat)
               b(1) = (  0.151729  0.000000  0.000000 )  
               b(2) = (  0.000000  0.168061  0.000000 )  
               b(3) = (  0.000000  0.000000  0.033118 )  


     PseudoPot. # 1 for Ti read from file:
     /home/alatimer/bin/psp/esp_psp_w_gbrvRu/Ti.UPF
     MD5 check sum: 8e4df49b7f0d34bbd5052bf3f5ea0213
     Pseudo is Ultrasoft, Zval = 12.0
     Generated by new atomic code, or converted to UPF format
     Using radial grid of  851 points,  6 beta functions with: 
                l(1) =   0
                l(2) =   0
                l(3) =   1
                l(4) =   1
                l(5) =   2
                l(6) =   2
     Q(r) pseudized with  8 coefficients,  rinner =    1.000   1.000   1.000
                                                       1.000   1.000

     PseudoPot. # 2 for  O read from file:
     /home/alatimer/bin/psp/esp_psp_w_gbrvRu/O.UPF
     MD5 check sum: e057bbcf3229fb5d8c36c0c92f9568b4
     Pseudo is Ultrasoft + core correction, Zval =  6.0
     Generated using "atomic" code by A. Dal Corso  v.5.0.2 svn rev. 9415
     Using radial grid of 1095 points,  4 beta functions with: 
                l(1) =   0
                l(2) =   0
                l(3) =   1
                l(4) =   1
     Q(r) pseudized with 0 coefficients 


     PseudoPot. # 3 for  H read from file:
     /home/alatimer/bin/psp/esp_psp_w_gbrvRu/H.UPF
     MD5 check sum: bd57da0722753ddfd9833a65b40bb853
     Pseudo is Ultrasoft, Zval =  1.0
     Generated using "atomic" code by A. Dal Corso  v.5.0.2 svn rev. 9415
     Using radial grid of  929 points,  2 beta functions with: 
                l(1) =   0
                l(2) =   0
     Q(r) pseudized with 0 coefficients 


     vdW kernel table read from file vdW_kernel_table
     MD5 check sum: 095c7af220d748ca6e76c0b4c6cfb241

     atomic species   valence    mass     pseudopotential
        Ti1           12.00    47.88000     Ti( 1.00)
        O1             6.00    15.99940      O( 1.00)
        H1             1.00     1.00794      H( 1.00)

     Starting magnetic structure 
     atomic species   magnetization
        Ti1          0.250
        O1           0.500
        H1           0.000

      2 Sym. Ops. (no inversion) found ( 1 have fractional translation)



   Cartesian axes

     site n.     atom                  positions (alat units)
         1           Ti1 tau(   1) = (   1.6476770   0.7437786   2.6545865  )
         2           O1  tau(   2) = (   1.6476770   2.2313359   3.9361215  )
         3           Ti1 tau(   3) = (   1.6476770   2.2313359   5.9499405  )
         4           O1  tau(   4) = (   0.3661420   0.7437786   5.9499405  )
         5           Ti1 tau(   5) = (   1.6423058   0.7993178   9.2289010  )
         6           O1  tau(   6) = (   1.6406404   2.2313359  10.4535548  )
         7           Ti1 tau(   7) = (   1.6373334   2.2313359  13.0586656  )
         8           O1  tau(   8) = (   0.3716334   0.7231912  12.7369480  )
         9           Ti1 tau(   9) = (   1.6476770   3.7188931   2.6545865  )
        10           O1  tau(  10) = (   1.6476770   5.2064503   3.9361215  )
        11           Ti1 tau(  11) = (   1.6476770   5.2064503   5.9499405  )
        12           O1  tau(  12) = (   0.3661420   3.7188931   5.9499405  )
        13           Ti1 tau(  13) = (   1.6423059   3.6633529   9.2289023  )
        14           O1  tau(  14) = (   1.6396028   5.2064504  10.5374954  )
        15           Ti1 tau(  15) = (   1.6366369   5.2064504  12.3426698  )
        16           O1  tau(  16) = (   0.3716333   3.7394800  12.7369475  )
        17           O1  tau(  17) = (   1.6476770   2.2313359   1.3730516  )
        18           Ti1 tau(  18) = (   4.9430310   2.2313359   2.6545865  )
        19           O1  tau(  19) = (   4.9430310   2.2313359   4.6684056  )
        20           O1  tau(  20) = (   6.2245660   0.7437786   2.6545865  )
        21           O1  tau(  21) = (   3.6614961   0.7437786   2.6545865  )
        22           Ti1 tau(  22) = (   4.9430310   0.7437786   5.9499405  )
        23           O1  tau(  23) = (   1.6444126   2.2313359   7.9291264  )
        24           O1  tau(  24) = (   4.9430310   2.2313359   7.2314755  )
        25           O1  tau(  25) = (   2.9292120   0.7437786   5.9499405  )
        26           Ti1 tau(  26) = (   4.9374203   2.2313360   9.4425711  )
        27           O1  tau(  27) = (   4.9384755   2.2313359  11.2756104  )
        28           O1  tau(  28) = (   6.2333856   0.7395591   9.2701299  )
        29           O1  tau(  29) = (   3.6424277   0.7403199   9.2676498  )
        30           Ti1 tau(  30) = (   4.9388558   0.7382018  12.7898683  )
        31           O1  tau(  31) = (   4.8884434   2.2313358  13.8602379  )
        32           O1  tau(  32) = (   2.8718067   0.7224686  12.6922084  )
        33           O1  tau(  33) = (   1.6476770   5.2064503   1.3730516  )
        34           Ti1 tau(  34) = (   4.9430310   5.2064503   2.6545865  )
        35           O1  tau(  35) = (   4.9430310   5.2064503   4.6684056  )
        36           O1  tau(  36) = (   6.2245660   3.7188931   2.6545865  )
        37           O1  tau(  37) = (   3.6614961   3.7188931   2.6545865  )
        38           Ti1 tau(  38) = (   4.9430310   3.7188931   5.9499405  )
        39           O1  tau(  39) = (   1.6444418   5.2064506   7.9393866  )
        40           O1  tau(  40) = (   4.9430310   5.2064503   7.2314755  )
        41           O1  tau(  41) = (   2.9292120   3.7188931   5.9499405  )
        42           Ti1 tau(  42) = (   4.9387790   5.2064503   9.4241858  )
        43           O1  tau(  43) = (   4.9379278   5.2064504  11.2756977  )
        44           O1  tau(  44) = (   6.2333855   3.7231127   9.2701299  )
        45           O1  tau(  45) = (   3.6424278   3.7223520   9.2676499  )
        46           Ti1 tau(  46) = (   4.9388558   3.7244696  12.7898683  )
        47           O1  tau(  47) = (   4.8902929   5.2064502  13.8618696  )
        48           O1  tau(  48) = (   2.8718066   3.7402036  12.6922086  )
        49           O1  tau(  49) = (   1.7618258   2.2313358  14.8494317  )
        50           H1  tau(  50) = (   2.6007197   2.2313366  15.3628018  )

     number of k points=    32  Fermi-Dirac smearing, width (Ry)=  0.0073
                       cart. coord. in units 2pi/alat
        k(    1) = (   0.0000000   0.0000000   0.0000000), wk =   0.0277778
        k(    2) = (   0.0000000   0.0280101   0.0000000), wk =   0.0555556
        k(    3) = (   0.0000000   0.0560203   0.0000000), wk =   0.0555556
        k(    4) = (   0.0000000  -0.0840304   0.0000000), wk =   0.0277778
        k(    5) = (   0.0252881   0.0000000   0.0000000), wk =   0.0555556
        k(    6) = (   0.0252881   0.0280101   0.0000000), wk =   0.1111111
        k(    7) = (   0.0252881   0.0560203   0.0000000), wk =   0.1111111
        k(    8) = (   0.0252881  -0.0840304   0.0000000), wk =   0.0555556
        k(    9) = (   0.0505763   0.0000000   0.0000000), wk =   0.0555556
        k(   10) = (   0.0505763   0.0280101   0.0000000), wk =   0.1111111
        k(   11) = (   0.0505763   0.0560203   0.0000000), wk =   0.1111111
        k(   12) = (   0.0505763  -0.0840304   0.0000000), wk =   0.0555556
        k(   13) = (  -0.0758644   0.0000000   0.0000000), wk =   0.0277778
        k(   14) = (  -0.0758644   0.0280101   0.0000000), wk =   0.0555556
        k(   15) = (  -0.0758644   0.0560203   0.0000000), wk =   0.0555556
        k(   16) = (  -0.0758644  -0.0840304   0.0000000), wk =   0.0277778
        k(   17) = (   0.0000000   0.0000000   0.0000000), wk =   0.0277778
        k(   18) = (   0.0000000   0.0280101   0.0000000), wk =   0.0555556
        k(   19) = (   0.0000000   0.0560203   0.0000000), wk =   0.0555556
        k(   20) = (   0.0000000  -0.0840304   0.0000000), wk =   0.0277778
        k(   21) = (   0.0252881   0.0000000   0.0000000), wk =   0.0555556
        k(   22) = (   0.0252881   0.0280101   0.0000000), wk =   0.1111111
        k(   23) = (   0.0252881   0.0560203   0.0000000), wk =   0.1111111
        k(   24) = (   0.0252881  -0.0840304   0.0000000), wk =   0.0555556
        k(   25) = (   0.0505763   0.0000000   0.0000000), wk =   0.0555556
        k(   26) = (   0.0505763   0.0280101   0.0000000), wk =   0.1111111
        k(   27) = (   0.0505763   0.0560203   0.0000000), wk =   0.1111111
        k(   28) = (   0.0505763  -0.0840304   0.0000000), wk =   0.0555556
        k(   29) = (  -0.0758644   0.0000000   0.0000000), wk =   0.0277778
        k(   30) = (  -0.0758644   0.0280101   0.0000000), wk =   0.0555556
        k(   31) = (  -0.0758644   0.0560203   0.0000000), wk =   0.0555556
        k(   32) = (  -0.0758644  -0.0840304   0.0000000), wk =   0.0277778

     Dense  grid:  1096637 G-vectors     FFT dimensions: (  80,  72, 375)

     Smooth grid:   277353 G-vectors     FFT dimensions: (  54,  45, 240)

     Largest allocated arrays     est. size (Mb)     dimensions
        Kohn-Sham Wavefunctions         9.81 Mb     (    2180,  295)
        NL pseudopotentials            18.43 Mb     (    2180,  554)
        Each V/rho on FFT grid          4.22 Mb     (  138240,   2)
        Each G-vector array             0.52 Mb     (   68538)
        G-vector shells                 0.25 Mb     (   33046)
     Largest temporary arrays     est. size (Mb)     dimensions
        Auxiliary wavefunctions        39.25 Mb     (    2180, 1180)
        Each subspace H/S matrix       21.25 Mb     (    1180, 1180)
        Each <psi_i|beta_j> matrix      2.49 Mb     (     554,  295)
        Arrays for rho mixing          21.09 Mb     (  138240,   10)

     Check: negative/imaginary core charge=   -0.000049    0.000000

     The initial density is read from file :
     ./calc.save/charge-density.dat


     negative rho (up, down):  1.350E-02 1.350E-02


     ************************************************************************
     *
     * You are using vdW-DF for exchange-correlation in this calculation.
     * Please cite the following three references that made this development
     * possible:
     *
     *   M. Dion, H. Rydberg, E. Schroder, D. C. Langreth, and
     *   B. I. Lundqvist, Phys. Rev. Lett. 92, 246401 (2004).
     *
     *   T. Thonhauser, V. R. Cooper, S. Li, A. Puzder, P. Hyldgaard, and
     *   D. C. Langreth, Phys. Rev. B 76, 125112 (2007).
     *
     *   G. Roman-Perez and J. M. Soler, Phys. Rev. Lett. 103, 096102 (2009).
     *
     *
     * If you are using vdW-DF2, please also cite:
     *
     *   K. Lee, E. D. Murray, L. Kong, B. I. Lundqvist, and
     *   D. C. Langreth, Phys. Rev. B 82, 081101(R) (2010).
     *
     *
     * If you are calculating the stress with vdW-DF, please also cite:
     *
     *   R. Sabatini, E. Kucukbenli, B. Kolb, T. Thonhauser, and
     *   S. de Gironcoli, J. Phys.: Condens. Matter 24, 424209 (2012).
     *
     ************************************************************************

     Carrying out vdW-DF run using the following parameters:

     Nqs =      20    Nr_points =    1024   r_max =   100.000
     q_mesh =
               0.00001000     0.04494208     0.09755937     0.15916263
               0.23128650     0.31572767     0.41458969     0.53033537
               0.66584808     0.82450364     1.01025438     1.22772762
               1.48234092     1.78043706     2.12944203     2.53805004
               3.01644009     3.57652955     4.23227104     5.00000000

     Gradients computed in reciprocal space

     ************************************************************************


     Starting wfc are  293 randomized atomic wfcs +    2 random wfc

     total cpu time spent up to now is       58.4 secs

     Self-consistent Calculation

     iteration #  1     ecut=    40.42 Ry     beta=0.10
     Davidson diagonalization with overlap
     c_bands:  1 eigenvalues not converged
     c_bands:  1 eigenvalues not converged
     ethr =  1.00E-05,  avg # of iterations = 17.0

     negative rho (up, down):  1.350E-02 1.350E-02
 
     Magnetic moment per site:
     atom:    1    charge:    3.1245    magn:   -0.0002    constr:    0.0000
     atom:    2    charge:    2.0138    magn:    0.0002    constr:    0.0000
     atom:    3    charge:    3.1200    magn:    0.0000    constr:    0.0000
     atom:    4    charge:    2.0159    magn:   -0.0000    constr:    0.0000
     atom:    5    charge:    3.1144    magn:    0.0001    constr:    0.0000
     atom:    6    charge:    2.0057    magn:   -0.0002    constr:    0.0000
     atom:    7    charge:    3.1162    magn:    0.0000    constr:    0.0000
     atom:    8    charge:    2.0097    magn:   -0.0001    constr:    0.0000
     atom:    9    charge:    3.1245    magn:   -0.0002    constr:    0.0000
     atom:   10    charge:    2.0140    magn:    0.0002    constr:    0.0000
     atom:   11    charge:    3.1198    magn:    0.0000    constr:    0.0000
     atom:   12    charge:    2.0159    magn:   -0.0000    constr:    0.0000
     atom:   13    charge:    3.1144    magn:    0.0001    constr:    0.0000
     atom:   14    charge:    2.0210    magn:   -0.0000    constr:    0.0000
     atom:   15    charge:    3.1166    magn:    0.0000    constr:    0.0000
     atom:   16    charge:    2.0097    magn:   -0.0001    constr:    0.0000
     atom:   17    charge:    1.9871    magn:    0.0010    constr:    0.0000
     atom:   18    charge:    3.1240    magn:    0.0000    constr:    0.0000
     atom:   19    charge:    2.0102    magn:    0.0000    constr:    0.0000
     atom:   20    charge:    2.0135    magn:    0.0000    constr:    0.0000
     atom:   21    charge:    2.0135    magn:    0.0000    constr:    0.0000
     atom:   22    charge:    3.1199    magn:    0.0000    constr:    0.0000
     atom:   23    charge:    2.0201    magn:   -0.0001    constr:    0.0000
     atom:   24    charge:    2.0015    magn:   -0.0002    constr:    0.0000
     atom:   25    charge:    2.0159    magn:   -0.0000    constr:    0.0000
     atom:   26    charge:    3.1144    magn:    0.0001    constr:    0.0000
     atom:   27    charge:    2.0074    magn:   -0.0003    constr:    0.0000
     atom:   28    charge:    2.0135    magn:   -0.0002    constr:    0.0000
     atom:   29    charge:    2.0116    magn:   -0.0002    constr:    0.0000
     atom:   30    charge:    3.1193    magn:    0.0000    constr:    0.0000
     atom:   31    charge:    2.0112    magn:   -0.0000    constr:    0.0000
     atom:   32    charge:    2.0104    magn:   -0.0001    constr:    0.0000
     atom:   33    charge:    1.9871    magn:    0.0011    constr:    0.0000
     atom:   34    charge:    3.1240    magn:    0.0000    constr:    0.0000
     atom:   35    charge:    2.0102    magn:    0.0000    constr:    0.0000
     atom:   36    charge:    2.0135    magn:    0.0000    constr:    0.0000
     atom:   37    charge:    2.0135    magn:    0.0000    constr:    0.0000
     atom:   38    charge:    3.1199    magn:    0.0000    constr:    0.0000
     atom:   39    charge:    2.0102    magn:   -0.0001    constr:    0.0000
     atom:   40    charge:    2.0019    magn:   -0.0002    constr:    0.0000
     atom:   41    charge:    2.0159    magn:   -0.0000    constr:    0.0000
     atom:   42    charge:    3.1217    magn:    0.0001    constr:    0.0000
     atom:   43    charge:    2.0073    magn:   -0.0003    constr:    0.0000
     atom:   44    charge:    2.0135    magn:   -0.0002    constr:    0.0000
     atom:   45    charge:    2.0116    magn:   -0.0002    constr:    0.0000
     atom:   46    charge:    3.1193    magn:    0.0000    constr:    0.0000
     atom:   47    charge:    2.0109    magn:   -0.0001    constr:    0.0000
     atom:   48    charge:    2.0104    magn:   -0.0001    constr:    0.0000
     atom:   49    charge:    2.0202    magn:    0.0000    constr:    0.0000
     atom:   50    charge:    0.3951    magn:   -0.0000    constr:    0.0000

     total cpu time spent up to now is      830.0 secs

     total energy              =   -3005.52866722 Ry
     Harris-Foulkes estimate   =   -3005.52976187 Ry
     estimated scf accuracy    <       0.00648076 Ry

     total magnetization       =     0.00 Bohr mag/cell
     absolute magnetization    =     0.01 Bohr mag/cell

     iteration #  2     ecut=    40.42 Ry     beta=0.10
     Davidson diagonalization with overlap
     ethr =  1.66E-06,  avg # of iterations =  6.5

     negative rho (up, down):  1.350E-02 1.350E-02
 
     Magnetic moment per site:
     atom:    1    charge:    3.1244    magn:   -0.0002    constr:    0.0000
     atom:    2    charge:    2.0137    magn:    0.0002    constr:    0.0000
     atom:    3    charge:    3.1200    magn:    0.0000    constr:    0.0000
     atom:    4    charge:    2.0159    magn:   -0.0000    constr:    0.0000
     atom:    5    charge:    3.1144    magn:    0.0001    constr:    0.0000
     atom:    6    charge:    2.0059    magn:   -0.0002    constr:    0.0000
     atom:    7    charge:    3.1162    magn:    0.0000    constr:    0.0000
     atom:    8    charge:    2.0098    magn:   -0.0001    constr:    0.0000
     atom:    9    charge:    3.1244    magn:   -0.0002    constr:    0.0000
     atom:   10    charge:    2.0138    magn:    0.0002    constr:    0.0000
     atom:   11    charge:    3.1198    magn:    0.0000    constr:    0.0000
     atom:   12    charge:    2.0159    magn:   -0.0000    constr:    0.0000
     atom:   13    charge:    3.1144    magn:    0.0001    constr:    0.0000
     atom:   14    charge:    2.0211    magn:   -0.0000    constr:    0.0000
     atom:   15    charge:    3.1166    magn:    0.0000    constr:    0.0000
     atom:   16    charge:    2.0098    magn:   -0.0001    constr:    0.0000
     atom:   17    charge:    1.9865    magn:    0.0010    constr:    0.0000
     atom:   18    charge:    3.1240    magn:    0.0000    constr:    0.0000
     atom:   19    charge:    2.0102    magn:    0.0000    constr:    0.0000
     atom:   20    charge:    2.0135    magn:    0.0000    constr:    0.0000
     atom:   21    charge:    2.0135    magn:    0.0000    constr:    0.0000
     atom:   22    charge:    3.1199    magn:    0.0000    constr:    0.0000
     atom:   23    charge:    2.0201    magn:   -0.0001    constr:    0.0000
     atom:   24    charge:    2.0016    magn:   -0.0002    constr:    0.0000
     atom:   25    charge:    2.0159    magn:   -0.0000    constr:    0.0000
     atom:   26    charge:    3.1144    magn:    0.0001    constr:    0.0000
     atom:   27    charge:    2.0076    magn:   -0.0003    constr:    0.0000
     atom:   28    charge:    2.0136    magn:   -0.0002    constr:    0.0000
     atom:   29    charge:    2.0117    magn:   -0.0002    constr:    0.0000
     atom:   30    charge:    3.1193    magn:    0.0000    constr:    0.0000
     atom:   31    charge:    2.0112    magn:   -0.0000    constr:    0.0000
     atom:   32    charge:    2.0105    magn:   -0.0001    constr:    0.0000
     atom:   33    charge:    1.9865    magn:    0.0011    constr:    0.0000
     atom:   34    charge:    3.1239    magn:    0.0000    constr:    0.0000
     atom:   35    charge:    2.0102    magn:    0.0000    constr:    0.0000
     atom:   36    charge:    2.0135    magn:    0.0000    constr:    0.0000
     atom:   37    charge:    2.0135    magn:    0.0000    constr:    0.0000
     atom:   38    charge:    3.1199    magn:    0.0000    constr:    0.0000
     atom:   39    charge:    2.0102    magn:   -0.0001    constr:    0.0000
     atom:   40    charge:    2.0020    magn:   -0.0002    constr:    0.0000
     atom:   41    charge:    2.0159    magn:   -0.0000    constr:    0.0000
     atom:   42    charge:    3.1217    magn:    0.0001    constr:    0.0000
     atom:   43    charge:    2.0075    magn:   -0.0002    constr:    0.0000
     atom:   44    charge:    2.0136    magn:   -0.0002    constr:    0.0000
     atom:   45    charge:    2.0117    magn:   -0.0002    constr:    0.0000
     atom:   46    charge:    3.1193    magn:    0.0000    constr:    0.0000
     atom:   47    charge:    2.0110    magn:   -0.0001    constr:    0.0000
     atom:   48    charge:    2.0105    magn:   -0.0001    constr:    0.0000
     atom:   49    charge:    2.0200    magn:    0.0000    constr:    0.0000
     atom:   50    charge:    0.3951    magn:   -0.0000    constr:    0.0000

     total cpu time spent up to now is     1064.8 secs

     total energy              =   -3005.52848167 Ry
     Harris-Foulkes estimate   =   -3005.53033664 Ry
     estimated scf accuracy    <       0.03453599 Ry

     total magnetization       =     0.00 Bohr mag/cell
     absolute magnetization    =     0.01 Bohr mag/cell

     iteration #  3     ecut=    40.42 Ry     beta=0.10
     Davidson diagonalization with overlap
     ethr =  1.66E-06,  avg # of iterations =  5.3

     negative rho (up, down):  1.350E-02 1.350E-02
 
     Magnetic moment per site:
     atom:    1    charge:    3.1244    magn:   -0.0002    constr:    0.0000
     atom:    2    charge:    2.0137    magn:    0.0002    constr:    0.0000
     atom:    3    charge:    3.1200    magn:    0.0000    constr:    0.0000
     atom:    4    charge:    2.0158    magn:   -0.0000    constr:    0.0000
     atom:    5    charge:    3.1144    magn:    0.0001    constr:    0.0000
     atom:    6    charge:    2.0059    magn:   -0.0002    constr:    0.0000
     atom:    7    charge:    3.1161    magn:    0.0000    constr:    0.0000
     atom:    8    charge:    2.0099    magn:   -0.0001    constr:    0.0000
     atom:    9    charge:    3.1244    magn:   -0.0002    constr:    0.0000
     atom:   10    charge:    2.0138    magn:    0.0002    constr:    0.0000
     atom:   11    charge:    3.1198    magn:    0.0000    constr:    0.0000
     atom:   12    charge:    2.0158    magn:   -0.0000    constr:    0.0000
     atom:   13    charge:    3.1144    magn:    0.0001    constr:    0.0000
     atom:   14    charge:    2.0211    magn:   -0.0000    constr:    0.0000
     atom:   15    charge:    3.1166    magn:    0.0000    constr:    0.0000
     atom:   16    charge:    2.0099    magn:   -0.0001    constr:    0.0000
     atom:   17    charge:    1.9866    magn:    0.0010    constr:    0.0000
     atom:   18    charge:    3.1240    magn:    0.0000    constr:    0.0000
     atom:   19    charge:    2.0102    magn:    0.0000    constr:    0.0000
     atom:   20    charge:    2.0135    magn:    0.0000    constr:    0.0000
     atom:   21    charge:    2.0135    magn:    0.0000    constr:    0.0000
     atom:   22    charge:    3.1199    magn:    0.0000    constr:    0.0000
     atom:   23    charge:    2.0201    magn:   -0.0001    constr:    0.0000
     atom:   24    charge:    2.0015    magn:   -0.0002    constr:    0.0000
     atom:   25    charge:    2.0158    magn:   -0.0000    constr:    0.0000
     atom:   26    charge:    3.1143    magn:    0.0001    constr:    0.0000
     atom:   27    charge:    2.0077    magn:   -0.0003    constr:    0.0000
     atom:   28    charge:    2.0136    magn:   -0.0002    constr:    0.0000
     atom:   29    charge:    2.0117    magn:   -0.0002    constr:    0.0000
     atom:   30    charge:    3.1193    magn:    0.0000    constr:    0.0000
     atom:   31    charge:    2.0113    magn:   -0.0000    constr:    0.0000
     atom:   32    charge:    2.0106    magn:   -0.0001    constr:    0.0000
     atom:   33    charge:    1.9865    magn:    0.0010    constr:    0.0000
     atom:   34    charge:    3.1239    magn:    0.0000    constr:    0.0000
     atom:   35    charge:    2.0102    magn:    0.0000    constr:    0.0000
     atom:   36    charge:    2.0135    magn:    0.0000    constr:    0.0000
     atom:   37    charge:    2.0135    magn:    0.0000    constr:    0.0000
     atom:   38    charge:    3.1199    magn:    0.0000    constr:    0.0000
     atom:   39    charge:    2.0101    magn:   -0.0001    constr:    0.0000
     atom:   40    charge:    2.0019    magn:   -0.0002    constr:    0.0000
     atom:   41    charge:    2.0158    magn:   -0.0000    constr:    0.0000
     atom:   42    charge:    3.1217    magn:    0.0001    constr:    0.0000
     atom:   43    charge:    2.0075    magn:   -0.0002    constr:    0.0000
     atom:   44    charge:    2.0136    magn:   -0.0002    constr:    0.0000
     atom:   45    charge:    2.0117    magn:   -0.0002    constr:    0.0000
     atom:   46    charge:    3.1193    magn:    0.0000    constr:    0.0000
     atom:   47    charge:    2.0111    magn:   -0.0001    constr:    0.0000
     atom:   48    charge:    2.0106    magn:   -0.0001    constr:    0.0000
     atom:   49    charge:    2.0188    magn:    0.0000    constr:    0.0000
     atom:   50    charge:    0.3951    magn:   -0.0000    constr:    0.0000

     total cpu time spent up to now is     1282.4 secs

     total energy              =   -3005.52934722 Ry
     Harris-Foulkes estimate   =   -3005.52944699 Ry
     estimated scf accuracy    <       0.00087559 Ry

     total magnetization       =     0.00 Bohr mag/cell
     absolute magnetization    =     0.01 Bohr mag/cell

     iteration #  4     ecut=    40.42 Ry     beta=0.10
     Davidson diagonalization with overlap
     ethr =  2.24E-07,  avg # of iterations =  2.0

     negative rho (up, down):  1.349E-02 1.349E-02
 
     Magnetic moment per site:
     atom:    1    charge:    3.1244    magn:   -0.0002    constr:    0.0000
     atom:    2    charge:    2.0137    magn:    0.0002    constr:    0.0000
     atom:    3    charge:    3.1200    magn:    0.0000    constr:    0.0000
     atom:    4    charge:    2.0158    magn:   -0.0000    constr:    0.0000
     atom:    5    charge:    3.1144    magn:    0.0001    constr:    0.0000
     atom:    6    charge:    2.0059    magn:   -0.0002    constr:    0.0000
     atom:    7    charge:    3.1160    magn:    0.0000    constr:    0.0000
     atom:    8    charge:    2.0099    magn:   -0.0001    constr:    0.0000
     atom:    9    charge:    3.1244    magn:   -0.0002    constr:    0.0000
     atom:   10    charge:    2.0138    magn:    0.0002    constr:    0.0000
     atom:   11    charge:    3.1198    magn:    0.0000    constr:    0.0000
     atom:   12    charge:    2.0158    magn:   -0.0000    constr:    0.0000
     atom:   13    charge:    3.1144    magn:    0.0001    constr:    0.0000
     atom:   14    charge:    2.0211    magn:   -0.0000    constr:    0.0000
     atom:   15    charge:    3.1166    magn:    0.0000    constr:    0.0000
     atom:   16    charge:    2.0099    magn:   -0.0001    constr:    0.0000
     atom:   17    charge:    1.9865    magn:    0.0009    constr:    0.0000
     atom:   18    charge:    3.1239    magn:    0.0000    constr:    0.0000
     atom:   19    charge:    2.0102    magn:    0.0000    constr:    0.0000
     atom:   20    charge:    2.0135    magn:    0.0000    constr:    0.0000
     atom:   21    charge:    2.0135    magn:    0.0000    constr:    0.0000
     atom:   22    charge:    3.1199    magn:    0.0000    constr:    0.0000
     atom:   23    charge:    2.0201    magn:   -0.0001    constr:    0.0000
     atom:   24    charge:    2.0015    magn:   -0.0002    constr:    0.0000
     atom:   25    charge:    2.0158    magn:   -0.0000    constr:    0.0000
     atom:   26    charge:    3.1143    magn:    0.0001    constr:    0.0000
     atom:   27    charge:    2.0077    magn:   -0.0002    constr:    0.0000
     atom:   28    charge:    2.0136    magn:   -0.0002    constr:    0.0000
     atom:   29    charge:    2.0117    magn:   -0.0002    constr:    0.0000
     atom:   30    charge:    3.1193    magn:    0.0000    constr:    0.0000
     atom:   31    charge:    2.0113    magn:   -0.0000    constr:    0.0000
     atom:   32    charge:    2.0106    magn:   -0.0001    constr:    0.0000
     atom:   33    charge:    1.9865    magn:    0.0010    constr:    0.0000
     atom:   34    charge:    3.1239    magn:    0.0000    constr:    0.0000
     atom:   35    charge:    2.0102    magn:    0.0000    constr:    0.0000
     atom:   36    charge:    2.0135    magn:    0.0000    constr:    0.0000
     atom:   37    charge:    2.0135    magn:    0.0000    constr:    0.0000
     atom:   38    charge:    3.1199    magn:    0.0000    constr:    0.0000
     atom:   39    charge:    2.0102    magn:   -0.0001    constr:    0.0000
     atom:   40    charge:    2.0019    magn:   -0.0002    constr:    0.0000
     atom:   41    charge:    2.0158    magn:   -0.0000    constr:    0.0000
     atom:   42    charge:    3.1217    magn:    0.0001    constr:    0.0000
     atom:   43    charge:    2.0075    magn:   -0.0002    constr:    0.0000
     atom:   44    charge:    2.0136    magn:   -0.0002    constr:    0.0000
     atom:   45    charge:    2.0117    magn:   -0.0002    constr:    0.0000
     atom:   46    charge:    3.1193    magn:    0.0000    constr:    0.0000
     atom:   47    charge:    2.0111    magn:   -0.0001    constr:    0.0000
     atom:   48    charge:    2.0106    magn:   -0.0001    constr:    0.0000
     atom:   49    charge:    2.0178    magn:    0.0000    constr:    0.0000
     atom:   50    charge:    0.3951    magn:   -0.0000    constr:    0.0000

     total cpu time spent up to now is     1455.3 secs

     total energy              =   -3005.52933160 Ry
     Harris-Foulkes estimate   =   -3005.52937773 Ry
     estimated scf accuracy    <       0.00043552 Ry

     total magnetization       =     0.00 Bohr mag/cell
     absolute magnetization    =     0.01 Bohr mag/cell

     iteration #  5     ecut=    40.42 Ry     beta=0.10
     Davidson diagonalization with overlap
     ethr =  1.11E-07,  avg # of iterations =  2.0

     negative rho (up, down):  1.349E-02 1.349E-02
 
     Magnetic moment per site:
     atom:    1    charge:    3.1244    magn:   -0.0002    constr:    0.0000
     atom:    2    charge:    2.0137    magn:    0.0002    constr:    0.0000
     atom:    3    charge:    3.1200    magn:    0.0000    constr:    0.0000
     atom:    4    charge:    2.0159    magn:   -0.0000    constr:    0.0000
     atom:    5    charge:    3.1144    magn:    0.0000    constr:    0.0000
     atom:    6    charge:    2.0059    magn:   -0.0001    constr:    0.0000
     atom:    7    charge:    3.1160    magn:    0.0000    constr:    0.0000
     atom:    8    charge:    2.0097    magn:   -0.0000    constr:    0.0000
     atom:    9    charge:    3.1244    magn:   -0.0002    constr:    0.0000
     atom:   10    charge:    2.0138    magn:    0.0002    constr:    0.0000
     atom:   11    charge:    3.1198    magn:    0.0000    constr:    0.0000
     atom:   12    charge:    2.0159    magn:   -0.0000    constr:    0.0000
     atom:   13    charge:    3.1144    magn:    0.0000    constr:    0.0000
     atom:   14    charge:    2.0211    magn:   -0.0000    constr:    0.0000
     atom:   15    charge:    3.1165    magn:    0.0000    constr:    0.0000
     atom:   16    charge:    2.0097    magn:   -0.0000    constr:    0.0000
     atom:   17    charge:    1.9864    magn:    0.0008    constr:    0.0000
     atom:   18    charge:    3.1239    magn:    0.0000    constr:    0.0000
     atom:   19    charge:    2.0102    magn:    0.0000    constr:    0.0000
     atom:   20    charge:    2.0135    magn:    0.0000    constr:    0.0000
     atom:   21    charge:    2.0135    magn:    0.0000    constr:    0.0000
     atom:   22    charge:    3.1199    magn:    0.0000    constr:    0.0000
     atom:   23    charge:    2.0201    magn:   -0.0001    constr:    0.0000
     atom:   24    charge:    2.0016    magn:   -0.0001    constr:    0.0000
     atom:   25    charge:    2.0159    magn:   -0.0000    constr:    0.0000
     atom:   26    charge:    3.1144    magn:    0.0001    constr:    0.0000
     atom:   27    charge:    2.0077    magn:   -0.0002    constr:    0.0000
     atom:   28    charge:    2.0136    magn:   -0.0002    constr:    0.0000
     atom:   29    charge:    2.0117    magn:   -0.0002    constr:    0.0000
     atom:   30    charge:    3.1193    magn:    0.0000    constr:    0.0000
     atom:   31    charge:    2.0113    magn:   -0.0000    constr:    0.0000
     atom:   32    charge:    2.0106    magn:   -0.0000    constr:    0.0000
     atom:   33    charge:    1.9864    magn:    0.0009    constr:    0.0000
     atom:   34    charge:    3.1239    magn:    0.0000    constr:    0.0000
     atom:   35    charge:    2.0102    magn:    0.0000    constr:    0.0000
     atom:   36    charge:    2.0135    magn:    0.0000    constr:    0.0000
     atom:   37    charge:    2.0135    magn:    0.0000    constr:    0.0000
     atom:   38    charge:    3.1199    magn:    0.0000    constr:    0.0000
     atom:   39    charge:    2.0102    magn:   -0.0001    constr:    0.0000
     atom:   40    charge:    2.0020    magn:   -0.0001    constr:    0.0000
     atom:   41    charge:    2.0159    magn:   -0.0000    constr:    0.0000
     atom:   42    charge:    3.1217    magn:    0.0001    constr:    0.0000
     atom:   43    charge:    2.0075    magn:   -0.0002    constr:    0.0000
     atom:   44    charge:    2.0136    magn:   -0.0002    constr:    0.0000
     atom:   45    charge:    2.0117    magn:   -0.0002    constr:    0.0000
     atom:   46    charge:    3.1193    magn:    0.0000    constr:    0.0000
     atom:   47    charge:    2.0108    magn:   -0.0001    constr:    0.0000
     atom:   48    charge:    2.0106    magn:   -0.0000    constr:    0.0000
     atom:   49    charge:    2.0179    magn:    0.0000    constr:    0.0000
     atom:   50    charge:    0.3950    magn:   -0.0000    constr:    0.0000

     total cpu time spent up to now is     1629.1 secs

     total energy              =   -3005.52933144 Ry
     Harris-Foulkes estimate   =   -3005.52934731 Ry
     estimated scf accuracy    <       0.00020424 Ry

     total magnetization       =     0.00 Bohr mag/cell
     absolute magnetization    =     0.01 Bohr mag/cell

     iteration #  6     ecut=    40.42 Ry     beta=0.10
     Davidson diagonalization with overlap
     ethr =  5.22E-08,  avg # of iterations =  2.0

     negative rho (up, down):  1.349E-02 1.349E-02
 
     Magnetic moment per site:
     atom:    1    charge:    3.1244    magn:   -0.0001    constr:    0.0000
     atom:    2    charge:    2.0137    magn:    0.0001    constr:    0.0000
     atom:    3    charge:    3.1200    magn:   -0.0000    constr:    0.0000
     atom:    4    charge:    2.0158    magn:   -0.0000    constr:    0.0000
     atom:    5    charge:    3.1144    magn:    0.0000    constr:    0.0000
     atom:    6    charge:    2.0059    magn:   -0.0001    constr:    0.0000
     atom:    7    charge:    3.1161    magn:    0.0000    constr:    0.0000
     atom:    8    charge:    2.0097    magn:   -0.0000    constr:    0.0000
     atom:    9    charge:    3.1244    magn:   -0.0001    constr:    0.0000
     atom:   10    charge:    2.0138    magn:    0.0002    constr:    0.0000
     atom:   11    charge:    3.1198    magn:    0.0000    constr:    0.0000
     atom:   12    charge:    2.0158    magn:   -0.0000    constr:    0.0000
     atom:   13    charge:    3.1144    magn:    0.0000    constr:    0.0000
     atom:   14    charge:    2.0211    magn:   -0.0000    constr:    0.0000
     atom:   15    charge:    3.1165    magn:    0.0000    constr:    0.0000
     atom:   16    charge:    2.0097    magn:   -0.0000    constr:    0.0000
     atom:   17    charge:    1.9865    magn:    0.0007    constr:    0.0000
     atom:   18    charge:    3.1239    magn:   -0.0000    constr:    0.0000
     atom:   19    charge:    2.0102    magn:    0.0000    constr:    0.0000
     atom:   20    charge:    2.0135    magn:    0.0000    constr:    0.0000
     atom:   21    charge:    2.0135    magn:    0.0000    constr:    0.0000
     atom:   22    charge:    3.1199    magn:    0.0000    constr:    0.0000
     atom:   23    charge:    2.0201    magn:   -0.0000    constr:    0.0000
     atom:   24    charge:    2.0015    magn:   -0.0001    constr:    0.0000
     atom:   25    charge:    2.0158    magn:   -0.0000    constr:    0.0000
     atom:   26    charge:    3.1143    magn:    0.0001    constr:    0.0000
     atom:   27    charge:    2.0077    magn:   -0.0002    constr:    0.0000
     atom:   28    charge:    2.0136    magn:   -0.0001    constr:    0.0000
     atom:   29    charge:    2.0117    magn:   -0.0001    constr:    0.0000
     atom:   30    charge:    3.1193    magn:    0.0000    constr:    0.0000
     atom:   31    charge:    2.0112    magn:   -0.0000    constr:    0.0000
     atom:   32    charge:    2.0106    magn:   -0.0000    constr:    0.0000
     atom:   33    charge:    1.9864    magn:    0.0008    constr:    0.0000
     atom:   34    charge:    3.1239    magn:   -0.0000    constr:    0.0000
     atom:   35    charge:    2.0102    magn:    0.0000    constr:    0.0000
     atom:   36    charge:    2.0135    magn:    0.0000    constr:    0.0000
     atom:   37    charge:    2.0135    magn:    0.0000    constr:    0.0000
     atom:   38    charge:    3.1199    magn:    0.0000    constr:    0.0000
     atom:   39    charge:    2.0102    magn:   -0.0001    constr:    0.0000
     atom:   40    charge:    2.0019    magn:   -0.0001    constr:    0.0000
     atom:   41    charge:    2.0158    magn:   -0.0000    constr:    0.0000
     atom:   42    charge:    3.1217    magn:    0.0001    constr:    0.0000
     atom:   43    charge:    2.0075    magn:   -0.0002    constr:    0.0000
     atom:   44    charge:    2.0136    magn:   -0.0001    constr:    0.0000
     atom:   45    charge:    2.0117    magn:   -0.0001    constr:    0.0000
     atom:   46    charge:    3.1193    magn:    0.0000    constr:    0.0000
     atom:   47    charge:    2.0107    magn:   -0.0000    constr:    0.0000
     atom:   48    charge:    2.0106    magn:   -0.0000    constr:    0.0000
     atom:   49    charge:    2.0183    magn:    0.0000    constr:    0.0000
     atom:   50    charge:    0.3949    magn:   -0.0000    constr:    0.0000

     total cpu time spent up to now is     1804.4 secs

     total energy              =   -3005.52934189 Ry
     Harris-Foulkes estimate   =   -3005.52934412 Ry
     estimated scf accuracy    <       0.00007672 Ry

     total magnetization       =     0.00 Bohr mag/cell
     absolute magnetization    =     0.01 Bohr mag/cell

     iteration #  7     ecut=    40.42 Ry     beta=0.10
     Davidson diagonalization with overlap
     ethr =  1.96E-08,  avg # of iterations =  2.0

     negative rho (up, down):  1.349E-02 1.349E-02
 
     Magnetic moment per site:
     atom:    1    charge:    3.1244    magn:   -0.0001    constr:    0.0000
     atom:    2    charge:    2.0137    magn:    0.0001    constr:    0.0000
     atom:    3    charge:    3.1200    magn:   -0.0000    constr:    0.0000
     atom:    4    charge:    2.0159    magn:   -0.0000    constr:    0.0000
     atom:    5    charge:    3.1144    magn:    0.0000    constr:    0.0000
     atom:    6    charge:    2.0059    magn:   -0.0001    constr:    0.0000
     atom:    7    charge:    3.1162    magn:    0.0000    constr:    0.0000
     atom:    8    charge:    2.0097    magn:   -0.0000    constr:    0.0000
     atom:    9    charge:    3.1244    magn:   -0.0001    constr:    0.0000
     atom:   10    charge:    2.0138    magn:    0.0001    constr:    0.0000
     atom:   11    charge:    3.1198    magn:    0.0000    constr:    0.0000
     atom:   12    charge:    2.0159    magn:   -0.0000    constr:    0.0000
     atom:   13    charge:    3.1144    magn:    0.0000    constr:    0.0000
     atom:   14    charge:    2.0211    magn:   -0.0000    constr:    0.0000
     atom:   15    charge:    3.1165    magn:    0.0000    constr:    0.0000
     atom:   16    charge:    2.0097    magn:   -0.0000    constr:    0.0000
     atom:   17    charge:    1.9864    magn:    0.0007    constr:    0.0000
     atom:   18    charge:    3.1239    magn:   -0.0000    constr:    0.0000
     atom:   19    charge:    2.0102    magn:    0.0000    constr:    0.0000
     atom:   20    charge:    2.0135    magn:    0.0000    constr:    0.0000
     atom:   21    charge:    2.0135    magn:    0.0000    constr:    0.0000
     atom:   22    charge:    3.1199    magn:    0.0000    constr:    0.0000
     atom:   23    charge:    2.0201    magn:   -0.0000    constr:    0.0000
     atom:   24    charge:    2.0015    magn:   -0.0001    constr:    0.0000
     atom:   25    charge:    2.0158    magn:   -0.0000    constr:    0.0000
     atom:   26    charge:    3.1143    magn:    0.0000    constr:    0.0000
     atom:   27    charge:    2.0076    magn:   -0.0001    constr:    0.0000
     atom:   28    charge:    2.0136    magn:   -0.0001    constr:    0.0000
     atom:   29    charge:    2.0117    magn:   -0.0001    constr:    0.0000
     atom:   30    charge:    3.1193    magn:    0.0000    constr:    0.0000
     atom:   31    charge:    2.0112    magn:   -0.0000    constr:    0.0000
     atom:   32    charge:    2.0106    magn:   -0.0000    constr:    0.0000
     atom:   33    charge:    1.9864    magn:    0.0007    constr:    0.0000
     atom:   34    charge:    3.1239    magn:   -0.0000    constr:    0.0000
     atom:   35    charge:    2.0102    magn:    0.0000    constr:    0.0000
     atom:   36    charge:    2.0135    magn:    0.0000    constr:    0.0000
     atom:   37    charge:    2.0135    magn:    0.0000    constr:    0.0000
     atom:   38    charge:    3.1199    magn:    0.0000    constr:    0.0000
     atom:   39    charge:    2.0102    magn:   -0.0001    constr:    0.0000
     atom:   40    charge:    2.0019    magn:   -0.0001    constr:    0.0000
     atom:   41    charge:    2.0158    magn:   -0.0000    constr:    0.0000
     atom:   42    charge:    3.1217    magn:    0.0000    constr:    0.0000
     atom:   43    charge:    2.0075    magn:   -0.0001    constr:    0.0000
     atom:   44    charge:    2.0136    magn:   -0.0001    constr:    0.0000
     atom:   45    charge:    2.0117    magn:   -0.0001    constr:    0.0000
     atom:   46    charge:    3.1193    magn:    0.0000    constr:    0.0000
     atom:   47    charge:    2.0108    magn:   -0.0000    constr:    0.0000
     atom:   48    charge:    2.0106    magn:   -0.0000    constr:    0.0000
     atom:   49    charge:    2.0186    magn:    0.0000    constr:    0.0000
     atom:   50    charge:    0.3948    magn:   -0.0000    constr:    0.0000

     total cpu time spent up to now is     1977.5 secs

     total energy              =   -3005.52934689 Ry
     Harris-Foulkes estimate   =   -3005.52934818 Ry
     estimated scf accuracy    <       0.00002302 Ry

     total magnetization       =     0.00 Bohr mag/cell
     absolute magnetization    =     0.01 Bohr mag/cell

     iteration #  8     ecut=    40.42 Ry     beta=0.10
     Davidson diagonalization with overlap
     ethr =  5.89E-09,  avg # of iterations =  2.1

     negative rho (up, down):  1.349E-02 1.349E-02
 
     Magnetic moment per site:
     atom:    1    charge:    3.1244    magn:   -0.0001    constr:    0.0000
     atom:    2    charge:    2.0137    magn:    0.0001    constr:    0.0000
     atom:    3    charge:    3.1200    magn:   -0.0000    constr:    0.0000
     atom:    4    charge:    2.0159    magn:   -0.0000    constr:    0.0000
     atom:    5    charge:    3.1144    magn:    0.0000    constr:    0.0000
     atom:    6    charge:    2.0059    magn:   -0.0001    constr:    0.0000
     atom:    7    charge:    3.1162    magn:    0.0000    constr:    0.0000
     atom:    8    charge:    2.0098    magn:   -0.0000    constr:    0.0000
     atom:    9    charge:    3.1244    magn:   -0.0001    constr:    0.0000
     atom:   10    charge:    2.0138    magn:    0.0001    constr:    0.0000
     atom:   11    charge:    3.1198    magn:    0.0000    constr:    0.0000
     atom:   12    charge:    2.0159    magn:   -0.0000    constr:    0.0000
     atom:   13    charge:    3.1144    magn:    0.0000    constr:    0.0000
     atom:   14    charge:    2.0211    magn:   -0.0000    constr:    0.0000
     atom:   15    charge:    3.1165    magn:    0.0000    constr:    0.0000
     atom:   16    charge:    2.0098    magn:   -0.0000    constr:    0.0000
     atom:   17    charge:    1.9865    magn:    0.0006    constr:    0.0000
     atom:   18    charge:    3.1239    magn:   -0.0000    constr:    0.0000
     atom:   19    charge:    2.0102    magn:    0.0000    constr:    0.0000
     atom:   20    charge:    2.0135    magn:    0.0000    constr:    0.0000
     atom:   21    charge:    2.0135    magn:    0.0000    constr:    0.0000
     atom:   22    charge:    3.1199    magn:    0.0000    constr:    0.0000
     atom:   23    charge:    2.0201    magn:   -0.0000    constr:    0.0000
     atom:   24    charge:    2.0015    magn:   -0.0001    constr:    0.0000
     atom:   25    charge:    2.0158    magn:   -0.0000    constr:    0.0000
     atom:   26    charge:    3.1143    magn:    0.0000    constr:    0.0000
     atom:   27    charge:    2.0076    magn:   -0.0001    constr:    0.0000
     atom:   28    charge:    2.0136    magn:   -0.0001    constr:    0.0000
     atom:   29    charge:    2.0117    magn:   -0.0001    constr:    0.0000
     atom:   30    charge:    3.1193    magn:    0.0000    constr:    0.0000
     atom:   31    charge:    2.0112    magn:   -0.0000    constr:    0.0000
     atom:   32    charge:    2.0106    magn:   -0.0000    constr:    0.0000
     atom:   33    charge:    1.9865    magn:    0.0007    constr:    0.0000
     atom:   34    charge:    3.1239    magn:   -0.0000    constr:    0.0000
     atom:   35    charge:    2.0102    magn:    0.0000    constr:    0.0000
     atom:   36    charge:    2.0135    magn:    0.0000    constr:    0.0000
     atom:   37    charge:    2.0135    magn:    0.0000    constr:    0.0000
     atom:   38    charge:    3.1199    magn:    0.0000    constr:    0.0000
     atom:   39    charge:    2.0102    magn:   -0.0001    constr:    0.0000
     atom:   40    charge:    2.0019    magn:   -0.0001    constr:    0.0000
     atom:   41    charge:    2.0158    magn:   -0.0000    constr:    0.0000
     atom:   42    charge:    3.1217    magn:    0.0000    constr:    0.0000
     atom:   43    charge:    2.0075    magn:   -0.0001    constr:    0.0000
     atom:   44    charge:    2.0136    magn:   -0.0001    constr:    0.0000
     atom:   45    charge:    2.0117    magn:   -0.0001    constr:    0.0000
     atom:   46    charge:    3.1193    magn:    0.0000    constr:    0.0000
     atom:   47    charge:    2.0109    magn:   -0.0000    constr:    0.0000
     atom:   48    charge:    2.0106    magn:   -0.0000    constr:    0.0000
     atom:   49    charge:    2.0188    magn:    0.0000    constr:    0.0000
     atom:   50    charge:    0.3947    magn:   -0.0000    constr:    0.0000

     total cpu time spent up to now is     2151.1 secs

     total energy              =   -3005.52934822 Ry
     Harris-Foulkes estimate   =   -3005.52934841 Ry
     estimated scf accuracy    <       0.00000555 Ry

     total magnetization       =     0.00 Bohr mag/cell
     absolute magnetization    =     0.01 Bohr mag/cell

     iteration #  9     ecut=    40.42 Ry     beta=0.10
     Davidson diagonalization with overlap
     ethr =  1.42E-09,  avg # of iterations =  2.0

     negative rho (up, down):  1.349E-02 1.349E-02
 
     Magnetic moment per site:
     atom:    1    charge:    3.1244    magn:   -0.0001    constr:    0.0000
     atom:    2    charge:    2.0137    magn:    0.0001    constr:    0.0000
     atom:    3    charge:    3.1200    magn:   -0.0000    constr:    0.0000
     atom:    4    charge:    2.0159    magn:   -0.0000    constr:    0.0000
     atom:    5    charge:    3.1144    magn:    0.0000    constr:    0.0000
     atom:    6    charge:    2.0059    magn:   -0.0001    constr:    0.0000
     atom:    7    charge:    3.1162    magn:    0.0000    constr:    0.0000
     atom:    8    charge:    2.0098    magn:   -0.0000    constr:    0.0000
     atom:    9    charge:    3.1244    magn:   -0.0001    constr:    0.0000
     atom:   10    charge:    2.0138    magn:    0.0001    constr:    0.0000
     atom:   11    charge:    3.1198    magn:    0.0000    constr:    0.0000
     atom:   12    charge:    2.0159    magn:   -0.0000    constr:    0.0000
     atom:   13    charge:    3.1144    magn:    0.0000    constr:    0.0000
     atom:   14    charge:    2.0211    magn:   -0.0000    constr:    0.0000
     atom:   15    charge:    3.1165    magn:    0.0000    constr:    0.0000
     atom:   16    charge:    2.0098    magn:   -0.0000    constr:    0.0000
     atom:   17    charge:    1.9865    magn:    0.0006    constr:    0.0000
     atom:   18    charge:    3.1239    magn:   -0.0000    constr:    0.0000
     atom:   19    charge:    2.0102    magn:    0.0000    constr:    0.0000
     atom:   20    charge:    2.0135    magn:    0.0000    constr:    0.0000
     atom:   21    charge:    2.0135    magn:    0.0000    constr:    0.0000
     atom:   22    charge:    3.1199    magn:    0.0000    constr:    0.0000
     atom:   23    charge:    2.0201    magn:   -0.0000    constr:    0.0000
     atom:   24    charge:    2.0015    magn:   -0.0001    constr:    0.0000
     atom:   25    charge:    2.0158    magn:   -0.0000    constr:    0.0000
     atom:   26    charge:    3.1143    magn:    0.0000    constr:    0.0000
     atom:   27    charge:    2.0076    magn:   -0.0001    constr:    0.0000
     atom:   28    charge:    2.0136    magn:   -0.0001    constr:    0.0000
     atom:   29    charge:    2.0117    magn:   -0.0001    constr:    0.0000
     atom:   30    charge:    3.1193    magn:    0.0000    constr:    0.0000
     atom:   31    charge:    2.0113    magn:   -0.0000    constr:    0.0000
     atom:   32    charge:    2.0106    magn:   -0.0000    constr:    0.0000
     atom:   33    charge:    1.9865    magn:    0.0006    constr:    0.0000
     atom:   34    charge:    3.1239    magn:   -0.0000    constr:    0.0000
     atom:   35    charge:    2.0102    magn:    0.0000    constr:    0.0000
     atom:   36    charge:    2.0135    magn:    0.0000    constr:    0.0000
     atom:   37    charge:    2.0135    magn:    0.0000    constr:    0.0000
     atom:   38    charge:    3.1199    magn:    0.0000    constr:    0.0000
     atom:   39    charge:    2.0102    magn:   -0.0001    constr:    0.0000
     atom:   40    charge:    2.0019    magn:   -0.0001    constr:    0.0000
     atom:   41    charge:    2.0158    magn:   -0.0000    constr:    0.0000
     atom:   42    charge:    3.1217    magn:    0.0000    constr:    0.0000
     atom:   43    charge:    2.0075    magn:   -0.0001    constr:    0.0000
     atom:   44    charge:    2.0136    magn:   -0.0001    constr:    0.0000
     atom:   45    charge:    2.0117    magn:   -0.0001    constr:    0.0000
     atom:   46    charge:    3.1193    magn:    0.0000    constr:    0.0000
     atom:   47    charge:    2.0109    magn:   -0.0000    constr:    0.0000
     atom:   48    charge:    2.0106    magn:   -0.0000    constr:    0.0000
     atom:   49    charge:    2.0188    magn:    0.0000    constr:    0.0000
     atom:   50    charge:    0.3947    magn:   -0.0000    constr:    0.0000

     total cpu time spent up to now is     2325.4 secs

     total energy              =   -3005.52934852 Ry
     Harris-Foulkes estimate   =   -3005.52934852 Ry
     estimated scf accuracy    <       0.00000124 Ry

     total magnetization       =     0.00 Bohr mag/cell
     absolute magnetization    =     0.01 Bohr mag/cell

     iteration # 10     ecut=    40.42 Ry     beta=0.10
     Davidson diagonalization with overlap
     ethr =  3.17E-10,  avg # of iterations =  2.0

     negative rho (up, down):  1.349E-02 1.349E-02
 
     Magnetic moment per site:
     atom:    1    charge:    3.1244    magn:   -0.0001    constr:    0.0000
     atom:    2    charge:    2.0137    magn:    0.0001    constr:    0.0000
     atom:    3    charge:    3.1200    magn:   -0.0000    constr:    0.0000
     atom:    4    charge:    2.0159    magn:    0.0000    constr:    0.0000
     atom:    5    charge:    3.1144    magn:    0.0000    constr:    0.0000
     atom:    6    charge:    2.0059    magn:   -0.0000    constr:    0.0000
     atom:    7    charge:    3.1161    magn:    0.0000    constr:    0.0000
     atom:    8    charge:    2.0097    magn:   -0.0000    constr:    0.0000
     atom:    9    charge:    3.1244    magn:   -0.0001    constr:    0.0000
     atom:   10    charge:    2.0138    magn:    0.0001    constr:    0.0000
     atom:   11    charge:    3.1198    magn:   -0.0000    constr:    0.0000
     atom:   12    charge:    2.0159    magn:    0.0000    constr:    0.0000
     atom:   13    charge:    3.1144    magn:    0.0000    constr:    0.0000
     atom:   14    charge:    2.0211    magn:   -0.0000    constr:    0.0000
     atom:   15    charge:    3.1165    magn:    0.0000    constr:    0.0000
     atom:   16    charge:    2.0097    magn:   -0.0000    constr:    0.0000
     atom:   17    charge:    1.9864    magn:    0.0004    constr:    0.0000
     atom:   18    charge:    3.1239    magn:   -0.0000    constr:    0.0000
     atom:   19    charge:    2.0102    magn:    0.0000    constr:    0.0000
     atom:   20    charge:    2.0135    magn:    0.0000    constr:    0.0000
     atom:   21    charge:    2.0135    magn:    0.0000    constr:    0.0000
     atom:   22    charge:    3.1199    magn:    0.0000    constr:    0.0000
     atom:   23    charge:    2.0201    magn:   -0.0000    constr:    0.0000
     atom:   24    charge:    2.0016    magn:   -0.0000    constr:    0.0000
     atom:   25    charge:    2.0159    magn:    0.0000    constr:    0.0000
     atom:   26    charge:    3.1144    magn:    0.0000    constr:    0.0000
     atom:   27    charge:    2.0076    magn:   -0.0001    constr:    0.0000
     atom:   28    charge:    2.0136    magn:   -0.0001    constr:    0.0000
     atom:   29    charge:    2.0117    magn:   -0.0001    constr:    0.0000
     atom:   30    charge:    3.1193    magn:    0.0000    constr:    0.0000
     atom:   31    charge:    2.0112    magn:   -0.0000    constr:    0.0000
     atom:   32    charge:    2.0105    magn:   -0.0000    constr:    0.0000
     atom:   33    charge:    1.9864    magn:    0.0005    constr:    0.0000
     atom:   34    charge:    3.1239    magn:   -0.0000    constr:    0.0000
     atom:   35    charge:    2.0102    magn:    0.0000    constr:    0.0000
     atom:   36    charge:    2.0135    magn:    0.0000    constr:    0.0000
     atom:   37    charge:    2.0135    magn:    0.0000    constr:    0.0000
     atom:   38    charge:    3.1199    magn:    0.0000    constr:    0.0000
     atom:   39    charge:    2.0102    magn:   -0.0000    constr:    0.0000
     atom:   40    charge:    2.0020    magn:   -0.0000    constr:    0.0000
     atom:   41    charge:    2.0159    magn:    0.0000    constr:    0.0000
     atom:   42    charge:    3.1217    magn:    0.0000    constr:    0.0000
     atom:   43    charge:    2.0075    magn:   -0.0001    constr:    0.0000
     atom:   44    charge:    2.0136    magn:   -0.0001    constr:    0.0000
     atom:   45    charge:    2.0117    magn:   -0.0001    constr:    0.0000
     atom:   46    charge:    3.1193    magn:    0.0000    constr:    0.0000
     atom:   47    charge:    2.0109    magn:   -0.0000    constr:    0.0000
     atom:   48    charge:    2.0105    magn:   -0.0000    constr:    0.0000
     atom:   49    charge:    2.0188    magn:   -0.0000    constr:    0.0000
     atom:   50    charge:    0.3948    magn:   -0.0000    constr:    0.0000

     total cpu time spent up to now is     2501.8 secs

     End of self-consistent calculation

 ------ SPIN UP ------------


          k = 0.0000 0.0000 0.0000 ( 34665 PWs)   bands (ev):

   -58.4987 -58.4637 -57.5877 -57.5582 -57.5520 -57.4755 -57.4628 -57.4232
   -57.3264 -57.2938 -57.2570 -57.2214 -57.1113 -57.0760 -57.0071 -56.9691
   -34.9436 -34.7677 -34.7389 -34.7050 -34.6100 -34.5532 -34.0870 -34.0427
   -34.0052 -33.8616 -33.8407 -33.7825 -33.7613 -33.7551 -33.7458 -33.7368
   -33.7316 -33.7146 -33.6937 -33.6876 -33.6854 -33.6639 -33.6543 -33.6493
   -33.6429 -33.6365 -33.6279 -33.5849 -33.5441 -33.5406 -33.5299 -33.4932
   -33.4896 -33.4825 -33.4522 -33.4389 -33.4266 -33.4261 -33.4067 -33.3780
   -33.3297 -33.2844 -33.2399 -33.2399 -33.2203 -33.1960 -33.1382 -33.0881
   -18.6625 -18.2404 -18.1328 -17.9995 -17.9044 -17.7357 -17.7224 -17.6171
   -17.5844 -17.5611 -17.4499 -17.2535 -17.2115 -17.2049 -17.1412 -17.0426
   -17.0218 -17.0005 -16.9323 -16.8910 -16.8412 -16.8064 -16.8008 -16.7767
   -16.6831 -16.6211 -16.6069 -16.5031 -16.4899 -16.3397 -16.2769 -15.7911
   -15.7307  -6.2406  -5.9470  -5.6858  -5.4896  -5.4078  -5.3059  -5.1801
    -5.1571  -5.0708  -4.9397  -4.8482  -4.7925  -4.7798  -4.7079  -4.6334
    -4.6051  -4.5364  -4.5233  -4.4100  -4.4073  -4.3517  -4.3359  -4.2412
    -4.2167  -4.1625  -4.1002  -4.0874  -4.0810  -4.0687  -3.9866  -3.9706
    -3.9025  -3.8305  -3.8249  -3.7355  -3.7276  -3.7205  -3.6119  -3.6081
    -3.5760  -3.4632  -3.4410  -3.4017  -3.2902  -3.1218  -3.0828  -3.0287
    -2.9664  -2.9508  -2.8883  -2.8745  -2.8705  -2.7595  -2.7442  -2.7284
    -2.6376  -2.5842  -2.4995  -2.4246  -2.4211  -2.3868  -2.3282  -2.2780
    -2.2251  -2.1630  -2.1565  -2.1131  -2.0697  -2.0669  -1.9201  -1.8378
    -1.8208  -1.8162  -1.8065  -1.7031  -1.6143  -1.5577  -1.5475  -1.5117
    -1.5110  -1.4935  -1.4410  -1.3590  -1.3379  -1.3172  -1.3013  -1.2779
    -1.2681  -1.1504  -1.0603  -0.9798  -0.9446  -0.8741  -0.8635  -0.8105
    -0.7437  -0.7073  -0.6574  -0.3643   0.8328   0.9301   1.2231   1.5057
     1.6132   1.6989   1.7288   1.8214   1.8534   1.9297   1.9639   2.0310
     2.0365   2.1817   2.1964   2.2687   2.2940   2.3227   2.4028   2.4266
     2.4748   2.4821   2.5187   2.5318   2.6133   2.6371   2.6821   2.7283
     2.7555   2.7612   2.8084   2.8395   2.8666   2.8863   2.8926   3.0048
     3.0192   3.0446   3.2188   3.2218   3.2483   3.2588   3.3583   3.4174
     3.4509   3.5104   3.6047   3.7555   3.8864   3.9010   4.0880   4.2793
     4.4120   4.4808   4.5142   4.6558   4.7942   4.9347   4.9691   5.0694
     5.1975   5.2113   5.2416   5.2552   5.3304   5.3474   5.3524   5.4681
     5.4890   5.5332   5.7014   5.7189   5.7831   5.8886   5.9146   5.9198
     6.0041   6.0500   6.2353   6.2989   6.3537   6.4053   6.5931   6.6178
     7.1024   7.7734   7.9990   8.0225   8.1955   8.2271   8.5824   8.7203
     8.7897   9.0608   9.1718   9.2213   9.3463   9.4519   9.5960

          k = 0.0000 0.0280 0.0000 ( 34717 PWs)   bands (ev):

   -58.4964 -58.4660 -57.5854 -57.5573 -57.5543 -57.4765 -57.4607 -57.4253
   -57.3251 -57.2951 -57.2548 -57.2236 -57.1089 -57.0784 -57.0045 -56.9717
   -34.9182 -34.7657 -34.7408 -34.6988 -34.6166 -34.5802 -34.0615 -34.0175
   -33.9819 -33.8556 -33.8345 -33.7787 -33.7636 -33.7550 -33.7342 -33.7338
   -33.7312 -33.7211 -33.6985 -33.6880 -33.6817 -33.6767 -33.6701 -33.6586
   -33.6421 -33.6320 -33.6314 -33.5814 -33.5639 -33.5144 -33.5051 -33.4978
   -33.4857 -33.4800 -33.4505 -33.4397 -33.4307 -33.4284 -33.4258 -33.4043
   -33.3237 -33.2809 -33.2461 -33.2385 -33.2216 -33.2009 -33.1656 -33.1168
   -18.6042 -18.1828 -18.1260 -17.9522 -17.8742 -17.7991 -17.6921 -17.5714
   -17.5685 -17.5297 -17.4805 -17.3056 -17.1827 -17.1824 -17.1317 -17.0740
   -16.9805 -16.9754 -16.9619 -16.9225 -16.8614 -16.8186 -16.8058 -16.7755
   -16.6966 -16.6464 -16.6107 -16.5314 -16.5224 -16.3590 -16.3172 -15.8052
   -15.7562  -6.1551  -5.9460  -5.6015  -5.4097  -5.3364  -5.2359  -5.1294
    -5.1006  -5.0011  -4.9228  -4.8624  -4.8508  -4.7236  -4.7170  -4.6201
    -4.5819  -4.5555  -4.5071  -4.4516  -4.3902  -4.3804  -4.3703  -4.3044
    -4.2598  -4.2043  -4.1820  -4.1673  -4.1582  -4.1137  -4.0348  -3.9931
    -3.9476  -3.9101  -3.8924  -3.7763  -3.6358  -3.6136  -3.5364  -3.5002
    -3.4920  -3.4594  -3.3367  -3.3099  -3.1406  -3.1060  -3.0752  -3.0030
    -2.9357  -2.9315  -2.9112  -2.8945  -2.8529  -2.7408  -2.7104  -2.6630
    -2.6490  -2.6080  -2.4603  -2.4486  -2.4002  -2.3829  -2.3476  -2.3174
    -2.2118  -2.1809  -2.1228  -2.1196  -2.1018  -2.0189  -1.9566  -1.9499
    -1.9054  -1.8210  -1.7626  -1.7561  -1.7011  -1.6661  -1.6213  -1.5770
    -1.5594  -1.5546  -1.4910  -1.4626  -1.4248  -1.3691  -1.3582  -1.2454
    -1.1834  -1.1332  -1.1068  -1.0702  -1.0264  -1.0045  -0.9163  -0.7931
    -0.7638  -0.7393  -0.7217  -0.4057   0.9655   0.9699   1.2245   1.6351
     1.6938   1.7007   1.7331   1.8102   1.8165   1.8939   2.0278   2.0990
     2.1085   2.2084   2.2780   2.2990   2.3257   2.3340   2.3502   2.3700
     2.4614   2.5018   2.5194   2.6255   2.6280   2.6650   2.6858   2.7451
     2.7885   2.7967   2.8007   2.8130   2.8673   2.8868   2.9458   2.9738
     2.9968   3.0593   3.2024   3.2460   3.2725   3.3111   3.3527   3.3642
     3.4326   3.4569   3.5656   3.7046   3.8442   3.9677   4.0465   4.3400
     4.4927   4.5155   4.5243   4.7294   4.8117   4.9751   5.0194   5.0900
     5.1108   5.2066   5.2419   5.3009   5.3315   5.3437   5.4315   5.4501
     5.4983   5.5043   5.6162   5.6809   5.7387   5.8140   5.8329   5.8895
     5.9349   6.0441   6.2050   6.2406   6.2586   6.3859   6.5452   6.6352
     7.2207   7.2797   7.7630   8.0998   8.2134   8.3370   8.5686   8.7168
     8.8444   8.9699   9.1673   9.2498   9.3272   9.3457   9.5117

          k = 0.0000 0.0560 0.0000 ( 34721 PWs)   bands (ev):

   -58.4900 -58.4724 -57.5789 -57.5611 -57.5551 -57.4784 -57.4555 -57.4306
   -57.3220 -57.2982 -57.2488 -57.2296 -57.1025 -57.0848 -56.9976 -56.9786
   -34.8483 -34.7605 -34.7459 -34.6816 -34.6533 -34.6341 -33.9912 -33.9488
   -33.9221 -33.8395 -33.8178 -33.7947 -33.7826 -33.7722 -33.7698 -33.7440
   -33.7349 -33.7305 -33.6983 -33.6892 -33.6717 -33.6711 -33.6663 -33.6597
   -33.6467 -33.6406 -33.6103 -33.6005 -33.5718 -33.5088 -33.4810 -33.4770
   -33.4748 -33.4713 -33.4597 -33.4458 -33.4428 -33.4358 -33.4331 -33.4219
   -33.3075 -33.2778 -33.2627 -33.2395 -33.2346 -33.2252 -33.2134 -33.1873
   -18.4430 -18.1254 -18.0119 -17.9828 -17.8252 -17.7914 -17.6064 -17.5833
   -17.5641 -17.4681 -17.4488 -17.4121 -17.2329 -17.1302 -17.1029 -17.0907
   -17.0310 -16.9852 -16.9191 -16.9053 -16.8854 -16.8509 -16.7718 -16.7569
   -16.7201 -16.7155 -16.6315 -16.6138 -16.5864 -16.4214 -16.3992 -15.8339
   -15.8100  -5.9445  -5.9157  -5.3679  -5.2370  -5.1895  -5.1496  -5.0502
    -5.0391  -5.0058  -4.9494  -4.9269  -4.7413  -4.7032  -4.6704  -4.5887
    -4.5824  -4.5403  -4.5358  -4.4990  -4.4850  -4.4274  -4.4128  -4.4062
    -4.3830  -4.3183  -4.2584  -4.2100  -4.1671  -4.1344  -4.0937  -4.0258
    -4.0110  -3.8547  -3.7440  -3.6016  -3.5949  -3.5735  -3.4742  -3.4561
    -3.3523  -3.2773  -3.2684  -3.2435  -3.2067  -3.1526  -3.1446  -3.0294
    -2.9871  -2.9374  -2.8820  -2.8549  -2.7764  -2.6728  -2.6664  -2.6193
    -2.5008  -2.4892  -2.4843  -2.4113  -2.3620  -2.3461  -2.3250  -2.3147
    -2.2573  -2.2454  -2.2108  -2.1800  -2.1598  -2.1382  -2.0584  -2.0552
    -2.0440  -1.9830  -1.8692  -1.7991  -1.7765  -1.7572  -1.7311  -1.6845
    -1.6448  -1.6447  -1.6184  -1.5689  -1.5465  -1.4660  -1.4208  -1.3639
    -1.2750  -1.1807  -1.1618  -1.1266  -1.0347  -1.0285  -0.9045  -0.9004
    -0.8077  -0.7705  -0.7459  -0.5090   1.0935   1.2359   1.3084   1.5304
     1.6064   1.6998   1.7670   1.8761   1.9588   2.0663   2.0865   2.1075
     2.1692   2.2297   2.2643   2.3086   2.3527   2.4249   2.4354   2.4794
     2.5265   2.5368   2.5769   2.6396   2.6449   2.6768   2.6893   2.7276
     2.7693   2.7746   2.8247   2.8642   2.9006   2.9328   2.9723   3.0304
     3.0767   3.0780   3.1601   3.1876   3.2092   3.2697   3.2905   3.3638
     3.4643   3.4752   3.5159   3.5885   3.7123   3.9357   4.0998   4.4785
     4.5460   4.5513   4.6758   4.8364   4.8874   4.9306   5.0911   5.1147
     5.1624   5.1992   5.2468   5.3030   5.3245   5.3669   5.3910   5.4339
     5.4505   5.5382   5.5955   5.6328   5.6507   5.6694   5.6809   5.7193
     5.9088   5.9846   6.1009   6.2071   6.2509   6.2753   6.5634   6.5755
     6.8376   7.1433   7.5690   7.6021   8.1297   8.3921   8.6601   8.6801
     8.8110   9.0071   9.2055   9.3536   9.5971   9.6691   9.7003

          k = 0.0000-0.0840 0.0000 ( 34678 PWs)   bands (ev):

   -58.4821 -58.4804 -57.5701 -57.5698 -57.5541 -57.4795 -57.4517 -57.4343
   -57.3201 -57.3002 -57.2433 -57.2351 -57.0937 -57.0937 -56.9890 -56.9873
   -34.7542 -34.7527 -34.7518 -34.7508 -34.6587 -34.6572 -33.8946 -33.8936
   -33.8764 -33.8745 -33.8249 -33.8159 -33.7981 -33.7946 -33.7945 -33.7662
   -33.7635 -33.7289 -33.6899 -33.6879 -33.6824 -33.6627 -33.6609 -33.6491
   -33.6490 -33.6151 -33.5765 -33.5743 -33.5698 -33.5471 -33.5373 -33.5155
   -33.4715 -33.4618 -33.4563 -33.4562 -33.4394 -33.4394 -33.3389 -33.3385
   -33.3363 -33.3260 -33.2854 -33.2850 -33.2304 -33.2301 -33.2269 -33.2202
   -18.2180 -18.2170 -18.1218 -17.7949 -17.7789 -17.7018 -17.6780 -17.6780
   -17.6086 -17.4445 -17.3896 -17.2797 -17.2753 -17.2455 -17.1949 -17.0220
   -16.9976 -16.9943 -16.9940 -16.8314 -16.8141 -16.8137 -16.8066 -16.7738
   -16.7292 -16.6801 -16.6772 -16.6676 -16.6634 -16.4593 -16.4455 -15.8434
   -15.8434  -5.9440  -5.5761  -5.5761  -5.0796  -5.0785  -5.0535  -5.0438
    -4.9623  -4.9599  -4.9040  -4.8677  -4.8278  -4.7874  -4.7334  -4.6758
    -4.6703  -4.6388  -4.5982  -4.5789  -4.4614  -4.4588  -4.3998  -4.3958
    -4.3178  -4.2673  -4.2116  -4.1757  -4.0942  -4.0785  -3.9785  -3.9753
    -3.8861  -3.8627  -3.8474  -3.8204  -3.5999  -3.5440  -3.4657  -3.4530
    -3.2702  -3.2631  -3.2397  -3.1370  -3.1164  -3.1096  -3.0295  -3.0268
    -2.9677  -2.9547  -2.9038  -2.8621  -2.8356  -2.7311  -2.6785  -2.6260
    -2.5961  -2.5791  -2.5734  -2.5421  -2.4508  -2.3932  -2.3530  -2.2516
    -2.2516  -2.1850  -2.1733  -2.1719  -2.1717  -2.1675  -2.1215  -1.9855
    -1.9853  -1.9330  -1.9143  -1.8996  -1.8357  -1.7519  -1.7429  -1.7090
    -1.6980  -1.6504  -1.6292  -1.6195  -1.6104  -1.5655  -1.5142  -1.3705
    -1.3414  -1.3086  -1.2840  -1.2487  -1.0341  -0.9826  -0.8048  -0.7952
    -0.7866  -0.7818  -0.7086  -0.6838   1.2915   1.2931   1.4425   1.4429
     1.5227   1.5238   1.8905   1.8925   1.9528   1.9930   2.1468   2.2258
     2.2602   2.2723   2.2908   2.3288   2.4025   2.4543   2.4665   2.4707
     2.5057   2.5306   2.5901   2.6070   2.6264   2.7532   2.7592   2.7726
     2.8060   2.8239   2.8286   2.8330   2.8356   2.9505   3.0235   3.0403
     3.0507   3.0929   3.1431   3.1613   3.2003   3.2096   3.3069   3.3171
     3.4570   3.5218   3.5502   3.5702   3.5896   3.8449   4.1605   4.5821
     4.5985   4.6506   4.6745   4.6754   4.9528   4.9740   5.1123   5.1400
     5.1569   5.2022   5.2597   5.2780   5.3656   5.3861   5.4256   5.4759
     5.4861   5.5139   5.5141   5.5201   5.5772   5.6134   5.6577   5.7349
     5.8426   5.9141   6.0718   6.1956   6.2906   6.3180   6.4707   6.6092
     6.8086   6.8615   7.3753   7.3983   8.1046   8.1443   8.8786   9.0363
     9.1824   9.1844   9.2322   9.4011   9.4704   9.5269   9.7054

          k = 0.0253 0.0000 0.0000 ( 34707 PWs)   bands (ev):

   -58.4987 -58.4637 -57.5877 -57.5582 -57.5520 -57.4755 -57.4628 -57.4232
   -57.3264 -57.2938 -57.2570 -57.2214 -57.1113 -57.0760 -57.0071 -56.9691
   -34.9439 -34.7677 -34.7389 -34.7042 -34.6101 -34.5532 -34.0872 -34.0449
   -34.0053 -33.8532 -33.8407 -33.7825 -33.7655 -33.7528 -33.7462 -33.7434
   -33.7317 -33.7156 -33.6937 -33.6894 -33.6800 -33.6640 -33.6544 -33.6493
   -33.6431 -33.6361 -33.6231 -33.5834 -33.5441 -33.5417 -33.5299 -33.4956
   -33.4917 -33.4823 -33.4533 -33.4388 -33.4260 -33.4260 -33.4067 -33.3781
   -33.3296 -33.2844 -33.2426 -33.2400 -33.2191 -33.1961 -33.1383 -33.0882
   -18.6180 -18.2042 -18.1278 -17.9830 -17.9756 -17.7506 -17.6415 -17.5859
   -17.5837 -17.5589 -17.5139 -17.2934 -17.2499 -17.1874 -17.1481 -17.1005
   -17.0445 -16.9516 -16.9351 -16.9298 -16.8281 -16.8007 -16.7893 -16.7227
   -16.6753 -16.6508 -16.6074 -16.5286 -16.4876 -16.3379 -16.2769 -15.7900
   -15.7305  -6.1157  -5.9451  -5.5821  -5.4200  -5.3974  -5.2667  -5.2397
    -5.1652  -5.0484  -4.9421  -4.8953  -4.7764  -4.7756  -4.7086  -4.6859
    -4.6133  -4.5150  -4.4522  -4.4408  -4.3894  -4.3492  -4.2919  -4.2160
    -4.2112  -4.1673  -4.1230  -4.1028  -4.0446  -4.0308  -3.9907  -3.8473
    -3.8302  -3.7919  -3.7462  -3.7143  -3.7115  -3.6622  -3.6079  -3.5276
    -3.4965  -3.4701  -3.4617  -3.4565  -3.3498  -3.2056  -3.0804  -3.0301
    -3.0152  -2.9549  -2.9490  -2.9040  -2.8328  -2.8080  -2.7514  -2.7495
    -2.7150  -2.6062  -2.5873  -2.4958  -2.4601  -2.4222  -2.3870  -2.2626
    -2.2197  -2.2005  -2.1218  -2.0613  -2.0326  -2.0277  -1.9374  -1.8368
    -1.8100  -1.7520  -1.7517  -1.6999  -1.6797  -1.6507  -1.6205  -1.5462
    -1.5356  -1.5055  -1.4675  -1.4289  -1.3974  -1.3519  -1.2964  -1.2777
    -1.2403  -1.1965  -1.1234  -1.0779  -1.0189  -0.9838  -0.8450  -0.8306
    -0.7973  -0.7782  -0.7438  -0.4255   0.9153   0.9296   1.2222   1.5843
     1.6275   1.7220   1.7379   1.8191   1.8651   1.9412   2.0018   2.0029
     2.1341   2.1387   2.2130   2.2830   2.2896   2.3270   2.4066   2.4360
     2.4843   2.5022   2.5476   2.6013   2.6332   2.6370   2.6565   2.6896
     2.7284   2.7564   2.8234   2.8790   2.9050   2.9374   3.0003   3.0125
     3.0305   3.1085   3.2034   3.2176   3.2371   3.3294   3.3729   3.3942
     3.4914   3.5507   3.5533   3.7083   3.8385   3.9500   4.0305   4.2341
     4.3895   4.4415   4.5216   4.6325   4.7402   4.7794   4.8396   4.8632
     5.0746   5.1249   5.2405   5.3532   5.4273   5.5203   5.5482   5.6978
     5.7046   5.7274   5.7528   5.7998   5.8422   5.8483   5.8498   6.0018
     6.0021   6.0259   6.2513   6.3071   6.3537   6.4564   6.5588   6.5973
     7.1556   7.5656   7.6520   7.9724   8.0490   8.1662   8.2622   8.5874
     8.6695   8.9566   9.0887   9.3330   9.5237   9.5901   9.9224

          k = 0.0253 0.0280 0.0000 ( 34687 PWs)   bands (ev):

   -58.4964 -58.4660 -57.5853 -57.5573 -57.5544 -57.4765 -57.4607 -57.4253
   -57.3251 -57.2951 -57.2548 -57.2236 -57.1089 -57.0784 -57.0045 -56.9717
   -34.9185 -34.7657 -34.7408 -34.6980 -34.6165 -34.5803 -34.0616 -34.0197
   -33.9820 -33.8475 -33.8345 -33.7788 -33.7603 -33.7553 -33.7410 -33.7387
   -33.7314 -33.7208 -33.6994 -33.6908 -33.6769 -33.6765 -33.6697 -33.6586
   -33.6420 -33.6318 -33.6254 -33.5799 -33.5639 -33.5169 -33.5050 -33.4948
   -33.4913 -33.4798 -33.4515 -33.4396 -33.4308 -33.4278 -33.4260 -33.4041
   -33.3237 -33.2809 -33.2461 -33.2408 -33.2206 -33.2009 -33.1656 -33.1168
   -18.5606 -18.1523 -18.1179 -17.9654 -17.9299 -17.7134 -17.7083 -17.5641
   -17.5571 -17.5235 -17.5154 -17.3115 -17.2651 -17.1642 -17.1274 -17.0819
   -17.0208 -16.9795 -16.9379 -16.9215 -16.8673 -16.8546 -16.7608 -16.7492
   -16.6936 -16.6714 -16.6116 -16.5516 -16.5237 -16.3573 -16.3174 -15.8042
   -15.7563  -6.0307  -5.9440  -5.4986  -5.3462  -5.3223  -5.1837  -5.1683
    -5.1076  -4.9966  -4.8888  -4.8721  -4.8311  -4.7315  -4.6923  -4.6366
    -4.6025  -4.5053  -4.4750  -4.4348  -4.3768  -4.3649  -4.3337  -4.3105
    -4.2815  -4.2487  -4.1876  -4.1436  -4.1184  -4.0897  -3.9987  -3.9714
    -3.9170  -3.8619  -3.8143  -3.7455  -3.6052  -3.5524  -3.5227  -3.5085
    -3.4591  -3.4306  -3.3994  -3.3180  -3.2885  -3.1292  -3.0869  -3.0282
    -2.9737  -2.9262  -2.9076  -2.8750  -2.8211  -2.7978  -2.7076  -2.6970
    -2.6795  -2.6472  -2.5487  -2.4998  -2.4784  -2.4161  -2.3967  -2.3082
    -2.2400  -2.2079  -2.1344  -2.1261  -2.0435  -2.0310  -1.9797  -1.9587
    -1.9404  -1.8243  -1.7788  -1.7507  -1.7353  -1.6865  -1.6333  -1.6034
    -1.5673  -1.5509  -1.5428  -1.5262  -1.4876  -1.4231  -1.3370  -1.2979
    -1.1908  -1.1278  -1.1106  -1.1049  -1.0816  -1.0345  -0.9839  -0.8492
    -0.8016  -0.7791  -0.7160  -0.4551   0.9606   1.0547   1.2382   1.6297
     1.6619   1.7350   1.7728   1.8501   1.8600   1.9398   2.0849   2.1199
     2.1704   2.1840   2.2314   2.2918   2.3200   2.3268   2.3647   2.4252
     2.4435   2.5031   2.5275   2.6439   2.6525   2.6756   2.7313   2.7533
     2.7795   2.7926   2.8271   2.8303   2.9195   2.9614   2.9725   2.9901
     3.0267   3.0901   3.1699   3.2465   3.2710   3.3387   3.3663   3.4106
     3.4379   3.5061   3.5242   3.6605   3.7950   3.9695   4.0404   4.2460
     4.4380   4.5299   4.5423   4.6651   4.7723   4.8232   4.8682   4.8903
     5.0271   5.1168   5.2768   5.3470   5.4929   5.5025   5.5330   5.5903
     5.6532   5.6634   5.7029   5.7405   5.7631   5.7651   5.8650   5.9515
     5.9652   6.0650   6.2144   6.2473   6.2759   6.3986   6.5786   6.6071
     7.2714   7.3117   7.6344   7.7401   8.0823   8.2554   8.3719   8.4366
     8.7104   8.9275   9.1313   9.2200   9.3763   9.5422   9.6773

          k = 0.0253 0.0560 0.0000 ( 34699 PWs)   bands (ev):

   -58.4900 -58.4724 -57.5788 -57.5611 -57.5552 -57.4785 -57.4554 -57.4306
   -57.3220 -57.2982 -57.2488 -57.2296 -57.1025 -57.0848 -56.9977 -56.9786
   -34.8486 -34.7604 -34.7460 -34.6810 -34.6534 -34.6339 -33.9914 -33.9514
   -33.9222 -33.8332 -33.8177 -33.7942 -33.7768 -33.7721 -33.7700 -33.7500
   -33.7366 -33.7284 -33.6983 -33.6933 -33.6792 -33.6714 -33.6674 -33.6598
   -33.6468 -33.6272 -33.6103 -33.6005 -33.5707 -33.5082 -33.4831 -33.4774
   -33.4772 -33.4702 -33.4595 -33.4465 -33.4440 -33.4357 -33.4328 -33.4215
   -33.3075 -33.2778 -33.2627 -33.2395 -33.2362 -33.2248 -33.2134 -33.1872
   -18.4028 -18.1239 -17.9930 -17.9800 -17.8097 -17.7910 -17.6474 -17.5894
   -17.5652 -17.4543 -17.4377 -17.3799 -17.2519 -17.1366 -17.1168 -17.0727
   -17.0272 -16.9822 -16.9367 -16.9243 -16.9181 -16.8657 -16.7687 -16.7517
   -16.7442 -16.7125 -16.6334 -16.6149 -16.5981 -16.4215 -16.3967 -15.8333
   -15.8102  -5.9425  -5.7955  -5.2706  -5.2146  -5.1553  -5.1168  -5.0076
    -4.9880  -4.9779  -4.8788  -4.8447  -4.7181  -4.7007  -4.6466  -4.5812
    -4.5710  -4.5661  -4.5233  -4.4632  -4.4553  -4.4428  -4.3883  -4.3643
    -4.3166  -4.3028  -4.2425  -4.2103  -4.1841  -4.1326  -4.0821  -4.0409
    -3.9756  -3.8312  -3.7379  -3.6626  -3.5906  -3.5769  -3.4886  -3.3884
    -3.3669  -3.3468  -3.3098  -3.2639  -3.2193  -3.1930  -3.1263  -3.0518
    -3.0004  -2.9606  -2.9221  -2.8552  -2.7987  -2.7306  -2.7242  -2.6837
    -2.5943  -2.5757  -2.5457  -2.4904  -2.4737  -2.3702  -2.3338  -2.3118
    -2.2951  -2.2780  -2.2265  -2.1802  -2.1605  -2.1329  -2.1142  -2.0860
    -2.0737  -1.9966  -1.8921  -1.8670  -1.8095  -1.7598  -1.7366  -1.7180
    -1.6865  -1.6480  -1.6081  -1.5886  -1.5232  -1.4945  -1.4231  -1.3344
    -1.3088  -1.1868  -1.1371  -1.1193  -1.0442  -0.9987  -0.9205  -0.8941
    -0.8305  -0.8049  -0.7400  -0.5500   1.0952   1.2769   1.3733   1.5672
     1.5829   1.7208   1.7837   1.8726   2.0713   2.0870   2.1245   2.1534
     2.1963   2.2654   2.3008   2.3096   2.3307   2.3805   2.4446   2.4733
     2.5273   2.5582   2.5749   2.6003   2.6745   2.7007   2.7145   2.7776
     2.8091   2.8300   2.8447   2.8872   2.9395   2.9831   3.0039   3.0242
     3.0637   3.1029   3.1229   3.1586   3.2652   3.2850   3.3148   3.3771
     3.4182   3.5083   3.5267   3.5764   3.6777   3.8688   4.1555   4.3106
     4.5384   4.5829   4.6858   4.7215   4.7976   4.8484   4.9207   4.9732
     5.0476   5.1838   5.2465   5.3284   5.3684   5.3758   5.4373   5.5106
     5.5356   5.6072   5.6305   5.6430   5.7144   5.7417   5.7968   5.8698
     5.9234   6.0262   6.1265   6.2557   6.2839   6.3060   6.5514   6.5961
     6.9031   7.2024   7.6121   7.6827   8.0697   8.1432   8.3148   8.4984
     8.7378   8.8692   8.9366   9.2468   9.3718   9.4961   9.5524

          k = 0.0253-0.0840 0.0000 ( 34722 PWs)   bands (ev):

   -58.4821 -58.4804 -57.5700 -57.5698 -57.5542 -57.4795 -57.4517 -57.4343
   -57.3201 -57.3002 -57.2433 -57.2351 -57.0937 -57.0937 -56.9890 -56.9873
   -34.7542 -34.7529 -34.7519 -34.7511 -34.6583 -34.6568 -33.8949 -33.8941
   -33.8798 -33.8746 -33.8298 -33.8069 -33.7946 -33.7945 -33.7897 -33.7663
   -33.7636 -33.7326 -33.6949 -33.6879 -33.6825 -33.6630 -33.6611 -33.6508
   -33.6491 -33.6151 -33.5760 -33.5702 -33.5667 -33.5472 -33.5381 -33.5140
   -33.4715 -33.4647 -33.4589 -33.4562 -33.4397 -33.4397 -33.3389 -33.3385
   -33.3362 -33.3260 -33.2854 -33.2850 -33.2311 -33.2306 -33.2269 -33.2202
   -18.1870 -18.1860 -18.1210 -17.7749 -17.7634 -17.7263 -17.7221 -17.6804
   -17.6018 -17.4332 -17.3658 -17.2684 -17.2658 -17.2162 -17.1703 -17.0690
[...]
    -4.3039  -4.2703  -4.2006  -4.1617  -4.1518  -4.1342  -4.0293  -4.0220
    -3.9595  -3.9231  -3.6939  -3.6795  -3.6278  -3.5939  -3.5458  -3.5348
    -3.4407  -3.4176  -3.3477  -3.3167  -3.3072  -3.2916  -3.2134  -3.1182
    -3.0653  -3.0622  -3.0060  -2.9989  -2.9658  -2.9326  -2.9101  -2.8210
    -2.7898  -2.7321  -2.6313  -2.5996  -2.5971  -2.5241  -2.4983  -2.4697
    -2.4562  -2.4176  -2.3184  -2.3118  -2.2593  -2.2434  -2.2263  -2.1689
    -2.1673  -2.0687  -2.0356  -1.9748  -1.9486  -1.8294  -1.7593  -1.6990
    -1.6774  -1.6627  -1.6429  -1.5653  -1.3980  -1.3823  -1.3092  -1.2858
    -1.2801  -1.2497  -1.1250  -1.0964  -1.0645  -0.9637  -0.8987  -0.8851
    -0.8033  -0.7973  -0.7413  -0.7404   1.3461   1.3474   1.4679   1.4693
     1.7548   1.7548   1.8617   1.8632   2.0381   2.0385   2.1360   2.2325
     2.2883   2.2946   2.3952   2.4498   2.4610   2.4631   2.5262   2.5767
     2.5775   2.5958   2.6524   2.6608   2.7567   2.7612   2.7929   2.8037
     2.8467   2.8814   2.9381   2.9910   3.0101   3.0119   3.0405   3.0663
     3.0754   3.1634   3.1974   3.2060   3.2474   3.2767   3.3438   3.3488
     3.4033   3.4041   3.4949   3.6200   3.6714   3.6834   4.1308   4.1311
     4.3023   4.5738   4.5748   4.6686   4.7098   4.7764   4.8350   4.8384
     4.9396   4.9661   5.0061   5.0072   5.4279   5.4701   5.4827   5.6107
     5.7001   5.7164   5.7638   5.7746   5.7913   5.8453   5.8585   5.9432
     5.9887   6.0829   6.2137   6.2503   6.3432   6.3568   6.5970   6.8697
     7.1279   7.1583   7.5884   7.6129   7.9427   7.9441   8.0371   8.1099
     8.4301   8.4450   8.5513   8.6832   9.1457   9.1691   9.2963

          k =-0.0759 0.0000 0.0000 ( 34758 PWs)   bands (ev):

   -58.4988 -58.4637 -57.5874 -57.5584 -57.5520 -57.4755 -57.4626 -57.4231
   -57.3264 -57.2937 -57.2569 -57.2212 -57.1118 -57.0765 -57.0070 -56.9691
   -34.9452 -34.7677 -34.7390 -34.7018 -34.6103 -34.5534 -34.0878 -34.0512
   -34.0056 -33.8404 -33.8081 -33.7849 -33.7826 -33.7770 -33.7467 -33.7460
   -33.7316 -33.7186 -33.6933 -33.6931 -33.6640 -33.6604 -33.6544 -33.6493
   -33.6437 -33.6349 -33.6103 -33.5786 -33.5443 -33.5439 -33.5301 -33.5158
   -33.4883 -33.4811 -33.4572 -33.4386 -33.4253 -33.4247 -33.4067 -33.3782
   -33.3301 -33.2843 -33.2508 -33.2405 -33.2156 -33.1960 -33.1390 -33.0884
   -18.4341 -18.1277 -18.1115 -18.0488 -17.9484 -17.8476 -17.6637 -17.5817
   -17.5593 -17.5090 -17.4206 -17.3770 -17.2385 -17.2333 -17.2183 -17.2035
   -17.1227 -17.0291 -16.9716 -16.9464 -16.8121 -16.8011 -16.7614 -16.6585
   -16.6492 -16.6227 -16.6103 -16.5804 -16.4885 -16.3356 -16.2771 -15.7848
   -15.7277  -5.9394  -5.6255  -5.5428  -5.4567  -5.3857  -5.1313  -5.1062
    -5.0524  -4.9921  -4.9636  -4.7996  -4.7407  -4.7326  -4.7251  -4.5981
    -4.5867  -4.4515  -4.4154  -4.3628  -4.2744  -4.2676  -4.1901  -4.1890
    -4.1071  -4.0922  -4.0712  -3.9772  -3.9616  -3.9562  -3.9261  -3.8433
    -3.7971  -3.7805  -3.7759  -3.7515  -3.6892  -3.6821  -3.6393  -3.6076
    -3.5091  -3.4806  -3.4609  -3.3058  -3.2185  -3.2082  -3.1703  -3.1253
    -3.0746  -2.9885  -2.9842  -2.9179  -2.9157  -2.8875  -2.8792  -2.8266
    -2.7899  -2.7343  -2.6586  -2.6523  -2.5733  -2.5312  -2.4781  -2.4340
    -2.3408  -2.3134  -2.2447  -2.1512  -2.1282  -1.9765  -1.9572  -1.9281
    -1.9154  -1.8974  -1.8165  -1.8018  -1.6795  -1.6667  -1.6660  -1.6063
    -1.5556  -1.5124  -1.4474  -1.4249  -1.3699  -1.3669  -1.3481  -1.3458
    -1.3267  -1.2653  -1.2436  -1.1048  -1.0931  -1.0565  -0.9050  -0.8977
    -0.8836  -0.8770  -0.8641  -0.6889   0.8760   1.0907   1.2139   1.2201
     1.5953   1.7242   1.7608   1.8109   1.8564   1.8906   1.9901   2.1328
     2.1582   2.2793   2.3445   2.3692   2.4079   2.4395   2.4676   2.4775
     2.5149   2.5182   2.6326   2.6767   2.7266   2.7396   2.7777   2.8239
     2.8415   2.8531   2.9539   2.9732   2.9773   2.9775   2.9963   3.0436
     3.0483   3.1063   3.1559   3.1936   3.2458   3.3109   3.3801   3.4429
     3.5382   3.6233   3.6387   3.6621   3.7683   3.7686   3.8121   4.1642
     4.1862   4.3190   4.3815   4.5091   4.6195   4.8220   4.8938   4.9287
     4.9610   5.2794   5.3599   5.5059   5.5366   5.6033   5.6180   5.6936
     5.7216   5.7693   5.8415   5.9094   6.0081   6.1173   6.1284   6.2973
     6.3102   6.3285   6.3520   6.3530   6.3601   6.4528   6.5139   6.6070
     6.6731   6.8132   7.2317   7.4094   8.0076   8.1221   8.2155   8.5819
     8.7347   8.8973   9.0962   9.2086   9.3501   9.7914   9.9185

          k =-0.0759 0.0280 0.0000 ( 34680 PWs)   bands (ev):

   -58.4964 -58.4661 -57.5850 -57.5575 -57.5543 -57.4765 -57.4605 -57.4252
   -57.3250 -57.2951 -57.2546 -57.2235 -57.1094 -57.0789 -57.0045 -56.9716
   -34.9197 -34.7658 -34.7409 -34.6957 -34.6165 -34.5804 -34.0621 -34.0262
   -33.9823 -33.8343 -33.8033 -33.7845 -33.7789 -33.7584 -33.7491 -33.7478
   -33.7316 -33.7201 -33.7019 -33.6981 -33.6767 -33.6690 -33.6591 -33.6587
   -33.6420 -33.6310 -33.6101 -33.5753 -33.5640 -33.5216 -33.5095 -33.5053
   -33.4887 -33.4787 -33.4549 -33.4393 -33.4313 -33.4268 -33.4264 -33.4037
   -33.3242 -33.2809 -33.2478 -33.2466 -33.2177 -33.2008 -33.1662 -33.1168
   -18.3776 -18.1242 -18.0860 -18.0016 -17.9027 -17.8385 -17.6385 -17.6327
   -17.5189 -17.5112 -17.3947 -17.3553 -17.2705 -17.1934 -17.1866 -17.1713
   -17.1033 -17.0170 -16.9995 -16.9589 -16.8488 -16.8400 -16.7773 -16.6760
   -16.6749 -16.6693 -16.6152 -16.5950 -16.5266 -16.3555 -16.3185 -15.7993
   -15.7540  -5.9381  -5.5291  -5.3989  -5.3839  -5.3148  -5.0298  -5.0102
    -4.9704  -4.8683  -4.8632  -4.8437  -4.8129  -4.7166  -4.6245  -4.5423
    -4.5377  -4.4684  -4.4365  -4.4172  -4.3458  -4.3205  -4.3171  -4.1915
    -4.1529  -4.1412  -4.1241  -4.0233  -3.9940  -3.9577  -3.9145  -3.9047
    -3.8384  -3.8359  -3.7483  -3.7333  -3.6881  -3.6337  -3.6124  -3.5820
    -3.5368  -3.4318  -3.3670  -3.2771  -3.2134  -3.1709  -3.1263  -3.1037
    -3.0582  -3.0344  -3.0044  -2.9644  -2.9153  -2.8857  -2.8658  -2.7983
    -2.7760  -2.7325  -2.7024  -2.6836  -2.5770  -2.5577  -2.4373  -2.4063
    -2.3689  -2.3161  -2.2752  -2.2592  -2.2253  -2.1670  -2.1339  -2.0370
    -2.0013  -1.9149  -1.8750  -1.8256  -1.7878  -1.7730  -1.7121  -1.6774
    -1.6062  -1.5746  -1.5317  -1.5113  -1.3970  -1.3499  -1.3162  -1.2796
    -1.2666  -1.1969  -1.1475  -1.0977  -1.0556  -1.0272  -1.0072  -0.9003
    -0.8779  -0.8370  -0.8286  -0.6470   0.9453   1.1668   1.2613   1.2894
     1.6882   1.7890   1.7938   1.8230   1.9096   1.9522   1.9899   2.1267
     2.1968   2.3080   2.3461   2.3545   2.4563   2.4670   2.4913   2.5258
     2.5391   2.5567   2.6950   2.7320   2.7373   2.7540   2.7760   2.7866
     2.8008   2.8513   2.9397   2.9685   2.9840   2.9849   3.0047   3.0480
     3.0885   3.1134   3.2181   3.2265   3.2390   3.3438   3.3763   3.4337
     3.5033   3.5943   3.6116   3.6365   3.7049   3.7341   3.7882   4.1896
     4.2315   4.3131   4.3787   4.6292   4.6337   4.6415   4.9130   4.9279
     4.9783   5.3004   5.3588   5.3595   5.4145   5.4905   5.6093   5.6284
     5.6655   5.7012   5.7991   5.9651   6.0254   6.0684   6.1549   6.1881
     6.2050   6.2707   6.2714   6.3865   6.4543   6.4573   6.5173   6.5866
     6.8014   6.9439   7.3491   7.4085   7.5361   8.1088   8.2175   8.5200
     9.0210   9.0851   9.2014   9.3236   9.3498   9.3824   9.4780

          k =-0.0759 0.0560 0.0000 ( 34616 PWs)   bands (ev):

   -58.4901 -58.4725 -57.5786 -57.5608 -57.5555 -57.4785 -57.4553 -57.4304
   -57.3219 -57.2982 -57.2487 -57.2295 -57.1030 -57.0853 -56.9976 -56.9786
   -34.8495 -34.7605 -34.7460 -34.6791 -34.6539 -34.6333 -33.9918 -33.9588
   -33.9224 -33.8175 -33.8012 -33.7918 -33.7844 -33.7712 -33.7709 -33.7529
   -33.7376 -33.7265 -33.7100 -33.6983 -33.6976 -33.6724 -33.6603 -33.6562
   -33.6469 -33.6106 -33.6035 -33.6006 -33.5673 -33.5063 -33.4932 -33.4787
   -33.4785 -33.4694 -33.4586 -33.4488 -33.4477 -33.4360 -33.4326 -33.4202
   -33.3080 -33.2778 -33.2632 -33.2406 -33.2399 -33.2239 -33.2133 -33.1870
   -18.2223 -18.1200 -18.0185 -17.8983 -17.8227 -17.7887 -17.7846 -17.5770
   -17.5569 -17.4069 -17.3825 -17.3157 -17.2008 -17.1634 -17.1038 -17.0938
   -17.0612 -17.0454 -17.0263 -17.0123 -16.9351 -16.9053 -16.8281 -16.7841
   -16.7158 -16.7010 -16.6311 -16.6246 -16.6164 -16.4223 -16.3920 -15.8291
   -15.8084  -5.9363  -5.2583  -5.1934  -5.1346  -5.0059  -4.9956  -4.9890
    -4.9087  -4.7593  -4.6988  -4.6256  -4.6075  -4.5860  -4.5670  -4.5270
    -4.4992  -4.4885  -4.4141  -4.3888  -4.3635  -4.3359  -4.3056  -4.2719
    -4.2675  -4.2484  -4.2285  -4.1732  -4.1140  -4.0399  -3.9545  -3.9151
    -3.8271  -3.8003  -3.7856  -3.7547  -3.7211  -3.6688  -3.5486  -3.4959
    -3.4466  -3.4015  -3.3611  -3.3447  -3.3130  -3.2701  -3.2573  -3.1899
    -3.1481  -3.1449  -2.9673  -2.9111  -2.9087  -2.8860  -2.8784  -2.8125
    -2.7825  -2.7654  -2.7324  -2.6928  -2.6361  -2.6119  -2.5773  -2.5372
    -2.4394  -2.4201  -2.3889  -2.3359  -2.3146  -2.3003  -2.2238  -2.1205
    -2.1079  -2.0682  -2.0444  -1.8984  -1.8858  -1.7725  -1.7539  -1.7370
    -1.7231  -1.6529  -1.6064  -1.5159  -1.4686  -1.3881  -1.3102  -1.2446
    -1.2057  -1.1900  -1.1450  -1.0435  -0.9706  -0.9248  -0.9084  -0.8915
    -0.8532  -0.8352  -0.7978  -0.7251   1.1468   1.3156   1.3662   1.5021
     1.7049   1.8617   1.8779   1.9032   1.9285   2.0338   2.1157   2.1480
     2.2197   2.2833   2.3514   2.4080   2.4838   2.4880   2.5345   2.6011
     2.6241   2.6692   2.6782   2.7074   2.7160   2.7532   2.8323   2.8401
     2.8727   2.8967   2.9596   2.9814   3.0326   3.0473   3.0593   3.0831
     3.1070   3.1634   3.1881   3.2126   3.2859   3.2965   3.3042   3.4107
     3.4511   3.4959   3.5964   3.6151   3.6570   3.6911   3.7905   4.2507
     4.2713   4.3176   4.3988   4.4219   4.6905   4.7546   4.8158   4.8751
     4.9815   5.0485   5.0964   5.1673   5.4030   5.4686   5.4986   5.6197
     5.6546   5.7882   5.8265   5.8880   5.9247   5.9411   5.9687   6.1123
     6.1167   6.1676   6.3069   6.3274   6.4044   6.4341   6.6472   6.8475
     6.9157   7.1192   7.2974   7.5827   7.7745   7.9094   8.1983   8.2806
     8.4784   8.4993   8.6150   8.7532   9.0447   9.2563   9.4256

          k =-0.0759-0.0840 0.0000 ( 34556 PWs)   bands (ev):

   -58.4821 -58.4804 -57.5697 -57.5697 -57.5545 -57.4795 -57.4516 -57.4342
   -57.3200 -57.3001 -57.2432 -57.2350 -57.0942 -57.0942 -56.9889 -56.9873
   -34.7542 -34.7534 -34.7521 -34.7518 -34.6570 -34.6555 -33.8948 -33.8944
   -33.8889 -33.8746 -33.8365 -33.7943 -33.7943 -33.7826 -33.7668 -33.7638
   -33.7579 -33.7490 -33.7174 -33.6878 -33.6825 -33.6635 -33.6615 -33.6549
   -33.6494 -33.6150 -33.5741 -33.5570 -33.5558 -33.5474 -33.5398 -33.5097
   -33.4741 -33.4713 -33.4668 -33.4558 -33.4406 -33.4406 -33.3393 -33.3388
   -33.3357 -33.3255 -33.2857 -33.2854 -33.2329 -33.2317 -33.2270 -33.2201
   -18.1184 -18.0071 -18.0067 -17.9368 -17.9348 -17.6936 -17.6505 -17.6495
   -17.6475 -17.3776 -17.2498 -17.2414 -17.2390 -17.1489 -17.1420 -17.0879
   -17.0480 -17.0008 -16.9839 -16.9715 -16.9704 -16.9669 -16.9615 -16.7622
   -16.7398 -16.7269 -16.7239 -16.6343 -16.6321 -16.4553 -16.4343 -15.8406
   -15.8405  -5.9354  -5.0774  -5.0676  -4.9990  -4.9969  -4.8651  -4.8649
    -4.8616  -4.8557  -4.6113  -4.6067  -4.6024  -4.5390  -4.4770  -4.4061
    -4.4040  -4.4026  -4.3691  -4.3545  -4.3404  -4.3293  -4.3113  -4.2623
    -4.2587  -4.2301  -4.2286  -4.2124  -4.1025  -4.0477  -3.9856  -3.9653
    -3.9305  -3.8551  -3.8422  -3.8395  -3.7239  -3.6442  -3.6332  -3.6296
    -3.5049  -3.5034  -3.3498  -3.3470  -3.3366  -3.3019  -3.2326  -3.1978
    -3.1314  -3.1064  -3.0481  -3.0380  -3.0057  -2.9914  -2.9713  -2.8922
    -2.8450  -2.7520  -2.7156  -2.6717  -2.6308  -2.6002  -2.5668  -2.5456
    -2.5112  -2.4420  -2.4174  -2.4105  -2.3770  -2.3279  -2.2696  -2.2402
    -2.1263  -2.0564  -2.0427  -2.0317  -1.9135  -1.8473  -1.8314  -1.6859
    -1.6481  -1.6209  -1.6063  -1.5817  -1.3413  -1.2979  -1.2835  -1.2732
    -1.2433  -1.1912  -1.1170  -1.0284  -0.9687  -0.9380  -0.9246  -0.8887
    -0.8657  -0.8298  -0.7626  -0.7491   1.4098   1.4137   1.4254   1.4311
     1.7730   1.7737   1.9015   1.9033   2.0534   2.1108   2.1137   2.1673
     2.2400   2.2691   2.3636   2.4359   2.4438   2.5121   2.5447   2.5984
     2.6080   2.6413   2.7653   2.7679   2.7798   2.7960   2.8134   2.8430
     2.8914   2.9165   2.9585   3.0475   3.0506   3.0536   3.0763   3.0915
     3.1680   3.2017   3.2029   3.2400   3.2658   3.2901   3.3044   3.3071
     3.3707   3.3955   3.5461   3.6215   3.6941   3.6958   3.9490   3.9495
     4.3464   4.4329   4.4589   4.5180   4.6355   4.6641   4.7095   4.7545
     4.9667   4.9842   4.9909   4.9934   5.4785   5.4823   5.5000   5.7118
     5.7408   5.7431   5.8084   5.8244   5.9023   5.9072   5.9489   6.0475
     6.0900   6.0976   6.1769   6.2431   6.3026   6.4005   6.7052   7.1121
     7.4086   7.4220   7.4576   7.5186   7.6976   7.7047   7.8429   7.9228
     8.2611   8.2670   8.4388   8.5732   9.0498   9.0715   9.1812

     the Fermi energy is    -0.4802 ev

!    total energy              =   -3005.52934838 Ry
     Harris-Foulkes estimate   =   -3005.52934859 Ry
     estimated scf accuracy    <       0.00000053 Ry

     The total energy is the sum of the following terms:

     one-electron contribution =  -41013.58766308 Ry
     hartree contribution      =   20572.72122526 Ry
     xc contribution           =    -546.71482373 Ry
     ewald contribution        =   17982.07156686 Ry
     smearing contrib. (-TS)   =      -0.01965369 Ry

     total magnetization       =     0.00 Bohr mag/cell
     absolute magnetization    =     0.01 Bohr mag/cell

     convergence has been achieved in  10 iterations

     Forces acting on atoms (Ry/au):


     negative rho (up, down):  1.349E-02 1.349E-02
     atom    1 type  1   force =     0.00002006   -0.00109925   -0.10416947
     atom    2 type  2   force =     0.00003883    0.00000000    0.03811213
     atom    3 type  1   force =    -0.00011298    0.00000000   -0.02285766
     atom    4 type  2   force =    -0.00614491    0.00312526   -0.00582599
     atom    5 type  1   force =     0.00030399    0.00030003   -0.00088251
     atom    6 type  2   force =    -0.00038041    0.00000000    0.00016819
     atom    7 type  1   force =     0.00216040    0.00000000    0.00090470
     atom    8 type  2   force =     0.00010391    0.00015824   -0.00019442
     atom    9 type  1   force =     0.00002006    0.00109925   -0.10416947
     atom   10 type  2   force =     0.00003272    0.00000000    0.03426321
     atom   11 type  1   force =    -0.00011328    0.00000000    0.01128291
     atom   12 type  2   force =    -0.00614491   -0.00312526   -0.00582599
     atom   13 type  1   force =     0.00030399   -0.00030003   -0.00088251
     atom   14 type  2   force =    -0.00072989    0.00000000   -0.00107352
     atom   15 type  1   force =     0.00055839    0.00000000    0.00118402
     atom   16 type  2   force =     0.00010391   -0.00015824   -0.00019442
     atom   17 type  2   force =     0.00004339    0.00000000    0.06640615
     atom   18 type  1   force =     0.00014254    0.00000000    0.13067847
     atom   19 type  2   force =    -0.00015602    0.00000000   -0.08415112
     atom   20 type  2   force =    -0.05789520    0.00015504   -0.03633708
     atom   21 type  2   force =     0.05804606    0.00016968   -0.03624626
     atom   22 type  1   force =    -0.00003613    0.00086946    0.07796880
     atom   23 type  2   force =    -0.00015788    0.00000000    0.00141104
     atom   24 type  2   force =    -0.00017241    0.00000000   -0.03626559
     atom   25 type  2   force =     0.00593358    0.00308229   -0.00550952
     atom   26 type  1   force =    -0.00036193    0.00000000    0.00026518
     atom   27 type  2   force =     0.00034577    0.00000000    0.00152276
     atom   28 type  2   force =    -0.00016198    0.00034100   -0.00036348
     atom   29 type  2   force =    -0.00035064    0.00015504    0.00008614
     atom   30 type  1   force =    -0.00016512    0.00081981    0.00064201
     atom   31 type  2   force =    -0.00011607    0.00000000   -0.00027363
     atom   32 type  2   force =     0.00034822   -0.00048620   -0.00021047
     atom   33 type  2   force =    -0.00000642    0.00000000    0.06642926
     atom   34 type  1   force =     0.00011582    0.00000000    0.13048798
     atom   35 type  2   force =    -0.00012730    0.00000000   -0.08360839
     atom   36 type  2   force =    -0.05789520   -0.00015504   -0.03633708
     atom   37 type  2   force =     0.05804606   -0.00016968   -0.03624626
     atom   38 type  1   force =    -0.00003613   -0.00086946    0.07796880
     atom   39 type  2   force =    -0.00007202    0.00000000   -0.00019180
     atom   40 type  2   force =     0.00007685    0.00000000   -0.03527543
     atom   41 type  2   force =     0.00593358   -0.00308229   -0.00550952
     atom   42 type  1   force =    -0.00055045    0.00000000    0.00093749
     atom   43 type  2   force =     0.00040901    0.00000000    0.00166820
     atom   44 type  2   force =    -0.00016198   -0.00034100   -0.00036348
     atom   45 type  2   force =    -0.00035064   -0.00015504    0.00008614
     atom   46 type  1   force =    -0.00016512   -0.00081981    0.00064201
     atom   47 type  2   force =     0.00162773    0.00000000    0.00068936
     atom   48 type  2   force =     0.00034822    0.00048620   -0.00021047
     atom   49 type  2   force =     0.02255588    0.00000000    0.01606214
     atom   50 type  3   force =    -0.02505393    0.00000000   -0.01669154

     Total force =     0.342671     Total SCF correction =     0.002683
 !ASE

     Writing output data file calc.save
 
     init_run     :     49.49s CPU     57.99s WALL (       1 calls)
     electrons    :   2106.86s CPU   2443.70s WALL (       1 calls)
     forces       :     42.39s CPU     44.08s WALL (       1 calls)

     Called by init_run:
     wfcinit      :     42.40s CPU     50.15s WALL (       1 calls)
     potinit      :      1.32s CPU      1.62s WALL (       1 calls)

     Called by electrons:
     c_bands      :   1844.09s CPU   2132.94s WALL (      10 calls)
     sum_band     :    218.79s CPU    261.32s WALL (      10 calls)
     v_of_rho     :     11.19s CPU     13.42s WALL (      11 calls)
     newd         :     36.23s CPU     39.70s WALL (      11 calls)
     mix_rho      :      0.41s CPU      0.55s WALL (      10 calls)
     vdW_energy   :      2.53s CPU      2.92s WALL (      12 calls)
     vdW_ffts     :      2.86s CPU      3.72s WALL (      24 calls)
     vdW_v        :      1.16s CPU      1.32s WALL (      12 calls)

     Called by c_bands:
     init_us_2    :      4.79s CPU      5.23s WALL (     704 calls)
     cegterg      :   1814.41s CPU   2101.07s WALL (     320 calls)

     Called by *egterg:
     h_psi        :    681.33s CPU    902.18s WALL (    1728 calls)
     s_psi        :    118.12s CPU    122.97s WALL (    1728 calls)
     g_psi        :      3.51s CPU      3.61s WALL (    1376 calls)
     cdiaghg      :    619.69s CPU    638.53s WALL (    1696 calls)

     Called by h_psi:
     add_vuspsi   :    119.37s CPU    124.43s WALL (    1728 calls)

     General routines
     calbec       :    171.96s CPU    178.05s WALL (    2080 calls)
     fft          :      5.72s CPU      7.31s WALL (     948 calls)
     ffts         :      0.04s CPU      0.06s WALL (      42 calls)
     fftw         :    373.86s CPU    617.07s WALL (  566096 calls)
     interpolate  :      0.31s CPU      0.48s WALL (      42 calls)
     davcio       :      0.10s CPU      2.98s WALL (      32 calls)
 
     Parallel routines
     fft_scatter  :    181.82s CPU    313.31s WALL (  567086 calls)
 
     PWSCF        : 36m39.74s CPU    42m30.15s WALL

 
   This run was terminated on:   2:55:48  11Feb2018            

=------------------------------------------------------------------------------=
   JOB DONE.
=------------------------------------------------------------------------------=
