  python dir          : /home/vossj/suncat/lib/python2.7/site-packages/espresso
  espresso dir        : /home/vossj/suncat/esdld/espresso-dynpy-beef/bin
  pseudo dir          : /home/alatimer/bin/psp/esp_psp_w_gbrvRu/
  ase-espresso py git : ffa2778-git



     Program PWSCF v.5.1rc2 (svn rev. ) starts on 10Feb2018 at 22:10: 8 

     This program is part of the open-source Quantum ESPRESSO suite
     for quantum simulation of materials; please cite
         "P. Giannozzi et al., J. Phys.:Condens. Matter 21 395502 (2009);
          URL http://www.quantum-espresso.org", 
     in publications or presentations arising from this work. More details at
     http://www.quantum-espresso.org/quote

     Parallel version (MPI), running on    16 processors
     R & G space division:  proc/nbgrp/npool/nimage =      16
     Reading input from pw.inp
     Message from routine read_cards :
     DEPRECATED: no units specified in CELL_PARAMETERS card

     Current dimensions of program PWSCF are:
     Max number of different atomic species (ntypx) = 10
     Max number of k-points (npk) =  40000
     Max angular momentum in pseudopotentials (lmaxx) =  3

     **************************************************************************
     Initializing libbeef V0.1.1 with the BEEF-vdW functional.
     Citation: Wellendorff et al., PRB 85, 235149 (2012).
     **************************************************************************


     IMPORTANT: XC functional enforced from input :
     Exchange-correlation      = BEEF ( 1  4 27 13 2)
     Any further DFT definition will be discarded
     Please, verify this is what you really want


     Subspace diagonalization in iterative solution of the eigenvalue problem:
     a serial algorithm will be used

 
     Parallelization info
     --------------------
     sticks:   dense  smooth     PW     G-vecs:    dense   smooth      PW
     Min         281     112     31                68535    17318    2565
     Max         282     113     32                68545    17369    2582
     Sum        4501    1795    503              1096637   277353   41113
 
     Generating pointlists ...
     new r_m :   0.4125 (alat units)  0.7795 (a.u.) for type    1
     new r_m :   0.4125 (alat units)  0.7795 (a.u.) for type    2


     bravais-lattice index     =            0
     lattice parameter (alat)  =       1.8897  a.u.
     unit-cell volume          =    7990.9933 (a.u.)^3
     number of atoms/cell      =           49
     number of atomic types    =            2
     number of electrons       =       390.00
     number of Kohn-Sham states=          295
     kinetic-energy cutoff     =      40.4243  Ry
     charge density cutoff     =     404.2426  Ry
     convergence threshold     =      7.3E-07
     mixing beta               =       0.1000
     number of iterations used =           10  plain     mixing
     Exchange-correlation      = BEEF ( 1  4 27 13 2)
     nstep                     =           50


     celldm(1)=   1.889726  celldm(2)=   0.000000  celldm(3)=   0.000000
     celldm(4)=   0.000000  celldm(5)=   0.000000  celldm(6)=   0.000000

     crystal axes: (cart. coord. in units of alat)
               a(1) = (   6.590708   0.000000   0.000000 )  
               a(2) = (   0.000000   5.950229   0.000000 )  
               a(3) = (   0.000000   0.000000  30.195235 )  

     reciprocal axes: (cart. coord. in units 2 pi/alat)
               b(1) = (  0.151729  0.000000  0.000000 )  
               b(2) = (  0.000000  0.168061  0.000000 )  
               b(3) = (  0.000000  0.000000  0.033118 )  


     PseudoPot. # 1 for Ti read from file:
     /home/alatimer/bin/psp/esp_psp_w_gbrvRu/Ti.UPF
     MD5 check sum: 8e4df49b7f0d34bbd5052bf3f5ea0213
     Pseudo is Ultrasoft, Zval = 12.0
     Generated by new atomic code, or converted to UPF format
     Using radial grid of  851 points,  6 beta functions with: 
                l(1) =   0
                l(2) =   0
                l(3) =   1
                l(4) =   1
                l(5) =   2
                l(6) =   2
     Q(r) pseudized with  8 coefficients,  rinner =    1.000   1.000   1.000
                                                       1.000   1.000

     PseudoPot. # 2 for  O read from file:
     /home/alatimer/bin/psp/esp_psp_w_gbrvRu/O.UPF
     MD5 check sum: e057bbcf3229fb5d8c36c0c92f9568b4
     Pseudo is Ultrasoft + core correction, Zval =  6.0
     Generated using "atomic" code by A. Dal Corso  v.5.0.2 svn rev. 9415
     Using radial grid of 1095 points,  4 beta functions with: 
                l(1) =   0
                l(2) =   0
                l(3) =   1
                l(4) =   1
     Q(r) pseudized with 0 coefficients 


     vdW kernel table read from file vdW_kernel_table
     MD5 check sum: 095c7af220d748ca6e76c0b4c6cfb241

     atomic species   valence    mass     pseudopotential
        Ti1           12.00    47.88000     Ti( 1.00)
        O1             6.00    15.99940      O( 1.00)

     Starting magnetic structure 
     atomic species   magnetization
        Ti1          0.250
        O1           0.500

     No symmetry found



   Cartesian axes

     site n.     atom                  positions (alat units)
         1           Ti1 tau(   1) = (   1.6476770   0.7437786   2.6545865  )
         2           O1  tau(   2) = (   1.6476770   2.2313359   3.9361215  )
         3           Ti1 tau(   3) = (   1.6476770   2.2313359   5.9499405  )
         4           O1  tau(   4) = (   0.3661420   0.7437786   5.9499405  )
         5           Ti1 tau(   5) = (   1.5277661   0.7316361   9.1979924  )
         6           O1  tau(   6) = (   1.6632133   2.1793878  10.6093433  )
         7           Ti1 tau(   7) = (   1.6165400   2.1742892  12.4450098  )
         8           O1  tau(   8) = (   0.4211133   0.7189415  12.7146628  )
         9           Ti1 tau(   9) = (   1.6476770   3.7188931   2.6545865  )
        10           O1  tau(  10) = (   1.6476770   5.2064503   3.9361215  )
        11           Ti1 tau(  11) = (   1.6476770   5.2064503   5.9499405  )
        12           O1  tau(  12) = (   0.3661420   3.7188931   5.9499405  )
        13           Ti1 tau(  13) = (   1.5318737   3.7073984   9.2114718  )
        14           O1  tau(  14) = (   1.6603548   5.2054729  10.6082275  )
        15           Ti1 tau(  15) = (   1.6160620   5.2125286  12.4458513  )
        16           O1  tau(  16) = (   0.3672395   3.6890226  12.4512313  )
        17           O1  tau(  17) = (   1.6476770   2.2313359   1.3730516  )
        18           Ti1 tau(  18) = (   4.9430310   2.2313359   2.6545865  )
        19           O1  tau(  19) = (   4.9430310   2.2313359   4.6684056  )
        20           O1  tau(  20) = (   6.2245660   0.7437786   2.6545865  )
        21           O1  tau(  21) = (   3.6614961   0.7437786   2.6545865  )
        22           Ti1 tau(  22) = (   4.9430310   0.7437786   5.9499405  )
        23           O1  tau(  23) = (   1.6494130   2.2266810   8.0229920  )
        24           O1  tau(  24) = (   4.9430310   2.2313359   7.2314755  )
        25           O1  tau(  25) = (   2.9292120   0.7437786   5.9499405  )
        26           Ti1 tau(  26) = (   4.8570045   2.2038353   9.3960648  )
        27           O1  tau(  27) = (   4.9365002   2.1563787  11.2526517  )
        28           O1  tau(  28) = (   6.2661622   0.7265345   9.2570196  )
        29           O1  tau(  29) = (   3.6607207   0.7252434   9.2585875  )
        30           Ti1 tau(  30) = (   4.8804456   0.7009689  12.7500804  )
        31           O1  tau(  31) = (   4.9885443   2.2055297  13.8060867  )
        32           O1  tau(  32) = (   2.8787315   0.7196740  12.7638696  )
        33           O1  tau(  33) = (   1.6476770   5.2064503   1.3730516  )
        34           Ti1 tau(  34) = (   4.9430310   5.2064503   2.6545865  )
        35           O1  tau(  35) = (   4.9430310   5.2064503   4.6684056  )
        36           O1  tau(  36) = (   6.2245660   3.7188931   2.6545865  )
        37           O1  tau(  37) = (   3.6614961   3.7188931   2.6545865  )
        38           Ti1 tau(  38) = (   4.9430310   3.7188931   5.9499405  )
        39           O1  tau(  39) = (   1.6492404   5.1840375   8.0235373  )
        40           O1  tau(  40) = (   4.9430310   5.2064503   7.2314755  )
        41           O1  tau(  41) = (   2.9292120   3.7188931   5.9499405  )
        42           Ti1 tau(  42) = (   4.8583452   5.1875290   9.3946917  )
        43           O1  tau(  43) = (   4.9366536   5.2195535  11.2514306  )
        44           O1  tau(  44) = (   6.2660656   3.7009687   9.2894568  )
        45           O1  tau(  45) = (   3.6605616   3.6984666   9.2954459  )
        46           Ti1 tau(  46) = (   5.1078939   3.6751672  12.7268755  )
        47           O1  tau(  47) = (   4.9880347   5.1576104  13.8055399  )
        48           O1  tau(  48) = (   3.0285069   3.6936269  12.4216869  )
        49           O1  tau(  49) = (   2.3858682   3.6994311  13.7764468  )

     number of k points=    40  Fermi-Dirac smearing, width (Ry)=  0.0073
                       cart. coord. in units 2pi/alat
        k(    1) = (   0.0000000   0.0000000   0.0000000), wk =   0.0277778
        k(    2) = (   0.0000000   0.0280101   0.0000000), wk =   0.0555556
        k(    3) = (   0.0000000   0.0560203   0.0000000), wk =   0.0555556
        k(    4) = (   0.0000000  -0.0840304   0.0000000), wk =   0.0277778
        k(    5) = (   0.0252881   0.0000000   0.0000000), wk =   0.0555556
        k(    6) = (   0.0252881   0.0280101   0.0000000), wk =   0.0555556
        k(    7) = (   0.0252881   0.0560203   0.0000000), wk =   0.0555556
        k(    8) = (   0.0252881  -0.0840304   0.0000000), wk =   0.0555556
        k(    9) = (   0.0505763   0.0000000   0.0000000), wk =   0.0555556
        k(   10) = (   0.0505763   0.0280101   0.0000000), wk =   0.0555556
        k(   11) = (   0.0505763   0.0560203   0.0000000), wk =   0.0555556
        k(   12) = (   0.0505763  -0.0840304   0.0000000), wk =   0.0555556
        k(   13) = (  -0.0758644   0.0000000   0.0000000), wk =   0.0277778
        k(   14) = (  -0.0758644   0.0280101   0.0000000), wk =   0.0555556
        k(   15) = (  -0.0758644   0.0560203   0.0000000), wk =   0.0555556
        k(   16) = (  -0.0758644  -0.0840304   0.0000000), wk =   0.0277778
        k(   17) = (  -0.0252881   0.0280101   0.0000000), wk =   0.0555556
        k(   18) = (  -0.0252881   0.0560203   0.0000000), wk =   0.0555556
        k(   19) = (  -0.0505763   0.0280101   0.0000000), wk =   0.0555556
        k(   20) = (  -0.0505763   0.0560203   0.0000000), wk =   0.0555556
        k(   21) = (   0.0000000   0.0000000   0.0000000), wk =   0.0277778
        k(   22) = (   0.0000000   0.0280101   0.0000000), wk =   0.0555556
        k(   23) = (   0.0000000   0.0560203   0.0000000), wk =   0.0555556
        k(   24) = (   0.0000000  -0.0840304   0.0000000), wk =   0.0277778
        k(   25) = (   0.0252881   0.0000000   0.0000000), wk =   0.0555556
        k(   26) = (   0.0252881   0.0280101   0.0000000), wk =   0.0555556
        k(   27) = (   0.0252881   0.0560203   0.0000000), wk =   0.0555556
        k(   28) = (   0.0252881  -0.0840304   0.0000000), wk =   0.0555556
        k(   29) = (   0.0505763   0.0000000   0.0000000), wk =   0.0555556
        k(   30) = (   0.0505763   0.0280101   0.0000000), wk =   0.0555556
        k(   31) = (   0.0505763   0.0560203   0.0000000), wk =   0.0555556
        k(   32) = (   0.0505763  -0.0840304   0.0000000), wk =   0.0555556
        k(   33) = (  -0.0758644   0.0000000   0.0000000), wk =   0.0277778
        k(   34) = (  -0.0758644   0.0280101   0.0000000), wk =   0.0555556
        k(   35) = (  -0.0758644   0.0560203   0.0000000), wk =   0.0555556
        k(   36) = (  -0.0758644  -0.0840304   0.0000000), wk =   0.0277778
        k(   37) = (  -0.0252881   0.0280101   0.0000000), wk =   0.0555556
        k(   38) = (  -0.0252881   0.0560203   0.0000000), wk =   0.0555556
        k(   39) = (  -0.0505763   0.0280101   0.0000000), wk =   0.0555556
        k(   40) = (  -0.0505763   0.0560203   0.0000000), wk =   0.0555556

     Dense  grid:  1096637 G-vectors     FFT dimensions: (  80,  72, 375)

     Smooth grid:   277353 G-vectors     FFT dimensions: (  54,  45, 240)

     Largest allocated arrays     est. size (Mb)     dimensions
        Kohn-Sham Wavefunctions         9.81 Mb     (    2180,  295)
        NL pseudopotentials            18.36 Mb     (    2180,  552)
        Each V/rho on FFT grid          4.22 Mb     (  138240,   2)
        Each G-vector array             0.52 Mb     (   68538)
        G-vector shells                 0.25 Mb     (   33046)
     Largest temporary arrays     est. size (Mb)     dimensions
        Auxiliary wavefunctions        39.25 Mb     (    2180, 1180)
        Each subspace H/S matrix       21.25 Mb     (    1180, 1180)
        Each <psi_i|beta_j> matrix      2.48 Mb     (     552,  295)
        Arrays for rho mixing          21.09 Mb     (  138240,   10)

     Check: negative/imaginary core charge=   -0.000049    0.000000

     The initial density is read from file :
     ./calc.save/charge-density.dat


     negative rho (up, down):  1.430E-02 1.430E-02


     ************************************************************************
     *
     * You are using vdW-DF for exchange-correlation in this calculation.
     * Please cite the following three references that made this development
     * possible:
     *
     *   M. Dion, H. Rydberg, E. Schroder, D. C. Langreth, and
     *   B. I. Lundqvist, Phys. Rev. Lett. 92, 246401 (2004).
     *
     *   T. Thonhauser, V. R. Cooper, S. Li, A. Puzder, P. Hyldgaard, and
     *   D. C. Langreth, Phys. Rev. B 76, 125112 (2007).
     *
     *   G. Roman-Perez and J. M. Soler, Phys. Rev. Lett. 103, 096102 (2009).
     *
     *
     * If you are using vdW-DF2, please also cite:
     *
     *   K. Lee, E. D. Murray, L. Kong, B. I. Lundqvist, and
     *   D. C. Langreth, Phys. Rev. B 82, 081101(R) (2010).
     *
     *
     * If you are calculating the stress with vdW-DF, please also cite:
     *
     *   R. Sabatini, E. Kucukbenli, B. Kolb, T. Thonhauser, and
     *   S. de Gironcoli, J. Phys.: Condens. Matter 24, 424209 (2012).
     *
     ************************************************************************

     Carrying out vdW-DF run using the following parameters:

     Nqs =      20    Nr_points =    1024   r_max =   100.000
     q_mesh =
               0.00001000     0.04494208     0.09755937     0.15916263
               0.23128650     0.31572767     0.41458969     0.53033537
               0.66584808     0.82450364     1.01025438     1.22772762
               1.48234092     1.78043706     2.12944203     2.53805004
               3.01644009     3.57652955     4.23227104     5.00000000

     Gradients computed in reciprocal space

     ************************************************************************


     Starting wfc are  292 randomized atomic wfcs +    3 random wfc

     total cpu time spent up to now is       69.0 secs

     Self-consistent Calculation

     iteration #  1     ecut=    40.42 Ry     beta=0.10
     Davidson diagonalization with overlap
     ethr =  1.00E-05,  avg # of iterations = 16.6

     negative rho (up, down):  1.429E-02 1.429E-02
 
     Magnetic moment per site:
     atom:    1    charge:    3.1250    magn:   -0.0002    constr:    0.0000
     atom:    2    charge:    2.0895    magn:    0.0000    constr:    0.0000
     atom:    3    charge:    3.1195    magn:   -0.0000    constr:    0.0000
     atom:    4    charge:    2.0871    magn:   -0.0001    constr:    0.0000
     atom:    5    charge:    3.1166    magn:    0.0000    constr:    0.0000
     atom:    6    charge:    2.0888    magn:   -0.0001    constr:    0.0000
     atom:    7    charge:    3.1204    magn:    0.0001    constr:    0.0000
     atom:    8    charge:    2.0887    magn:   -0.0001    constr:    0.0000
     atom:    9    charge:    3.1250    magn:   -0.0002    constr:    0.0000
     atom:   10    charge:    2.0895    magn:    0.0000    constr:    0.0000
     atom:   11    charge:    3.1195    magn:   -0.0000    constr:    0.0000
     atom:   12    charge:    2.0871    magn:   -0.0001    constr:    0.0000
     atom:   13    charge:    3.1145    magn:    0.0000    constr:    0.0000
     atom:   14    charge:    2.0874    magn:   -0.0001    constr:    0.0000
     atom:   15    charge:    3.1162    magn:    0.0001    constr:    0.0000
     atom:   16    charge:    2.1001    magn:   -0.0002    constr:    0.0000
     atom:   17    charge:    2.0627    magn:    0.0006    constr:    0.0000
     atom:   18    charge:    3.1240    magn:   -0.0001    constr:    0.0000
     atom:   19    charge:    2.0877    magn:   -0.0000    constr:    0.0000
     atom:   20    charge:    2.0846    magn:    0.0001    constr:    0.0000
     atom:   21    charge:    2.0846    magn:    0.0001    constr:    0.0000
     atom:   22    charge:    3.1197    magn:    0.0000    constr:    0.0000
     atom:   23    charge:    2.0904    magn:   -0.0001    constr:    0.0000
     atom:   24    charge:    2.0787    magn:   -0.0000    constr:    0.0000
     atom:   25    charge:    2.0869    magn:   -0.0001    constr:    0.0000
     atom:   26    charge:    3.1148    magn:    0.0000    constr:    0.0000
     atom:   27    charge:    2.0814    magn:   -0.0001    constr:    0.0000
     atom:   28    charge:    2.0885    magn:   -0.0001    constr:    0.0000
     atom:   29    charge:    2.0875    magn:   -0.0001    constr:    0.0000
     atom:   30    charge:    3.1179    magn:    0.0000    constr:    0.0000
     atom:   31    charge:    2.0848    magn:   -0.0001    constr:    0.0000
     atom:   32    charge:    2.0869    magn:   -0.0001    constr:    0.0000
     atom:   33    charge:    2.0627    magn:    0.0006    constr:    0.0000
     atom:   34    charge:    3.1240    magn:   -0.0001    constr:    0.0000
     atom:   35    charge:    2.0877    magn:   -0.0000    constr:    0.0000
     atom:   36    charge:    2.0846    magn:    0.0001    constr:    0.0000
     atom:   37    charge:    2.0846    magn:    0.0001    constr:    0.0000
     atom:   38    charge:    3.1197    magn:    0.0000    constr:    0.0000
     atom:   39    charge:    2.0911    magn:   -0.0001    constr:    0.0000
     atom:   40    charge:    2.0788    magn:   -0.0000    constr:    0.0000
     atom:   41    charge:    2.0869    magn:   -0.0001    constr:    0.0000
     atom:   42    charge:    3.1145    magn:    0.0000    constr:    0.0000
     atom:   43    charge:    2.0814    magn:   -0.0001    constr:    0.0000
     atom:   44    charge:    2.0857    magn:   -0.0001    constr:    0.0000
     atom:   45    charge:    2.0873    magn:   -0.0001    constr:    0.0000
     atom:   46    charge:    3.1237    magn:    0.0001    constr:    0.0000
     atom:   47    charge:    2.0858    magn:   -0.0001    constr:    0.0000
     atom:   48    charge:    2.0621    magn:   -0.0001    constr:    0.0000
     atom:   49    charge:    2.0475    magn:   -0.0001    constr:    0.0000

     total cpu time spent up to now is      854.1 secs

     total energy              =   -3004.20065016 Ry
     Harris-Foulkes estimate   =   -3004.22513731 Ry
     estimated scf accuracy    <       0.15331591 Ry

     total magnetization       =     0.00 Bohr mag/cell
     absolute magnetization    =     0.01 Bohr mag/cell

     iteration #  2     ecut=    40.42 Ry     beta=0.10
     Davidson diagonalization with overlap
     ethr =  3.93E-05,  avg # of iterations =  1.9

     negative rho (up, down):  1.428E-02 1.428E-02
 
     Magnetic moment per site:
     atom:    1    charge:    3.1251    magn:   -0.0002    constr:    0.0000
     atom:    2    charge:    2.0895    magn:    0.0000    constr:    0.0000
     atom:    3    charge:    3.1196    magn:   -0.0000    constr:    0.0000
     atom:    4    charge:    2.0870    magn:   -0.0001    constr:    0.0000
     atom:    5    charge:    3.1167    magn:    0.0000    constr:    0.0000
     atom:    6    charge:    2.0890    magn:   -0.0001    constr:    0.0000
     atom:    7    charge:    3.1195    magn:    0.0001    constr:    0.0000
     atom:    8    charge:    2.0887    magn:   -0.0001    constr:    0.0000
     atom:    9    charge:    3.1251    magn:   -0.0002    constr:    0.0000
     atom:   10    charge:    2.0895    magn:    0.0000    constr:    0.0000
     atom:   11    charge:    3.1196    magn:   -0.0000    constr:    0.0000
     atom:   12    charge:    2.0870    magn:   -0.0001    constr:    0.0000
     atom:   13    charge:    3.1146    magn:    0.0000    constr:    0.0000
     atom:   14    charge:    2.0876    magn:   -0.0001    constr:    0.0000
     atom:   15    charge:    3.1153    magn:    0.0001    constr:    0.0000
     atom:   16    charge:    2.0997    magn:   -0.0001    constr:    0.0000
     atom:   17    charge:    2.0623    magn:    0.0005    constr:    0.0000
     atom:   18    charge:    3.1239    magn:   -0.0001    constr:    0.0000
     atom:   19    charge:    2.0877    magn:   -0.0000    constr:    0.0000
     atom:   20    charge:    2.0847    magn:    0.0001    constr:    0.0000
     atom:   21    charge:    2.0847    magn:    0.0001    constr:    0.0000
     atom:   22    charge:    3.1196    magn:    0.0000    constr:    0.0000
     atom:   23    charge:    2.0904    magn:   -0.0001    constr:    0.0000
     atom:   24    charge:    2.0789    magn:   -0.0000    constr:    0.0000
     atom:   25    charge:    2.0869    magn:   -0.0001    constr:    0.0000
     atom:   26    charge:    3.1149    magn:    0.0000    constr:    0.0000
     atom:   27    charge:    2.0815    magn:   -0.0001    constr:    0.0000
     atom:   28    charge:    2.0885    magn:   -0.0001    constr:    0.0000
     atom:   29    charge:    2.0875    magn:   -0.0001    constr:    0.0000
     atom:   30    charge:    3.1180    magn:    0.0000    constr:    0.0000
     atom:   31    charge:    2.0847    magn:   -0.0001    constr:    0.0000
     atom:   32    charge:    2.0869    magn:   -0.0001    constr:    0.0000
     atom:   33    charge:    2.0623    magn:    0.0005    constr:    0.0000
     atom:   34    charge:    3.1239    magn:   -0.0001    constr:    0.0000
     atom:   35    charge:    2.0878    magn:   -0.0000    constr:    0.0000
     atom:   36    charge:    2.0847    magn:    0.0001    constr:    0.0000
     atom:   37    charge:    2.0847    magn:    0.0001    constr:    0.0000
     atom:   38    charge:    3.1196    magn:    0.0000    constr:    0.0000
     atom:   39    charge:    2.0911    magn:   -0.0001    constr:    0.0000
     atom:   40    charge:    2.0790    magn:   -0.0000    constr:    0.0000
     atom:   41    charge:    2.0869    magn:   -0.0000    constr:    0.0000
     atom:   42    charge:    3.1146    magn:    0.0000    constr:    0.0000
     atom:   43    charge:    2.0814    magn:   -0.0001    constr:    0.0000
     atom:   44    charge:    2.0857    magn:   -0.0001    constr:    0.0000
     atom:   45    charge:    2.0873    magn:   -0.0001    constr:    0.0000
     atom:   46    charge:    3.1239    magn:    0.0000    constr:    0.0000
     atom:   47    charge:    2.0857    magn:   -0.0001    constr:    0.0000
     atom:   48    charge:    2.0562    magn:   -0.0001    constr:    0.0000
     atom:   49    charge:    2.0494    magn:   -0.0001    constr:    0.0000

     total cpu time spent up to now is     1041.7 secs

     total energy              =   -3004.18274466 Ry
     Harris-Foulkes estimate   =   -3004.20410349 Ry
     estimated scf accuracy    <       0.07263455 Ry

     total magnetization       =     0.00 Bohr mag/cell
     absolute magnetization    =     0.01 Bohr mag/cell

     iteration #  3     ecut=    40.42 Ry     beta=0.10
     Davidson diagonalization with overlap
     ethr =  1.86E-05,  avg # of iterations =  5.2

     negative rho (up, down):  1.428E-02 1.428E-02
 
     Magnetic moment per site:
     atom:    1    charge:    3.1251    magn:   -0.0002    constr:    0.0000
     atom:    2    charge:    2.0894    magn:    0.0000    constr:    0.0000
     atom:    3    charge:    3.1197    magn:   -0.0000    constr:    0.0000
     atom:    4    charge:    2.0870    magn:   -0.0000    constr:    0.0000
     atom:    5    charge:    3.1168    magn:    0.0000    constr:    0.0000
     atom:    6    charge:    2.0892    magn:   -0.0001    constr:    0.0000
     atom:    7    charge:    3.1209    magn:    0.0001    constr:    0.0000
     atom:    8    charge:    2.0866    magn:   -0.0001    constr:    0.0000
     atom:    9    charge:    3.1251    magn:   -0.0002    constr:    0.0000
     atom:   10    charge:    2.0894    magn:    0.0000    constr:    0.0000
     atom:   11    charge:    3.1197    magn:   -0.0000    constr:    0.0000
     atom:   12    charge:    2.0871    magn:   -0.0000    constr:    0.0000
     atom:   13    charge:    3.1149    magn:    0.0000    constr:    0.0000
     atom:   14    charge:    2.0879    magn:   -0.0001    constr:    0.0000
     atom:   15    charge:    3.1167    magn:    0.0001    constr:    0.0000
     atom:   16    charge:    2.0997    magn:   -0.0001    constr:    0.0000
     atom:   17    charge:    2.0619    magn:    0.0004    constr:    0.0000
     atom:   18    charge:    3.1237    magn:   -0.0001    constr:    0.0000
     atom:   19    charge:    2.0878    magn:   -0.0000    constr:    0.0000
     atom:   20    charge:    2.0846    magn:    0.0001    constr:    0.0000
     atom:   21    charge:    2.0846    magn:    0.0001    constr:    0.0000
     atom:   22    charge:    3.1196    magn:    0.0000    constr:    0.0000
     atom:   23    charge:    2.0901    magn:   -0.0001    constr:    0.0000
     atom:   24    charge:    2.0792    magn:   -0.0000    constr:    0.0000
     atom:   25    charge:    2.0869    magn:   -0.0000    constr:    0.0000
     atom:   26    charge:    3.1150    magn:    0.0000    constr:    0.0000
     atom:   27    charge:    2.0822    magn:   -0.0001    constr:    0.0000
     atom:   28    charge:    2.0884    magn:   -0.0001    constr:    0.0000
     atom:   29    charge:    2.0876    magn:   -0.0001    constr:    0.0000
     atom:   30    charge:    3.1185    magn:    0.0000    constr:    0.0000
     atom:   31    charge:    2.0825    magn:   -0.0000    constr:    0.0000
     atom:   32    charge:    2.0857    magn:   -0.0001    constr:    0.0000
     atom:   33    charge:    2.0619    magn:    0.0004    constr:    0.0000
     atom:   34    charge:    3.1237    magn:   -0.0001    constr:    0.0000
     atom:   35    charge:    2.0878    magn:   -0.0000    constr:    0.0000
     atom:   36    charge:    2.0846    magn:    0.0001    constr:    0.0000
     atom:   37    charge:    2.0846    magn:    0.0001    constr:    0.0000
     atom:   38    charge:    3.1196    magn:    0.0000    constr:    0.0000
     atom:   39    charge:    2.0908    magn:   -0.0001    constr:    0.0000
     atom:   40    charge:    2.0792    magn:   -0.0000    constr:    0.0000
     atom:   41    charge:    2.0869    magn:   -0.0000    constr:    0.0000
     atom:   42    charge:    3.1147    magn:    0.0000    constr:    0.0000
     atom:   43    charge:    2.0821    magn:   -0.0001    constr:    0.0000
     atom:   44    charge:    2.0856    magn:   -0.0001    constr:    0.0000
     atom:   45    charge:    2.0876    magn:   -0.0001    constr:    0.0000
     atom:   46    charge:    3.1244    magn:    0.0000    constr:    0.0000
     atom:   47    charge:    2.0835    magn:   -0.0000    constr:    0.0000
     atom:   48    charge:    2.0595    magn:   -0.0001    constr:    0.0000
     atom:   49    charge:    2.0442    magn:   -0.0001    constr:    0.0000

     total cpu time spent up to now is     1279.8 secs

     total energy              =   -3004.17578258 Ry
     Harris-Foulkes estimate   =   -3004.18663540 Ry
     estimated scf accuracy    <       0.02545034 Ry

     total magnetization       =     0.00 Bohr mag/cell
     absolute magnetization    =     0.01 Bohr mag/cell

     iteration #  4     ecut=    40.42 Ry     beta=0.10
     Davidson diagonalization with overlap
     ethr =  6.53E-06,  avg # of iterations =  6.9

     negative rho (up, down):  1.429E-02 1.429E-02
 
     Magnetic moment per site:
     atom:    1    charge:    3.1250    magn:   -0.0001    constr:    0.0000
     atom:    2    charge:    2.0894    magn:    0.0000    constr:    0.0000
     atom:    3    charge:    3.1196    magn:   -0.0000    constr:    0.0000
     atom:    4    charge:    2.0871    magn:   -0.0000    constr:    0.0000
     atom:    5    charge:    3.1167    magn:    0.0000    constr:    0.0000
     atom:    6    charge:    2.0890    magn:   -0.0001    constr:    0.0000
     atom:    7    charge:    3.1219    magn:    0.0001    constr:    0.0000
     atom:    8    charge:    2.0859    magn:   -0.0001    constr:    0.0000
     atom:    9    charge:    3.1250    magn:   -0.0001    constr:    0.0000
     atom:   10    charge:    2.0894    magn:    0.0000    constr:    0.0000
     atom:   11    charge:    3.1196    magn:   -0.0000    constr:    0.0000
     atom:   12    charge:    2.0871    magn:   -0.0000    constr:    0.0000
     atom:   13    charge:    3.1148    magn:    0.0000    constr:    0.0000
     atom:   14    charge:    2.0877    magn:   -0.0001    constr:    0.0000
     atom:   15    charge:    3.1177    magn:    0.0001    constr:    0.0000
     atom:   16    charge:    2.1002    magn:   -0.0001    constr:    0.0000
     atom:   17    charge:    2.0621    magn:    0.0004    constr:    0.0000
     atom:   18    charge:    3.1238    magn:   -0.0001    constr:    0.0000
     atom:   19    charge:    2.0878    magn:   -0.0000    constr:    0.0000
     atom:   20    charge:    2.0846    magn:    0.0001    constr:    0.0000
     atom:   21    charge:    2.0846    magn:    0.0001    constr:    0.0000
     atom:   22    charge:    3.1196    magn:    0.0000    constr:    0.0000
     atom:   23    charge:    2.0901    magn:   -0.0000    constr:    0.0000
     atom:   24    charge:    2.0789    magn:   -0.0000    constr:    0.0000
     atom:   25    charge:    2.0869    magn:   -0.0000    constr:    0.0000
     atom:   26    charge:    3.1149    magn:    0.0000    constr:    0.0000
     atom:   27    charge:    2.0822    magn:   -0.0000    constr:    0.0000
     atom:   28    charge:    2.0884    magn:   -0.0000    constr:    0.0000
     atom:   29    charge:    2.0876    magn:   -0.0001    constr:    0.0000
     atom:   30    charge:    3.1183    magn:    0.0000    constr:    0.0000
     atom:   31    charge:    2.0821    magn:   -0.0000    constr:    0.0000
     atom:   32    charge:    2.0853    magn:   -0.0001    constr:    0.0000
     atom:   33    charge:    2.0621    magn:    0.0004    constr:    0.0000
     atom:   34    charge:    3.1238    magn:   -0.0001    constr:    0.0000
     atom:   35    charge:    2.0878    magn:   -0.0000    constr:    0.0000
     atom:   36    charge:    2.0846    magn:    0.0001    constr:    0.0000
     atom:   37    charge:    2.0846    magn:    0.0001    constr:    0.0000
     atom:   38    charge:    3.1197    magn:    0.0000    constr:    0.0000
     atom:   39    charge:    2.0908    magn:   -0.0000    constr:    0.0000
     atom:   40    charge:    2.0790    magn:   -0.0000    constr:    0.0000
     atom:   41    charge:    2.0869    magn:   -0.0000    constr:    0.0000
     atom:   42    charge:    3.1146    magn:    0.0000    constr:    0.0000
     atom:   43    charge:    2.0821    magn:   -0.0000    constr:    0.0000
     atom:   44    charge:    2.0857    magn:   -0.0000    constr:    0.0000
     atom:   45    charge:    2.0876    magn:   -0.0001    constr:    0.0000
     atom:   46    charge:    3.1240    magn:    0.0000    constr:    0.0000
     atom:   47    charge:    2.0831    magn:   -0.0000    constr:    0.0000
     atom:   48    charge:    2.0645    magn:   -0.0001    constr:    0.0000
     atom:   49    charge:    2.0412    magn:   -0.0001    constr:    0.0000

     total cpu time spent up to now is     1546.6 secs

     total energy              =   -3004.17509099 Ry
     Harris-Foulkes estimate   =   -3004.17759077 Ry
     estimated scf accuracy    <       0.00524079 Ry

     total magnetization       =     0.00 Bohr mag/cell
     absolute magnetization    =     0.00 Bohr mag/cell

     iteration #  5     ecut=    40.42 Ry     beta=0.10
     Davidson diagonalization with overlap
     ethr =  1.34E-06,  avg # of iterations =  7.1

     negative rho (up, down):  1.430E-02 1.430E-02
 
     Magnetic moment per site:
     atom:    1    charge:    3.1251    magn:   -0.0001    constr:    0.0000
     atom:    2    charge:    2.0895    magn:    0.0000    constr:    0.0000
     atom:    3    charge:    3.1196    magn:   -0.0000    constr:    0.0000
     atom:    4    charge:    2.0871    magn:   -0.0000    constr:    0.0000
     atom:    5    charge:    3.1167    magn:    0.0000    constr:    0.0000
     atom:    6    charge:    2.0889    magn:   -0.0001    constr:    0.0000
     atom:    7    charge:    3.1220    magn:    0.0000    constr:    0.0000
     atom:    8    charge:    2.0867    magn:   -0.0001    constr:    0.0000
     atom:    9    charge:    3.1251    magn:   -0.0001    constr:    0.0000
     atom:   10    charge:    2.0895    magn:    0.0000    constr:    0.0000
     atom:   11    charge:    3.1196    magn:   -0.0000    constr:    0.0000
     atom:   12    charge:    2.0871    magn:   -0.0000    constr:    0.0000
     atom:   13    charge:    3.1147    magn:    0.0000    constr:    0.0000
     atom:   14    charge:    2.0875    magn:   -0.0001    constr:    0.0000
     atom:   15    charge:    3.1178    magn:    0.0000    constr:    0.0000
     atom:   16    charge:    2.1005    magn:   -0.0001    constr:    0.0000
     atom:   17    charge:    2.0621    magn:    0.0003    constr:    0.0000
     atom:   18    charge:    3.1239    magn:   -0.0001    constr:    0.0000
     atom:   19    charge:    2.0878    magn:   -0.0000    constr:    0.0000
     atom:   20    charge:    2.0846    magn:    0.0000    constr:    0.0000
     atom:   21    charge:    2.0846    magn:    0.0000    constr:    0.0000
     atom:   22    charge:    3.1196    magn:    0.0000    constr:    0.0000
     atom:   23    charge:    2.0903    magn:   -0.0000    constr:    0.0000
     atom:   24    charge:    2.0789    magn:   -0.0000    constr:    0.0000
     atom:   25    charge:    2.0869    magn:   -0.0000    constr:    0.0000
     atom:   26    charge:    3.1149    magn:    0.0000    constr:    0.0000
     atom:   27    charge:    2.0818    magn:   -0.0000    constr:    0.0000
     atom:   28    charge:    2.0885    magn:   -0.0000    constr:    0.0000
     atom:   29    charge:    2.0876    magn:   -0.0000    constr:    0.0000
     atom:   30    charge:    3.1182    magn:    0.0000    constr:    0.0000
     atom:   31    charge:    2.0824    magn:   -0.0000    constr:    0.0000
     atom:   32    charge:    2.0856    magn:   -0.0001    constr:    0.0000
     atom:   33    charge:    2.0621    magn:    0.0003    constr:    0.0000
     atom:   34    charge:    3.1239    magn:   -0.0001    constr:    0.0000
     atom:   35    charge:    2.0878    magn:   -0.0000    constr:    0.0000
     atom:   36    charge:    2.0846    magn:    0.0000    constr:    0.0000
     atom:   37    charge:    2.0846    magn:    0.0000    constr:    0.0000
     atom:   38    charge:    3.1197    magn:    0.0000    constr:    0.0000
     atom:   39    charge:    2.0910    magn:   -0.0000    constr:    0.0000
     atom:   40    charge:    2.0789    magn:   -0.0000    constr:    0.0000
     atom:   41    charge:    2.0869    magn:   -0.0000    constr:    0.0000
     atom:   42    charge:    3.1146    magn:    0.0000    constr:    0.0000
     atom:   43    charge:    2.0817    magn:   -0.0000    constr:    0.0000
     atom:   44    charge:    2.0857    magn:   -0.0000    constr:    0.0000
     atom:   45    charge:    2.0875    magn:   -0.0000    constr:    0.0000
     atom:   46    charge:    3.1237    magn:    0.0000    constr:    0.0000
     atom:   47    charge:    2.0834    magn:   -0.0000    constr:    0.0000
     atom:   48    charge:    2.0678    magn:   -0.0001    constr:    0.0000
     atom:   49    charge:    2.0407    magn:   -0.0001    constr:    0.0000

     total cpu time spent up to now is     1821.3 secs

     total energy              =   -3004.17539992 Ry
     Harris-Foulkes estimate   =   -3004.17567186 Ry
     estimated scf accuracy    <       0.00077401 Ry

     total magnetization       =     0.00 Bohr mag/cell
     absolute magnetization    =     0.00 Bohr mag/cell

     iteration #  6     ecut=    40.42 Ry     beta=0.10
     Davidson diagonalization with overlap
     ethr =  1.98E-07,  avg # of iterations =  2.0

     negative rho (up, down):  1.431E-02 1.431E-02
 
     Magnetic moment per site:
     atom:    1    charge:    3.1251    magn:   -0.0001    constr:    0.0000
     atom:    2    charge:    2.0895    magn:    0.0000    constr:    0.0000
     atom:    3    charge:    3.1196    magn:   -0.0000    constr:    0.0000
     atom:    4    charge:    2.0870    magn:   -0.0000    constr:    0.0000
     atom:    5    charge:    3.1167    magn:    0.0000    constr:    0.0000
     atom:    6    charge:    2.0889    magn:   -0.0000    constr:    0.0000
     atom:    7    charge:    3.1217    magn:    0.0000    constr:    0.0000
     atom:    8    charge:    2.0874    magn:   -0.0001    constr:    0.0000
     atom:    9    charge:    3.1251    magn:   -0.0001    constr:    0.0000
     atom:   10    charge:    2.0894    magn:    0.0000    constr:    0.0000
     atom:   11    charge:    3.1197    magn:   -0.0000    constr:    0.0000
     atom:   12    charge:    2.0870    magn:   -0.0000    constr:    0.0000
     atom:   13    charge:    3.1147    magn:    0.0000    constr:    0.0000
     atom:   14    charge:    2.0876    magn:   -0.0000    constr:    0.0000
     atom:   15    charge:    3.1176    magn:    0.0000    constr:    0.0000
     atom:   16    charge:    2.1005    magn:   -0.0001    constr:    0.0000
     atom:   17    charge:    2.0622    magn:    0.0003    constr:    0.0000
     atom:   18    charge:    3.1239    magn:   -0.0001    constr:    0.0000
     atom:   19    charge:    2.0877    magn:   -0.0000    constr:    0.0000
     atom:   20    charge:    2.0846    magn:    0.0000    constr:    0.0000
     atom:   21    charge:    2.0846    magn:    0.0000    constr:    0.0000
     atom:   22    charge:    3.1196    magn:    0.0000    constr:    0.0000
     atom:   23    charge:    2.0903    magn:   -0.0000    constr:    0.0000
     atom:   24    charge:    2.0789    magn:   -0.0000    constr:    0.0000
     atom:   25    charge:    2.0869    magn:   -0.0000    constr:    0.0000
     atom:   26    charge:    3.1149    magn:    0.0000    constr:    0.0000
     atom:   27    charge:    2.0817    magn:   -0.0000    constr:    0.0000
     atom:   28    charge:    2.0885    magn:   -0.0000    constr:    0.0000
     atom:   29    charge:    2.0876    magn:   -0.0000    constr:    0.0000
     atom:   30    charge:    3.1182    magn:    0.0000    constr:    0.0000
     atom:   31    charge:    2.0828    magn:   -0.0000    constr:    0.0000
     atom:   32    charge:    2.0860    magn:   -0.0000    constr:    0.0000
     atom:   33    charge:    2.0622    magn:    0.0003    constr:    0.0000
     atom:   34    charge:    3.1239    magn:   -0.0001    constr:    0.0000
     atom:   35    charge:    2.0878    magn:   -0.0000    constr:    0.0000
     atom:   36    charge:    2.0846    magn:    0.0000    constr:    0.0000
     atom:   37    charge:    2.0846    magn:    0.0000    constr:    0.0000
     atom:   38    charge:    3.1196    magn:    0.0000    constr:    0.0000
     atom:   39    charge:    2.0910    magn:   -0.0000    constr:    0.0000
     atom:   40    charge:    2.0790    magn:   -0.0000    constr:    0.0000
     atom:   41    charge:    2.0869    magn:   -0.0000    constr:    0.0000
     atom:   42    charge:    3.1146    magn:    0.0000    constr:    0.0000
     atom:   43    charge:    2.0816    magn:   -0.0000    constr:    0.0000
     atom:   44    charge:    2.0857    magn:   -0.0000    constr:    0.0000
     atom:   45    charge:    2.0874    magn:   -0.0000    constr:    0.0000
     atom:   46    charge:    3.1239    magn:    0.0000    constr:    0.0000
     atom:   47    charge:    2.0838    magn:   -0.0000    constr:    0.0000
     atom:   48    charge:    2.0674    magn:   -0.0000    constr:    0.0000
     atom:   49    charge:    2.0415    magn:   -0.0001    constr:    0.0000

     total cpu time spent up to now is     2013.1 secs

     total energy              =   -3004.17543026 Ry
     Harris-Foulkes estimate   =   -3004.17549095 Ry
     estimated scf accuracy    <       0.00019078 Ry

     total magnetization       =     0.00 Bohr mag/cell
     absolute magnetization    =     0.00 Bohr mag/cell

     iteration #  7     ecut=    40.42 Ry     beta=0.10
     Davidson diagonalization with overlap
     ethr =  4.89E-08,  avg # of iterations =  2.0

     negative rho (up, down):  1.431E-02 1.431E-02
 
     Magnetic moment per site:
     atom:    1    charge:    3.1251    magn:   -0.0001    constr:    0.0000
     atom:    2    charge:    2.0895    magn:    0.0000    constr:    0.0000
     atom:    3    charge:    3.1196    magn:   -0.0000    constr:    0.0000
     atom:    4    charge:    2.0870    magn:   -0.0000    constr:    0.0000
     atom:    5    charge:    3.1167    magn:    0.0000    constr:    0.0000
     atom:    6    charge:    2.0890    magn:   -0.0000    constr:    0.0000
     atom:    7    charge:    3.1218    magn:    0.0000    constr:    0.0000
     atom:    8    charge:    2.0875    magn:   -0.0000    constr:    0.0000
     atom:    9    charge:    3.1251    magn:   -0.0001    constr:    0.0000
     atom:   10    charge:    2.0894    magn:    0.0000    constr:    0.0000
     atom:   11    charge:    3.1196    magn:   -0.0000    constr:    0.0000
     atom:   12    charge:    2.0870    magn:   -0.0000    constr:    0.0000
     atom:   13    charge:    3.1147    magn:    0.0000    constr:    0.0000
     atom:   14    charge:    2.0876    magn:   -0.0000    constr:    0.0000
     atom:   15    charge:    3.1176    magn:    0.0000    constr:    0.0000
     atom:   16    charge:    2.1005    magn:   -0.0001    constr:    0.0000
     atom:   17    charge:    2.0623    magn:    0.0002    constr:    0.0000
     atom:   18    charge:    3.1239    magn:   -0.0000    constr:    0.0000
     atom:   19    charge:    2.0877    magn:   -0.0000    constr:    0.0000
     atom:   20    charge:    2.0846    magn:    0.0000    constr:    0.0000
     atom:   21    charge:    2.0846    magn:    0.0000    constr:    0.0000
     atom:   22    charge:    3.1196    magn:    0.0000    constr:    0.0000
     atom:   23    charge:    2.0903    magn:   -0.0000    constr:    0.0000
     atom:   24    charge:    2.0789    magn:   -0.0000    constr:    0.0000
     atom:   25    charge:    2.0869    magn:   -0.0000    constr:    0.0000
     atom:   26    charge:    3.1149    magn:    0.0000    constr:    0.0000
     atom:   27    charge:    2.0817    magn:   -0.0000    constr:    0.0000
     atom:   28    charge:    2.0885    magn:   -0.0000    constr:    0.0000
     atom:   29    charge:    2.0876    magn:   -0.0000    constr:    0.0000
     atom:   30    charge:    3.1182    magn:    0.0000    constr:    0.0000
     atom:   31    charge:    2.0830    magn:   -0.0000    constr:    0.0000
     atom:   32    charge:    2.0861    magn:   -0.0000    constr:    0.0000
     atom:   33    charge:    2.0623    magn:    0.0002    constr:    0.0000
     atom:   34    charge:    3.1239    magn:   -0.0000    constr:    0.0000
     atom:   35    charge:    2.0877    magn:   -0.0000    constr:    0.0000
     atom:   36    charge:    2.0846    magn:    0.0000    constr:    0.0000
     atom:   37    charge:    2.0846    magn:    0.0000    constr:    0.0000
     atom:   38    charge:    3.1196    magn:    0.0000    constr:    0.0000
     atom:   39    charge:    2.0910    magn:   -0.0000    constr:    0.0000
     atom:   40    charge:    2.0790    magn:   -0.0000    constr:    0.0000
     atom:   41    charge:    2.0869    magn:   -0.0000    constr:    0.0000
     atom:   42    charge:    3.1146    magn:    0.0000    constr:    0.0000
     atom:   43    charge:    2.0817    magn:   -0.0000    constr:    0.0000
     atom:   44    charge:    2.0857    magn:   -0.0000    constr:    0.0000
     atom:   45    charge:    2.0874    magn:   -0.0000    constr:    0.0000
     atom:   46    charge:    3.1240    magn:    0.0000    constr:    0.0000
     atom:   47    charge:    2.0840    magn:   -0.0000    constr:    0.0000
     atom:   48    charge:    2.0675    magn:   -0.0000    constr:    0.0000
     atom:   49    charge:    2.0414    magn:   -0.0000    constr:    0.0000

     total cpu time spent up to now is     2206.7 secs

     total energy              =   -3004.17543602 Ry
     Harris-Foulkes estimate   =   -3004.17545857 Ry
     estimated scf accuracy    <       0.00008847 Ry

     total magnetization       =     0.00 Bohr mag/cell
     absolute magnetization    =     0.00 Bohr mag/cell

     iteration #  8     ecut=    40.42 Ry     beta=0.10
     Davidson diagonalization with overlap
     ethr =  2.27E-08,  avg # of iterations =  2.0

     negative rho (up, down):  1.432E-02 1.432E-02
 
     Magnetic moment per site:
     atom:    1    charge:    3.1251    magn:   -0.0001    constr:    0.0000
     atom:    2    charge:    2.0895    magn:    0.0000    constr:    0.0000
     atom:    3    charge:    3.1196    magn:   -0.0000    constr:    0.0000
     atom:    4    charge:    2.0871    magn:   -0.0000    constr:    0.0000
     atom:    5    charge:    3.1167    magn:    0.0000    constr:    0.0000
     atom:    6    charge:    2.0890    magn:   -0.0000    constr:    0.0000
     atom:    7    charge:    3.1217    magn:    0.0000    constr:    0.0000
     atom:    8    charge:    2.0875    magn:   -0.0000    constr:    0.0000
     atom:    9    charge:    3.1251    magn:   -0.0001    constr:    0.0000
     atom:   10    charge:    2.0894    magn:    0.0000    constr:    0.0000
     atom:   11    charge:    3.1196    magn:   -0.0000    constr:    0.0000
     atom:   12    charge:    2.0870    magn:   -0.0000    constr:    0.0000
     atom:   13    charge:    3.1147    magn:    0.0000    constr:    0.0000
     atom:   14    charge:    2.0876    magn:   -0.0000    constr:    0.0000
     atom:   15    charge:    3.1175    magn:    0.0000    constr:    0.0000
     atom:   16    charge:    2.1004    magn:   -0.0000    constr:    0.0000
     atom:   17    charge:    2.0622    magn:    0.0002    constr:    0.0000
     atom:   18    charge:    3.1239    magn:   -0.0000    constr:    0.0000
     atom:   19    charge:    2.0877    magn:   -0.0000    constr:    0.0000
     atom:   20    charge:    2.0846    magn:    0.0000    constr:    0.0000
     atom:   21    charge:    2.0846    magn:    0.0000    constr:    0.0000
     atom:   22    charge:    3.1196    magn:    0.0000    constr:    0.0000
     atom:   23    charge:    2.0903    magn:   -0.0000    constr:    0.0000
     atom:   24    charge:    2.0789    magn:   -0.0000    constr:    0.0000
     atom:   25    charge:    2.0869    magn:   -0.0000    constr:    0.0000
     atom:   26    charge:    3.1149    magn:    0.0000    constr:    0.0000
     atom:   27    charge:    2.0818    magn:   -0.0000    constr:    0.0000
     atom:   28    charge:    2.0885    magn:   -0.0000    constr:    0.0000
     atom:   29    charge:    2.0876    magn:   -0.0000    constr:    0.0000
     atom:   30    charge:    3.1182    magn:    0.0000    constr:    0.0000
     atom:   31    charge:    2.0832    magn:   -0.0000    constr:    0.0000
     atom:   32    charge:    2.0862    magn:   -0.0000    constr:    0.0000
     atom:   33    charge:    2.0622    magn:    0.0002    constr:    0.0000
     atom:   34    charge:    3.1239    magn:   -0.0000    constr:    0.0000
     atom:   35    charge:    2.0877    magn:   -0.0000    constr:    0.0000
     atom:   36    charge:    2.0846    magn:    0.0000    constr:    0.0000
     atom:   37    charge:    2.0846    magn:    0.0000    constr:    0.0000
     atom:   38    charge:    3.1196    magn:    0.0000    constr:    0.0000
     atom:   39    charge:    2.0910    magn:   -0.0000    constr:    0.0000
     atom:   40    charge:    2.0790    magn:   -0.0000    constr:    0.0000
     atom:   41    charge:    2.0869    magn:   -0.0000    constr:    0.0000
     atom:   42    charge:    3.1146    magn:    0.0000    constr:    0.0000
     atom:   43    charge:    2.0817    magn:   -0.0000    constr:    0.0000
     atom:   44    charge:    2.0857    magn:   -0.0000    constr:    0.0000
     atom:   45    charge:    2.0874    magn:   -0.0000    constr:    0.0000
     atom:   46    charge:    3.1241    magn:    0.0000    constr:    0.0000
     atom:   47    charge:    2.0842    magn:   -0.0000    constr:    0.0000
     atom:   48    charge:    2.0671    magn:   -0.0000    constr:    0.0000
     atom:   49    charge:    2.0413    magn:   -0.0000    constr:    0.0000

     total cpu time spent up to now is     2396.2 secs

     total energy              =   -3004.17543755 Ry
     Harris-Foulkes estimate   =   -3004.17544258 Ry
     estimated scf accuracy    <       0.00002044 Ry

     total magnetization       =     0.00 Bohr mag/cell
     absolute magnetization    =     0.00 Bohr mag/cell

     iteration #  9     ecut=    40.42 Ry     beta=0.10
     Davidson diagonalization with overlap
     ethr =  5.24E-09,  avg # of iterations =  2.1

     negative rho (up, down):  1.431E-02 1.431E-02
 
     Magnetic moment per site:
     atom:    1    charge:    3.1251    magn:   -0.0001    constr:    0.0000
     atom:    2    charge:    2.0895    magn:    0.0000    constr:    0.0000
     atom:    3    charge:    3.1196    magn:   -0.0000    constr:    0.0000
     atom:    4    charge:    2.0871    magn:   -0.0000    constr:    0.0000
     atom:    5    charge:    3.1167    magn:    0.0000    constr:    0.0000
     atom:    6    charge:    2.0890    magn:   -0.0000    constr:    0.0000
     atom:    7    charge:    3.1216    magn:    0.0000    constr:    0.0000
     atom:    8    charge:    2.0874    magn:   -0.0000    constr:    0.0000
     atom:    9    charge:    3.1251    magn:   -0.0001    constr:    0.0000
     atom:   10    charge:    2.0894    magn:    0.0000    constr:    0.0000
     atom:   11    charge:    3.1196    magn:   -0.0000    constr:    0.0000
     atom:   12    charge:    2.0871    magn:   -0.0000    constr:    0.0000
     atom:   13    charge:    3.1147    magn:    0.0000    constr:    0.0000
     atom:   14    charge:    2.0876    magn:   -0.0000    constr:    0.0000
     atom:   15    charge:    3.1175    magn:    0.0000    constr:    0.0000
     atom:   16    charge:    2.1003    magn:   -0.0000    constr:    0.0000
     atom:   17    charge:    2.0622    magn:    0.0002    constr:    0.0000
     atom:   18    charge:    3.1239    magn:   -0.0000    constr:    0.0000
     atom:   19    charge:    2.0877    magn:   -0.0000    constr:    0.0000
     atom:   20    charge:    2.0846    magn:    0.0000    constr:    0.0000
     atom:   21    charge:    2.0846    magn:    0.0000    constr:    0.0000
     atom:   22    charge:    3.1196    magn:    0.0000    constr:    0.0000
     atom:   23    charge:    2.0903    magn:   -0.0000    constr:    0.0000
     atom:   24    charge:    2.0789    magn:   -0.0000    constr:    0.0000
     atom:   25    charge:    2.0869    magn:   -0.0000    constr:    0.0000
     atom:   26    charge:    3.1149    magn:    0.0000    constr:    0.0000
     atom:   27    charge:    2.0818    magn:   -0.0000    constr:    0.0000
     atom:   28    charge:    2.0885    magn:   -0.0000    constr:    0.0000
     atom:   29    charge:    2.0876    magn:   -0.0000    constr:    0.0000
     atom:   30    charge:    3.1182    magn:    0.0000    constr:    0.0000
     atom:   31    charge:    2.0832    magn:   -0.0000    constr:    0.0000
     atom:   32    charge:    2.0862    magn:   -0.0000    constr:    0.0000
     atom:   33    charge:    2.0622    magn:    0.0002    constr:    0.0000
     atom:   34    charge:    3.1239    magn:   -0.0000    constr:    0.0000
     atom:   35    charge:    2.0878    magn:   -0.0000    constr:    0.0000
     atom:   36    charge:    2.0846    magn:    0.0000    constr:    0.0000
     atom:   37    charge:    2.0846    magn:    0.0000    constr:    0.0000
     atom:   38    charge:    3.1196    magn:    0.0000    constr:    0.0000
     atom:   39    charge:    2.0910    magn:   -0.0000    constr:    0.0000
     atom:   40    charge:    2.0790    magn:   -0.0000    constr:    0.0000
     atom:   41    charge:    2.0869    magn:   -0.0000    constr:    0.0000
     atom:   42    charge:    3.1146    magn:    0.0000    constr:    0.0000
     atom:   43    charge:    2.0817    magn:   -0.0000    constr:    0.0000
     atom:   44    charge:    2.0857    magn:   -0.0000    constr:    0.0000
     atom:   45    charge:    2.0874    magn:   -0.0000    constr:    0.0000
     atom:   46    charge:    3.1240    magn:    0.0000    constr:    0.0000
     atom:   47    charge:    2.0842    magn:   -0.0000    constr:    0.0000
     atom:   48    charge:    2.0670    magn:   -0.0000    constr:    0.0000
     atom:   49    charge:    2.0413    magn:   -0.0000    constr:    0.0000

     total cpu time spent up to now is     2592.9 secs

     total energy              =   -3004.17543946 Ry
     Harris-Foulkes estimate   =   -3004.17543971 Ry
     estimated scf accuracy    <       0.00000372 Ry

     total magnetization       =     0.00 Bohr mag/cell
     absolute magnetization    =     0.00 Bohr mag/cell

     iteration # 10     ecut=    40.42 Ry     beta=0.10
     Davidson diagonalization with overlap
     ethr =  9.54E-10,  avg # of iterations =  2.0

     negative rho (up, down):  1.431E-02 1.431E-02
 
     Magnetic moment per site:
     atom:    1    charge:    3.1251    magn:   -0.0000    constr:    0.0000
     atom:    2    charge:    2.0895    magn:    0.0000    constr:    0.0000
     atom:    3    charge:    3.1196    magn:   -0.0000    constr:    0.0000
     atom:    4    charge:    2.0871    magn:   -0.0000    constr:    0.0000
     atom:    5    charge:    3.1167    magn:    0.0000    constr:    0.0000
     atom:    6    charge:    2.0890    magn:   -0.0000    constr:    0.0000
     atom:    7    charge:    3.1216    magn:    0.0000    constr:    0.0000
     atom:    8    charge:    2.0874    magn:   -0.0000    constr:    0.0000
     atom:    9    charge:    3.1251    magn:   -0.0000    constr:    0.0000
     atom:   10    charge:    2.0894    magn:    0.0000    constr:    0.0000
     atom:   11    charge:    3.1196    magn:   -0.0000    constr:    0.0000
     atom:   12    charge:    2.0871    magn:   -0.0000    constr:    0.0000
     atom:   13    charge:    3.1147    magn:    0.0000    constr:    0.0000
     atom:   14    charge:    2.0876    magn:   -0.0000    constr:    0.0000
     atom:   15    charge:    3.1174    magn:    0.0000    constr:    0.0000
     atom:   16    charge:    2.1003    magn:   -0.0000    constr:    0.0000
     atom:   17    charge:    2.0622    magn:    0.0001    constr:    0.0000
     atom:   18    charge:    3.1239    magn:   -0.0000    constr:    0.0000
     atom:   19    charge:    2.0877    magn:   -0.0000    constr:    0.0000
     atom:   20    charge:    2.0846    magn:    0.0000    constr:    0.0000
     atom:   21    charge:    2.0846    magn:    0.0000    constr:    0.0000
     atom:   22    charge:    3.1196    magn:    0.0000    constr:    0.0000
     atom:   23    charge:    2.0903    magn:   -0.0000    constr:    0.0000
     atom:   24    charge:    2.0789    magn:   -0.0000    constr:    0.0000
     atom:   25    charge:    2.0869    magn:   -0.0000    constr:    0.0000
     atom:   26    charge:    3.1149    magn:    0.0000    constr:    0.0000
     atom:   27    charge:    2.0818    magn:   -0.0000    constr:    0.0000
     atom:   28    charge:    2.0885    magn:   -0.0000    constr:    0.0000
     atom:   29    charge:    2.0876    magn:   -0.0000    constr:    0.0000
     atom:   30    charge:    3.1182    magn:    0.0000    constr:    0.0000
     atom:   31    charge:    2.0832    magn:   -0.0000    constr:    0.0000
     atom:   32    charge:    2.0861    magn:   -0.0000    constr:    0.0000
     atom:   33    charge:    2.0622    magn:    0.0001    constr:    0.0000
     atom:   34    charge:    3.1239    magn:   -0.0000    constr:    0.0000
     atom:   35    charge:    2.0878    magn:   -0.0000    constr:    0.0000
     atom:   36    charge:    2.0846    magn:    0.0000    constr:    0.0000
     atom:   37    charge:    2.0846    magn:    0.0000    constr:    0.0000
     atom:   38    charge:    3.1196    magn:    0.0000    constr:    0.0000
     atom:   39    charge:    2.0910    magn:   -0.0000    constr:    0.0000
     atom:   40    charge:    2.0790    magn:   -0.0000    constr:    0.0000
     atom:   41    charge:    2.0869    magn:   -0.0000    constr:    0.0000
     atom:   42    charge:    3.1146    magn:    0.0000    constr:    0.0000
     atom:   43    charge:    2.0817    magn:   -0.0000    constr:    0.0000
     atom:   44    charge:    2.0857    magn:   -0.0000    constr:    0.0000
     atom:   45    charge:    2.0874    magn:   -0.0000    constr:    0.0000
     atom:   46    charge:    3.1240    magn:    0.0000    constr:    0.0000
     atom:   47    charge:    2.0842    magn:   -0.0000    constr:    0.0000
     atom:   48    charge:    2.0670    magn:   -0.0000    constr:    0.0000
     atom:   49    charge:    2.0413    magn:   -0.0000    constr:    0.0000

     total cpu time spent up to now is     2782.5 secs

     total energy              =   -3004.17543983 Ry
     Harris-Foulkes estimate   =   -3004.17543965 Ry
     estimated scf accuracy    <       0.00000148 Ry

     total magnetization       =     0.00 Bohr mag/cell
     absolute magnetization    =     0.00 Bohr mag/cell

     iteration # 11     ecut=    40.42 Ry     beta=0.10
     Davidson diagonalization with overlap
     ethr =  3.79E-10,  avg # of iterations =  2.0

     negative rho (up, down):  1.429E-02 1.429E-02
 
     Magnetic moment per site:
     atom:    1    charge:    3.1251    magn:   -0.0000    constr:    0.0000
     atom:    2    charge:    2.0895    magn:    0.0000    constr:    0.0000
     atom:    3    charge:    3.1196    magn:   -0.0000    constr:    0.0000
     atom:    4    charge:    2.0871    magn:   -0.0000    constr:    0.0000
     atom:    5    charge:    3.1167    magn:    0.0000    constr:    0.0000
     atom:    6    charge:    2.0890    magn:   -0.0000    constr:    0.0000
     atom:    7    charge:    3.1216    magn:    0.0000    constr:    0.0000
     atom:    8    charge:    2.0874    magn:   -0.0000    constr:    0.0000
     atom:    9    charge:    3.1251    magn:   -0.0000    constr:    0.0000
     atom:   10    charge:    2.0895    magn:    0.0000    constr:    0.0000
     atom:   11    charge:    3.1196    magn:   -0.0000    constr:    0.0000
     atom:   12    charge:    2.0871    magn:   -0.0000    constr:    0.0000
     atom:   13    charge:    3.1147    magn:    0.0000    constr:    0.0000
     atom:   14    charge:    2.0876    magn:   -0.0000    constr:    0.0000
     atom:   15    charge:    3.1174    magn:    0.0000    constr:    0.0000
     atom:   16    charge:    2.1003    magn:   -0.0000    constr:    0.0000
     atom:   17    charge:    2.0622    magn:    0.0001    constr:    0.0000
     atom:   18    charge:    3.1239    magn:   -0.0000    constr:    0.0000
     atom:   19    charge:    2.0877    magn:    0.0000    constr:    0.0000
     atom:   20    charge:    2.0846    magn:    0.0000    constr:    0.0000
     atom:   21    charge:    2.0846    magn:    0.0000    constr:    0.0000
     atom:   22    charge:    3.1196    magn:    0.0000    constr:    0.0000
     atom:   23    charge:    2.0903    magn:   -0.0000    constr:    0.0000
     atom:   24    charge:    2.0789    magn:   -0.0000    constr:    0.0000
     atom:   25    charge:    2.0869    magn:   -0.0000    constr:    0.0000
     atom:   26    charge:    3.1149    magn:    0.0000    constr:    0.0000
     atom:   27    charge:    2.0818    magn:   -0.0000    constr:    0.0000
     atom:   28    charge:    2.0885    magn:   -0.0000    constr:    0.0000
     atom:   29    charge:    2.0876    magn:   -0.0000    constr:    0.0000
     atom:   30    charge:    3.1182    magn:    0.0000    constr:    0.0000
     atom:   31    charge:    2.0830    magn:   -0.0000    constr:    0.0000
     atom:   32    charge:    2.0861    magn:   -0.0000    constr:    0.0000
     atom:   33    charge:    2.0622    magn:    0.0001    constr:    0.0000
     atom:   34    charge:    3.1239    magn:   -0.0000    constr:    0.0000
     atom:   35    charge:    2.0878    magn:    0.0000    constr:    0.0000
     atom:   36    charge:    2.0846    magn:    0.0000    constr:    0.0000
     atom:   37    charge:    2.0846    magn:    0.0000    constr:    0.0000
     atom:   38    charge:    3.1196    magn:    0.0000    constr:    0.0000
     atom:   39    charge:    2.0910    magn:   -0.0000    constr:    0.0000
     atom:   40    charge:    2.0790    magn:   -0.0000    constr:    0.0000
     atom:   41    charge:    2.0869    magn:   -0.0000    constr:    0.0000
     atom:   42    charge:    3.1146    magn:    0.0000    constr:    0.0000
     atom:   43    charge:    2.0817    magn:   -0.0000    constr:    0.0000
     atom:   44    charge:    2.0857    magn:   -0.0000    constr:    0.0000
     atom:   45    charge:    2.0874    magn:   -0.0000    constr:    0.0000
     atom:   46    charge:    3.1240    magn:    0.0000    constr:    0.0000
     atom:   47    charge:    2.0841    magn:   -0.0000    constr:    0.0000
     atom:   48    charge:    2.0669    magn:   -0.0000    constr:    0.0000
     atom:   49    charge:    2.0415    magn:   -0.0000    constr:    0.0000

     total cpu time spent up to now is     2972.3 secs

     End of self-consistent calculation

 ------ SPIN UP ------------


          k = 0.0000 0.0000 0.0000 ( 34665 PWs)   bands (ev):

   -58.2665 -58.2315 -58.1097 -58.0707 -57.9420 -57.8936 -57.7191 -57.6837
   -57.6628 -57.6276 -57.5872 -57.5509 -57.3924 -57.2341 -56.7131 -56.6778
   -34.7018 -34.6715 -34.5488 -34.5203 -34.4882 -34.4673 -34.4136 -34.3747
   -34.3730 -34.3270 -34.3121 -34.3026 -34.2304 -34.2148 -34.2105 -34.1578
   -34.1561 -34.1221 -34.1131 -34.1005 -34.0785 -34.0044 -33.9142 -33.8972
   -33.8810 -33.8711 -33.8586 -33.8504 -33.8356 -33.8318 -33.8213 -33.8190
   -33.7843 -33.7756 -33.7637 -33.7446 -33.7176 -33.6970 -33.6336 -33.6135
   -33.4649 -33.3940 -33.1315 -33.0653 -33.0392 -32.9358 -32.8440 -32.7354
   -22.1956 -18.6148 -18.4250 -18.3171 -18.0971 -17.9526 -17.9084 -17.8357
   -17.6684 -17.6296 -17.5625 -17.5291 -17.5201 -17.4758 -17.4476 -17.4068
   -17.3807 -17.3118 -17.2733 -17.1746 -17.1404 -17.0214 -17.0172 -16.9844
   -16.8720 -16.7824 -16.7584 -16.7388 -16.5996 -16.5693 -15.7939 -15.2923
   -15.2071  -6.8670  -6.4230  -6.1442  -5.9850  -5.9421  -5.8021  -5.7391
    -5.4724  -5.4266  -5.3535  -5.1001  -5.0521  -5.0088  -4.9870  -4.8987
    -4.8668  -4.8023  -4.7319  -4.6705  -4.6669  -4.6434  -4.5936  -4.5843
    -4.5389  -4.5249  -4.5052  -4.4414  -4.3585  -4.3094  -4.2562  -4.2061
    -4.1797  -4.1117  -4.1040  -4.0734  -4.0335  -3.9743  -3.9704  -3.9449
    -3.8515  -3.6589  -3.6147  -3.5543  -3.4751  -3.4429  -3.4163  -3.2995
    -3.2078  -3.1938  -3.1759  -3.1575  -3.0100  -2.9848  -2.9493  -2.9364
    -2.8744  -2.8364  -2.8011  -2.7784  -2.7723  -2.7014  -2.6890  -2.6153
    -2.5458  -2.4947  -2.4130  -2.3467  -2.2222  -2.1501  -2.1497  -2.0828
    -2.0635  -2.0069  -1.9396  -1.9089  -1.8978  -1.8920  -1.8296  -1.7868
    -1.7583  -1.7209  -1.6517  -1.6414  -1.6245  -1.5665  -1.5363  -1.3833
    -1.2645  -1.2087  -1.1702  -1.1501  -1.0530  -0.7921  -0.6620  -0.6484
    -0.4365  -0.3102  -0.2963   1.0760   1.1020   1.1749   1.3805   1.4355
     1.4399   1.5228   1.6116   1.6526   1.7681   1.8643   1.8759   1.9307
     1.9503   1.9653   1.9910   2.0554   2.0829   2.0928   2.1406   2.1476
     2.2302   2.2455   2.2799   2.3042   2.4856   2.4964   2.5378   2.5461
     2.5523   2.6070   2.6168   2.6301   2.6620   2.6976   2.7541   2.8304
     2.8346   2.8675   2.8958   2.9622   3.0365   3.0425   3.1209   3.3708
     3.5190   3.5251   3.5952   3.6148   3.6322   3.7279   3.8226   4.0273
     4.0769   4.2080   4.4857   4.5021   4.6046   4.6416   4.7646   4.9128
     4.9261   5.0084   5.1266   5.1794   5.1923   5.2340   5.2569   5.2597
     5.3108   5.3880   5.4825   5.5433   5.5803   5.6315   5.6691   5.7721
     5.8985   5.9829   6.0221   6.3613   6.4029   6.4544   6.5617   6.7358
     7.1857   7.8005   7.9757   8.3077   8.5811   8.5905   8.8122   8.8684
     8.9220   9.1893   9.2515   9.3151   9.3537   9.5849   9.6749

          k = 0.0000 0.0280 0.0000 ( 34717 PWs)   bands (ev):

   -58.2642 -58.2339 -58.1073 -58.0731 -57.9403 -57.8953 -57.7167 -57.6860
   -57.6605 -57.6299 -57.5849 -57.5532 -57.3919 -57.2347 -56.7107 -56.6802
   -34.6765 -34.6446 -34.5467 -34.5221 -34.4632 -34.4611 -34.4069 -34.3795
   -34.3711 -34.3391 -34.3308 -34.3112 -34.2572 -34.2075 -34.1888 -34.1551
   -34.1308 -34.1250 -34.1091 -34.1047 -34.0838 -33.9975 -33.9083 -33.8950
   -33.8927 -33.8729 -33.8484 -33.8464 -33.8340 -33.8329 -33.8302 -33.8253
   -33.7924 -33.7807 -33.7803 -33.7470 -33.7429 -33.6966 -33.6321 -33.6135
   -33.4682 -33.4204 -33.1058 -33.0636 -33.0411 -32.9297 -32.8503 -32.7629
   -22.1898 -18.5562 -18.3700 -18.2761 -18.0446 -17.9052 -17.8996 -17.8388
   -17.6442 -17.6411 -17.5993 -17.5709 -17.5506 -17.4873 -17.4581 -17.3625
   -17.3578 -17.3107 -17.2821 -17.2053 -17.1994 -17.0449 -16.9999 -16.9547
   -16.9016 -16.8003 -16.7666 -16.7423 -16.6234 -16.6168 -15.7946 -15.3021
   -15.2303  -6.8267  -6.4047  -6.1229  -5.8974  -5.8584  -5.7276  -5.6630
    -5.4153  -5.3575  -5.3487  -5.0803  -5.0646  -4.9854  -4.9570  -4.8941
    -4.8486  -4.8129  -4.7325  -4.7278  -4.7113  -4.6676  -4.6481  -4.6218
    -4.6018  -4.5510  -4.5148  -4.4905  -4.4370  -4.3901  -4.3051  -4.2628
    -4.2087  -4.1921  -4.1662  -4.0643  -4.0234  -3.9435  -3.9126  -3.8255
    -3.7733  -3.6062  -3.5480  -3.5214  -3.4521  -3.3666  -3.3275  -3.1968
    -3.1932  -3.1190  -3.0952  -3.0716  -3.0320  -3.0112  -2.9952  -2.9043
    -2.8702  -2.8616  -2.8402  -2.8263  -2.7369  -2.7017  -2.6205  -2.5856
    -2.5002  -2.4524  -2.3936  -2.3766  -2.3332  -2.2582  -2.1548  -2.1238
    -2.1209  -2.0695  -2.0500  -2.0163  -1.9502  -1.8753  -1.8643  -1.8578
    -1.7784  -1.7612  -1.7464  -1.6581  -1.6295  -1.5916  -1.4976  -1.4005
    -1.3599  -1.3230  -1.2741  -1.1977  -1.0828  -0.8382  -0.7098  -0.6471
    -0.4222  -0.3564  -0.3301   1.1575   1.2080   1.2215   1.4136   1.4354
     1.5248   1.5508   1.6369   1.6919   1.7614   1.8286   1.8564   1.8934
     1.9332   1.9843   1.9891   2.0383   2.0557   2.0905   2.1124   2.1642
     2.2495   2.2852   2.3520   2.4098   2.4215   2.4581   2.4843   2.5170
     2.5448   2.5532   2.6197   2.6449   2.7213   2.7471   2.7922   2.8346
     2.8602   2.9604   2.9785   3.0174   3.0585   3.0811   3.1161   3.3177
     3.4281   3.5484   3.5867   3.6013   3.6767   3.7526   3.7580   3.9706
     4.1328   4.3021   4.4821   4.5464   4.6763   4.6852   4.7692   4.9188
     4.9442   5.0672   5.0888   5.1203   5.1775   5.2013   5.2236   5.2446
     5.2898   5.3823   5.4805   5.5079   5.5657   5.5850   5.6091   5.6691
     5.9409   6.0110   6.0545   6.1891   6.3839   6.4004   6.6229   6.6800
     7.3039   7.6023   7.9659   8.0912   8.2440   8.6961   8.7470   8.8484
     8.9402   9.0346   9.3017   9.3400   9.4471   9.5049   9.7535

          k = 0.0000 0.0560 0.0000 ( 34721 PWs)   bands (ev):

   -58.2578 -58.2403 -58.1013 -58.0791 -57.9364 -57.8992 -57.7103 -57.6925
   -57.6541 -57.6363 -57.5788 -57.5593 -57.3908 -57.2358 -56.7043 -56.6866
   -34.6067 -34.5722 -34.5414 -34.5271 -34.4440 -34.4120 -34.3987 -34.3969
   -34.3892 -34.3657 -34.3505 -34.3353 -34.3083 -34.2087 -34.1656 -34.1483
   -34.1407 -34.1156 -34.1134 -34.0608 -34.0161 -33.9779 -33.9217 -33.9189
   -33.8941 -33.8873 -33.8776 -33.8651 -33.8431 -33.8426 -33.8299 -33.8269
   -33.8086 -33.7935 -33.7787 -33.7725 -33.7417 -33.6959 -33.6307 -33.6128
   -33.4968 -33.4655 -33.0588 -33.0459 -33.0350 -32.9132 -32.8672 -32.8371
   -22.1780 -18.3962 -18.2279 -18.1606 -17.9463 -17.9002 -17.8511 -17.7815
   -17.7725 -17.7339 -17.6263 -17.6040 -17.5165 -17.4990 -17.4713 -17.4356
   -17.3161 -17.2890 -17.2860 -17.2277 -17.2019 -17.1090 -16.9862 -16.9823
   -16.8897 -16.8320 -16.7924 -16.7489 -16.7424 -16.6716 -15.7963 -15.3194
   -15.2805  -6.7421  -6.3646  -6.0927  -5.6555  -5.6263  -5.5350  -5.5088
    -5.4464  -5.1586  -5.1499  -5.0922  -5.0409  -4.9884  -4.9644  -4.9546
    -4.9468  -4.9021  -4.8733  -4.8364  -4.7880  -4.7818  -4.7781  -4.6829
    -4.6453  -4.6208  -4.5186  -4.5020  -4.4666  -4.4134  -4.3770  -4.3138
    -4.1755  -4.1611  -4.0839  -3.9992  -3.9587  -3.8695  -3.8293  -3.7536
    -3.6732  -3.6080  -3.4925  -3.4508  -3.4365  -3.3908  -3.3545  -3.2587
    -3.1942  -3.1103  -3.0864  -3.0583  -2.9465  -2.9076  -2.8926  -2.8675
    -2.7921  -2.7790  -2.7555  -2.7265  -2.7138  -2.6729  -2.6289  -2.6006
    -2.5062  -2.5025  -2.4857  -2.4178  -2.4041  -2.3605  -2.2970  -2.2104
    -2.1874  -2.1357  -2.1224  -2.0782  -2.0162  -1.9959  -1.9524  -1.9320
    -1.8687  -1.8344  -1.8049  -1.7210  -1.7155  -1.6523  -1.6207  -1.5505
    -1.4617  -1.3677  -1.3185  -1.2280  -1.1983  -1.1475  -0.8869  -0.4667
    -0.4179  -0.3803  -0.3791   1.2947   1.3167   1.4580   1.4921   1.5201
     1.5419   1.6282   1.6744   1.7276   1.7527   1.7913   1.8085   1.8302
     1.8897   1.9328   1.9374   2.0263   2.1199   2.1822   2.2104   2.2162
     2.2359   2.2577   2.3334   2.3619   2.3725   2.4004   2.4685   2.4924
     2.5617   2.6066   2.6347   2.6656   2.7536   2.7670   2.8588   2.9096
     2.9540   2.9737   2.9956   3.1492   3.1719   3.2101   3.2571   3.2948
     3.3095   3.4573   3.5524   3.5676   3.6033   3.7600   3.8050   3.8320
     4.2640   4.4047   4.5622   4.5983   4.7629   4.8123   4.8408   4.8957
     4.9030   4.9646   5.0122   5.1583   5.1615   5.1727   5.1830   5.2633
     5.2837   5.3103   5.3569   5.3887   5.4482   5.5715   5.5939   5.7154
     5.8771   5.9937   6.0094   6.2227   6.2598   6.4112   6.5600   6.8896
     6.9590   7.3048   7.6688   7.8168   8.3078   8.3997   8.5751   8.9717
     9.0200   9.1222   9.2976   9.3867   9.6944   9.7659   9.8251

          k = 0.0000-0.0840 0.0000 ( 34678 PWs)   bands (ev):

   -58.2491 -58.2490 -58.0964 -58.0841 -57.9341 -57.9016 -57.7018 -57.7010
   -57.6466 -57.6439 -57.5732 -57.5649 -57.3903 -57.2364 -56.6955 -56.6954
   -34.5343 -34.5343 -34.5101 -34.5101 -34.4997 -34.4264 -34.4205 -34.4205
   -34.3706 -34.3642 -34.3480 -34.3376 -34.2935 -34.2734 -34.1760 -34.1476
   -34.1435 -34.1188 -34.0203 -34.0197 -33.9649 -33.9626 -33.9502 -33.9493
   -33.9266 -33.9155 -33.8851 -33.8841 -33.8673 -33.8652 -33.8285 -33.8259
   -33.8140 -33.8071 -33.7712 -33.7635 -33.7014 -33.6984 -33.6349 -33.6114
   -33.5448 -33.4709 -33.0523 -33.0523 -32.9370 -32.9369 -32.8902 -32.8901
   -22.1721 -18.2310 -18.1290 -18.0665 -17.9870 -17.9639 -17.9202 -17.7650
   -17.7473 -17.6422 -17.6324 -17.6299 -17.5988 -17.5933 -17.4030 -17.4029
   -17.3949 -17.3910 -17.2002 -17.1960 -17.0953 -17.0895 -17.0781 -17.0485
   -16.8671 -16.8639 -16.7916 -16.7904 -16.7429 -16.7295 -15.7972 -15.3173
   -15.3173  -6.6984  -6.3401  -6.0849  -5.5702  -5.3331  -5.3206  -5.2965
    -5.2961  -5.2512  -5.2421  -5.2010  -5.1955  -5.0793  -4.9803  -4.9643
    -4.9574  -4.9303  -4.8994  -4.8899  -4.8685  -4.8586  -4.7805  -4.6664
    -4.6392  -4.6075  -4.5508  -4.5016  -4.4820  -4.4089  -4.3877  -4.2895
    -4.1354  -4.1004  -4.0920  -3.9305  -3.9287  -3.8638  -3.7846  -3.6408
    -3.5858  -3.5677  -3.4373  -3.4222  -3.4033  -3.3175  -3.3096  -3.2755
    -3.2439  -3.1961  -3.1745  -3.1558  -3.0982  -3.0771  -3.0200  -2.9816
    -2.9074  -2.8129  -2.7444  -2.6943  -2.6276  -2.5581  -2.5401  -2.4588
    -2.4246  -2.4026  -2.3788  -2.3679  -2.3386  -2.3131  -2.3051  -2.2700
    -2.2590  -2.2147  -2.1321  -2.0788  -2.0784  -2.0109  -2.0083  -1.9999
    -1.9928  -1.9034  -1.8556  -1.7958  -1.7029  -1.6595  -1.6439  -1.6074
    -1.5588  -1.5401  -1.4560  -1.2243  -1.2134  -1.0678  -1.0631  -0.4171
    -0.4168  -0.3733  -0.3730   1.4145   1.4372   1.4570   1.4988   1.5483
     1.6270   1.6538   1.6540   1.7308   1.7355   1.7807   1.7808   1.8161
     1.8925   1.9716   1.9770   2.0268   2.0483   2.1396   2.1466   2.1879
     2.2698   2.2809   2.3449   2.3651   2.4134   2.4272   2.4455   2.4993
     2.5451   2.5649   2.6267   2.7567   2.7957   2.8563   2.8647   2.8678
     2.8795   2.9845   3.1110   3.1829   3.2061   3.2499   3.3027   3.3403
     3.3459   3.4836   3.4909   3.5552   3.5558   3.5892   3.8253   3.8508
     4.3454   4.3869   4.6174   4.6662   4.7622   4.8108   4.8583   4.8934
     4.9426   4.9426   5.0265   5.0561   5.0678   5.1708   5.2055   5.2571
     5.2577   5.2859   5.3769   5.4465   5.4714   5.4849   5.5862   5.6004
     5.8986   5.9957   6.0541   6.0922   6.4707   6.5072   6.5077   6.6803
     6.9800   7.0602   7.4900   7.5941   8.1844   8.2922   8.9423   9.0448
     9.2223   9.3061   9.4967   9.5435   9.5441   9.7601   9.7738

          k = 0.0253 0.0000 0.0000 ( 34707 PWs)   bands (ev):

   -58.2665 -58.2315 -58.1097 -58.0707 -57.9420 -57.8936 -57.7191 -57.6837
   -57.6629 -57.6276 -57.5872 -57.5509 -57.3924 -57.2341 -56.7131 -56.6778
   -34.7021 -34.6721 -34.5488 -34.5203 -34.4883 -34.4666 -34.4123 -34.3745
   -34.3731 -34.3270 -34.3121 -34.3028 -34.2304 -34.2162 -34.2107 -34.1564
   -34.1560 -34.1336 -34.1182 -34.0821 -34.0785 -33.9980 -33.9140 -33.8975
   -33.8807 -33.8712 -33.8584 -33.8542 -33.8396 -33.8329 -33.8212 -33.8190
   -33.7843 -33.7755 -33.7639 -33.7446 -33.7177 -33.6979 -33.6337 -33.6135
   -33.4649 -33.3941 -33.1314 -33.0664 -33.0387 -32.9358 -32.8441 -32.7355
   -22.1928 -18.5869 -18.3869 -18.2959 -18.0583 -17.9553 -17.9081 -17.8472
   -17.7076 -17.6877 -17.5833 -17.5614 -17.5198 -17.4784 -17.4763 -17.4096
   -17.3622 -17.3569 -17.2588 -17.1658 -17.0649 -17.0578 -17.0180 -16.9547
   -16.9152 -16.7713 -16.7577 -16.7405 -16.5985 -16.5693 -15.7870 -15.2912
   -15.2070  -6.7862  -6.4048  -6.1870  -5.9323  -5.8321  -5.6922  -5.6424
    -5.4598  -5.4208  -5.2996  -5.2349  -5.0719  -5.0488  -5.0050  -4.9744
    -4.8959  -4.8125  -4.7687  -4.6587  -4.6386  -4.6140  -4.5756  -4.5188
    -4.5091  -4.4786  -4.4213  -4.4035  -4.3154  -4.3008  -4.2847  -4.1853
    -4.1627  -4.1358  -4.1028  -4.0796  -4.0156  -3.9265  -3.9135  -3.8477
    -3.7398  -3.6499  -3.6423  -3.6176  -3.5373  -3.4619  -3.4357  -3.3526
    -3.2840  -3.2191  -3.1567  -3.1386  -3.1049  -3.0685  -2.9704  -2.9336
    -2.9297  -2.8429  -2.8238  -2.7737  -2.7531  -2.7379  -2.6616  -2.6423
    -2.5661  -2.4780  -2.3648  -2.2810  -2.2467  -2.2058  -2.1886  -2.1243
    -2.1092  -2.0612  -2.0044  -1.9482  -1.9420  -1.8908  -1.8840  -1.8074
    -1.7520  -1.7319  -1.7058  -1.6593  -1.6012  -1.5939  -1.4906  -1.4265
    -1.4041  -1.3132  -1.2323  -1.1278  -1.0677  -0.7867  -0.7272  -0.6388
    -0.4505  -0.3525  -0.3518   1.0897   1.1578   1.2770   1.4346   1.4445
     1.5162   1.5484   1.6669   1.7447   1.7820   1.8015   1.8460   1.8918
     1.9138   1.9579   1.9756   2.0106   2.0581   2.0686   2.0969   2.1606
     2.1916   2.2517   2.2800   2.3284   2.5079   2.5472   2.5537   2.5604
     2.5983   2.6035   2.6201   2.7061   2.7218   2.7752   2.8187   2.8475
     2.8833   2.9216   2.9703   3.0037   3.0266   3.0535   3.1496   3.3168
     3.4275   3.5308   3.5940   3.6090   3.6872   3.7171   3.8079   3.9779
     4.1653   4.2331   4.2756   4.3615   4.4995   4.5098   4.5521   4.7238
     5.0592   5.0817   5.1488   5.2406   5.2522   5.2708   5.2952   5.3934
     5.4781   5.5418   5.5777   5.5809   5.6184   5.6550   5.7018   5.8832
     5.9282   6.0262   6.0370   6.3528   6.3657   6.4583   6.6176   6.7357
     7.2485   7.7946   7.8347   8.0512   8.1170   8.3581   8.4246   8.9113
     8.9241   9.0825   9.1858   9.3114   9.5238   9.7925  10.0431

          k = 0.0253 0.0280 0.0000 ( 34687 PWs)   bands (ev):

   -58.2642 -58.2339 -58.1073 -58.0731 -57.9403 -57.8953 -57.7167 -57.6860
   -57.6605 -57.6299 -57.5849 -57.5532 -57.3919 -57.2347 -56.7107 -56.6802
   -34.6768 -34.6452 -34.5468 -34.5221 -34.4633 -34.4604 -34.4058 -34.3794
   -34.3709 -34.3391 -34.3308 -34.3111 -34.2573 -34.2075 -34.1903 -34.1532
   -34.1310 -34.1272 -34.1196 -34.1047 -34.0694 -33.9912 -33.9081 -33.8953
   -33.8909 -33.8729 -33.8514 -33.8497 -33.8356 -33.8339 -33.8307 -33.8253
   -33.7925 -33.7808 -33.7803 -33.7469 -33.7428 -33.6973 -33.6322 -33.6135
   -33.4682 -33.4204 -33.1057 -33.0645 -33.0405 -32.9297 -32.8503 -32.7629
   -22.1870 -18.5297 -18.3334 -18.2536 -18.0071 -17.9086 -17.8992 -17.8460
   -17.6917 -17.6632 -17.6488 -17.5900 -17.5424 -17.4881 -17.4446 -17.3990
   -17.3745 -17.3300 -17.2778 -17.2127 -17.1104 -17.0871 -16.9959 -16.9555
   -16.9221 -16.7900 -16.7672 -16.7421 -16.6235 -16.6158 -15.7880 -15.3010
   -15.2303  -6.7500  -6.3844  -6.1508  -5.8498  -5.7474  -5.6175  -5.5641
    -5.3671  -5.3446  -5.3333  -5.1796  -5.0840  -5.0108  -4.9766  -4.9216
    -4.8421  -4.7970  -4.7709  -4.7229  -4.6972  -4.6606  -4.6456  -4.5918
    -4.5529  -4.5438  -4.4706  -4.4247  -4.4114  -4.3834  -4.3034  -4.2470
    -4.2004  -4.1373  -4.1302  -4.0978  -3.9624  -3.9363  -3.8617  -3.8077
    -3.7541  -3.6457  -3.5575  -3.5374  -3.4910  -3.4170  -3.3405  -3.2464
    -3.2288  -3.1725  -3.1319  -3.0819  -3.0400  -3.0243  -3.0198  -2.9550
    -2.9303  -2.8766  -2.8386  -2.7902  -2.7598  -2.7318  -2.6567  -2.5798
    -2.5355  -2.4504  -2.4463  -2.3713  -2.3247  -2.2648  -2.2035  -2.1743
    -2.1649  -2.1338  -2.0915  -2.0356  -1.9775  -1.9519  -1.9341  -1.8636
    -1.8479  -1.7357  -1.7027  -1.6773  -1.6480  -1.5928  -1.4731  -1.4532
    -1.3673  -1.3374  -1.3258  -1.2546  -1.0785  -0.8512  -0.7560  -0.6413
    -0.4189  -0.3799  -0.3698   1.1507   1.2778   1.3056   1.4484   1.4717
     1.5213   1.6777   1.6858   1.7615   1.7902   1.8091   1.8500   1.8741
     1.9003   1.9401   1.9657   2.0018   2.0524   2.0931   2.1312   2.1536
     2.1792   2.2820   2.3740   2.4243   2.4408   2.4437   2.5019   2.5387
     2.5542   2.6261   2.6517   2.7277   2.7888   2.7975   2.8368   2.8766
     2.8877   2.9564   2.9833   3.0627   3.0897   3.0977   3.1601   3.2713
     3.3758   3.5181   3.6001   3.6136   3.6812   3.7382   3.7642   3.9279
     4.1993   4.2805   4.3462   4.4214   4.5044   4.5546   4.5772   4.7572
     4.9606   5.0842   5.1257   5.1838   5.2240   5.2470   5.3174   5.3235
     5.4668   5.5041   5.5308   5.5414   5.5960   5.6048   5.6624   5.8635
     5.9523   6.0306   6.1048   6.2000   6.3810   6.3891   6.6304   6.7240
     7.3622   7.6336   7.8889   7.9783   8.1874   8.2401   8.3786   8.5731
     8.9202   9.0465   9.2208   9.3379   9.4092   9.7834   9.8175

          k = 0.0253 0.0560 0.0000 ( 34699 PWs)   bands (ev):

   -58.2578 -58.2403 -58.1013 -58.0791 -57.9364 -57.8992 -57.7103 -57.6925
   -57.6541 -57.6363 -57.5788 -57.5593 -57.3908 -57.2358 -56.7043 -56.6866
   -34.6069 -34.5727 -34.5414 -34.5272 -34.4435 -34.4121 -34.3988 -34.3967
[...]
    -4.7413  -4.7255  -4.7216  -4.6735  -4.6644  -4.5957  -4.5952  -4.5936
    -4.5516  -4.5327  -4.5063  -4.4871  -4.4586  -4.4492  -4.4346  -4.3538
    -4.2737  -4.1962  -4.0756  -4.0616  -4.0478  -3.9885  -3.9650  -3.9518
    -3.9131  -3.9123  -3.6717  -3.6698  -3.6061  -3.5373  -3.4386  -3.4294
    -3.3782  -3.3529  -3.3156  -3.2280  -3.1920  -3.1270  -3.1084  -3.0758
    -3.0434  -2.9736  -2.9601  -2.9434  -2.9391  -2.9213  -2.8820  -2.8459
    -2.8128  -2.7110  -2.7073  -2.6099  -2.6020  -2.5841  -2.5017  -2.4849
    -2.4010  -2.3027  -2.2250  -2.0890  -2.0794  -1.9148  -1.9104  -1.8223
    -1.7632  -1.7565  -1.7457  -1.6881  -1.6238  -1.5917  -1.5752  -1.5112
    -1.5008  -1.3713  -1.1902  -1.1868  -1.1808  -1.1375  -1.0044  -0.4908
    -0.4907  -0.3487  -0.3483   1.4926   1.5253   1.5531   1.5903   1.5968
     1.6345   1.6372   1.7100   1.8291   1.8647   1.9200   1.9336   1.9839
     1.9968   2.0402   2.0594   2.1073   2.1158   2.1215   2.2065   2.2595
     2.3641   2.3723   2.3953   2.4329   2.4358   2.5932   2.6197   2.6899
     2.6933   2.7963   2.7998   2.8394   2.8454   2.8993   2.9089   2.9316
     2.9354   3.0406   3.0706   3.1540   3.2358   3.3255   3.3894   3.3896
     3.3945   3.5086   3.5183   3.5414   3.5416   3.6206   3.8309   3.8373
     4.0670   4.1416   4.2210   4.2212   4.2683   4.3055   4.3266   4.3287
     4.6481   4.6578   4.7811   4.8141   5.1861   5.2052   5.3510   5.3533
     5.4536   5.5856   5.7298   5.7335   5.7601   5.7753   6.0084   6.0731
     6.1066   6.1068   6.2800   6.2808   6.3829   6.3849   6.7831   7.2653
     7.5124   7.5868   7.6919   7.7247   7.8855   7.9087   7.9978   8.0913
     8.4277   8.4559   8.5739   8.7004   9.1843   9.2243   9.3276

          k =-0.0253 0.0280 0.0000 ( 34687 PWs)   bands (ev):

   -58.2643 -58.2340 -58.1073 -58.0730 -57.9402 -57.8953 -57.7167 -57.6860
   -57.6605 -57.6299 -57.5849 -57.5532 -57.3918 -57.2346 -56.7109 -56.6804
   -34.6768 -34.6452 -34.5469 -34.5223 -34.4632 -34.4605 -34.4057 -34.3795
   -34.3708 -34.3392 -34.3308 -34.3111 -34.2572 -34.2075 -34.1903 -34.1531
   -34.1310 -34.1272 -34.1195 -34.1047 -34.0694 -33.9912 -33.9080 -33.8953
   -33.8909 -33.8729 -33.8514 -33.8497 -33.8356 -33.8338 -33.8307 -33.8253
   -33.7924 -33.7807 -33.7803 -33.7469 -33.7428 -33.6973 -33.6322 -33.6135
   -33.4682 -33.4204 -33.1059 -33.0647 -33.0408 -32.9299 -32.8505 -32.7631
   -22.1871 -18.5297 -18.3334 -18.2537 -18.0070 -17.9093 -17.8985 -17.8460
   -17.6917 -17.6634 -17.6492 -17.5899 -17.5424 -17.4882 -17.4449 -17.3989
   -17.3745 -17.3298 -17.2777 -17.2122 -17.1104 -17.0873 -16.9961 -16.9555
   -16.9220 -16.7900 -16.7672 -16.7420 -16.6233 -16.6160 -15.7881 -15.3006
   -15.2299  -6.7501  -6.3846  -6.1523  -5.8494  -5.7474  -5.6175  -5.5641
    -5.3660  -5.3449  -5.3314  -5.1792  -5.0834  -5.0085  -4.9759  -4.9216
    -4.8421  -4.7951  -4.7724  -4.7263  -4.6987  -4.6614  -4.6478  -4.5926
    -4.5538  -4.5437  -4.4695  -4.4246  -4.4119  -4.3847  -4.3035  -4.2462
    -4.2006  -4.1370  -4.1301  -4.0945  -3.9637  -3.9349  -3.8629  -3.8073
    -3.7538  -3.6454  -3.5588  -3.5379  -3.4908  -3.4196  -3.3389  -3.2458
    -3.2290  -3.1712  -3.1327  -3.0810  -3.0394  -3.0235  -3.0158  -2.9553
    -2.9280  -2.8764  -2.8404  -2.7887  -2.7619  -2.7310  -2.6563  -2.5815
    -2.5376  -2.4515  -2.4470  -2.3717  -2.3272  -2.2650  -2.2051  -2.1737
    -2.1657  -2.1332  -2.0921  -2.0354  -1.9752  -1.9494  -1.9342  -1.8646
    -1.8442  -1.7393  -1.7006  -1.6771  -1.6509  -1.5946  -1.4751  -1.4520
    -1.3652  -1.3372  -1.3264  -1.2520  -1.0789  -0.8511  -0.7559  -0.6410
    -0.4186  -0.3795  -0.3694   1.1506   1.2777   1.3051   1.4482   1.4719
     1.5210   1.6785   1.6894   1.7629   1.7846   1.8051   1.8509   1.8753
     1.9051   1.9398   1.9656   2.0018   2.0500   2.0950   2.1299   2.1522
     2.1807   2.2853   2.3739   2.4237   2.4381   2.4442   2.5020   2.5379
     2.5531   2.6254   2.6525   2.7251   2.7893   2.7985   2.8377   2.8769
     2.8884   2.9578   2.9829   3.0609   3.0893   3.0974   3.1604   3.2711
     3.3753   3.5198   3.5990   3.6134   3.6830   3.7381   3.7638   3.9277
     4.1995   4.2805   4.3434   4.4245   4.5037   4.5533   4.5775   4.7566
     4.9636   5.0730   5.1326   5.1837   5.2244   5.2438   5.3178   5.3254
     5.4676   5.5076   5.5263   5.5434   5.5965   5.6050   5.6626   5.8634
     5.9517   6.0315   6.1045   6.2002   6.3811   6.3890   6.6304   6.7241
     7.3623   7.6335   7.8889   7.9786   8.1876   8.2402   8.3789   8.5730
     8.9202   9.0465   9.2207   9.3382   9.4094   9.7837   9.8173

          k =-0.0253 0.0560 0.0000 ( 34699 PWs)   bands (ev):

   -58.2579 -58.2404 -58.1013 -58.0791 -57.9363 -57.8992 -57.7103 -57.6925
   -57.6541 -57.6363 -57.5788 -57.5593 -57.3908 -57.2357 -56.7045 -56.6869
   -34.6070 -34.5726 -34.5416 -34.5273 -34.4436 -34.4122 -34.3987 -34.3968
   -34.3883 -34.3655 -34.3505 -34.3350 -34.3082 -34.2087 -34.1657 -34.1471
   -34.1409 -34.1178 -34.1152 -34.0612 -34.0114 -33.9728 -33.9226 -33.9150
   -33.8937 -33.8878 -33.8777 -33.8653 -33.8447 -33.8432 -33.8337 -33.8288
   -33.8087 -33.7942 -33.7787 -33.7725 -33.7417 -33.6963 -33.6308 -33.6129
   -33.4967 -33.4654 -33.0597 -33.0458 -33.0351 -32.9134 -32.8675 -32.8373
   -22.1755 -18.3735 -18.1972 -18.1326 -17.9486 -17.8702 -17.8471 -17.7885
   -17.7695 -17.7356 -17.6501 -17.6175 -17.5688 -17.4775 -17.4514 -17.4436
   -17.3474 -17.3381 -17.2747 -17.2195 -17.1837 -17.1449 -17.0271 -16.9783
   -16.8733 -16.8264 -16.7919 -16.7483 -16.7427 -16.6710 -15.7903 -15.3183
   -15.2802  -6.6778  -6.3385  -6.0961  -5.6235  -5.5136  -5.4364  -5.4053
    -5.3501  -5.1552  -5.1479  -5.1037  -5.0471  -4.9951  -4.9674  -4.9389
    -4.9013  -4.8582  -4.8412  -4.7920  -4.7863  -4.7374  -4.7208  -4.6566
    -4.6449  -4.6046  -4.5215  -4.5092  -4.4615  -4.3929  -4.3804  -4.3138
    -4.1979  -4.1794  -4.0646  -4.0293  -3.9230  -3.8922  -3.8472  -3.7700
    -3.6834  -3.6293  -3.5524  -3.4714  -3.4292  -3.4134  -3.3611  -3.2624
    -3.2242  -3.1527  -3.1128  -3.0788  -3.0067  -2.9907  -2.9317  -2.9238
    -2.9077  -2.8710  -2.8005  -2.7411  -2.7210  -2.7143  -2.6707  -2.6199
    -2.5531  -2.5290  -2.4925  -2.4615  -2.4019  -2.3925  -2.3091  -2.2828
    -2.2181  -2.2071  -2.1792  -2.1348  -2.0468  -2.0192  -1.9730  -1.9346
    -1.8659  -1.8227  -1.7872  -1.7079  -1.6960  -1.6309  -1.6077  -1.5400
    -1.4287  -1.3860  -1.3271  -1.2492  -1.2106  -1.1104  -0.8835  -0.4658
    -0.4304  -0.4025  -0.3757   1.2908   1.3689   1.4812   1.5148   1.5598
     1.6086   1.6473   1.7086   1.7300   1.7994   1.8175   1.8466   1.8918
     1.9372   1.9525   1.9683   2.0647   2.0978   2.1439   2.1944   2.2084
     2.2344   2.2481   2.3341   2.3513   2.3756   2.4269   2.4497   2.4974
     2.6234   2.6442   2.6994   2.7440   2.7745   2.8050   2.8614   2.9024
     2.9405   2.9994   3.0179   3.1378   3.1839   3.2097   3.2791   3.3025
     3.3226   3.4227   3.5442   3.5685   3.6226   3.7633   3.7762   3.8406
     4.2996   4.3624   4.4262   4.5695   4.5905   4.6352   4.6732   4.7615
     4.8100   4.9063   4.9940   5.0836   5.1468   5.2357   5.2568   5.2930
     5.3425   5.4282   5.4691   5.4900   5.5628   5.6119   5.7465   5.8189
     5.9163   6.0245   6.0399   6.2345   6.2762   6.4468   6.5747   6.9105
     7.0249   7.3730   7.7223   7.8974   8.2334   8.3669   8.4306   8.5960
     8.7294   8.9213   9.0508   9.3774   9.5327   9.5819   9.7545

          k =-0.0506 0.0280 0.0000 ( 34685 PWs)   bands (ev):

   -58.2643 -58.2340 -58.1073 -58.0730 -57.9402 -57.8953 -57.7166 -57.6860
   -57.6606 -57.6299 -57.5849 -57.5532 -57.3919 -57.2346 -56.7110 -56.6804
   -34.6775 -34.6464 -34.5469 -34.5223 -34.4635 -34.4591 -34.4033 -34.3795
   -34.3704 -34.3393 -34.3308 -34.3111 -34.2573 -34.2075 -34.1935 -34.1528
   -34.1338 -34.1317 -34.1228 -34.1047 -34.0526 -33.9765 -33.9074 -33.8959
   -33.8876 -33.8729 -33.8626 -33.8569 -33.8389 -33.8336 -33.8301 -33.8253
   -33.7927 -33.7809 -33.7803 -33.7468 -33.7426 -33.6988 -33.6323 -33.6135
   -33.4681 -33.4204 -33.1058 -33.0666 -33.0398 -32.9299 -32.8505 -32.7631
   -22.1816 -18.4707 -18.2488 -18.1991 -17.9482 -17.9075 -17.8826 -17.8545
   -17.7780 -17.7209 -17.6791 -17.6352 -17.5483 -17.5103 -17.4907 -17.4561
   -17.4191 -17.3093 -17.2911 -17.1774 -17.1375 -17.0383 -17.0191 -16.9838
   -16.8963 -16.7790 -16.7685 -16.7411 -16.6237 -16.6146 -15.7748 -15.2986
   -15.2299  -6.6040  -6.3116  -6.2049  -5.8189  -5.4589  -5.4193  -5.3486
    -5.2999  -5.2786  -5.2406  -5.2058  -5.1244  -5.0831  -5.0150  -4.9582
    -4.9145  -4.7838  -4.7330  -4.6783  -4.6345  -4.6066  -4.5880  -4.5712
    -4.5494  -4.5058  -4.4477  -4.4024  -4.3605  -4.3300  -4.2829  -4.2656
    -4.1943  -4.1781  -4.0479  -3.9881  -3.9332  -3.8556  -3.8422  -3.8006
    -3.7498  -3.6877  -3.5944  -3.5608  -3.5129  -3.4626  -3.3794  -3.3311
    -3.3183  -3.2614  -3.2395  -3.1723  -3.1079  -3.0949  -3.0467  -2.9965
    -2.9694  -2.9371  -2.9121  -2.8664  -2.8224  -2.7833  -2.6929  -2.6179
    -2.5752  -2.5524  -2.5018  -2.4410  -2.3997  -2.3730  -2.3324  -2.3006
    -2.2070  -2.1588  -2.1113  -2.0858  -2.0591  -2.0036  -1.9754  -1.9093
    -1.8459  -1.8182  -1.7172  -1.6788  -1.6452  -1.5535  -1.4789  -1.4476
    -1.3920  -1.3375  -1.2871  -1.2581  -1.0881  -0.8944  -0.8451  -0.6283
    -0.4491  -0.4186  -0.4052   1.1347   1.3372   1.3814   1.4884   1.4958
     1.5193   1.5913   1.6502   1.7319   1.7618   1.8159   1.8916   1.9232
     1.9598   1.9859   2.0117   2.0287   2.0605   2.1152   2.1722   2.2085
     2.2881   2.3340   2.3701   2.4578   2.4667   2.5285   2.5419   2.5652
     2.6023   2.6682   2.7219   2.7630   2.8101   2.8625   2.8899   2.9145
     2.9597   3.0452   3.0607   3.0979   3.1039   3.1616   3.2427   3.2685
     3.3181   3.4322   3.5962   3.6135   3.7154   3.7350   3.7862   3.8568
     3.9977   4.1015   4.1939   4.2186   4.3889   4.4531   4.5561   4.7999
     4.9048   5.0107   5.0454   5.1849   5.2455   5.2577   5.2917   5.4379
     5.4825   5.5354   5.5687   5.6754   5.8512   5.8901   5.9393   5.9712
     6.0756   6.1123   6.2523   6.2723   6.3988   6.4505   6.6017   6.8858
     7.1747   7.3391   7.6854   7.6958   7.7620   8.3187   8.4097   8.5705
     8.6591   9.0970   9.1809   9.4109   9.5158   9.6244   9.7706

          k =-0.0506 0.0560 0.0000 ( 34596 PWs)   bands (ev):

   -58.2579 -58.2404 -58.1013 -58.0791 -57.9363 -57.8992 -57.7102 -57.6925
   -57.6542 -57.6364 -57.5788 -57.5593 -57.3908 -57.2357 -56.7045 -56.6869
   -34.6076 -34.5737 -34.5415 -34.5273 -34.4424 -34.4124 -34.3989 -34.3964
   -34.3866 -34.3653 -34.3504 -34.3346 -34.3080 -34.2086 -34.1657 -34.1459
   -34.1409 -34.1213 -34.1181 -34.0620 -34.0030 -33.9604 -33.9261 -33.9069
   -33.8925 -33.8890 -33.8776 -33.8652 -33.8489 -33.8432 -33.8424 -33.8326
   -33.8089 -33.7957 -33.7787 -33.7724 -33.7417 -33.6971 -33.6309 -33.6131
   -33.4965 -33.4653 -33.0608 -33.0454 -33.0350 -32.9134 -32.8674 -32.8372
   -22.1705 -18.3230 -18.1289 -18.0610 -17.9515 -17.8404 -17.8280 -17.7919
   -17.7545 -17.7392 -17.7032 -17.6293 -17.6150 -17.5140 -17.4583 -17.4293
   -17.4278 -17.3674 -17.2743 -17.2458 -17.1829 -17.1549 -17.1133 -16.9632
   -16.8509 -16.8202 -16.7907 -16.7469 -16.7436 -16.6700 -15.7781 -15.3171
   -15.2806  -6.5624  -6.2460  -6.0980  -5.6037  -5.2610  -5.2268  -5.1948
    -5.1444  -5.1174  -5.0981  -5.0603  -5.0403  -4.9723  -4.9094  -4.8813
    -4.8727  -4.7966  -4.7726  -4.7243  -4.7164  -4.6805  -4.6590  -4.6320
    -4.6066  -4.5974  -4.5397  -4.4906  -4.4725  -4.4174  -4.3501  -4.2802
    -4.2230  -4.1938  -4.1055  -4.0109  -3.9599  -3.9222  -3.8567  -3.8223
    -3.6818  -3.6242  -3.5709  -3.5144  -3.4944  -3.4564  -3.3904  -3.3664
    -3.3072  -3.2717  -3.2395  -3.1990  -3.1253  -3.0989  -3.0605  -3.0097
    -2.9542  -2.9283  -2.9084  -2.8749  -2.8518  -2.7944  -2.7579  -2.7476
    -2.7064  -2.6863  -2.5810  -2.5430  -2.5235  -2.4802  -2.4467  -2.3811
    -2.3249  -2.2601  -2.1922  -2.1079  -2.0502  -2.0037  -1.9659  -1.9015
    -1.8841  -1.8248  -1.7537  -1.6730  -1.6356  -1.5710  -1.5402  -1.4801
    -1.3868  -1.3606  -1.2962  -1.2468  -1.2332  -1.0690  -0.9218  -0.4804
    -0.4443  -0.4279  -0.3703   1.2925   1.4174   1.5093   1.5100   1.6191
     1.6442   1.6789   1.6919   1.7468   1.8198   1.8391   1.9298   1.9699
     1.9877   2.0166   2.0317   2.0603   2.1288   2.1498   2.1998   2.2337
     2.2517   2.3353   2.3970   2.4244   2.4345   2.4656   2.5337   2.5521
     2.6839   2.7095   2.7575   2.7721   2.8362   2.8504   2.8801   2.9166
     2.9792   3.0398   3.0603   3.1620   3.1867   3.2517   3.3077   3.3413
     3.3542   3.3652   3.5423   3.5804   3.6292   3.7207   3.7903   3.8323
     4.0731   4.2298   4.2431   4.2956   4.4425   4.4701   4.5622   4.6650
     4.7048   4.7604   4.8637   5.0012   5.1356   5.2060   5.2721   5.3468
     5.4746   5.5183   5.6224   5.7505   5.7799   5.7902   5.8384   5.9894
     6.0655   6.0890   6.1621   6.2598   6.3501   6.4240   6.7655   6.9484
     7.1804   7.4599   7.6296   7.7341   8.0483   8.1090   8.1918   8.5368
     8.7145   8.7996   8.9133   9.0735   9.0911   9.4075   9.4794

     the Fermi energy is     0.4239 ev

!    total energy              =   -3004.17544084 Ry
     Harris-Foulkes estimate   =   -3004.17543989 Ry
     estimated scf accuracy    <       0.00000055 Ry

     The total energy is the sum of the following terms:

     one-electron contribution =  -42045.94625640 Ry
     hartree contribution      =   21085.23719649 Ry
     xc contribution           =    -546.20937169 Ry
     ewald contribution        =   18502.74323096 Ry
     smearing contrib. (-TS)   =      -0.00024020 Ry

     total magnetization       =     0.00 Bohr mag/cell
     absolute magnetization    =     0.00 Bohr mag/cell

     convergence has been achieved in  11 iterations

     Forces acting on atoms (Ry/au):


     negative rho (up, down):  1.429E-02 1.429E-02
     atom    1 type  1   force =    -0.00016138    0.00030116   -0.13702846
     atom    2 type  2   force =     0.00006255   -0.00010143    0.07536818
     atom    3 type  1   force =     0.00070769    0.00084421   -0.05938801
     atom    4 type  2   force =     0.00467430   -0.00035593    0.00933418
     atom    5 type  1   force =     0.00008358    0.00013950   -0.00016621
     atom    6 type  2   force =     0.00011388    0.00036962   -0.00120530
     atom    7 type  1   force =     0.00194959    0.00172495    0.00278235
     atom    8 type  2   force =    -0.00041697   -0.00011818   -0.00023132
     atom    9 type  1   force =    -0.00009275    0.00040639   -0.13706737
     atom   10 type  2   force =     0.00012784   -0.00026941    0.07536758
     atom   11 type  1   force =     0.00077316   -0.00088779   -0.05956244
     atom   12 type  2   force =     0.00432366   -0.00010062    0.00819500
     atom   13 type  1   force =    -0.00058876   -0.00061190   -0.00008396
     atom   14 type  2   force =     0.00004183   -0.00019382    0.00031795
     atom   15 type  1   force =     0.00127118   -0.00128971    0.00248558
     atom   16 type  2   force =     0.00222716    0.00074186    0.00008825
     atom   17 type  2   force =     0.00026791   -0.00006421    0.08093013
     atom   18 type  1   force =    -0.00016492    0.00031524    0.11705798
     atom   19 type  2   force =     0.00028339    0.00017216   -0.06542541
     atom   20 type  2   force =    -0.06323356   -0.00005425   -0.03172457
     atom   21 type  2   force =     0.06296723    0.00014789   -0.03161473
     atom   22 type  1   force =    -0.00065317   -0.00000031    0.05923670
     atom   23 type  2   force =    -0.00015070    0.00025825   -0.00020162
     atom   24 type  2   force =     0.00057572   -0.00014464   -0.02278300
     atom   25 type  2   force =    -0.00455427   -0.00031781    0.00819229
     atom   26 type  1   force =    -0.00005859    0.00047034    0.00025116
     atom   27 type  2   force =     0.00008354    0.00004420   -0.00090737
     atom   28 type  2   force =    -0.00105794   -0.00006504   -0.00016185
     atom   29 type  2   force =     0.00025643   -0.00019586   -0.00013032
     atom   30 type  1   force =    -0.00022335    0.00064667    0.00194392
     atom   31 type  2   force =     0.00046501   -0.00063247   -0.00072362
     atom   32 type  2   force =    -0.00030647   -0.00022633   -0.00071328
     atom   33 type  2   force =     0.00023506    0.00004905    0.08094486
     atom   34 type  1   force =    -0.00023151    0.00026722    0.11697199
     atom   35 type  2   force =     0.00031670    0.00015955   -0.06545627
     atom   36 type  2   force =    -0.06306955    0.00016050   -0.03188301
     atom   37 type  2   force =     0.06314998    0.00020000   -0.03152362
     atom   38 type  1   force =    -0.00049715   -0.00025283    0.05885452
     atom   39 type  2   force =     0.00007868   -0.00050160   -0.00067776
     atom   40 type  2   force =     0.00042131   -0.00224909   -0.02232037
     atom   41 type  2   force =    -0.00416569   -0.00027676    0.00762489
     atom   42 type  1   force =    -0.00034956   -0.00048586    0.00025795
     atom   43 type  2   force =     0.00010812   -0.00000053   -0.00073764
     atom   44 type  2   force =     0.00040076    0.00017748   -0.00004209
     atom   45 type  2   force =    -0.00022828   -0.00014171   -0.00013564
     atom   46 type  1   force =    -0.00298779    0.00021797    0.00176582
     atom   47 type  2   force =     0.00042134    0.00067494   -0.00087319
     atom   48 type  2   force =    -0.00801895    0.00092372    0.01799948
     atom   49 type  2   force =     0.00482370    0.00012521   -0.02320233

     Total force =     0.366555     Total SCF correction =     0.002213
 !ASE

     Writing output data file calc.save
 
     init_run     :     53.67s CPU     68.63s WALL (       1 calls)
     electrons    :   2391.95s CPU   2903.67s WALL (       1 calls)
     forces       :     39.77s CPU     41.22s WALL (       1 calls)

     Called by init_run:
     wfcinit      :     46.58s CPU     60.75s WALL (       1 calls)
     potinit      :      1.34s CPU      1.68s WALL (       1 calls)

     Called by electrons:
     c_bands      :   2080.10s CPU   2510.75s WALL (      11 calls)
     sum_band     :    263.03s CPU    336.80s WALL (      11 calls)
     v_of_rho     :     12.18s CPU     15.44s WALL (      12 calls)
     newd         :     39.97s CPU     44.16s WALL (      12 calls)
     mix_rho      :      0.44s CPU      0.63s WALL (      11 calls)
     vdW_energy   :      2.23s CPU      2.69s WALL (      13 calls)
     vdW_ffts     :      3.04s CPU      4.14s WALL (      26 calls)
     vdW_v        :      1.33s CPU      1.52s WALL (      13 calls)

     Called by c_bands:
     init_us_2    :      6.12s CPU      6.84s WALL (     960 calls)
     cegterg      :   2038.93s CPU   2466.67s WALL (     440 calls)

     Called by *egterg:
     h_psi        :    814.50s CPU   1145.16s WALL (    2472 calls)
     s_psi        :    100.24s CPU    105.12s WALL (    2472 calls)
     g_psi        :      5.57s CPU      5.83s WALL (    1992 calls)
     cdiaghg      :    740.72s CPU    762.76s WALL (    2432 calls)

     Called by h_psi:
     add_vuspsi   :    100.73s CPU    105.89s WALL (    2472 calls)

     General routines
     calbec       :    153.75s CPU    158.05s WALL (    2952 calls)
     fft          :      8.15s CPU     10.37s WALL (    1029 calls)
     ffts         :      0.05s CPU      0.08s WALL (      46 calls)
     fftw         :    543.86s CPU    927.06s WALL (  775488 calls)
     interpolate  :      0.34s CPU      0.60s WALL (      46 calls)
     davcio       :      0.05s CPU      1.75s WALL (      40 calls)
 
     Parallel routines
     fft_scatter  :    300.02s CPU    512.41s WALL (  776563 calls)
 
     PWSCF        : 41m26.24s CPU    50m17.01s WALL

 
   This run was terminated on:  23: 0:25  10Feb2018            

=------------------------------------------------------------------------------=
   JOB DONE.
=------------------------------------------------------------------------------=
