  python dir          : /home/vossj/suncat/lib/python2.7/site-packages/espresso
  espresso dir        : /home/vossj/suncat/esdld/espresso-dynpy-beef/bin
  pseudo dir          : /home/alatimer/bin/psp/esp_psp_w_gbrvRu/
  ase-espresso py git : ffa2778-git



     Program PWSCF v.5.1rc2 (svn rev. ) starts on 12Feb2018 at 15:37:56 

     This program is part of the open-source Quantum ESPRESSO suite
     for quantum simulation of materials; please cite
         "P. Giannozzi et al., J. Phys.:Condens. Matter 21 395502 (2009);
          URL http://www.quantum-espresso.org", 
     in publications or presentations arising from this work. More details at
     http://www.quantum-espresso.org/quote

     Parallel version (MPI), running on    16 processors
     R & G space division:  proc/nbgrp/npool/nimage =      16
     Reading input from pw.inp
     Message from routine read_cards :
     DEPRECATED: no units specified in CELL_PARAMETERS card

     Current dimensions of program PWSCF are:
     Max number of different atomic species (ntypx) = 10
     Max number of k-points (npk) =  40000
     Max angular momentum in pseudopotentials (lmaxx) =  3

     **************************************************************************
     Initializing libbeef V0.1.1 with the BEEF-vdW functional.
     Citation: Wellendorff et al., PRB 85, 235149 (2012).
     **************************************************************************


     IMPORTANT: XC functional enforced from input :
     Exchange-correlation      = BEEF ( 1  4 27 13 2)
     Any further DFT definition will be discarded
     Please, verify this is what you really want


     Subspace diagonalization in iterative solution of the eigenvalue problem:
     a serial algorithm will be used

 
     Parallelization info
     --------------------
     sticks:   dense  smooth     PW     G-vecs:    dense   smooth      PW
     Min         281     112     31                68535    17318    2565
     Max         282     113     32                68545    17369    2582
     Sum        4501    1795    503              1096637   277353   41113
 
     Generating pointlists ...
     new r_m :   0.4125 (alat units)  0.7795 (a.u.) for type    1
     new r_m :   0.3997 (alat units)  0.7554 (a.u.) for type    2
     new r_m :   0.4125 (alat units)  0.7795 (a.u.) for type    3
     new r_m :   0.3997 (alat units)  0.7554 (a.u.) for type    4


     bravais-lattice index     =            0
     lattice parameter (alat)  =       1.8897  a.u.
     unit-cell volume          =    7990.9933 (a.u.)^3
     number of atoms/cell      =           54
     number of atomic types    =            4
     number of electrons       =       398.00
     number of Kohn-Sham states=          299
     kinetic-energy cutoff     =      40.4243  Ry
     charge density cutoff     =     404.2426  Ry
     convergence threshold     =      7.3E-07
     mixing beta               =       0.1000
     number of iterations used =           10  plain     mixing
     Exchange-correlation      = BEEF ( 1  4 27 13 2)
     nstep                     =           50


     celldm(1)=   1.889726  celldm(2)=   0.000000  celldm(3)=   0.000000
     celldm(4)=   0.000000  celldm(5)=   0.000000  celldm(6)=   0.000000

     crystal axes: (cart. coord. in units of alat)
               a(1) = (   6.590708   0.000000   0.000000 )  
               a(2) = (   0.000000   5.950229   0.000000 )  
               a(3) = (   0.000000   0.000000  30.195235 )  

     reciprocal axes: (cart. coord. in units 2 pi/alat)
               b(1) = (  0.151729  0.000000  0.000000 )  
               b(2) = (  0.000000  0.168061  0.000000 )  
               b(3) = (  0.000000  0.000000  0.033118 )  


     PseudoPot. # 1 for Ti read from file:
     /home/alatimer/bin/psp/esp_psp_w_gbrvRu/Ti.UPF
     MD5 check sum: 8e4df49b7f0d34bbd5052bf3f5ea0213
     Pseudo is Ultrasoft, Zval = 12.0
     Generated by new atomic code, or converted to UPF format
     Using radial grid of  851 points,  6 beta functions with: 
                l(1) =   0
                l(2) =   0
                l(3) =   1
                l(4) =   1
                l(5) =   2
                l(6) =   2
     Q(r) pseudized with  8 coefficients,  rinner =    1.000   1.000   1.000
                                                       1.000   1.000

     PseudoPot. # 2 for  O read from file:
     /home/alatimer/bin/psp/esp_psp_w_gbrvRu/O.UPF
     MD5 check sum: e057bbcf3229fb5d8c36c0c92f9568b4
     Pseudo is Ultrasoft + core correction, Zval =  6.0
     Generated using "atomic" code by A. Dal Corso  v.5.0.2 svn rev. 9415
     Using radial grid of 1095 points,  4 beta functions with: 
                l(1) =   0
                l(2) =   0
                l(3) =   1
                l(4) =   1
     Q(r) pseudized with 0 coefficients 


     PseudoPot. # 3 for  C read from file:
     /home/alatimer/bin/psp/esp_psp_w_gbrvRu/C.UPF
     MD5 check sum: ab446d787031eba755f1d5ee46644bb0
     Pseudo is Ultrasoft + core correction, Zval =  4.0
     Generated using "atomic" code by A. Dal Corso  v.5.0.2 svn rev. 9415
     Using radial grid of 1073 points,  4 beta functions with: 
                l(1) =   0
                l(2) =   0
                l(3) =   1
                l(4) =   1
     Q(r) pseudized with 0 coefficients 


     PseudoPot. # 4 for  H read from file:
     /home/alatimer/bin/psp/esp_psp_w_gbrvRu/H.UPF
     MD5 check sum: bd57da0722753ddfd9833a65b40bb853
     Pseudo is Ultrasoft, Zval =  1.0
     Generated using "atomic" code by A. Dal Corso  v.5.0.2 svn rev. 9415
     Using radial grid of  929 points,  2 beta functions with: 
                l(1) =   0
                l(2) =   0
     Q(r) pseudized with 0 coefficients 


     vdW kernel table read from file vdW_kernel_table
     MD5 check sum: 095c7af220d748ca6e76c0b4c6cfb241

     atomic species   valence    mass     pseudopotential
        Ti1           12.00    47.88000     Ti( 1.00)
        O1             6.00    15.99940      O( 1.00)
        C1             4.00    12.01100      C( 1.00)
        H1             1.00     1.00794      H( 1.00)

     Starting magnetic structure 
     atomic species   magnetization
        Ti1          0.250
        O1           0.500
        C1           0.750
        H1           0.000

     No symmetry found



   Cartesian axes

     site n.     atom                  positions (alat units)
         1           Ti1 tau(   1) = (   1.6476770   0.7437786   2.6545865  )
         2           O1  tau(   2) = (   1.6476770   2.2313359   3.9361215  )
         3           Ti1 tau(   3) = (   1.6476770   2.2313359   5.9499405  )
         4           O1  tau(   4) = (   0.3661420   0.7437786   5.9499405  )
         5           Ti1 tau(   5) = (   1.7592931   0.7557636   9.1813031  )
         6           O1  tau(   6) = (   1.6162490   2.2572048  10.5951269  )
         7           Ti1 tau(   7) = (   1.5595004   2.2680265  12.4668274  )
         8           O1  tau(   8) = (   0.3709531   0.7738127  12.6996540  )
         9           Ti1 tau(   9) = (   1.6476770   3.7188931   2.6545865  )
        10           O1  tau(  10) = (   1.6476770   5.2064503   3.9361215  )
        11           Ti1 tau(  11) = (   1.6476770   5.2064503   5.9499405  )
        12           O1  tau(  12) = (   0.3661420   3.7188931   5.9499405  )
        13           Ti1 tau(  13) = (   1.7607536   3.7112867   9.1949733  )
        14           O1  tau(  14) = (   1.6133076   5.2250699  10.5465640  )
        15           Ti1 tau(  15) = (   1.6492307   5.2431137  12.3448001  )
        16           O1  tau(  16) = (   0.3719744   3.7598389  12.7007434  )
        17           O1  tau(  17) = (   1.6476770   2.2313359   1.3730516  )
        18           Ti1 tau(  18) = (   4.9430310   2.2313359   2.6545865  )
        19           O1  tau(  19) = (   4.9430310   2.2313359   4.6684056  )
        20           O1  tau(  20) = (   6.2245660   0.7437786   2.6545865  )
        21           O1  tau(  21) = (   3.6614961   0.7437786   2.6545865  )
        22           Ti1 tau(  22) = (   4.9430310   0.7437786   5.9499405  )
        23           O1  tau(  23) = (   1.6387103   2.2391978   8.0037664  )
        24           O1  tau(  24) = (   4.9430310   2.2313359   7.2314755  )
        25           O1  tau(  25) = (   2.9292120   0.7437786   5.9499405  )
        26           Ti1 tau(  26) = (   5.0158092   2.2383949   9.3973727  )
        27           O1  tau(  27) = (   4.9391445   2.2276729  11.2675731  )
        28           O1  tau(  28) = (   6.2094020   0.7514556   9.2742047  )
        29           O1  tau(  29) = (   3.6131301   0.7515640   9.2682932  )
        30           Ti1 tau(  30) = (   4.8940083   0.8207741  12.7348365  )
        31           O1  tau(  31) = (   4.8487174   2.2703822  13.8475395  )
        32           O1  tau(  32) = (   2.8766274   0.7418004  12.6316555  )
        33           O1  tau(  33) = (   1.6476770   5.2064503   1.3730516  )
        34           Ti1 tau(  34) = (   4.9430310   5.2064503   2.6545865  )
        35           O1  tau(  35) = (   4.9430310   5.2064503   4.6684056  )
        36           O1  tau(  36) = (   6.2245660   3.7188931   2.6545865  )
        37           O1  tau(  37) = (   3.6614961   3.7188931   2.6545865  )
        38           Ti1 tau(  38) = (   4.9430310   3.7188931   5.9499405  )
        39           O1  tau(  39) = (   1.6418458   5.2133935   8.0066417  )
        40           O1  tau(  40) = (   4.9430310   5.2064503   7.2314755  )
        41           O1  tau(  41) = (   2.9292120   3.7188931   5.9499405  )
        42           Ti1 tau(  42) = (   5.0218241   5.2139137   9.3870600  )
        43           O1  tau(  43) = (   4.9399496   5.2040061  11.2598200  )
        44           O1  tau(  44) = (   6.2073000   3.7245411   9.2731052  )
        45           O1  tau(  45) = (   3.6137513   3.7232133   9.2682466  )
        46           Ti1 tau(  46) = (   4.8936935   3.8094630  12.7397413  )
        47           O1  tau(  47) = (   4.9051259   5.2510468  13.8339921  )
        48           O1  tau(  48) = (   2.8743370   3.7938830  12.6403791  )
        49           C1  tau(  49) = (   1.0587210   2.2268971  15.9066084  )
        50           O1  tau(  50) = (   1.8917182   2.2655032  14.7378010  )
        51           H1  tau(  51) = (   0.0310076   2.2200215  15.5603933  )
        52           H1  tau(  52) = (   2.8355400   2.2288152  14.9543747  )
        53           H1  tau(  53) = (   1.2478062   1.3326534  16.5039879  )
        54           H1  tau(  54) = (   1.2341453   3.1195140  16.5098874  )

     number of k points=    40  Fermi-Dirac smearing, width (Ry)=  0.0073
                       cart. coord. in units 2pi/alat
        k(    1) = (   0.0000000   0.0000000   0.0000000), wk =   0.0277778
        k(    2) = (   0.0000000   0.0280101   0.0000000), wk =   0.0555556
        k(    3) = (   0.0000000   0.0560203   0.0000000), wk =   0.0555556
        k(    4) = (   0.0000000  -0.0840304   0.0000000), wk =   0.0277778
        k(    5) = (   0.0252881   0.0000000   0.0000000), wk =   0.0555556
        k(    6) = (   0.0252881   0.0280101   0.0000000), wk =   0.0555556
        k(    7) = (   0.0252881   0.0560203   0.0000000), wk =   0.0555556
        k(    8) = (   0.0252881  -0.0840304   0.0000000), wk =   0.0555556
        k(    9) = (   0.0505763   0.0000000   0.0000000), wk =   0.0555556
        k(   10) = (   0.0505763   0.0280101   0.0000000), wk =   0.0555556
        k(   11) = (   0.0505763   0.0560203   0.0000000), wk =   0.0555556
        k(   12) = (   0.0505763  -0.0840304   0.0000000), wk =   0.0555556
        k(   13) = (  -0.0758644   0.0000000   0.0000000), wk =   0.0277778
        k(   14) = (  -0.0758644   0.0280101   0.0000000), wk =   0.0555556
        k(   15) = (  -0.0758644   0.0560203   0.0000000), wk =   0.0555556
        k(   16) = (  -0.0758644  -0.0840304   0.0000000), wk =   0.0277778
        k(   17) = (  -0.0252881   0.0280101   0.0000000), wk =   0.0555556
        k(   18) = (  -0.0252881   0.0560203   0.0000000), wk =   0.0555556
        k(   19) = (  -0.0505763   0.0280101   0.0000000), wk =   0.0555556
        k(   20) = (  -0.0505763   0.0560203   0.0000000), wk =   0.0555556
        k(   21) = (   0.0000000   0.0000000   0.0000000), wk =   0.0277778
        k(   22) = (   0.0000000   0.0280101   0.0000000), wk =   0.0555556
        k(   23) = (   0.0000000   0.0560203   0.0000000), wk =   0.0555556
        k(   24) = (   0.0000000  -0.0840304   0.0000000), wk =   0.0277778
        k(   25) = (   0.0252881   0.0000000   0.0000000), wk =   0.0555556
        k(   26) = (   0.0252881   0.0280101   0.0000000), wk =   0.0555556
        k(   27) = (   0.0252881   0.0560203   0.0000000), wk =   0.0555556
        k(   28) = (   0.0252881  -0.0840304   0.0000000), wk =   0.0555556
        k(   29) = (   0.0505763   0.0000000   0.0000000), wk =   0.0555556
        k(   30) = (   0.0505763   0.0280101   0.0000000), wk =   0.0555556
        k(   31) = (   0.0505763   0.0560203   0.0000000), wk =   0.0555556
        k(   32) = (   0.0505763  -0.0840304   0.0000000), wk =   0.0555556
        k(   33) = (  -0.0758644   0.0000000   0.0000000), wk =   0.0277778
        k(   34) = (  -0.0758644   0.0280101   0.0000000), wk =   0.0555556
        k(   35) = (  -0.0758644   0.0560203   0.0000000), wk =   0.0555556
        k(   36) = (  -0.0758644  -0.0840304   0.0000000), wk =   0.0277778
        k(   37) = (  -0.0252881   0.0280101   0.0000000), wk =   0.0555556
        k(   38) = (  -0.0252881   0.0560203   0.0000000), wk =   0.0555556
        k(   39) = (  -0.0505763   0.0280101   0.0000000), wk =   0.0555556
        k(   40) = (  -0.0505763   0.0560203   0.0000000), wk =   0.0555556

     Dense  grid:  1096637 G-vectors     FFT dimensions: (  80,  72, 375)

     Smooth grid:   277353 G-vectors     FFT dimensions: (  54,  45, 240)

     Largest allocated arrays     est. size (Mb)     dimensions
        Kohn-Sham Wavefunctions         9.95 Mb     (    2180,  299)
        NL pseudopotentials            18.89 Mb     (    2180,  568)
        Each V/rho on FFT grid          4.22 Mb     (  138240,   2)
        Each G-vector array             0.52 Mb     (   68538)
        G-vector shells                 0.25 Mb     (   33046)
     Largest temporary arrays     est. size (Mb)     dimensions
        Auxiliary wavefunctions        39.78 Mb     (    2180, 1196)
        Each subspace H/S matrix       21.83 Mb     (    1196, 1196)
        Each <psi_i|beta_j> matrix      2.59 Mb     (     568,  299)
        Arrays for rho mixing          21.09 Mb     (  138240,   10)

     Check: negative/imaginary core charge=   -0.000049    0.000000

     The initial density is read from file :
     ./calc.save/charge-density.dat


     negative rho (up, down):  1.209E-02 1.209E-02


     ************************************************************************
     *
     * You are using vdW-DF for exchange-correlation in this calculation.
     * Please cite the following three references that made this development
     * possible:
     *
     *   M. Dion, H. Rydberg, E. Schroder, D. C. Langreth, and
     *   B. I. Lundqvist, Phys. Rev. Lett. 92, 246401 (2004).
     *
     *   T. Thonhauser, V. R. Cooper, S. Li, A. Puzder, P. Hyldgaard, and
     *   D. C. Langreth, Phys. Rev. B 76, 125112 (2007).
     *
     *   G. Roman-Perez and J. M. Soler, Phys. Rev. Lett. 103, 096102 (2009).
     *
     *
     * If you are using vdW-DF2, please also cite:
     *
     *   K. Lee, E. D. Murray, L. Kong, B. I. Lundqvist, and
     *   D. C. Langreth, Phys. Rev. B 82, 081101(R) (2010).
     *
     *
     * If you are calculating the stress with vdW-DF, please also cite:
     *
     *   R. Sabatini, E. Kucukbenli, B. Kolb, T. Thonhauser, and
     *   S. de Gironcoli, J. Phys.: Condens. Matter 24, 424209 (2012).
     *
     ************************************************************************

     Carrying out vdW-DF run using the following parameters:

     Nqs =      20    Nr_points =    1024   r_max =   100.000
     q_mesh =
               0.00001000     0.04494208     0.09755937     0.15916263
               0.23128650     0.31572767     0.41458969     0.53033537
               0.66584808     0.82450364     1.01025438     1.22772762
               1.48234092     1.78043706     2.12944203     2.53805004
               3.01644009     3.57652955     4.23227104     5.00000000

     Gradients computed in reciprocal space

     ************************************************************************


     Starting wfc are  300 randomized atomic wfcs

     total cpu time spent up to now is       71.8 secs

     Self-consistent Calculation

     iteration #  1     ecut=    40.42 Ry     beta=0.10
     Davidson diagonalization with overlap
     ethr =  1.00E-05,  avg # of iterations = 14.6

     negative rho (up, down):  1.209E-02 1.209E-02
 
     Magnetic moment per site:
     atom:    1    charge:    3.1250    magn:   -0.0002    constr:    0.0000
     atom:    2    charge:    1.9480    magn:    0.0000    constr:    0.0000
     atom:    3    charge:    3.1198    magn:    0.0000    constr:    0.0000
     atom:    4    charge:    1.9533    magn:   -0.0001    constr:    0.0000
     atom:    5    charge:    3.1166    magn:    0.0000    constr:    0.0000
     atom:    6    charge:    1.9506    magn:   -0.0001    constr:    0.0000
     atom:    7    charge:    3.1158    magn:    0.0001    constr:    0.0000
     atom:    8    charge:    1.9475    magn:   -0.0001    constr:    0.0000
     atom:    9    charge:    3.1250    magn:   -0.0002    constr:    0.0000
     atom:   10    charge:    1.9481    magn:    0.0000    constr:    0.0000
     atom:   11    charge:    3.1197    magn:    0.0000    constr:    0.0000
     atom:   12    charge:    1.9533    magn:   -0.0001    constr:    0.0000
     atom:   13    charge:    3.1159    magn:    0.0000    constr:    0.0000
     atom:   14    charge:    1.9616    magn:   -0.0001    constr:    0.0000
     atom:   15    charge:    3.1188    magn:    0.0001    constr:    0.0000
     atom:   16    charge:    1.9480    magn:   -0.0001    constr:    0.0000
     atom:   17    charge:    1.9214    magn:    0.0004    constr:    0.0000
     atom:   18    charge:    3.1240    magn:   -0.0001    constr:    0.0000
     atom:   19    charge:    1.9439    magn:   -0.0000    constr:    0.0000
     atom:   20    charge:    1.9501    magn:    0.0000    constr:    0.0000
     atom:   21    charge:    1.9501    magn:    0.0000    constr:    0.0000
     atom:   22    charge:    3.1196    magn:    0.0000    constr:    0.0000
     atom:   23    charge:    1.9595    magn:   -0.0001    constr:    0.0000
     atom:   24    charge:    1.9408    magn:   -0.0001    constr:    0.0000
     atom:   25    charge:    1.9534    magn:   -0.0001    constr:    0.0000
     atom:   26    charge:    3.1145    magn:    0.0001    constr:    0.0000
     atom:   27    charge:    1.9428    magn:   -0.0001    constr:    0.0000
     atom:   28    charge:    1.9546    magn:   -0.0001    constr:    0.0000
     atom:   29    charge:    1.9505    magn:   -0.0001    constr:    0.0000
     atom:   30    charge:    3.1164    magn:    0.0000    constr:    0.0000
     atom:   31    charge:    1.9476    magn:   -0.0000    constr:    0.0000
     atom:   32    charge:    1.9463    magn:   -0.0001    constr:    0.0000
     atom:   33    charge:    1.9214    magn:    0.0004    constr:    0.0000
     atom:   34    charge:    3.1239    magn:   -0.0001    constr:    0.0000
     atom:   35    charge:    1.9439    magn:   -0.0000    constr:    0.0000
     atom:   36    charge:    1.9501    magn:    0.0000    constr:    0.0000
     atom:   37    charge:    1.9501    magn:    0.0000    constr:    0.0000
     atom:   38    charge:    3.1196    magn:    0.0000    constr:    0.0000
     atom:   39    charge:    1.9579    magn:   -0.0001    constr:    0.0000
     atom:   40    charge:    1.9412    magn:   -0.0001    constr:    0.0000
     atom:   41    charge:    1.9534    magn:   -0.0001    constr:    0.0000
     atom:   42    charge:    3.1141    magn:    0.0001    constr:    0.0000
     atom:   43    charge:    1.9442    magn:   -0.0001    constr:    0.0000
     atom:   44    charge:    1.9547    magn:   -0.0001    constr:    0.0000
     atom:   45    charge:    1.9498    magn:   -0.0001    constr:    0.0000
     atom:   46    charge:    3.1167    magn:    0.0000    constr:    0.0000
     atom:   47    charge:    1.9458    magn:   -0.0000    constr:    0.0000
     atom:   48    charge:    1.9481    magn:   -0.0001    constr:    0.0000
     atom:   49    charge:    0.6580    magn:   -0.0001    constr:    0.0000
     atom:   50    charge:    1.9623    magn:   -0.0001    constr:    0.0000
     atom:   51    charge:    0.4028    magn:    0.0000    constr:    0.0000
     atom:   52    charge:    0.4011    magn:    0.0000    constr:    0.0000
     atom:   53    charge:    0.4036    magn:    0.0000    constr:    0.0000
     atom:   54    charge:    0.4048    magn:    0.0000    constr:    0.0000

     total cpu time spent up to now is      844.2 secs

     total energy              =   -3021.44780086 Ry
     Harris-Foulkes estimate   =   -3021.46044879 Ry
     estimated scf accuracy    <       0.08575846 Ry

     total magnetization       =     0.00 Bohr mag/cell
     absolute magnetization    =     0.01 Bohr mag/cell

     iteration #  2     ecut=    40.42 Ry     beta=0.10
     Davidson diagonalization with overlap
     ethr =  2.15E-05,  avg # of iterations =  2.0

     negative rho (up, down):  1.211E-02 1.211E-02
 
     Magnetic moment per site:
     atom:    1    charge:    3.1250    magn:   -0.0001    constr:    0.0000
     atom:    2    charge:    1.9480    magn:    0.0000    constr:    0.0000
     atom:    3    charge:    3.1197    magn:    0.0000    constr:    0.0000
     atom:    4    charge:    1.9533    magn:   -0.0000    constr:    0.0000
     atom:    5    charge:    3.1166    magn:    0.0000    constr:    0.0000
     atom:    6    charge:    1.9506    magn:   -0.0001    constr:    0.0000
     atom:    7    charge:    3.1158    magn:    0.0000    constr:    0.0000
     atom:    8    charge:    1.9469    magn:   -0.0001    constr:    0.0000
     atom:    9    charge:    3.1250    magn:   -0.0001    constr:    0.0000
     atom:   10    charge:    1.9481    magn:    0.0000    constr:    0.0000
     atom:   11    charge:    3.1197    magn:    0.0000    constr:    0.0000
     atom:   12    charge:    1.9533    magn:   -0.0000    constr:    0.0000
     atom:   13    charge:    3.1158    magn:    0.0000    constr:    0.0000
     atom:   14    charge:    1.9616    magn:   -0.0001    constr:    0.0000
     atom:   15    charge:    3.1188    magn:    0.0000    constr:    0.0000
     atom:   16    charge:    1.9487    magn:   -0.0001    constr:    0.0000
     atom:   17    charge:    1.9214    magn:    0.0003    constr:    0.0000
     atom:   18    charge:    3.1239    magn:   -0.0001    constr:    0.0000
     atom:   19    charge:    1.9439    magn:   -0.0000    constr:    0.0000
     atom:   20    charge:    1.9501    magn:    0.0000    constr:    0.0000
     atom:   21    charge:    1.9501    magn:    0.0000    constr:    0.0000
     atom:   22    charge:    3.1196    magn:    0.0000    constr:    0.0000
     atom:   23    charge:    1.9595    magn:   -0.0001    constr:    0.0000
     atom:   24    charge:    1.9408    magn:   -0.0000    constr:    0.0000
     atom:   25    charge:    1.9534    magn:   -0.0000    constr:    0.0000
     atom:   26    charge:    3.1145    magn:    0.0000    constr:    0.0000
     atom:   27    charge:    1.9428    magn:   -0.0000    constr:    0.0000
     atom:   28    charge:    1.9546    magn:   -0.0001    constr:    0.0000
     atom:   29    charge:    1.9505    magn:   -0.0001    constr:    0.0000
     atom:   30    charge:    3.1164    magn:    0.0000    constr:    0.0000
     atom:   31    charge:    1.9476    magn:   -0.0000    constr:    0.0000
     atom:   32    charge:    1.9454    magn:   -0.0001    constr:    0.0000
     atom:   33    charge:    1.9214    magn:    0.0003    constr:    0.0000
     atom:   34    charge:    3.1239    magn:   -0.0001    constr:    0.0000
     atom:   35    charge:    1.9439    magn:   -0.0000    constr:    0.0000
     atom:   36    charge:    1.9501    magn:    0.0000    constr:    0.0000
     atom:   37    charge:    1.9501    magn:    0.0000    constr:    0.0000
     atom:   38    charge:    3.1196    magn:    0.0000    constr:    0.0000
     atom:   39    charge:    1.9579    magn:   -0.0001    constr:    0.0000
     atom:   40    charge:    1.9412    magn:   -0.0000    constr:    0.0000
     atom:   41    charge:    1.9534    magn:   -0.0000    constr:    0.0000
     atom:   42    charge:    3.1141    magn:    0.0000    constr:    0.0000
     atom:   43    charge:    1.9442    magn:   -0.0000    constr:    0.0000
     atom:   44    charge:    1.9547    magn:   -0.0001    constr:    0.0000
     atom:   45    charge:    1.9498    magn:   -0.0001    constr:    0.0000
     atom:   46    charge:    3.1167    magn:    0.0000    constr:    0.0000
     atom:   47    charge:    1.9459    magn:   -0.0000    constr:    0.0000
     atom:   48    charge:    1.9491    magn:   -0.0001    constr:    0.0000
     atom:   49    charge:    0.6577    magn:   -0.0000    constr:    0.0000
     atom:   50    charge:    1.9664    magn:   -0.0000    constr:    0.0000
     atom:   51    charge:    0.4028    magn:    0.0000    constr:    0.0000
     atom:   52    charge:    0.4004    magn:    0.0000    constr:    0.0000
     atom:   53    charge:    0.4025    magn:    0.0000    constr:    0.0000
     atom:   54    charge:    0.4059    magn:    0.0000    constr:    0.0000

     total cpu time spent up to now is     1033.3 secs

     total energy              =   -3021.41298192 Ry
     Harris-Foulkes estimate   =   -3021.44830501 Ry
     estimated scf accuracy    <       0.05969184 Ry

     total magnetization       =     0.00 Bohr mag/cell
     absolute magnetization    =     0.01 Bohr mag/cell

     iteration #  3     ecut=    40.42 Ry     beta=0.10
     Davidson diagonalization with overlap
     ethr =  1.50E-05,  avg # of iterations =  3.0

     negative rho (up, down):  1.211E-02 1.211E-02
 
     Magnetic moment per site:
     atom:    1    charge:    3.1250    magn:   -0.0001    constr:    0.0000
     atom:    2    charge:    1.9480    magn:    0.0000    constr:    0.0000
     atom:    3    charge:    3.1198    magn:    0.0000    constr:    0.0000
     atom:    4    charge:    1.9533    magn:   -0.0000    constr:    0.0000
     atom:    5    charge:    3.1167    magn:    0.0000    constr:    0.0000
     atom:    6    charge:    1.9506    magn:   -0.0001    constr:    0.0000
     atom:    7    charge:    3.1157    magn:    0.0000    constr:    0.0000
     atom:    8    charge:    1.9487    magn:   -0.0001    constr:    0.0000
     atom:    9    charge:    3.1250    magn:   -0.0001    constr:    0.0000
     atom:   10    charge:    1.9481    magn:    0.0000    constr:    0.0000
     atom:   11    charge:    3.1197    magn:    0.0000    constr:    0.0000
     atom:   12    charge:    1.9533    magn:   -0.0000    constr:    0.0000
     atom:   13    charge:    3.1158    magn:    0.0000    constr:    0.0000
     atom:   14    charge:    1.9616    magn:   -0.0001    constr:    0.0000
     atom:   15    charge:    3.1189    magn:    0.0000    constr:    0.0000
     atom:   16    charge:    1.9469    magn:   -0.0001    constr:    0.0000
     atom:   17    charge:    1.9214    magn:    0.0003    constr:    0.0000
     atom:   18    charge:    3.1239    magn:   -0.0001    constr:    0.0000
     atom:   19    charge:    1.9439    magn:   -0.0000    constr:    0.0000
     atom:   20    charge:    1.9500    magn:    0.0000    constr:    0.0000
     atom:   21    charge:    1.9501    magn:    0.0000    constr:    0.0000
     atom:   22    charge:    3.1196    magn:    0.0000    constr:    0.0000
     atom:   23    charge:    1.9595    magn:   -0.0001    constr:    0.0000
     atom:   24    charge:    1.9408    magn:   -0.0000    constr:    0.0000
     atom:   25    charge:    1.9534    magn:   -0.0000    constr:    0.0000
     atom:   26    charge:    3.1145    magn:    0.0000    constr:    0.0000
     atom:   27    charge:    1.9428    magn:   -0.0000    constr:    0.0000
     atom:   28    charge:    1.9547    magn:   -0.0000    constr:    0.0000
     atom:   29    charge:    1.9505    magn:   -0.0001    constr:    0.0000
     atom:   30    charge:    3.1172    magn:    0.0000    constr:    0.0000
     atom:   31    charge:    1.9475    magn:   -0.0000    constr:    0.0000
     atom:   32    charge:    1.9476    magn:   -0.0001    constr:    0.0000
     atom:   33    charge:    1.9214    magn:    0.0003    constr:    0.0000
     atom:   34    charge:    3.1239    magn:   -0.0001    constr:    0.0000
     atom:   35    charge:    1.9439    magn:   -0.0000    constr:    0.0000
     atom:   36    charge:    1.9500    magn:    0.0000    constr:    0.0000
     atom:   37    charge:    1.9501    magn:    0.0000    constr:    0.0000
     atom:   38    charge:    3.1196    magn:    0.0000    constr:    0.0000
     atom:   39    charge:    1.9579    magn:   -0.0001    constr:    0.0000
     atom:   40    charge:    1.9412    magn:   -0.0000    constr:    0.0000
     atom:   41    charge:    1.9534    magn:   -0.0000    constr:    0.0000
     atom:   42    charge:    3.1141    magn:    0.0000    constr:    0.0000
     atom:   43    charge:    1.9443    magn:   -0.0000    constr:    0.0000
     atom:   44    charge:    1.9546    magn:   -0.0000    constr:    0.0000
     atom:   45    charge:    1.9498    magn:   -0.0001    constr:    0.0000
     atom:   46    charge:    3.1160    magn:    0.0000    constr:    0.0000
     atom:   47    charge:    1.9460    magn:   -0.0000    constr:    0.0000
     atom:   48    charge:    1.9469    magn:   -0.0001    constr:    0.0000
     atom:   49    charge:    0.6578    magn:   -0.0000    constr:    0.0000
     atom:   50    charge:    1.9669    magn:   -0.0000    constr:    0.0000
     atom:   51    charge:    0.4028    magn:    0.0000    constr:    0.0000
     atom:   52    charge:    0.4004    magn:    0.0000    constr:    0.0000
     atom:   53    charge:    0.4028    magn:    0.0000    constr:    0.0000
     atom:   54    charge:    0.4056    magn:    0.0000    constr:    0.0000

     total cpu time spent up to now is     1245.9 secs

     total energy              =   -3021.41960065 Ry
     Harris-Foulkes estimate   =   -3021.42121042 Ry
     estimated scf accuracy    <       0.00394333 Ry

     total magnetization       =     0.00 Bohr mag/cell
     absolute magnetization    =     0.00 Bohr mag/cell

     iteration #  4     ecut=    40.42 Ry     beta=0.10
     Davidson diagonalization with overlap
     ethr =  9.91E-07,  avg # of iterations =  5.5

     negative rho (up, down):  1.211E-02 1.211E-02
 
     Magnetic moment per site:
     atom:    1    charge:    3.1250    magn:   -0.0001    constr:    0.0000
     atom:    2    charge:    1.9480    magn:    0.0000    constr:    0.0000
     atom:    3    charge:    3.1198    magn:    0.0000    constr:    0.0000
     atom:    4    charge:    1.9533    magn:   -0.0000    constr:    0.0000
     atom:    5    charge:    3.1166    magn:    0.0000    constr:    0.0000
     atom:    6    charge:    1.9506    magn:   -0.0000    constr:    0.0000
     atom:    7    charge:    3.1157    magn:    0.0000    constr:    0.0000
     atom:    8    charge:    1.9486    magn:   -0.0000    constr:    0.0000
     atom:    9    charge:    3.1250    magn:   -0.0001    constr:    0.0000
     atom:   10    charge:    1.9481    magn:    0.0000    constr:    0.0000
     atom:   11    charge:    3.1197    magn:    0.0000    constr:    0.0000
     atom:   12    charge:    1.9533    magn:   -0.0000    constr:    0.0000
     atom:   13    charge:    3.1158    magn:    0.0000    constr:    0.0000
     atom:   14    charge:    1.9616    magn:   -0.0001    constr:    0.0000
     atom:   15    charge:    3.1189    magn:    0.0000    constr:    0.0000
     atom:   16    charge:    1.9470    magn:   -0.0000    constr:    0.0000
     atom:   17    charge:    1.9214    magn:    0.0003    constr:    0.0000
     atom:   18    charge:    3.1239    magn:   -0.0000    constr:    0.0000
     atom:   19    charge:    1.9439    magn:   -0.0000    constr:    0.0000
     atom:   20    charge:    1.9500    magn:    0.0000    constr:    0.0000
     atom:   21    charge:    1.9500    magn:    0.0000    constr:    0.0000
     atom:   22    charge:    3.1196    magn:    0.0000    constr:    0.0000
     atom:   23    charge:    1.9595    magn:   -0.0000    constr:    0.0000
     atom:   24    charge:    1.9408    magn:   -0.0000    constr:    0.0000
     atom:   25    charge:    1.9534    magn:   -0.0000    constr:    0.0000
     atom:   26    charge:    3.1145    magn:    0.0000    constr:    0.0000
     atom:   27    charge:    1.9428    magn:   -0.0000    constr:    0.0000
     atom:   28    charge:    1.9546    magn:   -0.0000    constr:    0.0000
     atom:   29    charge:    1.9505    magn:   -0.0001    constr:    0.0000
     atom:   30    charge:    3.1168    magn:    0.0000    constr:    0.0000
     atom:   31    charge:    1.9476    magn:   -0.0000    constr:    0.0000
     atom:   32    charge:    1.9476    magn:   -0.0000    constr:    0.0000
     atom:   33    charge:    1.9214    magn:    0.0003    constr:    0.0000
     atom:   34    charge:    3.1239    magn:   -0.0000    constr:    0.0000
     atom:   35    charge:    1.9439    magn:   -0.0000    constr:    0.0000
     atom:   36    charge:    1.9500    magn:    0.0000    constr:    0.0000
     atom:   37    charge:    1.9500    magn:    0.0000    constr:    0.0000
     atom:   38    charge:    3.1196    magn:    0.0000    constr:    0.0000
     atom:   39    charge:    1.9579    magn:   -0.0000    constr:    0.0000
     atom:   40    charge:    1.9412    magn:   -0.0000    constr:    0.0000
     atom:   41    charge:    1.9534    magn:   -0.0000    constr:    0.0000
     atom:   42    charge:    3.1141    magn:    0.0000    constr:    0.0000
     atom:   43    charge:    1.9442    magn:   -0.0000    constr:    0.0000
     atom:   44    charge:    1.9547    magn:   -0.0000    constr:    0.0000
     atom:   45    charge:    1.9498    magn:   -0.0000    constr:    0.0000
     atom:   46    charge:    3.1163    magn:    0.0000    constr:    0.0000
     atom:   47    charge:    1.9459    magn:   -0.0000    constr:    0.0000
     atom:   48    charge:    1.9469    magn:   -0.0000    constr:    0.0000
     atom:   49    charge:    0.6579    magn:   -0.0000    constr:    0.0000
     atom:   50    charge:    1.9669    magn:   -0.0000    constr:    0.0000
     atom:   51    charge:    0.4028    magn:    0.0000    constr:    0.0000
     atom:   52    charge:    0.4004    magn:    0.0000    constr:    0.0000
     atom:   53    charge:    0.4031    magn:    0.0000    constr:    0.0000
     atom:   54    charge:    0.4053    magn:    0.0000    constr:    0.0000

     total cpu time spent up to now is     1493.3 secs

     total energy              =   -3021.42001176 Ry
     Harris-Foulkes estimate   =   -3021.42008686 Ry
     estimated scf accuracy    <       0.00036093 Ry

     total magnetization       =     0.00 Bohr mag/cell
     absolute magnetization    =     0.00 Bohr mag/cell

     iteration #  5     ecut=    40.42 Ry     beta=0.10
     Davidson diagonalization with overlap
     ethr =  9.07E-08,  avg # of iterations =  2.5

     negative rho (up, down):  1.211E-02 1.211E-02
 
     Magnetic moment per site:
     atom:    1    charge:    3.1250    magn:   -0.0001    constr:    0.0000
     atom:    2    charge:    1.9480    magn:    0.0000    constr:    0.0000
     atom:    3    charge:    3.1198    magn:    0.0000    constr:    0.0000
     atom:    4    charge:    1.9533    magn:   -0.0000    constr:    0.0000
     atom:    5    charge:    3.1166    magn:    0.0000    constr:    0.0000
     atom:    6    charge:    1.9506    magn:   -0.0000    constr:    0.0000
     atom:    7    charge:    3.1157    magn:    0.0000    constr:    0.0000
     atom:    8    charge:    1.9485    magn:   -0.0000    constr:    0.0000
     atom:    9    charge:    3.1250    magn:   -0.0001    constr:    0.0000
     atom:   10    charge:    1.9481    magn:    0.0000    constr:    0.0000
     atom:   11    charge:    3.1197    magn:    0.0000    constr:    0.0000
     atom:   12    charge:    1.9533    magn:   -0.0000    constr:    0.0000
     atom:   13    charge:    3.1159    magn:    0.0000    constr:    0.0000
     atom:   14    charge:    1.9616    magn:   -0.0000    constr:    0.0000
     atom:   15    charge:    3.1188    magn:    0.0000    constr:    0.0000
     atom:   16    charge:    1.9471    magn:   -0.0000    constr:    0.0000
     atom:   17    charge:    1.9214    magn:    0.0002    constr:    0.0000
     atom:   18    charge:    3.1239    magn:   -0.0000    constr:    0.0000
     atom:   19    charge:    1.9439    magn:   -0.0000    constr:    0.0000
     atom:   20    charge:    1.9500    magn:    0.0000    constr:    0.0000
     atom:   21    charge:    1.9500    magn:    0.0000    constr:    0.0000
     atom:   22    charge:    3.1196    magn:    0.0000    constr:    0.0000
     atom:   23    charge:    1.9595    magn:   -0.0000    constr:    0.0000
     atom:   24    charge:    1.9408    magn:   -0.0000    constr:    0.0000
     atom:   25    charge:    1.9534    magn:   -0.0000    constr:    0.0000
     atom:   26    charge:    3.1145    magn:    0.0000    constr:    0.0000
     atom:   27    charge:    1.9428    magn:   -0.0000    constr:    0.0000
     atom:   28    charge:    1.9546    magn:   -0.0000    constr:    0.0000
     atom:   29    charge:    1.9505    magn:   -0.0000    constr:    0.0000
     atom:   30    charge:    3.1166    magn:    0.0000    constr:    0.0000
     atom:   31    charge:    1.9476    magn:   -0.0000    constr:    0.0000
     atom:   32    charge:    1.9475    magn:   -0.0000    constr:    0.0000
     atom:   33    charge:    1.9214    magn:    0.0002    constr:    0.0000
     atom:   34    charge:    3.1239    magn:   -0.0000    constr:    0.0000
     atom:   35    charge:    1.9439    magn:   -0.0000    constr:    0.0000
     atom:   36    charge:    1.9500    magn:    0.0000    constr:    0.0000
     atom:   37    charge:    1.9500    magn:    0.0000    constr:    0.0000
     atom:   38    charge:    3.1196    magn:    0.0000    constr:    0.0000
     atom:   39    charge:    1.9579    magn:   -0.0000    constr:    0.0000
     atom:   40    charge:    1.9412    magn:   -0.0000    constr:    0.0000
     atom:   41    charge:    1.9534    magn:   -0.0000    constr:    0.0000
     atom:   42    charge:    3.1141    magn:    0.0000    constr:    0.0000
     atom:   43    charge:    1.9442    magn:   -0.0000    constr:    0.0000
     atom:   44    charge:    1.9547    magn:   -0.0000    constr:    0.0000
     atom:   45    charge:    1.9498    magn:   -0.0000    constr:    0.0000
     atom:   46    charge:    3.1165    magn:    0.0000    constr:    0.0000
     atom:   47    charge:    1.9458    magn:   -0.0000    constr:    0.0000
     atom:   48    charge:    1.9470    magn:   -0.0000    constr:    0.0000
     atom:   49    charge:    0.6580    magn:   -0.0000    constr:    0.0000
     atom:   50    charge:    1.9668    magn:   -0.0000    constr:    0.0000
     atom:   51    charge:    0.4028    magn:    0.0000    constr:    0.0000
     atom:   52    charge:    0.4005    magn:    0.0000    constr:    0.0000
     atom:   53    charge:    0.4034    magn:    0.0000    constr:    0.0000
     atom:   54    charge:    0.4050    magn:    0.0000    constr:    0.0000

     total cpu time spent up to now is     1692.6 secs

     total energy              =   -3021.41999072 Ry
     Harris-Foulkes estimate   =   -3021.42003456 Ry
     estimated scf accuracy    <       0.00017100 Ry

     total magnetization       =     0.00 Bohr mag/cell
     absolute magnetization    =     0.00 Bohr mag/cell

     iteration #  6     ecut=    40.42 Ry     beta=0.10
     Davidson diagonalization with overlap
     ethr =  4.30E-08,  avg # of iterations =  3.0

     negative rho (up, down):  1.211E-02 1.211E-02
 
     Magnetic moment per site:
     atom:    1    charge:    3.1250    magn:   -0.0001    constr:    0.0000
     atom:    2    charge:    1.9480    magn:    0.0000    constr:    0.0000
     atom:    3    charge:    3.1198    magn:    0.0000    constr:    0.0000
     atom:    4    charge:    1.9533    magn:   -0.0000    constr:    0.0000
     atom:    5    charge:    3.1166    magn:    0.0000    constr:    0.0000
     atom:    6    charge:    1.9506    magn:   -0.0000    constr:    0.0000
     atom:    7    charge:    3.1157    magn:    0.0000    constr:    0.0000
     atom:    8    charge:    1.9481    magn:   -0.0000    constr:    0.0000
     atom:    9    charge:    3.1250    magn:   -0.0001    constr:    0.0000
     atom:   10    charge:    1.9481    magn:    0.0000    constr:    0.0000
     atom:   11    charge:    3.1197    magn:    0.0000    constr:    0.0000
     atom:   12    charge:    1.9533    magn:   -0.0000    constr:    0.0000
     atom:   13    charge:    3.1158    magn:    0.0000    constr:    0.0000
     atom:   14    charge:    1.9616    magn:   -0.0000    constr:    0.0000
     atom:   15    charge:    3.1188    magn:    0.0000    constr:    0.0000
     atom:   16    charge:    1.9475    magn:   -0.0000    constr:    0.0000
     atom:   17    charge:    1.9214    magn:    0.0002    constr:    0.0000
     atom:   18    charge:    3.1239    magn:   -0.0000    constr:    0.0000
     atom:   19    charge:    1.9439    magn:   -0.0000    constr:    0.0000
     atom:   20    charge:    1.9500    magn:    0.0000    constr:    0.0000
     atom:   21    charge:    1.9500    magn:    0.0000    constr:    0.0000
     atom:   22    charge:    3.1196    magn:    0.0000    constr:    0.0000
     atom:   23    charge:    1.9595    magn:   -0.0000    constr:    0.0000
     atom:   24    charge:    1.9408    magn:   -0.0000    constr:    0.0000
     atom:   25    charge:    1.9534    magn:   -0.0000    constr:    0.0000
     atom:   26    charge:    3.1145    magn:    0.0000    constr:    0.0000
     atom:   27    charge:    1.9428    magn:   -0.0000    constr:    0.0000
     atom:   28    charge:    1.9546    magn:   -0.0000    constr:    0.0000
     atom:   29    charge:    1.9505    magn:   -0.0000    constr:    0.0000
     atom:   30    charge:    3.1167    magn:    0.0000    constr:    0.0000
     atom:   31    charge:    1.9475    magn:   -0.0000    constr:    0.0000
     atom:   32    charge:    1.9470    magn:   -0.0000    constr:    0.0000
     atom:   33    charge:    1.9214    magn:    0.0002    constr:    0.0000
     atom:   34    charge:    3.1239    magn:   -0.0000    constr:    0.0000
     atom:   35    charge:    1.9439    magn:   -0.0000    constr:    0.0000
     atom:   36    charge:    1.9500    magn:    0.0000    constr:    0.0000
     atom:   37    charge:    1.9500    magn:    0.0000    constr:    0.0000
     atom:   38    charge:    3.1196    magn:    0.0000    constr:    0.0000
     atom:   39    charge:    1.9579    magn:   -0.0000    constr:    0.0000
     atom:   40    charge:    1.9412    magn:   -0.0000    constr:    0.0000
     atom:   41    charge:    1.9534    magn:   -0.0000    constr:    0.0000
     atom:   42    charge:    3.1141    magn:    0.0000    constr:    0.0000
     atom:   43    charge:    1.9442    magn:   -0.0000    constr:    0.0000
     atom:   44    charge:    1.9547    magn:   -0.0000    constr:    0.0000
     atom:   45    charge:    1.9498    magn:   -0.0000    constr:    0.0000
     atom:   46    charge:    3.1165    magn:    0.0000    constr:    0.0000
     atom:   47    charge:    1.9459    magn:   -0.0000    constr:    0.0000
     atom:   48    charge:    1.9475    magn:   -0.0000    constr:    0.0000
     atom:   49    charge:    0.6581    magn:   -0.0000    constr:    0.0000
     atom:   50    charge:    1.9669    magn:   -0.0000    constr:    0.0000
     atom:   51    charge:    0.4028    magn:    0.0000    constr:    0.0000
     atom:   52    charge:    0.4006    magn:    0.0000    constr:    0.0000
     atom:   53    charge:    0.4038    magn:    0.0000    constr:    0.0000
     atom:   54    charge:    0.4046    magn:    0.0000    constr:    0.0000

     total cpu time spent up to now is     1898.7 secs

     total energy              =   -3021.41998428 Ry
     Harris-Foulkes estimate   =   -3021.41999981 Ry
     estimated scf accuracy    <       0.00006157 Ry

     total magnetization       =     0.00 Bohr mag/cell
     absolute magnetization    =     0.00 Bohr mag/cell

     iteration #  7     ecut=    40.42 Ry     beta=0.10
     Davidson diagonalization with overlap
     ethr =  1.55E-08,  avg # of iterations =  3.2

     negative rho (up, down):  1.210E-02 1.210E-02
 
     Magnetic moment per site:
     atom:    1    charge:    3.1250    magn:   -0.0001    constr:    0.0000
     atom:    2    charge:    1.9480    magn:    0.0000    constr:    0.0000
     atom:    3    charge:    3.1198    magn:    0.0000    constr:    0.0000
     atom:    4    charge:    1.9533    magn:   -0.0000    constr:    0.0000
     atom:    5    charge:    3.1166    magn:    0.0000    constr:    0.0000
     atom:    6    charge:    1.9506    magn:   -0.0000    constr:    0.0000
     atom:    7    charge:    3.1157    magn:    0.0000    constr:    0.0000
     atom:    8    charge:    1.9481    magn:   -0.0000    constr:    0.0000
     atom:    9    charge:    3.1250    magn:   -0.0001    constr:    0.0000
     atom:   10    charge:    1.9481    magn:    0.0000    constr:    0.0000
     atom:   11    charge:    3.1197    magn:    0.0000    constr:    0.0000
     atom:   12    charge:    1.9533    magn:   -0.0000    constr:    0.0000
     atom:   13    charge:    3.1158    magn:    0.0000    constr:    0.0000
     atom:   14    charge:    1.9616    magn:   -0.0000    constr:    0.0000
     atom:   15    charge:    3.1188    magn:    0.0000    constr:    0.0000
     atom:   16    charge:    1.9475    magn:   -0.0000    constr:    0.0000
     atom:   17    charge:    1.9214    magn:    0.0001    constr:    0.0000
     atom:   18    charge:    3.1239    magn:   -0.0000    constr:    0.0000
     atom:   19    charge:    1.9439    magn:   -0.0000    constr:    0.0000
     atom:   20    charge:    1.9500    magn:    0.0000    constr:    0.0000
     atom:   21    charge:    1.9500    magn:    0.0000    constr:    0.0000
     atom:   22    charge:    3.1196    magn:    0.0000    constr:    0.0000
     atom:   23    charge:    1.9595    magn:   -0.0000    constr:    0.0000
     atom:   24    charge:    1.9408    magn:   -0.0000    constr:    0.0000
     atom:   25    charge:    1.9534    magn:   -0.0000    constr:    0.0000
     atom:   26    charge:    3.1145    magn:    0.0000    constr:    0.0000
     atom:   27    charge:    1.9428    magn:   -0.0000    constr:    0.0000
     atom:   28    charge:    1.9546    magn:   -0.0000    constr:    0.0000
     atom:   29    charge:    1.9505    magn:   -0.0000    constr:    0.0000
     atom:   30    charge:    3.1166    magn:    0.0000    constr:    0.0000
     atom:   31    charge:    1.9476    magn:   -0.0000    constr:    0.0000
     atom:   32    charge:    1.9470    magn:   -0.0000    constr:    0.0000
     atom:   33    charge:    1.9214    magn:    0.0001    constr:    0.0000
     atom:   34    charge:    3.1239    magn:   -0.0000    constr:    0.0000
     atom:   35    charge:    1.9439    magn:   -0.0000    constr:    0.0000
     atom:   36    charge:    1.9500    magn:    0.0000    constr:    0.0000
     atom:   37    charge:    1.9500    magn:    0.0000    constr:    0.0000
     atom:   38    charge:    3.1196    magn:    0.0000    constr:    0.0000
     atom:   39    charge:    1.9579    magn:   -0.0000    constr:    0.0000
     atom:   40    charge:    1.9412    magn:   -0.0000    constr:    0.0000
     atom:   41    charge:    1.9534    magn:   -0.0000    constr:    0.0000
     atom:   42    charge:    3.1141    magn:    0.0000    constr:    0.0000
     atom:   43    charge:    1.9442    magn:   -0.0000    constr:    0.0000
     atom:   44    charge:    1.9547    magn:   -0.0000    constr:    0.0000
     atom:   45    charge:    1.9498    magn:   -0.0000    constr:    0.0000
     atom:   46    charge:    3.1165    magn:    0.0000    constr:    0.0000
     atom:   47    charge:    1.9459    magn:   -0.0000    constr:    0.0000
     atom:   48    charge:    1.9475    magn:   -0.0000    constr:    0.0000
     atom:   49    charge:    0.6581    magn:   -0.0000    constr:    0.0000
     atom:   50    charge:    1.9671    magn:   -0.0000    constr:    0.0000
     atom:   51    charge:    0.4028    magn:    0.0000    constr:    0.0000
     atom:   52    charge:    0.4006    magn:    0.0000    constr:    0.0000
     atom:   53    charge:    0.4037    magn:    0.0000    constr:    0.0000
     atom:   54    charge:    0.4047    magn:    0.0000    constr:    0.0000

     total cpu time spent up to now is     2115.2 secs

     total energy              =   -3021.41999182 Ry
     Harris-Foulkes estimate   =   -3021.41999105 Ry
     estimated scf accuracy    <       0.00000675 Ry

     total magnetization       =     0.00 Bohr mag/cell
     absolute magnetization    =     0.00 Bohr mag/cell

     iteration #  8     ecut=    40.42 Ry     beta=0.10
     Davidson diagonalization with overlap
     ethr =  1.70E-09,  avg # of iterations =  2.0

     negative rho (up, down):  1.210E-02 1.210E-02
 
     Magnetic moment per site:
     atom:    1    charge:    3.1250    magn:   -0.0000    constr:    0.0000
     atom:    2    charge:    1.9480    magn:    0.0000    constr:    0.0000
     atom:    3    charge:    3.1198    magn:    0.0000    constr:    0.0000
     atom:    4    charge:    1.9533    magn:   -0.0000    constr:    0.0000
     atom:    5    charge:    3.1166    magn:    0.0000    constr:    0.0000
     atom:    6    charge:    1.9506    magn:   -0.0000    constr:    0.0000
     atom:    7    charge:    3.1157    magn:    0.0000    constr:    0.0000
     atom:    8    charge:    1.9481    magn:   -0.0000    constr:    0.0000
     atom:    9    charge:    3.1250    magn:   -0.0000    constr:    0.0000
     atom:   10    charge:    1.9481    magn:    0.0000    constr:    0.0000
     atom:   11    charge:    3.1197    magn:    0.0000    constr:    0.0000
     atom:   12    charge:    1.9533    magn:   -0.0000    constr:    0.0000
     atom:   13    charge:    3.1158    magn:    0.0000    constr:    0.0000
     atom:   14    charge:    1.9616    magn:   -0.0000    constr:    0.0000
     atom:   15    charge:    3.1188    magn:    0.0000    constr:    0.0000
     atom:   16    charge:    1.9475    magn:   -0.0000    constr:    0.0000
     atom:   17    charge:    1.9214    magn:    0.0001    constr:    0.0000
     atom:   18    charge:    3.1239    magn:   -0.0000    constr:    0.0000
     atom:   19    charge:    1.9439    magn:   -0.0000    constr:    0.0000
     atom:   20    charge:    1.9500    magn:    0.0000    constr:    0.0000
     atom:   21    charge:    1.9500    magn:    0.0000    constr:    0.0000
     atom:   22    charge:    3.1196    magn:    0.0000    constr:    0.0000
     atom:   23    charge:    1.9595    magn:   -0.0000    constr:    0.0000
     atom:   24    charge:    1.9408    magn:   -0.0000    constr:    0.0000
     atom:   25    charge:    1.9534    magn:   -0.0000    constr:    0.0000
     atom:   26    charge:    3.1145    magn:    0.0000    constr:    0.0000
     atom:   27    charge:    1.9428    magn:   -0.0000    constr:    0.0000
     atom:   28    charge:    1.9546    magn:   -0.0000    constr:    0.0000
     atom:   29    charge:    1.9505    magn:   -0.0000    constr:    0.0000
     atom:   30    charge:    3.1167    magn:    0.0000    constr:    0.0000
     atom:   31    charge:    1.9476    magn:   -0.0000    constr:    0.0000
     atom:   32    charge:    1.9470    magn:   -0.0000    constr:    0.0000
     atom:   33    charge:    1.9214    magn:    0.0001    constr:    0.0000
     atom:   34    charge:    3.1239    magn:   -0.0000    constr:    0.0000
     atom:   35    charge:    1.9439    magn:   -0.0000    constr:    0.0000
     atom:   36    charge:    1.9500    magn:    0.0000    constr:    0.0000
     atom:   37    charge:    1.9500    magn:    0.0000    constr:    0.0000
     atom:   38    charge:    3.1196    magn:    0.0000    constr:    0.0000
     atom:   39    charge:    1.9579    magn:   -0.0000    constr:    0.0000
     atom:   40    charge:    1.9412    magn:   -0.0000    constr:    0.0000
     atom:   41    charge:    1.9534    magn:   -0.0000    constr:    0.0000
     atom:   42    charge:    3.1141    magn:    0.0000    constr:    0.0000
     atom:   43    charge:    1.9442    magn:   -0.0000    constr:    0.0000
     atom:   44    charge:    1.9547    magn:   -0.0000    constr:    0.0000
     atom:   45    charge:    1.9498    magn:   -0.0000    constr:    0.0000
     atom:   46    charge:    3.1165    magn:    0.0000    constr:    0.0000
     atom:   47    charge:    1.9459    magn:   -0.0000    constr:    0.0000
     atom:   48    charge:    1.9475    magn:   -0.0000    constr:    0.0000
     atom:   49    charge:    0.6580    magn:   -0.0000    constr:    0.0000
     atom:   50    charge:    1.9673    magn:   -0.0000    constr:    0.0000
     atom:   51    charge:    0.4028    magn:    0.0000    constr:    0.0000
     atom:   52    charge:    0.4006    magn:    0.0000    constr:    0.0000
     atom:   53    charge:    0.4036    magn:    0.0000    constr:    0.0000
     atom:   54    charge:    0.4048    magn:    0.0000    constr:    0.0000

     total cpu time spent up to now is     2311.3 secs

     total energy              =   -3021.41999218 Ry
     Harris-Foulkes estimate   =   -3021.41999207 Ry
     estimated scf accuracy    <       0.00000296 Ry

     total magnetization       =     0.00 Bohr mag/cell
     absolute magnetization    =     0.00 Bohr mag/cell

     iteration #  9     ecut=    40.42 Ry     beta=0.10
     Davidson diagonalization with overlap
     ethr =  7.45E-10,  avg # of iterations =  3.0

     negative rho (up, down):  1.209E-02 1.209E-02
 
     Magnetic moment per site:
     atom:    1    charge:    3.1250    magn:   -0.0000    constr:    0.0000
     atom:    2    charge:    1.9480    magn:    0.0000    constr:    0.0000
     atom:    3    charge:    3.1198    magn:    0.0000    constr:    0.0000
     atom:    4    charge:    1.9533    magn:   -0.0000    constr:    0.0000
     atom:    5    charge:    3.1166    magn:    0.0000    constr:    0.0000
     atom:    6    charge:    1.9506    magn:   -0.0000    constr:    0.0000
     atom:    7    charge:    3.1157    magn:    0.0000    constr:    0.0000
     atom:    8    charge:    1.9481    magn:   -0.0000    constr:    0.0000
     atom:    9    charge:    3.1250    magn:   -0.0000    constr:    0.0000
     atom:   10    charge:    1.9481    magn:    0.0000    constr:    0.0000
     atom:   11    charge:    3.1197    magn:    0.0000    constr:    0.0000
     atom:   12    charge:    1.9533    magn:   -0.0000    constr:    0.0000
     atom:   13    charge:    3.1159    magn:    0.0000    constr:    0.0000
     atom:   14    charge:    1.9616    magn:   -0.0000    constr:    0.0000
     atom:   15    charge:    3.1189    magn:    0.0000    constr:    0.0000
     atom:   16    charge:    1.9475    magn:   -0.0000    constr:    0.0000
     atom:   17    charge:    1.9214    magn:    0.0000    constr:    0.0000
     atom:   18    charge:    3.1239    magn:   -0.0000    constr:    0.0000
     atom:   19    charge:    1.9439    magn:   -0.0000    constr:    0.0000
     atom:   20    charge:    1.9500    magn:    0.0000    constr:    0.0000
     atom:   21    charge:    1.9500    magn:    0.0000    constr:    0.0000
     atom:   22    charge:    3.1196    magn:    0.0000    constr:    0.0000
     atom:   23    charge:    1.9595    magn:   -0.0000    constr:    0.0000
     atom:   24    charge:    1.9408    magn:   -0.0000    constr:    0.0000
     atom:   25    charge:    1.9534    magn:   -0.0000    constr:    0.0000
     atom:   26    charge:    3.1145    magn:    0.0000    constr:    0.0000
     atom:   27    charge:    1.9428    magn:   -0.0000    constr:    0.0000
     atom:   28    charge:    1.9546    magn:   -0.0000    constr:    0.0000
     atom:   29    charge:    1.9505    magn:   -0.0000    constr:    0.0000
     atom:   30    charge:    3.1166    magn:    0.0000    constr:    0.0000
     atom:   31    charge:    1.9475    magn:   -0.0000    constr:    0.0000
     atom:   32    charge:    1.9470    magn:   -0.0000    constr:    0.0000
     atom:   33    charge:    1.9214    magn:    0.0000    constr:    0.0000
     atom:   34    charge:    3.1239    magn:   -0.0000    constr:    0.0000
     atom:   35    charge:    1.9439    magn:   -0.0000    constr:    0.0000
     atom:   36    charge:    1.9500    magn:    0.0000    constr:    0.0000
     atom:   37    charge:    1.9500    magn:    0.0000    constr:    0.0000
     atom:   38    charge:    3.1196    magn:    0.0000    constr:    0.0000
     atom:   39    charge:    1.9579    magn:   -0.0000    constr:    0.0000
     atom:   40    charge:    1.9412    magn:   -0.0000    constr:    0.0000
     atom:   41    charge:    1.9534    magn:   -0.0000    constr:    0.0000
     atom:   42    charge:    3.1141    magn:    0.0000    constr:    0.0000
     atom:   43    charge:    1.9442    magn:   -0.0000    constr:    0.0000
     atom:   44    charge:    1.9547    magn:   -0.0000    constr:    0.0000
     atom:   45    charge:    1.9498    magn:   -0.0000    constr:    0.0000
     atom:   46    charge:    3.1165    magn:    0.0000    constr:    0.0000
     atom:   47    charge:    1.9459    magn:   -0.0000    constr:    0.0000
     atom:   48    charge:    1.9474    magn:   -0.0000    constr:    0.0000
     atom:   49    charge:    0.6581    magn:   -0.0000    constr:    0.0000
     atom:   50    charge:    1.9670    magn:   -0.0000    constr:    0.0000
     atom:   51    charge:    0.4028    magn:    0.0000    constr:    0.0000
     atom:   52    charge:    0.4007    magn:    0.0000    constr:    0.0000
     atom:   53    charge:    0.4036    magn:    0.0000    constr:    0.0000
     atom:   54    charge:    0.4048    magn:    0.0000    constr:    0.0000

     total cpu time spent up to now is     2520.9 secs

     End of self-consistent calculation

 ------ SPIN UP ------------


          k = 0.0000 0.0000 0.0000 ( 34665 PWs)   bands (ev):

   -57.6984 -57.6635 -57.3174 -57.2811 -57.2319 -57.1095 -57.0731 -57.0722
   -57.0508 -57.0374 -56.9897 -56.9542 -56.7303 -56.6928 -56.1490 -56.1138
   -34.1345 -33.9807 -33.9521 -33.8994 -33.8696 -33.8051 -33.7447 -33.6528
   -33.6180 -33.6049 -33.5674 -33.5404 -33.5183 -33.5073 -33.4893 -33.4848
   -33.4641 -33.4540 -33.4310 -33.3985 -33.3238 -33.2917 -33.2715 -33.2622
   -33.2547 -33.2539 -33.2428 -33.2428 -33.2368 -33.2293 -33.2290 -33.2122
   -33.1800 -33.1797 -33.1744 -33.1405 -33.1179 -32.9964 -32.9783 -32.9571
   -32.9079 -32.8050 -32.5668 -32.5013 -32.4753 -32.3710 -32.2794 -32.1710
   -20.2928 -18.0123 -17.8410 -17.5567 -17.4616 -17.3724 -17.2514 -17.0773
   -17.0660 -16.9742 -16.9385 -16.8839 -16.7837 -16.7772 -16.7290 -16.7071
   -16.7030 -16.6623 -16.6108 -16.6044 -16.5357 -16.4153 -16.4026 -16.3978
   -16.3212 -16.2675 -16.1943 -16.1672 -16.1496 -15.9791 -15.9296 -14.7334
   -14.6497 -11.4621  -7.2355  -5.4722  -5.3951  -5.3145  -5.2058  -5.1973
    -5.1453  -5.1263  -4.8389  -4.8168  -4.4717  -4.4426  -4.3590  -4.3551
    -4.3215  -4.2322  -4.0896  -4.0607  -4.0555  -4.0175  -3.9990  -3.9909
    -3.9603  -3.9516  -3.9504  -3.8397  -3.7882  -3.7652  -3.7364  -3.7185
    -3.6322  -3.6167  -3.5869  -3.5775  -3.5196  -3.5075  -3.4085  -3.3934
    -3.3732  -3.2716  -3.2373  -3.1913  -3.0133  -2.9353  -2.8785  -2.8338
    -2.6946  -2.6069  -2.5896  -2.5798  -2.5755  -2.5680  -2.4316  -2.4141
    -2.3357  -2.2689  -2.2470  -2.2045  -2.2001  -2.1661  -2.1384  -2.0925
    -2.0474  -2.0290  -2.0199  -1.8853  -1.8656  -1.7620  -1.7359  -1.6239
    -1.5427  -1.5409  -1.4905  -1.4802  -1.4632  -1.4232  -1.3231  -1.3091
    -1.3021  -1.2795  -1.2425  -1.1354  -1.0863  -1.0797  -1.0669  -1.0199
    -0.9541  -0.9152  -0.8197  -0.7649  -0.6101  -0.5871  -0.5689  -0.4790
    -0.3761  -0.2418  -0.0844  -0.0262   0.1317   0.2486   0.2622   1.6430
     1.6755   1.9860   2.0024   2.0658   2.0956   2.2053   2.2443   2.2874
     2.4303   2.4977   2.5263   2.5311   2.5424   2.6314   2.6494   2.6576
     2.7157   2.8000   2.8275   2.8394   2.9114   3.0000   3.0337   3.0996
     3.1056   3.1146   3.1614   3.2025   3.2086   3.2269   3.2402   3.2518
     3.2610   3.2892   3.3973   3.4320   3.4571   3.4666   3.5288   3.5860
     3.6536   3.6953   3.8082   3.9812   4.0165   4.0921   4.1804   4.3208
     4.3390   4.3922   4.5861   4.5997   4.8107   4.8391   5.0875   5.1671
     5.2461   5.3311   5.4790   5.5179   5.5274   5.5937   5.6783   5.7124
     5.8002   5.8657   5.8769   5.8867   5.9550   6.0383   6.0484   6.0726
     6.1449   6.2295   6.2437   6.2975   6.3785   6.5822   6.6366   6.7556
     6.8416   7.0087   7.0394   7.1617   7.3028   7.5778   7.9093   8.2532
     8.3308   8.6776   8.7950   8.8715   8.9390   9.0079   9.1757   9.2563
     9.3526   9.3810   9.5274

          k = 0.0000 0.0280 0.0000 ( 34717 PWs)   bands (ev):

   -57.6961 -57.6658 -57.3150 -57.2835 -57.2315 -57.1072 -57.0752 -57.0700
   -57.0512 -57.0397 -56.9874 -56.9566 -56.7279 -56.6953 -56.1467 -56.1161
   -34.1092 -33.9786 -33.9540 -33.8932 -33.8437 -33.8116 -33.7717 -33.6301
   -33.6112 -33.5799 -33.5420 -33.5374 -33.5203 -33.5003 -33.4920 -33.4839
   -33.4711 -33.4613 -33.4290 -33.3916 -33.3177 -33.2899 -33.2853 -33.2637
   -33.2590 -33.2522 -33.2500 -33.2393 -33.2377 -33.2359 -33.2355 -33.2173
   -33.2023 -33.1849 -33.1768 -33.1445 -33.1413 -32.9925 -32.9769 -32.9585
   -32.9129 -32.8330 -32.5412 -32.4996 -32.4771 -32.3649 -32.2856 -32.1985
   -20.2927 -17.9505 -17.7834 -17.5037 -17.4094 -17.3288 -17.2248 -17.0912
   -17.0357 -16.9980 -16.9926 -16.8856 -16.8192 -16.7612 -16.7069 -16.6891
   -16.6756 -16.6644 -16.6569 -16.6415 -16.5947 -16.4391 -16.3840 -16.3679
   -16.3478 -16.2970 -16.2114 -16.1737 -16.1534 -16.0099 -15.9667 -14.7435
   -14.6731 -11.4618  -7.2352  -5.4370  -5.3141  -5.2538  -5.2018  -5.1301
    -5.0681  -5.0469  -4.7633  -4.7027  -4.4353  -4.4000  -4.3937  -4.3117
    -4.3010  -4.1596  -4.1237  -4.1136  -4.0913  -4.0703  -4.0321  -4.0306
    -3.9655  -3.9610  -3.9496  -3.8909  -3.8529  -3.8464  -3.8374  -3.7660
    -3.7214  -3.7062  -3.6655  -3.6157  -3.5751  -3.5568  -3.4304  -3.3582
    -3.3123  -3.2353  -3.2066  -3.1041  -2.9339  -2.8708  -2.7463  -2.7245
    -2.6134  -2.6003  -2.5249  -2.5095  -2.4777  -2.4403  -2.4119  -2.4076
    -2.3867  -2.3617  -2.2879  -2.2764  -2.1677  -2.1421  -2.1360  -2.0941
    -2.0220  -1.9970  -1.9539  -1.8757  -1.8098  -1.7684  -1.7068  -1.6821
    -1.6425  -1.6259  -1.5635  -1.5254  -1.4810  -1.4381  -1.4354  -1.3958
    -1.3544  -1.2710  -1.2178  -1.2130  -1.1589  -1.0896  -1.0693  -1.0219
    -1.0091  -0.9041  -0.8669  -0.7907  -0.7609  -0.7062  -0.6079  -0.5908
    -0.3944  -0.2699  -0.0912  -0.0804   0.1466   0.2022   0.2288   1.7293
     1.7753   1.9863   2.0653   2.1309   2.1519   2.2189   2.2745   2.3133
     2.4248   2.4616   2.4994   2.5358   2.5863   2.6035   2.6307   2.6920
     2.7330   2.7709   2.7973   2.9127   2.9229   2.9516   2.9764   3.0104
     3.1113   3.1171   3.1349   3.1753   3.1928   3.2057   3.2586   3.3046
     3.3358   3.3712   3.4073   3.4737   3.5069   3.5522   3.5621   3.6493
     3.6652   3.6860   3.7718   3.9601   4.0345   4.1142   4.1914   4.2865
     4.3236   4.3971   4.5413   4.6890   4.8644   4.9257   5.0913   5.2587
     5.3044   5.3356   5.5377   5.5677   5.6035   5.6250   5.6862   5.7209
     5.7847   5.7927   5.8519   5.8783   5.8992   5.9482   6.0694   6.1228
     6.1498   6.1575   6.1756   6.2072   6.2756   6.5589   6.6033   6.6949
     6.8463   6.9490   6.9803   7.0829   7.2314   7.5822   7.9189   8.0122
     8.0607   8.4562   8.5639   8.8396   8.9075   8.9979   9.0885   9.1338
     9.2724   9.4353   9.4949

          k = 0.0000 0.0560 0.0000 ( 34721 PWs)   bands (ev):

   -57.6897 -57.6722 -57.3085 -57.2900 -57.2306 -57.1011 -57.0813 -57.0637
   -57.0521 -57.0462 -56.9809 -56.9631 -56.7212 -56.7019 -56.1402 -56.1226
   -34.0394 -33.9733 -33.9590 -33.8762 -33.8447 -33.8291 -33.7727 -33.5956
   -33.5723 -33.5715 -33.5344 -33.5271 -33.5061 -33.5036 -33.4761 -33.4720
   -33.4556 -33.4261 -33.4185 -33.3722 -33.3159 -33.3127 -33.3125 -33.3012
   -33.2856 -33.2759 -33.2674 -33.2637 -33.2531 -33.2460 -33.2339 -33.2318
   -33.2098 -33.1979 -33.1703 -33.1647 -33.1260 -32.9874 -32.9734 -32.9618
   -32.9259 -32.9027 -32.4949 -32.4819 -32.4704 -32.3484 -32.3025 -32.2727
   -20.2924 -17.7794 -17.6248 -17.3724 -17.2755 -17.2600 -17.2186 -17.1666
   -17.1359 -16.9622 -16.9529 -16.9184 -16.8735 -16.8194 -16.7880 -16.7253
   -16.7157 -16.6837 -16.6249 -16.5966 -16.5397 -16.5045 -16.4227 -16.3777
   -16.3622 -16.3016 -16.2404 -16.1948 -16.1569 -16.1105 -16.0395 -14.7617
   -14.7237 -11.4610  -7.2343  -5.4040  -5.2137  -5.0761  -5.0375  -4.9240
    -4.8582  -4.8240  -4.5616  -4.5052  -4.4727  -4.4174  -4.4092  -4.3663
    -4.3311  -4.2596  -4.2346  -4.2116  -4.1959  -4.1864  -4.1557  -4.0751
    -4.0574  -4.0057  -3.9870  -3.9684  -3.9303  -3.8909  -3.8562  -3.8176
    -3.7969  -3.7310  -3.6354  -3.5856  -3.4335  -3.4271  -3.3385  -3.2685
    -3.2385  -3.2120  -3.1933  -3.0830  -2.8929  -2.8428  -2.8379  -2.7986
    -2.7216  -2.6683  -2.5476  -2.4737  -2.4437  -2.3220  -2.3158  -2.3110
    -2.3027  -2.2490  -2.2067  -2.1790  -2.1476  -2.1171  -2.0317  -2.0101
    -1.9608  -1.9474  -1.9170  -1.9048  -1.8832  -1.8488  -1.8170  -1.7827
    -1.7450  -1.6946  -1.6249  -1.5418  -1.5270  -1.5094  -1.4554  -1.4198
    -1.3802  -1.3645  -1.3497  -1.2904  -1.2388  -1.2169  -1.1558  -1.1030
    -1.0821  -1.0235  -0.9233  -0.8904  -0.8506  -0.7848  -0.7630  -0.6598
    -0.5868  -0.4630  -0.2418   0.0915   0.1437   0.1788   0.1855   1.8650
     2.0249   2.0979   2.1094   2.2098   2.2347   2.2696   2.3667   2.3894
     2.3961   2.4115   2.4345   2.4763   2.5035   2.5381   2.6744   2.6955
     2.7340   2.7754   2.8304   2.9038   2.9156   2.9383   2.9719   2.9735
     3.0153   3.0988   3.1376   3.1572   3.2503   3.2618   3.2863   3.3295
     3.3683   3.3863   3.4407   3.5374   3.5436   3.6365   3.6770   3.7273
     3.7604   3.8233   3.8581   3.8902   3.9318   4.1306   4.1418   4.1585
     4.3267   4.3757   4.5646   4.9064   5.0159   5.0614   5.1746   5.3785
     5.3821   5.4784   5.5181   5.5496   5.6483   5.7230   5.7242   5.7335
     5.7794   5.7877   5.7994   5.8565   5.8854   5.9468   5.9776   5.9905
     6.0014   6.0548   6.1554   6.1711   6.3067   6.3737   6.4102   6.6152
     6.6606   6.7811   6.8696   7.0422   7.2135   7.3346   7.4441   7.7283
     8.0819   8.2051   8.3413   8.6164   8.8870   8.9912   9.3104   9.3310
     9.4273   9.4428   9.5614

          k = 0.0000-0.0840 0.0000 ( 34678 PWs)   bands (ev):

   -57.6811 -57.6809 -57.3012 -57.2973 -57.2302 -57.0956 -57.0868 -57.0551
   -57.0548 -57.0525 -56.9724 -56.9716 -56.7143 -56.7089 -56.1314 -56.1314
   -33.9663 -33.9661 -33.9428 -33.9427 -33.8528 -33.8526 -33.6858 -33.6618
   -33.5657 -33.5623 -33.5280 -33.5180 -33.5130 -33.4764 -33.4527 -33.4239
   -33.4137 -33.4072 -33.3749 -33.3746 -33.3625 -33.3468 -33.3409 -33.3237
   -33.3226 -33.2845 -33.2778 -33.2756 -33.2688 -33.2671 -33.2324 -33.2306
   -33.2152 -33.2135 -33.1632 -33.1626 -33.0488 -33.0280 -32.9705 -32.9644
   -32.9398 -32.9367 -32.4883 -32.4883 -32.3725 -32.3725 -32.3254 -32.3254
   -20.2922 -17.5688 -17.5051 -17.4101 -17.3897 -17.2291 -17.1750 -17.0659
   -17.0613 -17.0157 -17.0029 -16.9893 -16.8716 -16.8393 -16.8393 -16.8006
   -16.7940 -16.5961 -16.5941 -16.5261 -16.5226 -16.4883 -16.4867 -16.4045
   -16.4023 -16.2626 -16.2606 -16.2009 -16.1969 -16.1317 -16.1019 -14.7604
   -14.7603 -11.4606  -7.2338  -5.3956  -5.2192  -4.7995  -4.7330  -4.7319
    -4.6555  -4.6422  -4.6372  -4.6016  -4.5730  -4.5096  -4.5018  -4.4004
    -4.3731  -4.3390  -4.3373  -4.3083  -4.2952  -4.2800  -4.2746  -4.0545
    -4.0328  -4.0233  -4.0105  -3.9921  -3.9424  -3.8095  -3.7931  -3.7879
    -3.7154  -3.6944  -3.6397  -3.5076  -3.4726  -3.3395  -3.3270  -3.2538
    -3.1383  -3.1162  -3.0431  -3.0191  -2.9625  -2.9250  -2.8047  -2.7882
    -2.6980  -2.6934  -2.5767  -2.5386  -2.5132  -2.4949  -2.4778  -2.4471
    -2.4386  -2.4179  -2.3302  -2.2456  -2.0284  -2.0070  -1.9676  -1.9407
    -1.9273  -1.8284  -1.8223  -1.8091  -1.7818  -1.7447  -1.7308  -1.6998
    -1.6655  -1.6399  -1.6146  -1.5584  -1.5157  -1.4873  -1.4808  -1.4521
    -1.4249  -1.4172  -1.4097  -1.3820  -1.3587  -1.3269  -1.2207  -1.1874
    -1.1006  -1.0729  -1.0105  -0.9778  -0.9706  -0.9597  -0.9428  -0.5244
    -0.5185  -0.4568  -0.4425   0.1438   0.1439   0.1865   0.1882   2.0394
     2.0426   2.2188   2.2202   2.2210   2.2368   2.2851   2.3400   2.3474
     2.3475   2.3726   2.3834   2.5280   2.5541   2.5552   2.6013   2.6645
     2.7153   2.7373   2.7502   2.8918   2.9228   2.9900   2.9977   3.0574
     3.0587   3.1023   3.1130   3.1803   3.2184   3.2334   3.2462   3.4040
     3.4264   3.4373   3.4402   3.4731   3.4840   3.7253   3.7660   3.8045
     3.8079   3.8322   3.9092   3.9315   3.9688   4.0738   4.0761   4.1261
     4.1267   4.4177   4.6728   4.9607   5.0009   5.2601   5.3312   5.4578
     5.4891   5.5086   5.5086   5.5720   5.6026   5.6470   5.6656   5.6714
     5.7993   5.8044   5.8264   5.8521   5.8622   5.8670   5.8832   5.9740
     6.0202   6.0592   6.0720   6.1592   6.1962   6.4048   6.4669   6.5647
     6.6046   6.7459   6.7738   6.9793   7.0317   7.1009   7.3274   7.7004
     7.8840   8.1679   8.4103   8.7805   8.8349   8.8642   9.1453   9.6843
     9.7067   9.7477   9.7934

          k = 0.0253 0.0000 0.0000 ( 34707 PWs)   bands (ev):

   -57.6984 -57.6635 -57.3174 -57.2811 -57.2319 -57.1094 -57.0730 -57.0723
   -57.0508 -57.0374 -56.9897 -56.9542 -56.7303 -56.6928 -56.1490 -56.1138
   -34.1349 -33.9807 -33.9522 -33.8987 -33.8697 -33.8052 -33.7447 -33.6536
   -33.6180 -33.6065 -33.5677 -33.5370 -33.5319 -33.5082 -33.4848 -33.4745
   -33.4628 -33.4540 -33.4310 -33.3916 -33.3237 -33.2918 -33.2712 -33.2623
   -33.2580 -33.2572 -33.2440 -33.2410 -33.2392 -33.2293 -33.2291 -33.2120
   -33.1799 -33.1796 -33.1748 -33.1405 -33.1181 -32.9964 -32.9807 -32.9563
   -32.9079 -32.8051 -32.5668 -32.5024 -32.4747 -32.3710 -32.2794 -32.1712
   -20.2926 -17.9824 -17.8011 -17.5144 -17.4327 -17.3558 -17.2580 -17.1441
   -17.0919 -16.9750 -16.9380 -16.8709 -16.8185 -16.8055 -16.7890 -16.7800
   -16.7294 -16.6924 -16.5562 -16.5338 -16.4536 -16.4521 -16.4035 -16.3698
   -16.3387 -16.3121 -16.1828 -16.1650 -16.1509 -15.9789 -15.9294 -14.7323
   -14.6496 -11.4609  -7.2328  -5.4668  -5.3052  -5.2638  -5.1971  -5.0972
    -5.0440  -5.0160  -4.8335  -4.8122  -4.6175  -4.4687  -4.4352  -4.3305
    -4.3109  -4.3010  -4.2472  -4.0987  -4.0364  -4.0323  -3.9960  -3.9445
    -3.9374  -3.9094  -3.8303  -3.8005  -3.7511  -3.7197  -3.6943  -3.6921
    -3.6199  -3.5977  -3.5698  -3.5623  -3.5162  -3.4471  -3.3340  -3.3096
    -3.2506  -3.2351  -3.1835  -3.1060  -3.0334  -2.9761  -2.9236  -2.8956
    -2.7510  -2.6737  -2.6327  -2.5999  -2.5789  -2.5296  -2.5193  -2.5033
    -2.4315  -2.3351  -2.3220  -2.2364  -2.2204  -2.1818  -2.1579  -2.0702
    -2.0086  -1.9998  -1.9629  -1.8815  -1.8503  -1.7528  -1.7393  -1.6504
    -1.5851  -1.5822  -1.5378  -1.4638  -1.4572  -1.3660  -1.3572  -1.3439
    -1.3367  -1.2901  -1.2737  -1.1894  -1.1269  -1.1171  -1.0768  -1.0468
    -0.9726  -0.9147  -0.8292  -0.7858  -0.7740  -0.6507  -0.6421  -0.5504
    -0.4207  -0.2362  -0.1154  -0.0535   0.1176   0.2058   0.2067   1.6624
     1.7254   2.0017   2.0719   2.1490   2.2236   2.2384   2.2702   2.3786
     2.3857   2.4581   2.5049   2.5227   2.5417   2.5787   2.5979   2.6367
     2.6562   2.7348   2.7580   2.8675   2.8844   2.9703   3.0312   3.1043
     3.1215   3.1443   3.1629   3.2038   3.2089   3.2542   3.2699   3.3401
     3.3778   3.4027   3.4513   3.4734   3.5361   3.5607   3.5923   3.6003
     3.6645   3.7303   3.7476   3.9142   4.0022   4.0965   4.1746   4.2767
     4.3748   4.3952   4.5535   4.6749   4.8639   4.9117   4.9266   5.0702
     5.1219   5.1464   5.1891   5.3512   5.5683   5.6217   5.6939   5.8666
     5.8832   5.9252   5.9596   6.0299   6.0808   6.1146   6.1610   6.2099
     6.2193   6.2523   6.2590   6.3084   6.4490   6.5236   6.6420   6.6664
     6.8209   6.8687   7.0346   7.1468   7.3026   7.7507   7.8528   8.0870
     8.3356   8.3499   8.4308   8.6834   8.8460   8.9680   9.1493   9.3449
     9.3634   9.4607   9.4959

          k = 0.0253 0.0280 0.0000 ( 34687 PWs)   bands (ev):

   -57.6961 -57.6658 -57.3150 -57.2835 -57.2315 -57.1071 -57.0752 -57.0701
   -57.0512 -57.0398 -56.9874 -56.9566 -56.7279 -56.6953 -56.1467 -56.1161
   -34.1095 -33.9787 -33.9540 -33.8926 -33.8438 -33.8115 -33.7717 -33.6308
   -33.6112 -33.5816 -33.5423 -33.5342 -33.5215 -33.5157 -33.4923 -33.4718
   -33.4656 -33.4601 -33.4290 -33.3848 -33.3176 -33.2901 -33.2830 -33.2637
   -33.2590 -33.2538 -33.2524 -33.2472 -33.2372 -33.2359 -33.2347 -33.2161
   -33.2024 -33.1849 -33.1768 -33.1444 -33.1412 -32.9925 -32.9790 -32.9577
   -32.9129 -32.8330 -32.5411 -32.5005 -32.4766 -32.3649 -32.2856 -32.1985
   -20.2925 -17.9222 -17.7444 -17.4632 -17.3829 -17.3087 -17.2316 -17.1278
   -17.0975 -17.0057 -16.9627 -16.8581 -16.8298 -16.8053 -16.7836 -16.7697
   -16.7124 -16.6993 -16.5997 -16.5794 -16.5060 -16.4747 -16.3810 -16.3647
   -16.3558 -16.3290 -16.2000 -16.1732 -16.1531 -16.0103 -15.9664 -14.7425
   -14.6731 -11.4605  -7.2323  -5.4401  -5.2423  -5.2006  -5.1808  -5.0208
    -4.9657  -4.9358  -4.7583  -4.6996  -4.5617  -4.4027  -4.3708  -4.3451
    -4.2592  -4.2526  -4.1861  -4.1180  -4.0862  -4.0640  -4.0330  -4.0204
    -3.9757  -3.9421  -3.9124  -3.8672  -3.8216  -3.8095  -3.7839  -3.7193
    -3.6979  -3.6631  -3.6147  -3.6045  -3.5406  -3.5255  -3.3535  -3.2974
    -3.2519  -3.2172  -3.1502  -3.0741  -2.9811  -2.9494  -2.7847  -2.7065
    -2.6796  -2.6361  -2.6102  -2.5341  -2.5026  -2.4538  -2.4472  -2.4198
    -2.4048  -2.3860  -2.3400  -2.3021  -2.2154  -2.1776  -2.1152  -2.0999
    -2.0663  -1.9943  -1.9491  -1.8916  -1.8647  -1.8256  -1.7611  -1.6742
    -1.6450  -1.6167  -1.5882  -1.5618  -1.5091  -1.4611  -1.4400  -1.3993
    -1.3441  -1.3274  -1.2692  -1.2548  -1.2064  -1.1086  -1.0974  -1.0600
    -1.0098  -0.8870  -0.8384  -0.8346  -0.7642  -0.7385  -0.6955  -0.6582
    -0.4318  -0.2809  -0.1337  -0.0853   0.1497   0.1791   0.1893   1.7214
     1.8455   2.0169   2.0994   2.1962   2.2451   2.2825   2.3168   2.3975
     2.4181   2.4677   2.4894   2.5250   2.5333   2.5530   2.5911   2.6746
     2.7057   2.7280   2.7878   2.8072   2.9310   2.9873   3.0103   3.0353
     3.1068   3.1348   3.1464   3.1731   3.2091   3.2427   3.3447   3.3740
     3.4066   3.4368   3.4632   3.5108   3.5528   3.5693   3.6367   3.6616
     3.6739   3.7087   3.7503   3.8951   3.9942   4.1384   4.1860   4.2532
     4.3071   4.4527   4.5099   4.7692   4.9297   4.9521   4.9939   5.0785
     5.1604   5.1759   5.2240   5.3873   5.6432   5.6825   5.7320   5.7779
     5.8548   5.8658   5.8718   6.0078   6.0715   6.0862   6.1197   6.1453
     6.1974   6.2092   6.2195   6.2351   6.4291   6.5291   6.6128   6.6614
     6.7855   6.8661   6.9637   7.1496   7.2258   7.5036   7.9290   8.0309
     8.0943   8.2554   8.4497   8.5786   8.6542   8.7703   8.9383   9.2639
     9.3586   9.4580   9.5172

          k = 0.0253 0.0560 0.0000 ( 34699 PWs)   bands (ev):

   -57.6897 -57.6722 -57.3085 -57.2900 -57.2306 -57.1011 -57.0812 -57.0637
   -57.0521 -57.0462 -56.9809 -56.9631 -56.7212 -56.7019 -56.1402 -56.1226
   -34.0396 -33.9733 -33.9591 -33.8757 -33.8448 -33.8289 -33.7727 -33.5956
   -33.5729 -33.5716 -33.5346 -33.5251 -33.5083 -33.5071 -33.4762 -33.4723
   -33.4546 -33.4262 -33.4131 -33.3668 -33.3164 -33.3134 -33.3082 -33.3011
   -33.2858 -33.2763 -33.2674 -33.2625 -33.2532 -33.2482 -33.2379 -33.2341
   -33.2100 -33.1986 -33.1703 -33.1646 -33.1259 -32.9875 -32.9748 -32.9617
   -32.9259 -32.9026 -32.4955 -32.4816 -32.4703 -32.3484 -32.3026 -32.2726
   -20.2922 -17.7559 -17.5890 -17.3430 -17.2638 -17.2444 -17.1931 -17.1674
   -17.1390 -16.9954 -16.9698 -16.8801 -16.8757 -16.8291 -16.7959 -16.7720
   -16.7475 -16.6700 -16.6229 -16.6040 -16.5789 -16.5299 -16.4264 -16.4119
   -16.3555 -16.2845 -16.2335 -16.1941 -16.1566 -16.1113 -16.0389 -14.7610
   -14.7239 -11.4597  -7.2314  -5.4114  -5.2130  -5.0311  -4.9483  -4.8125
    -4.7564  -4.7142  -4.5578  -4.4977  -4.4900  -4.4134  -4.3936  -4.3390
    -4.2703  -4.2309  -4.2152  -4.1916  -4.1473  -4.1407  -4.1058  -4.0612
    -4.0323  -4.0123  -3.9925  -3.9353  -3.9239  -3.8746  -3.8590  -3.8211
    -3.7740  -3.7154  -3.6543  -3.5712  -3.4732  -3.3976  -3.3268  -3.2816
    -3.2362  -3.2222  -3.1864  -3.0119  -2.9381  -2.8630  -2.8288  -2.7789
    -2.7582  -2.6457  -2.5927  -2.5092  -2.4887  -2.4381  -2.3919  -2.3653
    -2.3424  -2.3240  -2.2873  -2.2629  -2.1887  -2.1405  -2.1273  -2.0399
    -2.0111  -2.0085  -1.9464  -1.9380  -1.9028  -1.8608  -1.8348  -1.8113
    -1.7443  -1.7043  -1.6777  -1.6369  -1.5728  -1.5380  -1.4942  -1.4747
    -1.4306  -1.3726  -1.3380  -1.3026  -1.2227  -1.2052  -1.1309  -1.1052
    -1.0603  -1.0122  -0.9112  -0.8741  -0.8207  -0.7991  -0.7434  -0.6803
    -0.6063  -0.4651  -0.2557   0.0924   0.1290   0.1561   0.1887   1.8623
     2.0485   2.1326   2.1794   2.2319   2.2723   2.3063   2.3481   2.3853
     2.4265   2.4625   2.4812   2.5084   2.5208   2.5840   2.6942   2.7219
     2.7394   2.7768   2.8243   2.8403   2.9044   2.9529   2.9751   2.9865
     3.0277   3.0341   3.1567   3.2078   3.2868   3.3300   3.3408   3.3836
     3.4079   3.4394   3.4611   3.5411   3.5601   3.6314   3.6562   3.7347
     3.7932   3.8201   3.8619   3.9009   3.9052   4.0723   4.1172   4.1658
     4.3434   4.3845   4.6161   4.9650   5.0128   5.1259   5.1416   5.1585
     5.2625   5.2894   5.3140   5.4371   5.5103   5.5618   5.6375   5.7587
     5.8236   5.8507   5.8919   5.9343   5.9611   6.0034   6.0481   6.0615
     6.1364   6.1572   6.2229   6.3309   6.3798   6.4042   6.4818   6.6435
     6.6904   6.7969   6.8479   7.0356   7.1508   7.3643   7.4811   7.5904
     7.9762   8.1766   8.3506   8.5172   8.6527   8.8573   9.0409   9.1141
     9.1887   9.4885   9.6227

          k = 0.0253-0.0840 0.0000 ( 34722 PWs)   bands (ev):

   -57.6811 -57.6809 -57.3012 -57.2973 -57.2302 -57.0956 -57.0867 -57.0551
   -57.0548 -57.0525 -56.9725 -56.9716 -56.7143 -56.7089 -56.1314 -56.1314
   -33.9663 -33.9661 -33.9431 -33.9430 -33.8524 -33.8523 -33.6859 -33.6619
   -33.5657 -33.5623 -33.5286 -33.5178 -33.5129 -33.4764 -33.4518 -33.4241
   -33.4158 -33.4097 -33.3759 -33.3756 -33.3632 -33.3399 -33.3340 -33.3223
   -33.3211 -33.2843 -33.2776 -33.2758 -33.2690 -33.2657 -33.2359 -33.2344
   -33.2168 -33.2152 -33.1632 -33.1626 -33.0488 -33.0280 -32.9711 -32.9652
   -32.9398 -32.9367 -32.4886 -32.4886 -32.3725 -32.3725 -32.3254 -32.3254
   -20.2920 -17.5554 -17.4870 -17.3818 -17.3633 -17.2130 -17.1540 -17.0590
   -17.0493 -17.0038 -16.9791 -16.9753 -16.8885 -16.8789 -16.8686 -16.7854
[...]
    -1.2972  -1.2659  -1.2510  -1.1894  -1.1521  -1.0312  -1.0194  -1.0114
    -0.9878  -0.9481  -0.9043  -0.8376  -0.7561  -0.7006  -0.6465  -0.5935
    -0.5894  -0.5342  -0.5177   0.0666   0.0666   0.2113   0.2130   2.1540
     2.1548   2.2014   2.2033   2.2389   2.2394   2.2670   2.2982   2.4884
     2.4939   2.5260   2.5556   2.6094   2.6172   2.6799   2.6819   2.6912
     2.6927   2.8447   2.9102   2.9833   2.9983   3.0346   3.0422   3.0989
     3.2202   3.2497   3.2727   3.3333   3.3740   3.3908   3.4451   3.4932
     3.5006   3.5230   3.5494   3.5814   3.6040   3.6804   3.6999   3.7454
     3.8353   3.8914   3.9076   3.9533   3.9536   4.0966   4.1035   4.1122
     4.1127   4.6141   4.7837   4.7876   4.8028   4.8711   4.9209   4.9260
     4.9423   4.9850   5.0273   5.2493   5.3401   5.3591   5.3699   5.7291
     5.8001   5.9109   5.9280   5.9794   6.0431   6.1491   6.3026   6.3498
     6.3655   6.3750   6.4102   6.5755   6.6168   6.6655   6.6657   6.7032
     6.7633   6.8449   6.8460   6.8529   6.8537   7.3590   7.4073   7.5240
     7.6620   7.8247   8.0124   8.1704   8.2234   8.3167   8.3908   8.8230
     8.9145   9.0437   9.0825

          k =-0.0253 0.0280 0.0000 ( 34687 PWs)   bands (ev):

   -57.6962 -57.6659 -57.3150 -57.2834 -57.2314 -57.1071 -57.0751 -57.0701
   -57.0511 -57.0397 -56.9873 -56.9566 -56.7278 -56.6952 -56.1469 -56.1163
   -34.1095 -33.9788 -33.9541 -33.8926 -33.8438 -33.8116 -33.7718 -33.6308
   -33.6112 -33.5816 -33.5423 -33.5342 -33.5215 -33.5157 -33.4922 -33.4718
   -33.4655 -33.4600 -33.4290 -33.3848 -33.3176 -33.2901 -33.2830 -33.2637
   -33.2587 -33.2538 -33.2525 -33.2472 -33.2372 -33.2358 -33.2347 -33.2161
   -33.2024 -33.1848 -33.1768 -33.1444 -33.1412 -32.9925 -32.9790 -32.9577
   -32.9129 -32.8330 -32.5412 -32.5007 -32.4767 -32.3651 -32.2858 -32.1987
   -20.2925 -17.9222 -17.7443 -17.4632 -17.3830 -17.3088 -17.2316 -17.1278
   -17.0977 -17.0053 -16.9627 -16.8586 -16.8297 -16.8061 -16.7832 -16.7696
   -16.7124 -16.6996 -16.5995 -16.5791 -16.5060 -16.4747 -16.3811 -16.3648
   -16.3558 -16.3290 -16.2000 -16.1733 -16.1531 -16.0103 -15.9665 -14.7421
   -14.6728 -11.4605  -7.2323  -5.4400  -5.2421  -5.2007  -5.1808  -5.0211
    -4.9657  -4.9361  -4.7584  -4.7005  -4.5615  -4.4024  -4.3707  -4.3454
    -4.2604  -4.2493  -4.1875  -4.1164  -4.0906  -4.0639  -4.0357  -4.0197
    -3.9745  -3.9403  -3.9138  -3.8684  -3.8217  -3.8109  -3.7840  -3.7194
    -3.6990  -3.6631  -3.6145  -3.6039  -3.5389  -3.5248  -3.3579  -3.2903
    -3.2526  -3.2200  -3.1489  -3.0712  -2.9825  -2.9455  -2.7834  -2.7048
    -2.6803  -2.6362  -2.6099  -2.5315  -2.5045  -2.4510  -2.4473  -2.4227
    -2.4052  -2.3844  -2.3389  -2.3009  -2.2172  -2.1752  -2.1206  -2.1034
    -2.0620  -1.9900  -1.9497  -1.8931  -1.8636  -1.8275  -1.7425  -1.7087
    -1.6521  -1.5984  -1.5925  -1.5587  -1.5150  -1.4696  -1.4352  -1.3931
    -1.3443  -1.3321  -1.2802  -1.2418  -1.1965  -1.1088  -1.0969  -1.0584
    -1.0109  -0.8917  -0.8402  -0.8305  -0.7548  -0.7385  -0.7083  -0.6590
    -0.4326  -0.2809  -0.1341  -0.0851   0.1499   0.1793   0.1896   1.7213
     1.8455   2.0168   2.1009   2.1960   2.2465   2.2857   2.3196   2.4045
     2.4160   2.4505   2.4866   2.5305   2.5332   2.5478   2.6083   2.6692
     2.7059   2.7395   2.7762   2.8128   2.9395   2.9867   3.0048   3.0277
     3.1079   3.1363   3.1468   3.1748   3.2092   3.2399   3.3481   3.3730
     3.4043   3.4204   3.4648   3.5070   3.5619   3.5714   3.6376   3.6615
     3.6736   3.7095   3.7497   3.8939   3.9930   4.1403   4.1860   4.2536
     4.3071   4.4530   4.5102   4.7711   4.9376   4.9516   4.9846   5.0785
     5.1594   5.1755   5.2238   5.3862   5.6450   5.6754   5.7288   5.7876
     5.8529   5.8656   5.8729   6.0067   6.0741   6.0787   6.1245   6.1460
     6.1973   6.2076   6.2152   6.2437   6.4290   6.5268   6.6121   6.6659
     6.7906   6.8599   6.9636   7.1513   7.2267   7.5024   7.9319   8.0269
     8.0942   8.2442   8.4405   8.5787   8.6434   8.7801   8.9507   9.2719
     9.3541   9.4687   9.5010

          k =-0.0253 0.0560 0.0000 ( 34699 PWs)   bands (ev):

   -57.6898 -57.6723 -57.3085 -57.2900 -57.2306 -57.1011 -57.0812 -57.0637
   -57.0520 -57.0462 -56.9809 -56.9631 -56.7212 -56.7019 -56.1404 -56.1228
   -34.0397 -33.9734 -33.9591 -33.8757 -33.8448 -33.8289 -33.7727 -33.5956
   -33.5729 -33.5716 -33.5345 -33.5250 -33.5083 -33.5071 -33.4761 -33.4723
   -33.4546 -33.4261 -33.4130 -33.3667 -33.3163 -33.3134 -33.3081 -33.3010
   -33.2858 -33.2763 -33.2674 -33.2625 -33.2532 -33.2483 -33.2379 -33.2341
   -33.2098 -33.1986 -33.1702 -33.1646 -33.1258 -32.9874 -32.9747 -32.9617
   -32.9259 -32.9026 -32.4957 -32.4818 -32.4705 -32.3486 -32.3027 -32.2728
   -20.2922 -17.7559 -17.5890 -17.3430 -17.2638 -17.2446 -17.1933 -17.1673
   -17.1388 -16.9954 -16.9697 -16.8802 -16.8760 -16.8293 -16.7965 -16.7720
   -16.7473 -16.6698 -16.6223 -16.6042 -16.5789 -16.5301 -16.4264 -16.4119
   -16.3556 -16.2845 -16.2335 -16.1941 -16.1566 -16.1114 -16.0389 -14.7607
   -14.7235 -11.4597  -7.2314  -5.4113  -5.2130  -5.0307  -4.9483  -4.8130
    -4.7565  -4.7144  -4.5578  -4.4960  -4.4906  -4.4130  -4.3939  -4.3438
    -4.2706  -4.2319  -4.2147  -4.1915  -4.1472  -4.1402  -4.1073  -4.0612
    -4.0310  -4.0097  -3.9941  -3.9357  -3.9238  -3.8729  -3.8628  -3.8217
    -3.7735  -3.7135  -3.6553  -3.5714  -3.4725  -3.3971  -3.3300  -3.2821
    -3.2374  -3.2171  -3.1820  -3.0130  -2.9349  -2.8641  -2.8262  -2.7823
    -2.7555  -2.6447  -2.5915  -2.5103  -2.4867  -2.4380  -2.3939  -2.3619
    -2.3427  -2.3235  -2.2905  -2.2653  -2.1896  -2.1405  -2.1263  -2.0358
    -2.0198  -2.0031  -1.9446  -1.9420  -1.9039  -1.8615  -1.8307  -1.8061
    -1.7423  -1.7104  -1.6708  -1.6418  -1.5785  -1.5385  -1.5046  -1.4601
    -1.4305  -1.3715  -1.3469  -1.3005  -1.2239  -1.2052  -1.1286  -1.1033
    -1.0598  -1.0139  -0.9239  -0.8758  -0.8133  -0.7996  -0.7376  -0.6799
    -0.6064  -0.4663  -0.2570   0.0926   0.1293   0.1564   0.1889   1.8621
     2.0484   2.1356   2.1794   2.2287   2.2703   2.3070   2.3337   2.3843
     2.4450   2.4596   2.4862   2.5137   2.5213   2.5841   2.6933   2.7249
     2.7452   2.7763   2.8283   2.8414   2.8937   2.9503   2.9713   2.9872
     3.0245   3.0353   3.1709   3.2085   3.2910   3.3172   3.3345   3.3712
     3.4121   3.4371   3.4605   3.5436   3.5598   3.6351   3.6578   3.7353
     3.7936   3.8175   3.8628   3.8993   3.9072   4.0730   4.1172   4.1659
     4.3432   4.3846   4.6168   4.9665   5.0198   5.1240   5.1390   5.1567
     5.2600   5.2877   5.3156   5.4286   5.5123   5.5615   5.6404   5.7632
     5.8251   5.8487   5.8955   5.9367   5.9562   5.9965   6.0528   6.0638
     6.1364   6.1557   6.2298   6.3204   6.3799   6.4089   6.4779   6.6448
     6.6957   6.7967   6.8405   7.0363   7.1499   7.3642   7.4856   7.5852
     7.9784   8.1750   8.3508   8.5236   8.6408   8.8581   9.0578   9.1162
     9.1720   9.4986   9.6228

          k =-0.0506 0.0280 0.0000 ( 34685 PWs)   bands (ev):

   -57.6962 -57.6659 -57.3150 -57.2834 -57.2314 -57.1070 -57.0751 -57.0703
   -57.0511 -57.0397 -56.9873 -56.9566 -56.7278 -56.6952 -56.1469 -56.1163
   -34.1102 -33.9787 -33.9541 -33.8912 -33.8440 -33.8116 -33.7718 -33.6322
   -33.6112 -33.5849 -33.5429 -33.5352 -33.5270 -33.5192 -33.4921 -33.4714
   -33.4577 -33.4482 -33.4290 -33.3687 -33.3173 -33.2903 -33.2786 -33.2649
   -33.2637 -33.2609 -33.2585 -33.2531 -33.2373 -33.2358 -33.2336 -33.2137
   -33.2029 -33.1851 -33.1767 -33.1442 -33.1411 -32.9925 -32.9833 -32.9564
   -32.9129 -32.8330 -32.5411 -32.5025 -32.4758 -32.3651 -32.2858 -32.1987
   -20.2921 -17.8600 -17.6507 -17.3684 -17.3410 -17.2492 -17.2239 -17.2140
   -17.1220 -17.0427 -16.9630 -16.9202 -16.8703 -16.8571 -16.8544 -16.8323
   -16.7628 -16.7444 -16.5588 -16.5276 -16.5035 -16.4375 -16.4149 -16.3757
   -16.3683 -16.3112 -16.1908 -16.1717 -16.1519 -16.0116 -15.9662 -14.7402
   -14.6728 -11.4580  -7.2266  -5.4533  -5.2273  -5.1985  -4.8918  -4.8336
    -4.7201  -4.7041  -4.6748  -4.6546  -4.6297  -4.5089  -4.4273  -4.3449
    -4.3177  -4.3017  -4.1589  -4.1262  -4.0602  -4.0261  -4.0081  -3.9926
    -3.9821  -3.9091  -3.8592  -3.8153  -3.7731  -3.7606  -3.7183  -3.6903
    -3.6548  -3.6330  -3.5824  -3.5509  -3.4453  -3.3170  -3.2833  -3.2617
    -3.2251  -3.1693  -3.1019  -3.0563  -2.9522  -2.9365  -2.8741  -2.8398
    -2.7425  -2.6932  -2.6593  -2.6497  -2.6039  -2.5905  -2.5351  -2.4948
    -2.4362  -2.3869  -2.3805  -2.3349  -2.3076  -2.2543  -2.1790  -2.1363
    -2.1131  -2.0618  -2.0239  -1.9736  -1.9393  -1.9035  -1.8595  -1.8314
    -1.7541  -1.7396  -1.7113  -1.6403  -1.5390  -1.5061  -1.4842  -1.4167
    -1.3663  -1.3470  -1.2786  -1.2603  -1.2367  -1.1459  -1.1119  -1.0124
    -0.9770  -0.8790  -0.8553  -0.8133  -0.7786  -0.7630  -0.7045  -0.6892
    -0.5121  -0.3113  -0.2589  -0.0724   0.1106   0.1399   0.1633   1.7048
     1.9056   2.0610   2.1235   2.1282   2.1732   2.2416   2.3619   2.3729
     2.4069   2.4388   2.5186   2.5683   2.5752   2.6035   2.6846   2.6973
     2.7438   2.8035   2.8340   2.9035   2.9567   2.9823   3.0423   3.0611
     3.0917   3.1612   3.1718   3.2012   3.3031   3.3572   3.3768   3.4110
     3.4465   3.4586   3.5477   3.5868   3.6048   3.6542   3.6767   3.6855
     3.7178   3.7716   3.8191   3.8701   3.9331   4.0594   4.1694   4.2826
     4.2936   4.4234   4.6227   4.6904   4.7650   4.8118   4.8561   4.9867
     5.0131   5.1269   5.2250   5.4704   5.5952   5.6409   5.7214   5.8056
     5.8614   5.8731   5.9260   5.9472   5.9810   6.0936   6.1176   6.1396
     6.2309   6.4328   6.4832   6.5409   6.5785   6.6082   6.6859   6.7417
     6.7977   6.8180   6.9745   7.1147   7.1677   7.3961   7.5665   7.7024
     8.1341   8.1640   8.2463   8.3884   8.7484   8.9674   9.0103   9.0505
     9.3767   9.4459   9.6123

          k =-0.0506 0.0560 0.0000 ( 34596 PWs)   bands (ev):

   -57.6898 -57.6723 -57.3084 -57.2900 -57.2306 -57.1010 -57.0812 -57.0638
   -57.0520 -57.0462 -56.9809 -56.9631 -56.7212 -56.7019 -56.1404 -56.1228
   -34.0402 -33.9734 -33.9591 -33.8745 -33.8450 -33.8285 -33.7729 -33.5955
   -33.5740 -33.5716 -33.5349 -33.5211 -33.5146 -33.5105 -33.4761 -33.4731
   -33.4525 -33.4262 -33.4035 -33.3531 -33.3176 -33.3171 -33.3007 -33.2985
   -33.2861 -33.2762 -33.2673 -33.2602 -33.2532 -33.2529 -33.2472 -33.2392
   -33.2099 -33.2001 -33.1702 -33.1642 -33.1254 -32.9875 -32.9775 -32.9615
   -32.9258 -32.9025 -32.4968 -32.4814 -32.4704 -32.3485 -32.3027 -32.2727
   -20.2918 -17.7055 -17.5000 -17.2907 -17.2391 -17.1972 -17.1732 -17.1613
   -17.0893 -17.0365 -17.0054 -16.9130 -16.8560 -16.8485 -16.8438 -16.8059
   -16.7758 -16.7215 -16.6620 -16.6223 -16.6119 -16.5503 -16.5121 -16.3985
   -16.3429 -16.2631 -16.2257 -16.1927 -16.1559 -16.1130 -16.0381 -14.7595
   -14.7239 -11.4571  -7.2254  -5.4264  -5.2120  -5.0212  -4.6586  -4.6167
    -4.5150  -4.4987  -4.4834  -4.4560  -4.4318  -4.3670  -4.3242  -4.3012
    -4.2252  -4.2052  -4.1458  -4.1316  -4.0822  -4.0666  -4.0458  -4.0363
    -4.0135  -3.9960  -3.9682  -3.9143  -3.8937  -3.8879  -3.8210  -3.7871
    -3.7302  -3.6597  -3.6298  -3.5224  -3.4875  -3.3739  -3.3284  -3.2608
    -3.2572  -3.2449  -3.1412  -3.0133  -2.9332  -2.9039  -2.8510  -2.8287
    -2.7560  -2.7261  -2.6844  -2.6094  -2.5917  -2.5669  -2.5282  -2.4894
    -2.4281  -2.4057  -2.3652  -2.3285  -2.3161  -2.2998  -2.2548  -2.1777
    -2.1529  -2.1210  -2.1141  -2.0773  -2.0468  -2.0015  -1.9824  -1.9013
    -1.8910  -1.8515  -1.8323  -1.7241  -1.6367  -1.6057  -1.5725  -1.4779
    -1.4079  -1.3744  -1.3069  -1.2495  -1.2057  -1.1082  -1.0734  -1.0177
    -1.0018  -0.9363  -0.8528  -0.8188  -0.7698  -0.7558  -0.6925  -0.6567
    -0.6511  -0.5168  -0.3240   0.0786   0.1128   0.1307   0.1943   1.8674
     2.0773   2.1662   2.2000   2.2216   2.2443   2.2991   2.3485   2.3938
     2.4043   2.5381   2.5709   2.5800   2.6082   2.6290   2.6842   2.7554
     2.7827   2.8050   2.8395   2.8817   2.9642   3.0051   3.0290   3.0628
     3.0980   3.1369   3.1684   3.2574   3.3363   3.3680   3.3977   3.4416
     3.4794   3.5004   3.5225   3.5431   3.6156   3.6479   3.7123   3.7449
     3.7806   3.8520   3.8809   3.9200   3.9259   3.9548   4.1123   4.1755
     4.2901   4.4736   4.7258   4.8075   4.8174   4.8969   4.9429   5.0928
     5.1661   5.2319   5.2726   5.3298   5.3728   5.4355   5.4964   5.6268
     5.7817   5.8309   5.8818   5.9522   6.0386   6.1245   6.2178   6.2597
     6.2866   6.3472   6.4168   6.4506   6.5019   6.5784   6.6493   6.7166
     6.7313   6.8248   6.8494   6.9848   7.0504   7.4113   7.4332   7.5808
     7.7421   7.9428   8.0726   8.3828   8.5742   8.6042   8.7436   9.0050
     9.2218   9.3247   9.4546

     the Fermi energy is     0.9976 ev

!    total energy              =   -3021.41999616 Ry
     Harris-Foulkes estimate   =   -3021.41999255 Ry
     estimated scf accuracy    <       0.00000061 Ry

     The total energy is the sum of the following terms:

     one-electron contribution =  -41241.37553009 Ry
     hartree contribution      =   20694.93571973 Ry
     xc contribution           =    -553.68962254 Ry
     ewald contribution        =   18078.70964791 Ry
     smearing contrib. (-TS)   =      -0.00021116 Ry

     total magnetization       =     0.00 Bohr mag/cell
     absolute magnetization    =     0.00 Bohr mag/cell

     convergence has been achieved in   9 iterations

     Forces acting on atoms (Ry/au):


     negative rho (up, down):  1.209E-02 1.209E-02
     atom    1 type  1   force =     0.00001101   -0.00035828   -0.13380403
     atom    2 type  2   force =     0.00000560    0.00001502    0.07214275
     atom    3 type  1   force =    -0.00133850    0.00028863   -0.06097689
     atom    4 type  2   force =     0.00289382    0.00053723    0.00641900
     atom    5 type  1   force =     0.00027059    0.00184560    0.00350229
     atom    6 type  2   force =     0.00005968   -0.00003871   -0.00291651
     atom    7 type  1   force =    -0.00029666   -0.00010663    0.00456755
     atom    8 type  2   force =     0.00115824   -0.00013138   -0.00013616
     atom    9 type  1   force =    -0.00002535    0.00001679   -0.13355930
     atom   10 type  2   force =    -0.00004224    0.00011203    0.07129736
     atom   11 type  1   force =    -0.00131944   -0.00022145   -0.05589857
     atom   12 type  2   force =     0.00300068   -0.00004559    0.00608051
     atom   13 type  1   force =     0.00028318   -0.00147915    0.00344683
     atom   14 type  2   force =    -0.00122806   -0.00030150   -0.00287687
     atom   15 type  1   force =    -0.00054034   -0.00059572    0.00438777
     atom   16 type  2   force =     0.00029743    0.00003835   -0.00049687
     atom   17 type  2   force =    -0.00006509   -0.00008051    0.07937384
     atom   18 type  1   force =     0.00013236   -0.00018532    0.11912300
     atom   19 type  2   force =    -0.00009188   -0.00013074   -0.06669278
     atom   20 type  2   force =    -0.06321112    0.00009459   -0.03224471
     atom   21 type  2   force =     0.06320488    0.00004139   -0.03245623
     atom   22 type  1   force =     0.00072710    0.00103409    0.05976956
     atom   23 type  2   force =    -0.00017524    0.00006671   -0.00177643
     atom   24 type  2   force =    -0.00143400   -0.00000704   -0.02326618
     atom   25 type  2   force =    -0.00314003    0.00059336    0.00791409
     atom   26 type  1   force =     0.00066082    0.00033723    0.00457718
     atom   27 type  2   force =     0.00050160    0.00055478   -0.00383280
     atom   28 type  2   force =     0.00014526   -0.00012569   -0.00111167
     atom   29 type  2   force =     0.00022334   -0.00034081   -0.00059871
     atom   30 type  1   force =     0.00041039   -0.00060122    0.00373985
     atom   31 type  2   force =     0.00012418   -0.00003321   -0.00274448
     atom   32 type  2   force =    -0.00013752    0.00006915   -0.00051247
     atom   33 type  2   force =    -0.00010278    0.00001672    0.07898436
     atom   34 type  1   force =     0.00006156   -0.00020214    0.11902919
     atom   35 type  2   force =    -0.00028936   -0.00003488   -0.06639030
     atom   36 type  2   force =    -0.06318181   -0.00008135   -0.03230880
     atom   37 type  2   force =     0.06330847   -0.00018335   -0.03249552
     atom   38 type  1   force =     0.00065899   -0.00097905    0.05992698
     atom   39 type  2   force =    -0.00045260    0.00007180   -0.00249933
     atom   40 type  2   force =    -0.00119422    0.00032722   -0.02216034
     atom   41 type  2   force =    -0.00317915   -0.00020133    0.00785569
     atom   42 type  1   force =     0.00051668    0.00007848    0.00373783
     atom   43 type  2   force =     0.00069178    0.00040661   -0.00302865
     atom   44 type  2   force =     0.00025145    0.00002628   -0.00111051
     atom   45 type  2   force =     0.00018142    0.00028116   -0.00063927
     atom   46 type  1   force =     0.00045682    0.00020440    0.00404410
     atom   47 type  2   force =    -0.00010692   -0.00034677   -0.00130424
     atom   48 type  2   force =     0.00036320    0.00033035   -0.00172073
     atom   49 type  3   force =    -0.00129542    0.00471290    0.00265463
     atom   50 type  2   force =     0.00233854   -0.00451388   -0.00207057
     atom   51 type  4   force =     0.00011272   -0.00007802   -0.00006700
     atom   52 type  4   force =    -0.00070135    0.00072107    0.00030361
     atom   53 type  4   force =     0.00199921    0.00017929   -0.00294418
     atom   54 type  4   force =    -0.00150194   -0.00159751    0.00176313

     Total force =     0.362694     Total SCF correction =     0.001723
 !ASE

     Writing output data file calc.save
 
     init_run     :     56.37s CPU     71.23s WALL (       1 calls)
     electrons    :   1968.63s CPU   2449.48s WALL (       1 calls)
     forces       :     39.95s CPU     41.46s WALL (       1 calls)

     Called by init_run:
     wfcinit      :     47.96s CPU     61.90s WALL (       1 calls)
     potinit      :      1.38s CPU      1.86s WALL (       1 calls)

     Called by electrons:
     c_bands      :   1717.62s CPU   2136.25s WALL (       9 calls)
     sum_band     :    210.51s CPU    267.05s WALL (       9 calls)
     v_of_rho     :      9.86s CPU     12.39s WALL (      10 calls)
     newd         :     34.45s CPU     37.80s WALL (      10 calls)
     mix_rho      :      0.40s CPU      0.55s WALL (       9 calls)
     vdW_energy   :      1.79s CPU      2.18s WALL (      11 calls)
     vdW_ffts     :      2.67s CPU      3.50s WALL (      22 calls)
     vdW_v        :      1.04s CPU      1.30s WALL (      11 calls)

     Called by c_bands:
     init_us_2    :      5.43s CPU      5.88s WALL (     800 calls)
     cegterg      :   1683.77s CPU   2100.62s WALL (     360 calls)

     Called by *egterg:
     h_psi        :    684.61s CPU   1027.32s WALL (    1953 calls)
     s_psi        :     83.47s CPU     87.55s WALL (    1953 calls)
     g_psi        :      4.59s CPU      4.71s WALL (    1553 calls)
     cdiaghg      :    592.22s CPU    605.33s WALL (    1913 calls)

     Called by h_psi:
     add_vuspsi   :     83.93s CPU     88.11s WALL (    1953 calls)

     General routines
     calbec       :    128.64s CPU    131.65s WALL (    2353 calls)
     fft          :      5.53s CPU      7.28s WALL (     867 calls)
     ffts         :      0.04s CPU      0.06s WALL (      38 calls)
     fftw         :    456.29s CPU    831.69s WALL (  667864 calls)
     interpolate  :      0.32s CPU      0.49s WALL (      38 calls)
     davcio       :      0.12s CPU      4.16s WALL (      40 calls)
 
     Parallel routines
     fft_scatter  :    250.03s CPU    443.32s WALL (  668769 calls)
 
     PWSCF        : 34m26.14s CPU    42m48.23s WALL

 
   This run was terminated on:  16:20:44  12Feb2018            

=------------------------------------------------------------------------------=
   JOB DONE.
=------------------------------------------------------------------------------=
