  python dir          : /home/vossj/suncat/lib/python2.7/site-packages/espresso
  espresso dir        : /home/vossj/suncat/esdld/espresso-dynpy-beef/bin
  pseudo dir          : /home/alatimer/bin/psp/esp_psp_w_gbrvRu/
  ase-espresso py git : ffa2778-git



     Program PWSCF v.5.1rc2 (svn rev. ) starts on 13Feb2018 at  9:44:26 

     This program is part of the open-source Quantum ESPRESSO suite
     for quantum simulation of materials; please cite
         "P. Giannozzi et al., J. Phys.:Condens. Matter 21 395502 (2009);
          URL http://www.quantum-espresso.org", 
     in publications or presentations arising from this work. More details at
     http://www.quantum-espresso.org/quote

     Parallel version (MPI), running on    16 processors
     R & G space division:  proc/nbgrp/npool/nimage =      16
     Reading input from pw.inp
     Message from routine read_cards :
     DEPRECATED: no units specified in CELL_PARAMETERS card

     Current dimensions of program PWSCF are:
     Max number of different atomic species (ntypx) = 10
     Max number of k-points (npk) =  40000
     Max angular momentum in pseudopotentials (lmaxx) =  3

     **************************************************************************
     Initializing libbeef V0.1.1 with the BEEF-vdW functional.
     Citation: Wellendorff et al., PRB 85, 235149 (2012).
     **************************************************************************


     IMPORTANT: XC functional enforced from input :
     Exchange-correlation      = BEEF ( 1  4 27 13 2)
     Any further DFT definition will be discarded
     Please, verify this is what you really want


     Subspace diagonalization in iterative solution of the eigenvalue problem:
     a serial algorithm will be used

 
     Parallelization info
     --------------------
     sticks:   dense  smooth     PW     G-vecs:    dense   smooth      PW
     Min         281     112     31                68535    17318    2565
     Max         282     113     32                68545    17369    2582
     Sum        4501    1795    503              1096637   277353   41113
 
     Generating pointlists ...
     new r_m :   0.4125 (alat units)  0.7795 (a.u.) for type    1
     new r_m :   0.3995 (alat units)  0.7549 (a.u.) for type    2
     new r_m :   0.4125 (alat units)  0.7795 (a.u.) for type    3
     new r_m :   0.3995 (alat units)  0.7549 (a.u.) for type    4


     bravais-lattice index     =            0
     lattice parameter (alat)  =       1.8897  a.u.
     unit-cell volume          =    7990.9933 (a.u.)^3
     number of atoms/cell      =           54
     number of atomic types    =            4
     number of electrons       =       398.00
     number of Kohn-Sham states=          299
     kinetic-energy cutoff     =      40.4243  Ry
     charge density cutoff     =     404.2426  Ry
     convergence threshold     =      7.3E-07
     mixing beta               =       0.1000
     number of iterations used =           10  plain     mixing
     Exchange-correlation      = BEEF ( 1  4 27 13 2)
     nstep                     =           50


     celldm(1)=   1.889726  celldm(2)=   0.000000  celldm(3)=   0.000000
     celldm(4)=   0.000000  celldm(5)=   0.000000  celldm(6)=   0.000000

     crystal axes: (cart. coord. in units of alat)
               a(1) = (   6.590708   0.000000   0.000000 )  
               a(2) = (   0.000000   5.950229   0.000000 )  
               a(3) = (   0.000000   0.000000  30.195235 )  

     reciprocal axes: (cart. coord. in units 2 pi/alat)
               b(1) = (  0.151729  0.000000  0.000000 )  
               b(2) = (  0.000000  0.168061  0.000000 )  
               b(3) = (  0.000000  0.000000  0.033118 )  


     PseudoPot. # 1 for Ti read from file:
     /home/alatimer/bin/psp/esp_psp_w_gbrvRu/Ti.UPF
     MD5 check sum: 8e4df49b7f0d34bbd5052bf3f5ea0213
     Pseudo is Ultrasoft, Zval = 12.0
     Generated by new atomic code, or converted to UPF format
     Using radial grid of  851 points,  6 beta functions with: 
                l(1) =   0
                l(2) =   0
                l(3) =   1
                l(4) =   1
                l(5) =   2
                l(6) =   2
     Q(r) pseudized with  8 coefficients,  rinner =    1.000   1.000   1.000
                                                       1.000   1.000

     PseudoPot. # 2 for  O read from file:
     /home/alatimer/bin/psp/esp_psp_w_gbrvRu/O.UPF
     MD5 check sum: e057bbcf3229fb5d8c36c0c92f9568b4
     Pseudo is Ultrasoft + core correction, Zval =  6.0
     Generated using "atomic" code by A. Dal Corso  v.5.0.2 svn rev. 9415
     Using radial grid of 1095 points,  4 beta functions with: 
                l(1) =   0
                l(2) =   0
                l(3) =   1
                l(4) =   1
     Q(r) pseudized with 0 coefficients 


     PseudoPot. # 3 for  C read from file:
     /home/alatimer/bin/psp/esp_psp_w_gbrvRu/C.UPF
     MD5 check sum: ab446d787031eba755f1d5ee46644bb0
     Pseudo is Ultrasoft + core correction, Zval =  4.0
     Generated using "atomic" code by A. Dal Corso  v.5.0.2 svn rev. 9415
     Using radial grid of 1073 points,  4 beta functions with: 
                l(1) =   0
                l(2) =   0
                l(3) =   1
                l(4) =   1
     Q(r) pseudized with 0 coefficients 


     PseudoPot. # 4 for  H read from file:
     /home/alatimer/bin/psp/esp_psp_w_gbrvRu/H.UPF
     MD5 check sum: bd57da0722753ddfd9833a65b40bb853
     Pseudo is Ultrasoft, Zval =  1.0
     Generated using "atomic" code by A. Dal Corso  v.5.0.2 svn rev. 9415
     Using radial grid of  929 points,  2 beta functions with: 
                l(1) =   0
                l(2) =   0
     Q(r) pseudized with 0 coefficients 


     vdW kernel table read from file vdW_kernel_table
     MD5 check sum: 095c7af220d748ca6e76c0b4c6cfb241

     atomic species   valence    mass     pseudopotential
        Ti1           12.00    47.88000     Ti( 1.00)
        O1             6.00    15.99940      O( 1.00)
        C1             4.00    12.01100      C( 1.00)
        H1             1.00     1.00794      H( 1.00)

     Starting magnetic structure 
     atomic species   magnetization
        Ti1          0.250
        O1           0.500
        C1           0.750
        H1           0.000

     No symmetry found



   Cartesian axes

     site n.     atom                  positions (alat units)
         1           Ti1 tau(   1) = (   1.6476770   0.7437786   2.6545865  )
         2           O1  tau(   2) = (   1.6476770   2.2313359   3.9361215  )
         3           Ti1 tau(   3) = (   1.6476770   2.2313359   5.9499405  )
         4           O1  tau(   4) = (   0.3661420   0.7437786   5.9499405  )
         5           Ti1 tau(   5) = (   1.7592931   0.7557636   9.1813031  )
         6           O1  tau(   6) = (   1.6162490   2.2572048  10.5951269  )
         7           Ti1 tau(   7) = (   1.5595004   2.2680265  12.4668274  )
         8           O1  tau(   8) = (   0.3709531   0.7738127  12.6996540  )
         9           Ti1 tau(   9) = (   1.6476770   3.7188931   2.6545865  )
        10           O1  tau(  10) = (   1.6476770   5.2064503   3.9361215  )
        11           Ti1 tau(  11) = (   1.6476770   5.2064503   5.9499405  )
        12           O1  tau(  12) = (   0.3661420   3.7188931   5.9499405  )
        13           Ti1 tau(  13) = (   1.7607536   3.7112867   9.1949733  )
        14           O1  tau(  14) = (   1.6133076   5.2250699  10.5465640  )
        15           Ti1 tau(  15) = (   1.6492307   5.2431137  12.3448001  )
        16           O1  tau(  16) = (   0.3719744   3.7598389  12.7007434  )
        17           O1  tau(  17) = (   1.6476770   2.2313359   1.3730516  )
        18           Ti1 tau(  18) = (   4.9430310   2.2313359   2.6545865  )
        19           O1  tau(  19) = (   4.9430310   2.2313359   4.6684056  )
        20           O1  tau(  20) = (   6.2245660   0.7437786   2.6545865  )
        21           O1  tau(  21) = (   3.6614961   0.7437786   2.6545865  )
        22           Ti1 tau(  22) = (   4.9430310   0.7437786   5.9499405  )
        23           O1  tau(  23) = (   1.6387103   2.2391978   8.0037664  )
        24           O1  tau(  24) = (   4.9430310   2.2313359   7.2314755  )
        25           O1  tau(  25) = (   2.9292120   0.7437786   5.9499405  )
        26           Ti1 tau(  26) = (   5.0158092   2.2383949   9.3973727  )
        27           O1  tau(  27) = (   4.9391445   2.2276729  11.2675731  )
        28           O1  tau(  28) = (   6.2094020   0.7514556   9.2742047  )
        29           O1  tau(  29) = (   3.6131301   0.7515640   9.2682932  )
        30           Ti1 tau(  30) = (   4.8940083   0.8207741  12.7348365  )
        31           O1  tau(  31) = (   4.8487174   2.2703822  13.8475395  )
        32           O1  tau(  32) = (   2.8766274   0.7418004  12.6316555  )
        33           O1  tau(  33) = (   1.6476770   5.2064503   1.3730516  )
        34           Ti1 tau(  34) = (   4.9430310   5.2064503   2.6545865  )
        35           O1  tau(  35) = (   4.9430310   5.2064503   4.6684056  )
        36           O1  tau(  36) = (   6.2245660   3.7188931   2.6545865  )
        37           O1  tau(  37) = (   3.6614961   3.7188931   2.6545865  )
        38           Ti1 tau(  38) = (   4.9430310   3.7188931   5.9499405  )
        39           O1  tau(  39) = (   1.6418458   5.2133935   8.0066417  )
        40           O1  tau(  40) = (   4.9430310   5.2064503   7.2314755  )
        41           O1  tau(  41) = (   2.9292120   3.7188931   5.9499405  )
        42           Ti1 tau(  42) = (   5.0218241   5.2139137   9.3870600  )
        43           O1  tau(  43) = (   4.9399496   5.2040061  11.2598200  )
        44           O1  tau(  44) = (   6.2073000   3.7245411   9.2731052  )
        45           O1  tau(  45) = (   3.6137513   3.7232133   9.2682466  )
        46           Ti1 tau(  46) = (   4.8936935   3.8094630  12.7397413  )
        47           O1  tau(  47) = (   4.9051259   5.2510468  13.8339921  )
        48           O1  tau(  48) = (   2.8743370   3.7938830  12.6403791  )
        49           C1  tau(  49) = (   1.0587210   2.2268971  15.9066084  )
        50           O1  tau(  50) = (   1.8917182   2.2355032  14.7378010  )
        51           H1  tau(  51) = (   0.0310076   2.2200215  15.5603933  )
        52           H1  tau(  52) = (   2.8355400   2.2288152  14.9543747  )
        53           H1  tau(  53) = (   1.2478062   1.3326534  16.5039879  )
        54           H1  tau(  54) = (   1.2341453   3.1195140  16.5398874  )

     number of k points=    40  Fermi-Dirac smearing, width (Ry)=  0.0073
                       cart. coord. in units 2pi/alat
        k(    1) = (   0.0000000   0.0000000   0.0000000), wk =   0.0277778
        k(    2) = (   0.0000000   0.0280101   0.0000000), wk =   0.0555556
        k(    3) = (   0.0000000   0.0560203   0.0000000), wk =   0.0555556
        k(    4) = (   0.0000000  -0.0840304   0.0000000), wk =   0.0277778
        k(    5) = (   0.0252881   0.0000000   0.0000000), wk =   0.0555556
        k(    6) = (   0.0252881   0.0280101   0.0000000), wk =   0.0555556
        k(    7) = (   0.0252881   0.0560203   0.0000000), wk =   0.0555556
        k(    8) = (   0.0252881  -0.0840304   0.0000000), wk =   0.0555556
        k(    9) = (   0.0505763   0.0000000   0.0000000), wk =   0.0555556
        k(   10) = (   0.0505763   0.0280101   0.0000000), wk =   0.0555556
        k(   11) = (   0.0505763   0.0560203   0.0000000), wk =   0.0555556
        k(   12) = (   0.0505763  -0.0840304   0.0000000), wk =   0.0555556
        k(   13) = (  -0.0758644   0.0000000   0.0000000), wk =   0.0277778
        k(   14) = (  -0.0758644   0.0280101   0.0000000), wk =   0.0555556
        k(   15) = (  -0.0758644   0.0560203   0.0000000), wk =   0.0555556
        k(   16) = (  -0.0758644  -0.0840304   0.0000000), wk =   0.0277778
        k(   17) = (  -0.0252881   0.0280101   0.0000000), wk =   0.0555556
        k(   18) = (  -0.0252881   0.0560203   0.0000000), wk =   0.0555556
        k(   19) = (  -0.0505763   0.0280101   0.0000000), wk =   0.0555556
        k(   20) = (  -0.0505763   0.0560203   0.0000000), wk =   0.0555556
        k(   21) = (   0.0000000   0.0000000   0.0000000), wk =   0.0277778
        k(   22) = (   0.0000000   0.0280101   0.0000000), wk =   0.0555556
        k(   23) = (   0.0000000   0.0560203   0.0000000), wk =   0.0555556
        k(   24) = (   0.0000000  -0.0840304   0.0000000), wk =   0.0277778
        k(   25) = (   0.0252881   0.0000000   0.0000000), wk =   0.0555556
        k(   26) = (   0.0252881   0.0280101   0.0000000), wk =   0.0555556
        k(   27) = (   0.0252881   0.0560203   0.0000000), wk =   0.0555556
        k(   28) = (   0.0252881  -0.0840304   0.0000000), wk =   0.0555556
        k(   29) = (   0.0505763   0.0000000   0.0000000), wk =   0.0555556
        k(   30) = (   0.0505763   0.0280101   0.0000000), wk =   0.0555556
        k(   31) = (   0.0505763   0.0560203   0.0000000), wk =   0.0555556
        k(   32) = (   0.0505763  -0.0840304   0.0000000), wk =   0.0555556
        k(   33) = (  -0.0758644   0.0000000   0.0000000), wk =   0.0277778
        k(   34) = (  -0.0758644   0.0280101   0.0000000), wk =   0.0555556
        k(   35) = (  -0.0758644   0.0560203   0.0000000), wk =   0.0555556
        k(   36) = (  -0.0758644  -0.0840304   0.0000000), wk =   0.0277778
        k(   37) = (  -0.0252881   0.0280101   0.0000000), wk =   0.0555556
        k(   38) = (  -0.0252881   0.0560203   0.0000000), wk =   0.0555556
        k(   39) = (  -0.0505763   0.0280101   0.0000000), wk =   0.0555556
        k(   40) = (  -0.0505763   0.0560203   0.0000000), wk =   0.0555556

     Dense  grid:  1096637 G-vectors     FFT dimensions: (  80,  72, 375)

     Smooth grid:   277353 G-vectors     FFT dimensions: (  54,  45, 240)

     Largest allocated arrays     est. size (Mb)     dimensions
        Kohn-Sham Wavefunctions         9.95 Mb     (    2180,  299)
        NL pseudopotentials            18.89 Mb     (    2180,  568)
        Each V/rho on FFT grid          4.22 Mb     (  138240,   2)
        Each G-vector array             0.52 Mb     (   68538)
        G-vector shells                 0.25 Mb     (   33046)
     Largest temporary arrays     est. size (Mb)     dimensions
        Auxiliary wavefunctions        39.78 Mb     (    2180, 1196)
        Each subspace H/S matrix       21.83 Mb     (    1196, 1196)
        Each <psi_i|beta_j> matrix      2.59 Mb     (     568,  299)
        Arrays for rho mixing          21.09 Mb     (  138240,   10)

     Check: negative/imaginary core charge=   -0.000049    0.000000

     The initial density is read from file :
     ./calc.save/charge-density.dat


     negative rho (up, down):  1.209E-02 1.209E-02


     ************************************************************************
     *
     * You are using vdW-DF for exchange-correlation in this calculation.
     * Please cite the following three references that made this development
     * possible:
     *
     *   M. Dion, H. Rydberg, E. Schroder, D. C. Langreth, and
     *   B. I. Lundqvist, Phys. Rev. Lett. 92, 246401 (2004).
     *
     *   T. Thonhauser, V. R. Cooper, S. Li, A. Puzder, P. Hyldgaard, and
     *   D. C. Langreth, Phys. Rev. B 76, 125112 (2007).
     *
     *   G. Roman-Perez and J. M. Soler, Phys. Rev. Lett. 103, 096102 (2009).
     *
     *
     * If you are using vdW-DF2, please also cite:
     *
     *   K. Lee, E. D. Murray, L. Kong, B. I. Lundqvist, and
     *   D. C. Langreth, Phys. Rev. B 82, 081101(R) (2010).
     *
     *
     * If you are calculating the stress with vdW-DF, please also cite:
     *
     *   R. Sabatini, E. Kucukbenli, B. Kolb, T. Thonhauser, and
     *   S. de Gironcoli, J. Phys.: Condens. Matter 24, 424209 (2012).
     *
     ************************************************************************

     Carrying out vdW-DF run using the following parameters:

     Nqs =      20    Nr_points =    1024   r_max =   100.000
     q_mesh =
               0.00001000     0.04494208     0.09755937     0.15916263
               0.23128650     0.31572767     0.41458969     0.53033537
               0.66584808     0.82450364     1.01025438     1.22772762
               1.48234092     1.78043706     2.12944203     2.53805004
               3.01644009     3.57652955     4.23227104     5.00000000

     Gradients computed in reciprocal space

     ************************************************************************


     Starting wfc are  300 randomized atomic wfcs

     total cpu time spent up to now is       70.6 secs

     Self-consistent Calculation

     iteration #  1     ecut=    40.42 Ry     beta=0.10
     Davidson diagonalization with overlap
     ethr =  1.00E-05,  avg # of iterations = 14.6

     Threshold (ethr) on eigenvalues was too large:
     Diagonalizing with lowered threshold

     Davidson diagonalization with overlap
     ethr =  5.30E-07,  avg # of iterations =  1.0

     negative rho (up, down):  1.208E-02 1.208E-02
 
     Magnetic moment per site:
     atom:    1    charge:    3.1250    magn:   -0.0002    constr:    0.0000
     atom:    2    charge:    1.9452    magn:    0.0000    constr:    0.0000
     atom:    3    charge:    3.1197    magn:    0.0000    constr:    0.0000
     atom:    4    charge:    1.9504    magn:   -0.0001    constr:    0.0000
     atom:    5    charge:    3.1166    magn:    0.0000    constr:    0.0000
     atom:    6    charge:    1.9477    magn:   -0.0001    constr:    0.0000
     atom:    7    charge:    3.1156    magn:    0.0001    constr:    0.0000
     atom:    8    charge:    1.9452    magn:   -0.0001    constr:    0.0000
     atom:    9    charge:    3.1250    magn:   -0.0002    constr:    0.0000
     atom:   10    charge:    1.9452    magn:    0.0000    constr:    0.0000
     atom:   11    charge:    3.1197    magn:    0.0000    constr:    0.0000
     atom:   12    charge:    1.9504    magn:   -0.0001    constr:    0.0000
     atom:   13    charge:    3.1158    magn:    0.0000    constr:    0.0000
     atom:   14    charge:    1.9587    magn:   -0.0001    constr:    0.0000
     atom:   15    charge:    3.1188    magn:    0.0001    constr:    0.0000
     atom:   16    charge:    1.9445    magn:   -0.0001    constr:    0.0000
     atom:   17    charge:    1.9185    magn:    0.0004    constr:    0.0000
     atom:   18    charge:    3.1240    magn:   -0.0001    constr:    0.0000
     atom:   19    charge:    1.9408    magn:   -0.0000    constr:    0.0000
     atom:   20    charge:    1.9471    magn:    0.0000    constr:    0.0000
     atom:   21    charge:    1.9471    magn:    0.0000    constr:    0.0000
     atom:   22    charge:    3.1196    magn:    0.0000    constr:    0.0000
     atom:   23    charge:    1.9566    magn:   -0.0001    constr:    0.0000
     atom:   24    charge:    1.9379    magn:   -0.0001    constr:    0.0000
     atom:   25    charge:    1.9505    magn:   -0.0001    constr:    0.0000
     atom:   26    charge:    3.1145    magn:    0.0001    constr:    0.0000
     atom:   27    charge:    1.9398    magn:   -0.0001    constr:    0.0000
     atom:   28    charge:    1.9517    magn:   -0.0001    constr:    0.0000
     atom:   29    charge:    1.9476    magn:   -0.0001    constr:    0.0000
     atom:   30    charge:    3.1167    magn:    0.0000    constr:    0.0000
     atom:   31    charge:    1.9447    magn:   -0.0000    constr:    0.0000
     atom:   32    charge:    1.9440    magn:   -0.0001    constr:    0.0000
     atom:   33    charge:    1.9185    magn:    0.0004    constr:    0.0000
     atom:   34    charge:    3.1240    magn:   -0.0001    constr:    0.0000
     atom:   35    charge:    1.9408    magn:   -0.0000    constr:    0.0000
     atom:   36    charge:    1.9471    magn:    0.0000    constr:    0.0000
     atom:   37    charge:    1.9471    magn:    0.0000    constr:    0.0000
     atom:   38    charge:    3.1196    magn:    0.0000    constr:    0.0000
     atom:   39    charge:    1.9550    magn:   -0.0001    constr:    0.0000
     atom:   40    charge:    1.9382    magn:   -0.0001    constr:    0.0000
     atom:   41    charge:    1.9505    magn:   -0.0001    constr:    0.0000
     atom:   42    charge:    3.1141    magn:    0.0001    constr:    0.0000
     atom:   43    charge:    1.9413    magn:   -0.0001    constr:    0.0000
     atom:   44    charge:    1.9518    magn:   -0.0001    constr:    0.0000
     atom:   45    charge:    1.9468    magn:   -0.0001    constr:    0.0000
     atom:   46    charge:    3.1165    magn:    0.0000    constr:    0.0000
     atom:   47    charge:    1.9431    magn:   -0.0000    constr:    0.0000
     atom:   48    charge:    1.9444    magn:   -0.0001    constr:    0.0000
     atom:   49    charge:    0.6572    magn:   -0.0001    constr:    0.0000
     atom:   50    charge:    1.9576    magn:   -0.0001    constr:    0.0000
     atom:   51    charge:    0.4023    magn:    0.0000    constr:    0.0000
     atom:   52    charge:    0.4006    magn:    0.0000    constr:    0.0000
     atom:   53    charge:    0.4035    magn:    0.0000    constr:    0.0000
     atom:   54    charge:    0.3949    magn:    0.0000    constr:    0.0000

     total cpu time spent up to now is     1006.4 secs

     total energy              =   -3021.42002571 Ry
     Harris-Foulkes estimate   =   -3021.42023777 Ry
     estimated scf accuracy    <       0.00210415 Ry

     total magnetization       =     0.00 Bohr mag/cell
     absolute magnetization    =     0.01 Bohr mag/cell

     iteration #  2     ecut=    40.42 Ry     beta=0.10
     Davidson diagonalization with overlap
     ethr =  5.29E-07,  avg # of iterations =  2.0

     negative rho (up, down):  1.207E-02 1.207E-02
 
     Magnetic moment per site:
     atom:    1    charge:    3.1250    magn:   -0.0001    constr:    0.0000
     atom:    2    charge:    1.9452    magn:    0.0000    constr:    0.0000
     atom:    3    charge:    3.1198    magn:    0.0000    constr:    0.0000
     atom:    4    charge:    1.9504    magn:   -0.0000    constr:    0.0000
     atom:    5    charge:    3.1166    magn:    0.0000    constr:    0.0000
     atom:    6    charge:    1.9477    magn:   -0.0001    constr:    0.0000
     atom:    7    charge:    3.1156    magn:    0.0000    constr:    0.0000
     atom:    8    charge:    1.9452    magn:   -0.0001    constr:    0.0000
     atom:    9    charge:    3.1250    magn:   -0.0001    constr:    0.0000
     atom:   10    charge:    1.9452    magn:    0.0000    constr:    0.0000
     atom:   11    charge:    3.1197    magn:    0.0000    constr:    0.0000
     atom:   12    charge:    1.9504    magn:   -0.0000    constr:    0.0000
     atom:   13    charge:    3.1158    magn:    0.0000    constr:    0.0000
     atom:   14    charge:    1.9587    magn:   -0.0001    constr:    0.0000
     atom:   15    charge:    3.1188    magn:    0.0001    constr:    0.0000
     atom:   16    charge:    1.9445    magn:   -0.0001    constr:    0.0000
     atom:   17    charge:    1.9184    magn:    0.0004    constr:    0.0000
     atom:   18    charge:    3.1240    magn:   -0.0001    constr:    0.0000
     atom:   19    charge:    1.9408    magn:   -0.0000    constr:    0.0000
     atom:   20    charge:    1.9471    magn:    0.0000    constr:    0.0000
     atom:   21    charge:    1.9471    magn:    0.0000    constr:    0.0000
     atom:   22    charge:    3.1196    magn:    0.0000    constr:    0.0000
     atom:   23    charge:    1.9566    magn:   -0.0001    constr:    0.0000
     atom:   24    charge:    1.9379    magn:   -0.0000    constr:    0.0000
     atom:   25    charge:    1.9505    magn:   -0.0000    constr:    0.0000
     atom:   26    charge:    3.1145    magn:    0.0000    constr:    0.0000
     atom:   27    charge:    1.9398    magn:   -0.0001    constr:    0.0000
     atom:   28    charge:    1.9517    magn:   -0.0001    constr:    0.0000
     atom:   29    charge:    1.9476    magn:   -0.0001    constr:    0.0000
     atom:   30    charge:    3.1167    magn:    0.0000    constr:    0.0000
     atom:   31    charge:    1.9447    magn:   -0.0000    constr:    0.0000
     atom:   32    charge:    1.9440    magn:   -0.0001    constr:    0.0000
     atom:   33    charge:    1.9184    magn:    0.0004    constr:    0.0000
     atom:   34    charge:    3.1240    magn:   -0.0001    constr:    0.0000
     atom:   35    charge:    1.9408    magn:   -0.0000    constr:    0.0000
     atom:   36    charge:    1.9471    magn:    0.0000    constr:    0.0000
     atom:   37    charge:    1.9471    magn:    0.0000    constr:    0.0000
     atom:   38    charge:    3.1196    magn:    0.0000    constr:    0.0000
     atom:   39    charge:    1.9550    magn:   -0.0001    constr:    0.0000
     atom:   40    charge:    1.9383    magn:   -0.0000    constr:    0.0000
     atom:   41    charge:    1.9505    magn:   -0.0000    constr:    0.0000
     atom:   42    charge:    3.1141    magn:    0.0000    constr:    0.0000
     atom:   43    charge:    1.9413    magn:   -0.0001    constr:    0.0000
     atom:   44    charge:    1.9518    magn:   -0.0001    constr:    0.0000
     atom:   45    charge:    1.9469    magn:   -0.0001    constr:    0.0000
     atom:   46    charge:    3.1165    magn:    0.0000    constr:    0.0000
     atom:   47    charge:    1.9431    magn:   -0.0000    constr:    0.0000
     atom:   48    charge:    1.9444    magn:   -0.0001    constr:    0.0000
     atom:   49    charge:    0.6547    magn:   -0.0000    constr:    0.0000
     atom:   50    charge:    1.9572    magn:   -0.0001    constr:    0.0000
     atom:   51    charge:    0.4024    magn:    0.0000    constr:    0.0000
     atom:   52    charge:    0.4007    magn:    0.0000    constr:    0.0000
     atom:   53    charge:    0.4041    magn:    0.0000    constr:    0.0000
     atom:   54    charge:    0.3953    magn:    0.0000    constr:    0.0000

     total cpu time spent up to now is     1193.4 secs

     total energy              =   -3021.41963733 Ry
     Harris-Foulkes estimate   =   -3021.42004370 Ry
     estimated scf accuracy    <       0.00139574 Ry

     total magnetization       =     0.00 Bohr mag/cell
     absolute magnetization    =     0.01 Bohr mag/cell

     iteration #  3     ecut=    40.42 Ry     beta=0.10
     Davidson diagonalization with overlap
     ethr =  3.51E-07,  avg # of iterations =  5.3

     negative rho (up, down):  1.207E-02 1.207E-02
 
     Magnetic moment per site:
     atom:    1    charge:    3.1250    magn:   -0.0001    constr:    0.0000
     atom:    2    charge:    1.9451    magn:    0.0000    constr:    0.0000
     atom:    3    charge:    3.1198    magn:    0.0000    constr:    0.0000
     atom:    4    charge:    1.9504    magn:   -0.0000    constr:    0.0000
     atom:    5    charge:    3.1166    magn:    0.0000    constr:    0.0000
     atom:    6    charge:    1.9476    magn:   -0.0001    constr:    0.0000
     atom:    7    charge:    3.1157    magn:    0.0000    constr:    0.0000
     atom:    8    charge:    1.9452    magn:   -0.0001    constr:    0.0000
     atom:    9    charge:    3.1250    magn:   -0.0001    constr:    0.0000
     atom:   10    charge:    1.9452    magn:    0.0000    constr:    0.0000
     atom:   11    charge:    3.1197    magn:    0.0000    constr:    0.0000
     atom:   12    charge:    1.9504    magn:   -0.0000    constr:    0.0000
     atom:   13    charge:    3.1158    magn:    0.0000    constr:    0.0000
     atom:   14    charge:    1.9587    magn:   -0.0001    constr:    0.0000
     atom:   15    charge:    3.1188    magn:    0.0000    constr:    0.0000
     atom:   16    charge:    1.9445    magn:   -0.0001    constr:    0.0000
     atom:   17    charge:    1.9183    magn:    0.0003    constr:    0.0000
     atom:   18    charge:    3.1239    magn:   -0.0001    constr:    0.0000
     atom:   19    charge:    1.9408    magn:   -0.0000    constr:    0.0000
     atom:   20    charge:    1.9471    magn:    0.0000    constr:    0.0000
     atom:   21    charge:    1.9471    magn:    0.0000    constr:    0.0000
     atom:   22    charge:    3.1196    magn:    0.0000    constr:    0.0000
     atom:   23    charge:    1.9566    magn:   -0.0001    constr:    0.0000
     atom:   24    charge:    1.9380    magn:   -0.0000    constr:    0.0000
     atom:   25    charge:    1.9505    magn:   -0.0000    constr:    0.0000
     atom:   26    charge:    3.1145    magn:    0.0000    constr:    0.0000
     atom:   27    charge:    1.9398    magn:   -0.0000    constr:    0.0000
     atom:   28    charge:    1.9517    magn:   -0.0001    constr:    0.0000
     atom:   29    charge:    1.9476    magn:   -0.0001    constr:    0.0000
     atom:   30    charge:    3.1167    magn:    0.0000    constr:    0.0000
     atom:   31    charge:    1.9447    magn:   -0.0000    constr:    0.0000
     atom:   32    charge:    1.9440    magn:   -0.0001    constr:    0.0000
     atom:   33    charge:    1.9183    magn:    0.0003    constr:    0.0000
     atom:   34    charge:    3.1239    magn:   -0.0001    constr:    0.0000
     atom:   35    charge:    1.9408    magn:   -0.0000    constr:    0.0000
     atom:   36    charge:    1.9471    magn:    0.0000    constr:    0.0000
     atom:   37    charge:    1.9471    magn:    0.0000    constr:    0.0000
     atom:   38    charge:    3.1196    magn:    0.0000    constr:    0.0000
     atom:   39    charge:    1.9549    magn:   -0.0001    constr:    0.0000
     atom:   40    charge:    1.9383    magn:   -0.0000    constr:    0.0000
     atom:   41    charge:    1.9505    magn:   -0.0000    constr:    0.0000
     atom:   42    charge:    3.1141    magn:    0.0000    constr:    0.0000
     atom:   43    charge:    1.9413    magn:   -0.0000    constr:    0.0000
     atom:   44    charge:    1.9517    magn:   -0.0001    constr:    0.0000
     atom:   45    charge:    1.9468    magn:   -0.0001    constr:    0.0000
     atom:   46    charge:    3.1165    magn:    0.0000    constr:    0.0000
     atom:   47    charge:    1.9431    magn:   -0.0000    constr:    0.0000
     atom:   48    charge:    1.9444    magn:   -0.0001    constr:    0.0000
     atom:   49    charge:    0.6545    magn:   -0.0000    constr:    0.0000
     atom:   50    charge:    1.9573    magn:   -0.0000    constr:    0.0000
     atom:   51    charge:    0.4024    magn:    0.0000    constr:    0.0000
     atom:   52    charge:    0.4007    magn:    0.0000    constr:    0.0000
     atom:   53    charge:    0.4041    magn:    0.0000    constr:    0.0000
     atom:   54    charge:    0.3953    magn:    0.0000    constr:    0.0000

     total cpu time spent up to now is     1433.6 secs

     total energy              =   -3021.41972857 Ry
     Harris-Foulkes estimate   =   -3021.41976153 Ry
     estimated scf accuracy    <       0.00027848 Ry

     total magnetization       =     0.00 Bohr mag/cell
     absolute magnetization    =     0.00 Bohr mag/cell

     iteration #  4     ecut=    40.42 Ry     beta=0.10
     Davidson diagonalization with overlap
     ethr =  7.00E-08,  avg # of iterations =  3.0

     negative rho (up, down):  1.207E-02 1.207E-02
 
     Magnetic moment per site:
     atom:    1    charge:    3.1250    magn:   -0.0001    constr:    0.0000
     atom:    2    charge:    1.9451    magn:    0.0000    constr:    0.0000
     atom:    3    charge:    3.1198    magn:    0.0000    constr:    0.0000
     atom:    4    charge:    1.9504    magn:   -0.0000    constr:    0.0000
     atom:    5    charge:    3.1166    magn:    0.0000    constr:    0.0000
     atom:    6    charge:    1.9476    magn:   -0.0000    constr:    0.0000
     atom:    7    charge:    3.1158    magn:    0.0000    constr:    0.0000
     atom:    8    charge:    1.9452    magn:   -0.0000    constr:    0.0000
     atom:    9    charge:    3.1250    magn:   -0.0001    constr:    0.0000
     atom:   10    charge:    1.9452    magn:    0.0000    constr:    0.0000
     atom:   11    charge:    3.1197    magn:    0.0000    constr:    0.0000
     atom:   12    charge:    1.9504    magn:   -0.0000    constr:    0.0000
     atom:   13    charge:    3.1158    magn:    0.0000    constr:    0.0000
     atom:   14    charge:    1.9587    magn:   -0.0000    constr:    0.0000
     atom:   15    charge:    3.1189    magn:    0.0000    constr:    0.0000
     atom:   16    charge:    1.9446    magn:   -0.0000    constr:    0.0000
     atom:   17    charge:    1.9183    magn:    0.0002    constr:    0.0000
     atom:   18    charge:    3.1239    magn:   -0.0000    constr:    0.0000
     atom:   19    charge:    1.9408    magn:   -0.0000    constr:    0.0000
     atom:   20    charge:    1.9471    magn:    0.0000    constr:    0.0000
     atom:   21    charge:    1.9471    magn:    0.0000    constr:    0.0000
     atom:   22    charge:    3.1196    magn:    0.0000    constr:    0.0000
     atom:   23    charge:    1.9566    magn:   -0.0000    constr:    0.0000
     atom:   24    charge:    1.9379    magn:   -0.0000    constr:    0.0000
     atom:   25    charge:    1.9505    magn:   -0.0000    constr:    0.0000
     atom:   26    charge:    3.1145    magn:    0.0000    constr:    0.0000
     atom:   27    charge:    1.9398    magn:   -0.0000    constr:    0.0000
     atom:   28    charge:    1.9517    magn:   -0.0000    constr:    0.0000
     atom:   29    charge:    1.9476    magn:   -0.0000    constr:    0.0000
     atom:   30    charge:    3.1167    magn:    0.0000    constr:    0.0000
     atom:   31    charge:    1.9447    magn:   -0.0000    constr:    0.0000
     atom:   32    charge:    1.9440    magn:   -0.0000    constr:    0.0000
     atom:   33    charge:    1.9183    magn:    0.0002    constr:    0.0000
     atom:   34    charge:    3.1239    magn:   -0.0000    constr:    0.0000
     atom:   35    charge:    1.9408    magn:   -0.0000    constr:    0.0000
     atom:   36    charge:    1.9471    magn:    0.0000    constr:    0.0000
     atom:   37    charge:    1.9471    magn:    0.0000    constr:    0.0000
     atom:   38    charge:    3.1196    magn:    0.0000    constr:    0.0000
     atom:   39    charge:    1.9549    magn:   -0.0000    constr:    0.0000
     atom:   40    charge:    1.9383    magn:   -0.0000    constr:    0.0000
     atom:   41    charge:    1.9505    magn:   -0.0000    constr:    0.0000
     atom:   42    charge:    3.1141    magn:    0.0000    constr:    0.0000
     atom:   43    charge:    1.9413    magn:   -0.0000    constr:    0.0000
     atom:   44    charge:    1.9517    magn:   -0.0000    constr:    0.0000
     atom:   45    charge:    1.9468    magn:   -0.0000    constr:    0.0000
     atom:   46    charge:    3.1165    magn:    0.0000    constr:    0.0000
     atom:   47    charge:    1.9431    magn:   -0.0000    constr:    0.0000
     atom:   48    charge:    1.9445    magn:   -0.0000    constr:    0.0000
     atom:   49    charge:    0.6547    magn:   -0.0000    constr:    0.0000
     atom:   50    charge:    1.9576    magn:   -0.0000    constr:    0.0000
     atom:   51    charge:    0.4022    magn:    0.0000    constr:    0.0000
     atom:   52    charge:    0.4005    magn:    0.0000    constr:    0.0000
     atom:   53    charge:    0.4039    magn:    0.0000    constr:    0.0000
     atom:   54    charge:    0.3953    magn:    0.0000    constr:    0.0000

     total cpu time spent up to now is     1636.4 secs

     total energy              =   -3021.41972775 Ry
     Harris-Foulkes estimate   =   -3021.41973680 Ry
     estimated scf accuracy    <       0.00011346 Ry

     total magnetization       =     0.00 Bohr mag/cell
     absolute magnetization    =     0.00 Bohr mag/cell

     iteration #  5     ecut=    40.42 Ry     beta=0.10
     Davidson diagonalization with overlap
     ethr =  2.85E-08,  avg # of iterations =  3.0

     negative rho (up, down):  1.207E-02 1.207E-02
 
     Magnetic moment per site:
     atom:    1    charge:    3.1250    magn:   -0.0001    constr:    0.0000
     atom:    2    charge:    1.9452    magn:    0.0000    constr:    0.0000
     atom:    3    charge:    3.1197    magn:    0.0000    constr:    0.0000
     atom:    4    charge:    1.9504    magn:   -0.0000    constr:    0.0000
     atom:    5    charge:    3.1166    magn:    0.0000    constr:    0.0000
     atom:    6    charge:    1.9477    magn:   -0.0000    constr:    0.0000
     atom:    7    charge:    3.1157    magn:    0.0000    constr:    0.0000
     atom:    8    charge:    1.9452    magn:   -0.0000    constr:    0.0000
     atom:    9    charge:    3.1250    magn:   -0.0001    constr:    0.0000
     atom:   10    charge:    1.9452    magn:    0.0000    constr:    0.0000
     atom:   11    charge:    3.1197    magn:    0.0000    constr:    0.0000
     atom:   12    charge:    1.9504    magn:   -0.0000    constr:    0.0000
     atom:   13    charge:    3.1158    magn:    0.0000    constr:    0.0000
     atom:   14    charge:    1.9587    magn:   -0.0000    constr:    0.0000
     atom:   15    charge:    3.1188    magn:    0.0000    constr:    0.0000
     atom:   16    charge:    1.9446    magn:   -0.0000    constr:    0.0000
     atom:   17    charge:    1.9184    magn:    0.0002    constr:    0.0000
     atom:   18    charge:    3.1239    magn:   -0.0000    constr:    0.0000
     atom:   19    charge:    1.9408    magn:   -0.0000    constr:    0.0000
     atom:   20    charge:    1.9471    magn:    0.0000    constr:    0.0000
     atom:   21    charge:    1.9471    magn:    0.0000    constr:    0.0000
     atom:   22    charge:    3.1196    magn:    0.0000    constr:    0.0000
     atom:   23    charge:    1.9566    magn:   -0.0000    constr:    0.0000
     atom:   24    charge:    1.9379    magn:   -0.0000    constr:    0.0000
     atom:   25    charge:    1.9505    magn:   -0.0000    constr:    0.0000
     atom:   26    charge:    3.1145    magn:    0.0000    constr:    0.0000
     atom:   27    charge:    1.9398    magn:   -0.0000    constr:    0.0000
     atom:   28    charge:    1.9517    magn:   -0.0000    constr:    0.0000
     atom:   29    charge:    1.9476    magn:   -0.0000    constr:    0.0000
     atom:   30    charge:    3.1167    magn:    0.0000    constr:    0.0000
     atom:   31    charge:    1.9447    magn:   -0.0000    constr:    0.0000
     atom:   32    charge:    1.9440    magn:   -0.0000    constr:    0.0000
     atom:   33    charge:    1.9184    magn:    0.0002    constr:    0.0000
     atom:   34    charge:    3.1239    magn:   -0.0000    constr:    0.0000
     atom:   35    charge:    1.9408    magn:   -0.0000    constr:    0.0000
     atom:   36    charge:    1.9471    magn:    0.0000    constr:    0.0000
     atom:   37    charge:    1.9471    magn:    0.0000    constr:    0.0000
     atom:   38    charge:    3.1196    magn:    0.0000    constr:    0.0000
     atom:   39    charge:    1.9550    magn:   -0.0000    constr:    0.0000
     atom:   40    charge:    1.9382    magn:   -0.0000    constr:    0.0000
     atom:   41    charge:    1.9505    magn:   -0.0000    constr:    0.0000
     atom:   42    charge:    3.1141    magn:    0.0000    constr:    0.0000
     atom:   43    charge:    1.9413    magn:   -0.0000    constr:    0.0000
     atom:   44    charge:    1.9517    magn:   -0.0000    constr:    0.0000
     atom:   45    charge:    1.9468    magn:   -0.0000    constr:    0.0000
     atom:   46    charge:    3.1165    magn:    0.0000    constr:    0.0000
     atom:   47    charge:    1.9431    magn:   -0.0000    constr:    0.0000
     atom:   48    charge:    1.9445    magn:   -0.0000    constr:    0.0000
     atom:   49    charge:    0.6557    magn:   -0.0000    constr:    0.0000
     atom:   50    charge:    1.9578    magn:   -0.0000    constr:    0.0000
     atom:   51    charge:    0.4021    magn:    0.0000    constr:    0.0000
     atom:   52    charge:    0.4005    magn:    0.0000    constr:    0.0000
     atom:   53    charge:    0.4036    magn:    0.0000    constr:    0.0000
     atom:   54    charge:    0.3951    magn:    0.0000    constr:    0.0000

     total cpu time spent up to now is     1840.3 secs

     total energy              =   -3021.41972386 Ry
     Harris-Foulkes estimate   =   -3021.41973343 Ry
     estimated scf accuracy    <       0.00003209 Ry

     total magnetization       =     0.00 Bohr mag/cell
     absolute magnetization    =     0.00 Bohr mag/cell

     iteration #  6     ecut=    40.42 Ry     beta=0.10
     Davidson diagonalization with overlap
     ethr =  8.06E-09,  avg # of iterations =  4.0

     negative rho (up, down):  1.207E-02 1.207E-02
 
     Magnetic moment per site:
     atom:    1    charge:    3.1250    magn:   -0.0001    constr:    0.0000
     atom:    2    charge:    1.9452    magn:    0.0000    constr:    0.0000
     atom:    3    charge:    3.1198    magn:    0.0000    constr:    0.0000
     atom:    4    charge:    1.9504    magn:   -0.0000    constr:    0.0000
     atom:    5    charge:    3.1166    magn:    0.0000    constr:    0.0000
     atom:    6    charge:    1.9476    magn:   -0.0000    constr:    0.0000
     atom:    7    charge:    3.1157    magn:    0.0000    constr:    0.0000
     atom:    8    charge:    1.9452    magn:   -0.0000    constr:    0.0000
     atom:    9    charge:    3.1250    magn:   -0.0001    constr:    0.0000
     atom:   10    charge:    1.9452    magn:    0.0000    constr:    0.0000
     atom:   11    charge:    3.1197    magn:    0.0000    constr:    0.0000
     atom:   12    charge:    1.9504    magn:   -0.0000    constr:    0.0000
     atom:   13    charge:    3.1158    magn:    0.0000    constr:    0.0000
     atom:   14    charge:    1.9587    magn:   -0.0000    constr:    0.0000
     atom:   15    charge:    3.1188    magn:    0.0000    constr:    0.0000
     atom:   16    charge:    1.9446    magn:   -0.0000    constr:    0.0000
     atom:   17    charge:    1.9184    magn:    0.0002    constr:    0.0000
     atom:   18    charge:    3.1239    magn:   -0.0000    constr:    0.0000
     atom:   19    charge:    1.9408    magn:   -0.0000    constr:    0.0000
     atom:   20    charge:    1.9471    magn:    0.0000    constr:    0.0000
     atom:   21    charge:    1.9471    magn:    0.0000    constr:    0.0000
     atom:   22    charge:    3.1196    magn:    0.0000    constr:    0.0000
     atom:   23    charge:    1.9566    magn:   -0.0000    constr:    0.0000
     atom:   24    charge:    1.9379    magn:   -0.0000    constr:    0.0000
     atom:   25    charge:    1.9505    magn:   -0.0000    constr:    0.0000
     atom:   26    charge:    3.1145    magn:    0.0000    constr:    0.0000
     atom:   27    charge:    1.9398    magn:   -0.0000    constr:    0.0000
     atom:   28    charge:    1.9517    magn:   -0.0000    constr:    0.0000
     atom:   29    charge:    1.9476    magn:   -0.0000    constr:    0.0000
     atom:   30    charge:    3.1167    magn:    0.0000    constr:    0.0000
     atom:   31    charge:    1.9447    magn:   -0.0000    constr:    0.0000
     atom:   32    charge:    1.9440    magn:   -0.0000    constr:    0.0000
     atom:   33    charge:    1.9184    magn:    0.0002    constr:    0.0000
     atom:   34    charge:    3.1239    magn:   -0.0000    constr:    0.0000
     atom:   35    charge:    1.9408    magn:   -0.0000    constr:    0.0000
     atom:   36    charge:    1.9471    magn:    0.0000    constr:    0.0000
     atom:   37    charge:    1.9471    magn:    0.0000    constr:    0.0000
     atom:   38    charge:    3.1196    magn:    0.0000    constr:    0.0000
     atom:   39    charge:    1.9549    magn:   -0.0000    constr:    0.0000
     atom:   40    charge:    1.9383    magn:   -0.0000    constr:    0.0000
     atom:   41    charge:    1.9505    magn:   -0.0000    constr:    0.0000
     atom:   42    charge:    3.1141    magn:    0.0000    constr:    0.0000
     atom:   43    charge:    1.9413    magn:   -0.0000    constr:    0.0000
     atom:   44    charge:    1.9517    magn:   -0.0000    constr:    0.0000
     atom:   45    charge:    1.9468    magn:   -0.0000    constr:    0.0000
     atom:   46    charge:    3.1165    magn:    0.0000    constr:    0.0000
     atom:   47    charge:    1.9431    magn:   -0.0000    constr:    0.0000
     atom:   48    charge:    1.9444    magn:   -0.0000    constr:    0.0000
     atom:   49    charge:    0.6555    magn:   -0.0000    constr:    0.0000
     atom:   50    charge:    1.9577    magn:   -0.0000    constr:    0.0000
     atom:   51    charge:    0.4021    magn:    0.0000    constr:    0.0000
     atom:   52    charge:    0.4005    magn:    0.0000    constr:    0.0000
     atom:   53    charge:    0.4036    magn:    0.0000    constr:    0.0000
     atom:   54    charge:    0.3951    magn:    0.0000    constr:    0.0000

     total cpu time spent up to now is     2061.1 secs

     total energy              =   -3021.41972889 Ry
     Harris-Foulkes estimate   =   -3021.41972916 Ry
     estimated scf accuracy    <       0.00000567 Ry

     total magnetization       =     0.00 Bohr mag/cell
     absolute magnetization    =     0.00 Bohr mag/cell

     iteration #  7     ecut=    40.42 Ry     beta=0.10
     Davidson diagonalization with overlap
     ethr =  1.43E-09,  avg # of iterations =  3.0

     negative rho (up, down):  1.207E-02 1.207E-02
 
     Magnetic moment per site:
     atom:    1    charge:    3.1250    magn:   -0.0001    constr:    0.0000
     atom:    2    charge:    1.9451    magn:    0.0000    constr:    0.0000
     atom:    3    charge:    3.1198    magn:    0.0000    constr:    0.0000
     atom:    4    charge:    1.9504    magn:   -0.0000    constr:    0.0000
     atom:    5    charge:    3.1166    magn:    0.0000    constr:    0.0000
     atom:    6    charge:    1.9477    magn:   -0.0000    constr:    0.0000
     atom:    7    charge:    3.1157    magn:    0.0000    constr:    0.0000
     atom:    8    charge:    1.9452    magn:   -0.0000    constr:    0.0000
     atom:    9    charge:    3.1250    magn:   -0.0001    constr:    0.0000
     atom:   10    charge:    1.9452    magn:    0.0000    constr:    0.0000
     atom:   11    charge:    3.1197    magn:    0.0000    constr:    0.0000
     atom:   12    charge:    1.9504    magn:   -0.0000    constr:    0.0000
     atom:   13    charge:    3.1158    magn:    0.0000    constr:    0.0000
     atom:   14    charge:    1.9587    magn:   -0.0000    constr:    0.0000
     atom:   15    charge:    3.1188    magn:    0.0000    constr:    0.0000
     atom:   16    charge:    1.9445    magn:   -0.0000    constr:    0.0000
     atom:   17    charge:    1.9184    magn:    0.0001    constr:    0.0000
     atom:   18    charge:    3.1239    magn:   -0.0000    constr:    0.0000
     atom:   19    charge:    1.9408    magn:   -0.0000    constr:    0.0000
     atom:   20    charge:    1.9471    magn:    0.0000    constr:    0.0000
     atom:   21    charge:    1.9471    magn:    0.0000    constr:    0.0000
     atom:   22    charge:    3.1196    magn:    0.0000    constr:    0.0000
     atom:   23    charge:    1.9566    magn:   -0.0000    constr:    0.0000
     atom:   24    charge:    1.9379    magn:   -0.0000    constr:    0.0000
     atom:   25    charge:    1.9505    magn:   -0.0000    constr:    0.0000
     atom:   26    charge:    3.1145    magn:    0.0000    constr:    0.0000
     atom:   27    charge:    1.9398    magn:   -0.0000    constr:    0.0000
     atom:   28    charge:    1.9517    magn:   -0.0000    constr:    0.0000
     atom:   29    charge:    1.9476    magn:   -0.0000    constr:    0.0000
     atom:   30    charge:    3.1167    magn:    0.0000    constr:    0.0000
     atom:   31    charge:    1.9447    magn:   -0.0000    constr:    0.0000
     atom:   32    charge:    1.9440    magn:   -0.0000    constr:    0.0000
     atom:   33    charge:    1.9184    magn:    0.0001    constr:    0.0000
     atom:   34    charge:    3.1239    magn:   -0.0000    constr:    0.0000
     atom:   35    charge:    1.9408    magn:   -0.0000    constr:    0.0000
     atom:   36    charge:    1.9471    magn:    0.0000    constr:    0.0000
     atom:   37    charge:    1.9471    magn:    0.0000    constr:    0.0000
     atom:   38    charge:    3.1196    magn:    0.0000    constr:    0.0000
     atom:   39    charge:    1.9549    magn:   -0.0000    constr:    0.0000
     atom:   40    charge:    1.9383    magn:   -0.0000    constr:    0.0000
     atom:   41    charge:    1.9505    magn:   -0.0000    constr:    0.0000
     atom:   42    charge:    3.1141    magn:    0.0000    constr:    0.0000
     atom:   43    charge:    1.9413    magn:   -0.0000    constr:    0.0000
     atom:   44    charge:    1.9517    magn:   -0.0000    constr:    0.0000
     atom:   45    charge:    1.9468    magn:   -0.0000    constr:    0.0000
     atom:   46    charge:    3.1165    magn:    0.0000    constr:    0.0000
     atom:   47    charge:    1.9431    magn:   -0.0000    constr:    0.0000
     atom:   48    charge:    1.9444    magn:   -0.0000    constr:    0.0000
     atom:   49    charge:    0.6559    magn:   -0.0000    constr:    0.0000
     atom:   50    charge:    1.9576    magn:   -0.0000    constr:    0.0000
     atom:   51    charge:    0.4021    magn:    0.0000    constr:    0.0000
     atom:   52    charge:    0.4005    magn:    0.0000    constr:    0.0000
     atom:   53    charge:    0.4035    magn:    0.0000    constr:    0.0000
     atom:   54    charge:    0.3950    magn:    0.0000    constr:    0.0000

     total cpu time spent up to now is     2267.3 secs

     total energy              =   -3021.41972897 Ry
     Harris-Foulkes estimate   =   -3021.41972959 Ry
     estimated scf accuracy    <       0.00000273 Ry

     total magnetization       =     0.00 Bohr mag/cell
     absolute magnetization    =     0.00 Bohr mag/cell

     iteration #  8     ecut=    40.42 Ry     beta=0.10
     Davidson diagonalization with overlap
     ethr =  6.85E-10,  avg # of iterations =  4.0

     negative rho (up, down):  1.207E-02 1.207E-02
 
     Magnetic moment per site:
     atom:    1    charge:    3.1250    magn:   -0.0000    constr:    0.0000
     atom:    2    charge:    1.9451    magn:    0.0000    constr:    0.0000
     atom:    3    charge:    3.1198    magn:    0.0000    constr:    0.0000
     atom:    4    charge:    1.9504    magn:   -0.0000    constr:    0.0000
     atom:    5    charge:    3.1166    magn:    0.0000    constr:    0.0000
     atom:    6    charge:    1.9476    magn:   -0.0000    constr:    0.0000
     atom:    7    charge:    3.1157    magn:    0.0000    constr:    0.0000
     atom:    8    charge:    1.9452    magn:   -0.0000    constr:    0.0000
     atom:    9    charge:    3.1250    magn:   -0.0000    constr:    0.0000
     atom:   10    charge:    1.9452    magn:    0.0000    constr:    0.0000
     atom:   11    charge:    3.1197    magn:    0.0000    constr:    0.0000
     atom:   12    charge:    1.9504    magn:   -0.0000    constr:    0.0000
     atom:   13    charge:    3.1158    magn:    0.0000    constr:    0.0000
     atom:   14    charge:    1.9587    magn:   -0.0000    constr:    0.0000
     atom:   15    charge:    3.1188    magn:    0.0000    constr:    0.0000
     atom:   16    charge:    1.9445    magn:   -0.0000    constr:    0.0000
     atom:   17    charge:    1.9184    magn:    0.0001    constr:    0.0000
     atom:   18    charge:    3.1239    magn:   -0.0000    constr:    0.0000
     atom:   19    charge:    1.9408    magn:   -0.0000    constr:    0.0000
     atom:   20    charge:    1.9471    magn:    0.0000    constr:    0.0000
     atom:   21    charge:    1.9471    magn:    0.0000    constr:    0.0000
     atom:   22    charge:    3.1196    magn:    0.0000    constr:    0.0000
     atom:   23    charge:    1.9566    magn:   -0.0000    constr:    0.0000
     atom:   24    charge:    1.9379    magn:   -0.0000    constr:    0.0000
     atom:   25    charge:    1.9505    magn:   -0.0000    constr:    0.0000
     atom:   26    charge:    3.1145    magn:    0.0000    constr:    0.0000
     atom:   27    charge:    1.9398    magn:   -0.0000    constr:    0.0000
     atom:   28    charge:    1.9517    magn:   -0.0000    constr:    0.0000
     atom:   29    charge:    1.9476    magn:   -0.0000    constr:    0.0000
     atom:   30    charge:    3.1167    magn:    0.0000    constr:    0.0000
     atom:   31    charge:    1.9447    magn:   -0.0000    constr:    0.0000
     atom:   32    charge:    1.9440    magn:   -0.0000    constr:    0.0000
     atom:   33    charge:    1.9184    magn:    0.0001    constr:    0.0000
     atom:   34    charge:    3.1239    magn:   -0.0000    constr:    0.0000
     atom:   35    charge:    1.9408    magn:   -0.0000    constr:    0.0000
     atom:   36    charge:    1.9471    magn:    0.0000    constr:    0.0000
     atom:   37    charge:    1.9471    magn:    0.0000    constr:    0.0000
     atom:   38    charge:    3.1196    magn:    0.0000    constr:    0.0000
     atom:   39    charge:    1.9549    magn:   -0.0000    constr:    0.0000
     atom:   40    charge:    1.9383    magn:   -0.0000    constr:    0.0000
     atom:   41    charge:    1.9505    magn:   -0.0000    constr:    0.0000
     atom:   42    charge:    3.1141    magn:    0.0000    constr:    0.0000
     atom:   43    charge:    1.9413    magn:   -0.0000    constr:    0.0000
     atom:   44    charge:    1.9517    magn:   -0.0000    constr:    0.0000
     atom:   45    charge:    1.9468    magn:   -0.0000    constr:    0.0000
     atom:   46    charge:    3.1165    magn:    0.0000    constr:    0.0000
     atom:   47    charge:    1.9431    magn:   -0.0000    constr:    0.0000
     atom:   48    charge:    1.9444    magn:   -0.0000    constr:    0.0000
     atom:   49    charge:    0.6558    magn:   -0.0000    constr:    0.0000
     atom:   50    charge:    1.9576    magn:   -0.0000    constr:    0.0000
     atom:   51    charge:    0.4021    magn:    0.0000    constr:    0.0000
     atom:   52    charge:    0.4005    magn:    0.0000    constr:    0.0000
     atom:   53    charge:    0.4035    magn:    0.0000    constr:    0.0000
     atom:   54    charge:    0.3950    magn:    0.0000    constr:    0.0000

     total cpu time spent up to now is     2492.3 secs

     total energy              =   -3021.41972942 Ry
     Harris-Foulkes estimate   =   -3021.41972964 Ry
     estimated scf accuracy    <       0.00000112 Ry

     total magnetization       =     0.00 Bohr mag/cell
     absolute magnetization    =     0.00 Bohr mag/cell

     iteration #  9     ecut=    40.42 Ry     beta=0.10
     Davidson diagonalization with overlap
     ethr =  2.82E-10,  avg # of iterations =  3.0

     negative rho (up, down):  1.207E-02 1.207E-02
 
     Magnetic moment per site:
     atom:    1    charge:    3.1250    magn:   -0.0000    constr:    0.0000
     atom:    2    charge:    1.9452    magn:    0.0000    constr:    0.0000
     atom:    3    charge:    3.1198    magn:    0.0000    constr:    0.0000
     atom:    4    charge:    1.9504    magn:   -0.0000    constr:    0.0000
     atom:    5    charge:    3.1166    magn:    0.0000    constr:    0.0000
     atom:    6    charge:    1.9477    magn:   -0.0000    constr:    0.0000
     atom:    7    charge:    3.1157    magn:    0.0000    constr:    0.0000
     atom:    8    charge:    1.9452    magn:   -0.0000    constr:    0.0000
     atom:    9    charge:    3.1250    magn:   -0.0000    constr:    0.0000
     atom:   10    charge:    1.9452    magn:    0.0000    constr:    0.0000
     atom:   11    charge:    3.1197    magn:    0.0000    constr:    0.0000
     atom:   12    charge:    1.9504    magn:   -0.0000    constr:    0.0000
     atom:   13    charge:    3.1158    magn:    0.0000    constr:    0.0000
     atom:   14    charge:    1.9587    magn:   -0.0000    constr:    0.0000
     atom:   15    charge:    3.1188    magn:    0.0000    constr:    0.0000
     atom:   16    charge:    1.9446    magn:   -0.0000    constr:    0.0000
     atom:   17    charge:    1.9184    magn:    0.0001    constr:    0.0000
     atom:   18    charge:    3.1239    magn:   -0.0000    constr:    0.0000
     atom:   19    charge:    1.9408    magn:   -0.0000    constr:    0.0000
     atom:   20    charge:    1.9471    magn:    0.0000    constr:    0.0000
     atom:   21    charge:    1.9471    magn:    0.0000    constr:    0.0000
     atom:   22    charge:    3.1196    magn:    0.0000    constr:    0.0000
     atom:   23    charge:    1.9566    magn:   -0.0000    constr:    0.0000
     atom:   24    charge:    1.9379    magn:   -0.0000    constr:    0.0000
     atom:   25    charge:    1.9505    magn:   -0.0000    constr:    0.0000
     atom:   26    charge:    3.1145    magn:    0.0000    constr:    0.0000
     atom:   27    charge:    1.9398    magn:   -0.0000    constr:    0.0000
     atom:   28    charge:    1.9517    magn:   -0.0000    constr:    0.0000
     atom:   29    charge:    1.9476    magn:   -0.0000    constr:    0.0000
     atom:   30    charge:    3.1167    magn:    0.0000    constr:    0.0000
     atom:   31    charge:    1.9447    magn:   -0.0000    constr:    0.0000
     atom:   32    charge:    1.9440    magn:   -0.0000    constr:    0.0000
     atom:   33    charge:    1.9184    magn:    0.0001    constr:    0.0000
     atom:   34    charge:    3.1239    magn:   -0.0000    constr:    0.0000
     atom:   35    charge:    1.9408    magn:   -0.0000    constr:    0.0000
     atom:   36    charge:    1.9471    magn:    0.0000    constr:    0.0000
     atom:   37    charge:    1.9471    magn:    0.0000    constr:    0.0000
     atom:   38    charge:    3.1196    magn:    0.0000    constr:    0.0000
     atom:   39    charge:    1.9550    magn:   -0.0000    constr:    0.0000
     atom:   40    charge:    1.9383    magn:   -0.0000    constr:    0.0000
     atom:   41    charge:    1.9505    magn:   -0.0000    constr:    0.0000
     atom:   42    charge:    3.1141    magn:    0.0000    constr:    0.0000
     atom:   43    charge:    1.9413    magn:   -0.0000    constr:    0.0000
     atom:   44    charge:    1.9518    magn:   -0.0000    constr:    0.0000
     atom:   45    charge:    1.9468    magn:   -0.0000    constr:    0.0000
     atom:   46    charge:    3.1165    magn:    0.0000    constr:    0.0000
     atom:   47    charge:    1.9431    magn:   -0.0000    constr:    0.0000
     atom:   48    charge:    1.9444    magn:   -0.0000    constr:    0.0000
     atom:   49    charge:    0.6556    magn:   -0.0000    constr:    0.0000
     atom:   50    charge:    1.9576    magn:   -0.0000    constr:    0.0000
     atom:   51    charge:    0.4022    magn:    0.0000    constr:    0.0000
     atom:   52    charge:    0.4005    magn:    0.0000    constr:    0.0000
     atom:   53    charge:    0.4036    magn:    0.0000    constr:    0.0000
     atom:   54    charge:    0.3950    magn:    0.0000    constr:    0.0000

     total cpu time spent up to now is     2696.4 secs

     End of self-consistent calculation

 ------ SPIN UP ------------


          k = 0.0000 0.0000 0.0000 ( 34665 PWs)   bands (ev):

   -57.7007 -57.6658 -57.3201 -57.2838 -57.2353 -57.1119 -57.0754 -57.0745
   -57.0533 -57.0396 -56.9922 -56.9567 -56.7324 -56.6949 -56.1514 -56.1161
   -34.1368 -33.9830 -33.9544 -33.9017 -33.8724 -33.8074 -33.7470 -33.6559
   -33.6208 -33.6073 -33.5697 -33.5430 -33.5208 -33.5100 -33.4921 -33.4885
   -33.4673 -33.4567 -33.4335 -33.4009 -33.3261 -33.2941 -33.2739 -33.2646
   -33.2573 -33.2564 -33.2451 -33.2448 -33.2391 -33.2318 -33.2316 -33.2146
   -33.1825 -33.1822 -33.1767 -33.1430 -33.1204 -32.9984 -32.9804 -32.9594
   -32.9099 -32.8070 -32.5692 -32.5037 -32.4776 -32.3734 -32.2817 -32.1734
   -20.3064 -18.0149 -17.8435 -17.5592 -17.4642 -17.3750 -17.2543 -17.0798
   -17.0684 -16.9769 -16.9408 -16.8862 -16.7863 -16.7801 -16.7317 -16.7095
   -16.7054 -16.6649 -16.6132 -16.6071 -16.5381 -16.4179 -16.4047 -16.4002
   -16.3239 -16.2699 -16.1966 -16.1694 -16.1520 -15.9813 -15.9312 -14.7358
   -14.6521 -11.4352  -7.2464  -5.4760  -5.3975  -5.3167  -5.2074  -5.1479
    -5.1331  -5.1244  -4.8412  -4.8157  -4.4741  -4.4452  -4.3607  -4.3577
    -4.3241  -4.2346  -4.0920  -4.0632  -4.0577  -4.0199  -4.0017  -3.9934
    -3.9626  -3.9542  -3.9531  -3.8421  -3.7895  -3.7678  -3.7390  -3.7211
    -3.6342  -3.6191  -3.5894  -3.5800  -3.5219  -3.5100  -3.4109  -3.3963
    -3.3765  -3.2770  -3.2397  -3.1942  -3.0156  -2.9374  -2.8808  -2.8377
    -2.6973  -2.6095  -2.5920  -2.5821  -2.5778  -2.5709  -2.4334  -2.4166
    -2.3382  -2.2713  -2.2495  -2.2069  -2.2023  -2.1666  -2.1409  -2.0951
    -2.0500  -2.0318  -2.0225  -1.8895  -1.8678  -1.7621  -1.7383  -1.6262
    -1.5452  -1.5431  -1.4924  -1.4831  -1.4651  -1.4256  -1.3247  -1.3115
    -1.3044  -1.2820  -1.2449  -1.1378  -1.0887  -1.0813  -1.0694  -1.0216
    -0.9564  -0.9176  -0.8215  -0.7665  -0.6125  -0.5895  -0.5713  -0.4813
    -0.3785  -0.2441  -0.0868  -0.0286   0.1293   0.2462   0.2599   1.6407
     1.6731   1.9836   2.0001   2.0631   2.0929   2.2029   2.2415   2.2848
     2.4276   2.4951   2.5239   2.5288   2.5401   2.6289   2.6469   2.6552
     2.7132   2.7976   2.8251   2.8368   2.9089   2.9973   3.0312   3.0968
     3.1033   3.1119   3.1590   3.2002   3.2060   3.2246   3.2378   3.2494
     3.2587   3.2867   3.3952   3.4297   3.4546   3.4643   3.5264   3.5835
     3.6512   3.6928   3.8057   3.9794   4.0144   4.0899   4.1780   4.3183
     4.3366   4.3899   4.5842   4.5974   4.8075   4.8368   5.0852   5.1646
     5.2436   5.3288   5.4781   5.5156   5.5291   5.5912   5.6764   5.7096
     5.7978   5.8631   5.8746   5.8843   5.9523   6.0380   6.0461   6.0709
     6.1425   6.2272   6.2410   6.2950   6.3761   6.5801   6.6345   6.7540
     6.8394   7.0071   7.0371   7.1645   7.3004   7.5773   7.9047   8.2502
     8.3142   8.6753   8.7928   8.8727   8.9379   9.0076   9.1754   9.2570
     9.3507   9.3802   9.5302

          k = 0.0000 0.0280 0.0000 ( 34717 PWs)   bands (ev):

   -57.6984 -57.6681 -57.3177 -57.2862 -57.2349 -57.1096 -57.0776 -57.0723
   -57.0537 -57.0420 -56.9899 -56.9591 -56.7299 -56.6973 -56.1490 -56.1185
   -34.1115 -33.9809 -33.9563 -33.8955 -33.8465 -33.8139 -33.7740 -33.6332
   -33.6140 -33.5823 -33.5443 -33.5401 -33.5230 -33.5030 -33.4954 -33.4865
   -33.4742 -33.4645 -33.4315 -33.3940 -33.3200 -33.2923 -33.2876 -33.2661
   -33.2616 -33.2550 -33.2526 -33.2417 -33.2400 -33.2382 -33.2378 -33.2193
   -33.2046 -33.1874 -33.1792 -33.1470 -33.1437 -32.9945 -32.9790 -32.9607
   -32.9150 -32.8350 -32.5435 -32.5020 -32.4795 -32.3673 -32.2880 -32.2009
   -20.3063 -17.9532 -17.7858 -17.5062 -17.4120 -17.3314 -17.2276 -17.0938
   -17.0381 -17.0004 -16.9951 -16.8880 -16.8221 -16.7638 -16.7095 -16.6917
   -16.6781 -16.6672 -16.6590 -16.6439 -16.5971 -16.4417 -16.3862 -16.3703
   -16.3505 -16.2994 -16.2137 -16.1759 -16.1558 -16.0121 -15.9682 -14.7458
   -14.6755 -11.4348  -7.2460  -5.4409  -5.3164  -5.2552  -5.1334  -5.1316
    -5.0706  -5.0489  -4.7657  -4.7033  -4.4379  -4.4021  -4.3960  -4.3142
    -4.3034  -4.1620  -4.1263  -4.1161  -4.0937  -4.0728  -4.0346  -4.0326
    -3.9678  -3.9635  -3.9521  -3.8932  -3.8553  -3.8486  -3.8399  -3.7683
    -3.7238  -3.7089  -3.6679  -3.6180  -3.5776  -3.5589  -3.4331  -3.3614
    -3.3175  -3.2378  -3.2093  -3.1069  -2.9363  -2.8728  -2.7500  -2.7272
    -2.6158  -2.6030  -2.5274  -2.5118  -2.4803  -2.4427  -2.4142  -2.4098
    -2.3890  -2.3641  -2.2903  -2.2790  -2.1698  -2.1444  -2.1384  -2.0965
    -2.0242  -1.9993  -1.9560  -1.8791  -1.8126  -1.7683  -1.7092  -1.6843
    -1.6450  -1.6283  -1.5661  -1.5279  -1.4834  -1.4403  -1.4377  -1.3984
    -1.3563  -1.2734  -1.2204  -1.2155  -1.1609  -1.0918  -1.0709  -1.0242
    -1.0108  -0.9065  -0.8686  -0.7928  -0.7631  -0.7086  -0.6102  -0.5931
    -0.3969  -0.2723  -0.0936  -0.0829   0.1442   0.1998   0.2264   1.7270
     1.7730   1.9839   2.0626   2.1281   2.1495   2.2162   2.2721   2.3107
     2.4222   2.4592   2.4971   2.5332   2.5838   2.6011   2.6281   2.6894
     2.7306   2.7683   2.7949   2.9102   2.9204   2.9490   2.9740   3.0080
     3.1086   3.1145   3.1326   3.1728   3.1904   3.2033   3.2560   3.3021
     3.3334   3.3689   3.4048   3.4712   3.5045   3.5499   3.5598   3.6469
     3.6627   3.6837   3.7694   3.9577   4.0323   4.1125   4.1892   4.2842
     4.3212   4.3944   4.5389   4.6877   4.8611   4.9233   5.0889   5.2564
     5.3017   5.3333   5.5354   5.5663   5.6015   5.6260   5.6838   5.7189
     5.7823   5.7903   5.8495   5.8760   5.8968   5.9458   6.0677   6.1205
     6.1475   6.1548   6.1747   6.2051   6.2732   6.5565   6.6014   6.6937
     6.8441   6.9474   6.9799   7.0840   7.2294   7.5776   7.9137   8.0055
     8.0585   8.4540   8.5659   8.8350   8.9103   8.9980   9.0864   9.1352
     9.2673   9.4350   9.4854

          k = 0.0000 0.0560 0.0000 ( 34721 PWs)   bands (ev):

   -57.6920 -57.6745 -57.3112 -57.2928 -57.2341 -57.1035 -57.0836 -57.0659
   -57.0546 -57.0484 -56.9834 -56.9656 -56.7233 -56.7040 -56.1426 -56.1249
   -34.0417 -33.9757 -33.9613 -33.8785 -33.8470 -33.8314 -33.7754 -33.5984
   -33.5755 -33.5743 -33.5373 -33.5297 -33.5085 -33.5064 -33.4797 -33.4742
   -33.4588 -33.4287 -33.4210 -33.3745 -33.3186 -33.3150 -33.3149 -33.3035
   -33.2881 -33.2782 -33.2698 -33.2662 -33.2554 -33.2485 -33.2362 -33.2341
   -33.2123 -33.2004 -33.1727 -33.1671 -33.1282 -32.9895 -32.9754 -32.9640
   -32.9279 -32.9047 -32.4972 -32.4842 -32.4728 -32.3507 -32.3049 -32.2750
   -20.3060 -17.7821 -17.6272 -17.3749 -17.2782 -17.2626 -17.2213 -17.1690
   -17.1385 -16.9649 -16.9552 -16.9208 -16.8760 -16.8221 -16.7908 -16.7276
   -16.7181 -16.6863 -16.6276 -16.5990 -16.5419 -16.5071 -16.4254 -16.3801
   -16.3645 -16.3040 -16.2427 -16.1970 -16.1593 -16.1125 -16.0412 -14.7640
   -14.7261 -11.4341  -7.2450  -5.4076  -5.1418  -5.0785  -5.0401  -4.9266
    -4.8606  -4.8263  -4.5639  -4.5079  -4.4753  -4.4197  -4.4115  -4.3688
    -4.3338  -4.2620  -4.2371  -4.2140  -4.1983  -4.1889  -4.1575  -4.0774
    -4.0599  -4.0079  -3.9895  -3.9708  -3.9327  -3.8935  -3.8589  -3.8201
    -3.7993  -3.7333  -3.6378  -3.5880  -3.4359  -3.4289  -3.3444  -3.2703
    -3.2412  -3.2152  -3.1955  -3.0854  -2.8971  -2.8455  -2.8399  -2.8009
    -2.7240  -2.6707  -2.5502  -2.4754  -2.4467  -2.3243  -2.3179  -2.3133
    -2.3054  -2.2513  -2.2092  -2.1815  -2.1500  -2.1196  -2.0339  -2.0126
    -1.9627  -1.9497  -1.9195  -1.9072  -1.8854  -1.8508  -1.8190  -1.7849
    -1.7470  -1.6975  -1.6273  -1.5443  -1.5297  -1.5121  -1.4582  -1.4222
    -1.3823  -1.3667  -1.3522  -1.2927  -1.2409  -1.2193  -1.1579  -1.1044
    -1.0837  -1.0259  -0.9251  -0.8927  -0.8528  -0.7871  -0.7654  -0.6622
    -0.5892  -0.4655  -0.2443   0.0891   0.1414   0.1765   0.1831   1.8626
     2.0226   2.0951   2.1071   2.2071   2.2321   2.2672   2.3641   2.3869
     2.3938   2.4089   2.4318   2.4740   2.5011   2.5353   2.6719   2.6929
     2.7313   2.7730   2.8280   2.9013   2.9131   2.9359   2.9695   2.9710
     3.0130   3.0964   3.1349   3.1548   3.2479   3.2591   3.2838   3.3272
     3.3657   3.3838   3.4384   3.5350   3.5412   3.6341   3.6747   3.7251
     3.7583   3.8210   3.8558   3.8878   3.9295   4.1282   4.1395   4.1562
     4.3254   4.3734   4.5611   4.9047   5.0133   5.0603   5.1723   5.3762
     5.3794   5.4758   5.5155   5.5472   5.6455   5.7209   5.7219   5.7311
     5.7770   5.7855   5.7973   5.8545   5.8833   5.9469   5.9751   5.9897
     5.9991   6.0524   6.1532   6.1687   6.3074   6.3720   6.4091   6.6137
     6.6579   6.7788   6.8685   7.0402   7.2126   7.3331   7.4445   7.7232
     8.0807   8.2011   8.3380   8.6178   8.8786   8.9897   9.3123   9.3347
     9.4269   9.4421   9.5510

          k = 0.0000-0.0840 0.0000 ( 34678 PWs)   bands (ev):

   -57.6834 -57.6832 -57.3037 -57.3004 -57.2336 -57.0980 -57.0891 -57.0572
   -57.0572 -57.0550 -56.9751 -56.9740 -56.7163 -56.7110 -56.1338 -56.1338
   -33.9686 -33.9684 -33.9451 -33.9450 -33.8551 -33.8549 -33.6886 -33.6646
   -33.5684 -33.5652 -33.5313 -33.5204 -33.5161 -33.4800 -33.4559 -33.4264
   -33.4161 -33.4096 -33.3771 -33.3769 -33.3650 -33.3492 -33.3433 -33.3263
   -33.3250 -33.2869 -33.2800 -33.2779 -33.2712 -33.2697 -33.2347 -33.2329
   -33.2178 -33.2159 -33.1658 -33.1650 -33.0508 -33.0300 -32.9724 -32.9668
   -32.9419 -32.9387 -32.4907 -32.4907 -32.3749 -32.3748 -32.3278 -32.3278
   -20.3058 -17.5715 -17.5078 -17.4124 -17.3922 -17.2316 -17.1778 -17.0682
   -17.0641 -17.0182 -17.0056 -16.9919 -16.8746 -16.8417 -16.8416 -16.8031
   -16.7964 -16.5987 -16.5967 -16.5280 -16.5261 -16.4907 -16.4892 -16.4068
   -16.4046 -16.2649 -16.2628 -16.2032 -16.1993 -16.1339 -16.1033 -14.7628
   -14.7627 -11.4337  -7.2445  -5.3990  -5.1472  -4.8022  -4.7353  -4.7343
    -4.6582  -4.6446  -4.6399  -4.6041  -4.5757  -4.5117  -4.5044  -4.4030
    -4.3756  -4.3414  -4.3398  -4.3107  -4.2976  -4.2824  -4.2770  -4.0570
    -4.0351  -4.0257  -4.0130  -3.9946  -3.9451  -3.8121  -3.7953  -3.7903
    -3.7166  -3.6968  -3.6424  -3.5099  -3.4742  -3.3419  -3.3289  -3.2612
    -3.1408  -3.1187  -3.0453  -3.0214  -2.9647  -2.9289  -2.8071  -2.7907
    -2.7001  -2.6959  -2.5789  -2.5415  -2.5148  -2.4973  -2.4806  -2.4496
    -2.4408  -2.4208  -2.3322  -2.2483  -2.0297  -2.0094  -1.9693  -1.9424
    -1.9297  -1.8310  -1.8245  -1.8112  -1.7844  -1.7474  -1.7332  -1.7027
    -1.6674  -1.6427  -1.6174  -1.5610  -1.5181  -1.4898  -1.4834  -1.4553
    -1.4273  -1.4196  -1.4119  -1.3841  -1.3615  -1.3283  -1.2221  -1.1898
    -1.1024  -1.0751  -1.0114  -0.9802  -0.9727  -0.9621  -0.9452  -0.5264
    -0.5212  -0.4592  -0.4451   0.1414   0.1415   0.1841   0.1859   2.0370
     2.0402   2.2161   2.2178   2.2186   2.2342   2.2823   2.3374   2.3451
     2.3451   2.3700   2.3807   2.5251   2.5518   2.5528   2.5987   2.6620
     2.7128   2.7349   2.7478   2.8891   2.9204   2.9876   2.9952   3.0550
     3.0563   3.0999   3.1106   3.1775   3.2156   3.2310   3.2437   3.4014
     3.4240   3.4350   3.4377   3.4707   3.4815   3.7230   3.7637   3.8023
     3.8057   3.8299   3.9069   3.9291   3.9666   4.0714   4.0737   4.1237
     4.1244   4.4166   4.6687   4.9582   4.9984   5.2594   5.3288   5.4552
     5.4869   5.5063   5.5063   5.5742   5.6001   5.6446   5.6630   5.6687
     5.7970   5.8019   5.8241   5.8496   5.8598   5.8646   5.8805   5.9717
     6.0179   6.0572   6.0691   6.1568   6.1940   6.4047   6.4656   6.5630
     6.6027   6.7467   6.7730   6.9789   7.0300   7.1002   7.3261   7.7011
     7.8749   8.1686   8.4081   8.7728   8.8414   8.8495   9.1506   9.6937
     9.7025   9.7472   9.7960

          k = 0.0253 0.0000 0.0000 ( 34707 PWs)   bands (ev):

   -57.7007 -57.6658 -57.3201 -57.2838 -57.2353 -57.1118 -57.0754 -57.0746
   -57.0533 -57.0396 -56.9922 -56.9567 -56.7324 -56.6949 -56.1514 -56.1161
   -34.1371 -33.9830 -33.9545 -33.9010 -33.8725 -33.8075 -33.7470 -33.6566
   -33.6208 -33.6090 -33.5699 -33.5396 -33.5346 -33.5109 -33.4885 -33.4772
   -33.4661 -33.4567 -33.4336 -33.3940 -33.3260 -33.2943 -33.2736 -33.2647
   -33.2605 -33.2597 -33.2463 -33.2432 -33.2413 -33.2319 -33.2316 -33.2144
   -33.1824 -33.1821 -33.1770 -33.1430 -33.1206 -32.9984 -32.9828 -32.9585
   -32.9100 -32.8072 -32.5691 -32.5047 -32.4771 -32.3734 -32.2818 -32.1735
   -20.3062 -17.9851 -17.8035 -17.5169 -17.4353 -17.3584 -17.2608 -17.1464
   -17.0944 -16.9777 -16.9404 -16.8735 -16.8209 -16.8082 -16.7917 -16.7824
   -16.7319 -16.6948 -16.5588 -16.5365 -16.4560 -16.4547 -16.4056 -16.3722
   -16.3414 -16.3145 -16.1852 -16.1672 -16.1532 -15.9811 -15.9310 -14.7346
   -14.6519 -11.4340  -7.2437  -5.4708  -5.3073  -5.2660  -5.1277  -5.0998
    -5.0464  -5.0185  -4.8359  -4.8111  -4.6201  -4.4711  -4.4376  -4.3321
    -4.3135  -4.3036  -4.2500  -4.1012  -4.0387  -4.0349  -3.9988  -3.9468
    -3.9398  -3.9120  -3.8325  -3.8031  -3.7529  -3.7221  -3.6968  -3.6936
    -3.6226  -3.6002  -3.5723  -3.5648  -3.5185  -3.4496  -3.3393  -3.3124
    -3.2535  -3.2383  -3.1864  -3.1084  -3.0355  -2.9787  -2.9264  -2.8979
    -2.7548  -2.6759  -2.6353  -2.6022  -2.5813  -2.5321  -2.5217  -2.5058
    -2.4337  -2.3375  -2.3244  -2.2386  -2.2228  -2.1839  -2.1587  -2.0728
    -2.0117  -2.0027  -1.9651  -1.8853  -1.8508  -1.7549  -1.7415  -1.6528
    -1.5877  -1.5841  -1.5401  -1.4657  -1.4603  -1.3683  -1.3596  -1.3458
    -1.3392  -1.2925  -1.2757  -1.1920  -1.1291  -1.1193  -1.0794  -1.0476
    -0.9743  -0.9171  -0.8315  -0.7871  -0.7763  -0.6530  -0.6445  -0.5528
    -0.4232  -0.2385  -0.1178  -0.0559   0.1152   0.2035   0.2043   1.6600
     1.7231   1.9994   2.0693   2.1466   2.2209   2.2357   2.2677   2.3761
     2.3832   2.4556   2.5022   2.5201   2.5394   2.5763   2.5954   2.6342
     2.6538   2.7323   2.7555   2.8650   2.8819   2.9676   3.0287   3.1015
     3.1192   3.1416   3.1605   3.2015   3.2064   3.2518   3.2676   3.3377
     3.3756   3.4007   3.4489   3.4710   3.5337   3.5582   3.5897   3.5979
     3.6621   3.7279   3.7451   3.9120   3.9999   4.0948   4.1722   4.2742
     4.3725   4.3929   4.5513   4.6727   4.8616   4.9084   4.9240   5.0678
     5.1195   5.1440   5.1866   5.3489   5.5680   5.6223   5.6921   5.8644
     5.8809   5.9225   5.9573   6.0280   6.0780   6.1140   6.1584   6.2075
     6.2169   6.2499   6.2566   6.3060   6.4467   6.5203   6.6408   6.6649
     6.8188   6.8670   7.0322   7.1469   7.3003   7.7548   7.8523   8.0863
     8.3292   8.3358   8.4289   8.6818   8.8438   8.9698   9.1485   9.3405
     9.3614   9.4535   9.4930

          k = 0.0253 0.0280 0.0000 ( 34687 PWs)   bands (ev):

   -57.6984 -57.6681 -57.3177 -57.2862 -57.2349 -57.1095 -57.0775 -57.0724
   -57.0537 -57.0420 -56.9899 -56.9591 -56.7299 -56.6973 -56.1490 -56.1185
   -34.1118 -33.9810 -33.9563 -33.8949 -33.8466 -33.8138 -33.7740 -33.6339
   -33.6140 -33.5840 -33.5446 -33.5369 -33.5242 -33.5184 -33.4956 -33.4749
   -33.4682 -33.4633 -33.4316 -33.3872 -33.3199 -33.2925 -33.2854 -33.2661
   -33.2616 -33.2563 -33.2551 -33.2496 -33.2395 -33.2381 -33.2370 -33.2181
   -33.2047 -33.1874 -33.1793 -33.1469 -33.1437 -32.9946 -32.9811 -32.9599
   -32.9150 -32.8350 -32.5434 -32.5029 -32.4789 -32.3673 -32.2880 -32.2009
   -20.3061 -17.9249 -17.7468 -17.4657 -17.3855 -17.3113 -17.2344 -17.1302
   -17.1001 -17.0083 -16.9650 -16.8608 -16.8321 -16.8079 -16.7863 -16.7722
   -16.7148 -16.7017 -16.6023 -16.5821 -16.5083 -16.4773 -16.3832 -16.3672
   -16.3583 -16.3314 -16.2023 -16.1754 -16.1555 -16.0125 -15.9680 -14.7448
   -14.6755 -11.4336  -7.2432  -5.4441  -5.2433  -5.1835  -5.1305  -5.0234
    -4.9681  -4.9382  -4.7607  -4.7003  -4.5643  -4.4050  -4.3728  -4.3475
    -4.2617  -4.2551  -4.1886  -4.1205  -4.0888  -4.0666  -4.0356  -4.0224
    -3.9781  -3.9445  -3.9149  -3.8695  -3.8240  -3.8117  -3.7860  -3.7217
    -3.6996  -3.6661  -3.6171  -3.6070  -3.5429  -3.5281  -3.3571  -3.3029
    -3.2541  -3.2198  -3.1532  -3.0765  -2.9834  -2.9515  -2.7877  -2.7090
    -2.6831  -2.6382  -2.6128  -2.5364  -2.5056  -2.4561  -2.4499  -2.4226
    -2.4068  -2.3885  -2.3421  -2.3044  -2.2178  -2.1800  -2.1175  -2.1022
    -2.0686  -1.9958  -1.9515  -1.8937  -1.8667  -1.8281  -1.7642  -1.6766
    -1.6468  -1.6185  -1.5908  -1.5642  -1.5111  -1.4634  -1.4422  -1.4025
    -1.3466  -1.3296  -1.2715  -1.2572  -1.2091  -1.1089  -1.0991  -1.0625
    -1.0114  -0.8887  -0.8410  -0.8371  -0.7664  -0.7411  -0.6981  -0.6605
    -0.4342  -0.2832  -0.1361  -0.0876   0.1473   0.1767   0.1869   1.7191
     1.8432   2.0146   2.0967   2.1936   2.2424   2.2801   2.3144   2.3949
     2.4158   2.4650   2.4869   2.5225   2.5310   2.5505   2.5884   2.6722
     2.7033   2.7255   2.7853   2.8046   2.9285   2.9849   3.0079   3.0327
     3.1042   3.1321   3.1440   3.1706   3.2066   3.2402   3.3424   3.3717
     3.4042   3.4344   3.4608   3.5084   3.5503   3.5671   3.6343   3.6592
     3.6715   3.7062   3.7479   3.8928   3.9920   4.1367   4.1837   4.2508
     4.3048   4.4501   4.5076   4.7682   4.9273   4.9491   4.9913   5.0762
     5.1580   5.1735   5.2214   5.3848   5.6416   5.6821   5.7310   5.7763
     5.8526   5.8635   5.8696   6.0051   6.0693   6.0837   6.1173   6.1429
     6.1950   6.2069   6.2173   6.2338   6.4268   6.5262   6.6113   6.6596
     6.7844   6.8644   6.9613   7.1503   7.2249   7.4937   7.9317   8.0272
     8.0922   8.2533   8.4467   8.5771   8.6501   8.7768   8.9350   9.2668
     9.3553   9.4615   9.5020

          k = 0.0253 0.0560 0.0000 ( 34699 PWs)   bands (ev):

   -57.6920 -57.6745 -57.3112 -57.2928 -57.2341 -57.1035 -57.0836 -57.0660
   -57.0546 -57.0485 -56.9834 -56.9656 -56.7233 -56.7040 -56.1426 -56.1249
   -34.0419 -33.9756 -33.9614 -33.8780 -33.8470 -33.8311 -33.7755 -33.5984
   -33.5760 -33.5744 -33.5374 -33.5277 -33.5109 -33.5098 -33.4797 -33.4746
   -33.4579 -33.4287 -33.4157 -33.3691 -33.3191 -33.3158 -33.3105 -33.3033
   -33.2882 -33.2785 -33.2698 -33.2651 -33.2555 -33.2507 -33.2402 -33.2364
   -33.2125 -33.2011 -33.1727 -33.1669 -33.1280 -32.9895 -32.9769 -32.9639
   -32.9280 -32.9046 -32.4979 -32.4840 -32.4727 -32.3507 -32.3049 -32.2750
   -20.3058 -17.7586 -17.5914 -17.3456 -17.2665 -17.2470 -17.1957 -17.1698
   -17.1416 -16.9978 -16.9725 -16.8826 -16.8782 -16.8316 -16.7988 -16.7744
   -16.7499 -16.6726 -16.6254 -16.6066 -16.5813 -16.5324 -16.4288 -16.4144
   -16.3578 -16.2869 -16.2358 -16.1963 -16.1590 -16.1132 -16.0406 -14.7634
   -14.7263 -11.4328  -7.2422  -5.4150  -5.1408  -5.0338  -4.9507  -4.8150
    -4.7588  -4.7167  -4.5602  -4.5003  -4.4927  -4.4156  -4.3960  -4.3416
    -4.2728  -4.2332  -4.2176  -4.1940  -4.1498  -4.1431  -4.1079  -4.0634
    -4.0346  -4.0144  -3.9952  -3.9374  -3.9264  -3.8772  -3.8616  -3.8235
    -3.7764  -3.7176  -3.6567  -3.5736  -3.4753  -3.4005  -3.3299  -3.2842
    -3.2392  -3.2250  -3.1904  -3.0145  -2.9417  -2.8651  -2.8314  -2.7815
    -2.7608  -2.6477  -2.5952  -2.5113  -2.4911  -2.4399  -2.3949  -2.3675
    -2.3448  -2.3264  -2.2904  -2.2652  -2.1918  -2.1428  -2.1296  -2.0414
    -2.0136  -2.0115  -1.9486  -1.9402  -1.9048  -1.8634  -1.8368  -1.8140
    -1.7467  -1.7056  -1.6805  -1.6394  -1.5746  -1.5401  -1.4965  -1.4775
    -1.4330  -1.3748  -1.3407  -1.3039  -1.2253  -1.2074  -1.1318  -1.1075
    -1.0611  -1.0147  -0.9139  -0.8767  -0.8231  -0.8016  -0.7459  -0.6827
    -0.6087  -0.4674  -0.2581   0.0901   0.1266   0.1537   0.1863   1.8600
     2.0462   2.1299   2.1771   2.2292   2.2696   2.3040   2.3454   2.3829
     2.4239   2.4601   2.4787   2.5056   2.5185   2.5816   2.6916   2.7193
     2.7369   2.7745   2.8217   2.8379   2.9019   2.9505   2.9725   2.9839
     3.0253   3.0317   3.1540   3.2054   3.2844   3.3277   3.3382   3.3810
     3.4054   3.4371   3.4587   3.5386   3.5578   3.6289   3.6539   3.7326
     3.7911   3.8177   3.8595   3.8987   3.9028   4.0700   4.1148   4.1634
     4.3411   4.3831   4.6126   4.9633   5.0102   5.1253   5.1399   5.1562
     5.2601   5.2872   5.3113   5.4343   5.5077   5.5594   5.6351   5.7564
     5.8216   5.8484   5.8893   5.9322   5.9591   6.0016   6.0470   6.0605
     6.1343   6.1552   6.2209   6.3297   6.3775   6.4018   6.4801   6.6396
     6.6905   6.7945   6.8461   7.0332   7.1457   7.3623   7.4798   7.5883
     7.9796   8.1767   8.3509   8.5181   8.6474   8.8559   9.0459   9.1121
     9.1848   9.4828   9.6198

          k = 0.0253-0.0840 0.0000 ( 34722 PWs)   bands (ev):

   -57.6834 -57.6832 -57.3037 -57.3004 -57.2336 -57.0980 -57.0891 -57.0573
   -57.0572 -57.0550 -56.9751 -56.9740 -56.7163 -56.7110 -56.1338 -56.1338
   -33.9686 -33.9684 -33.9454 -33.9453 -33.8547 -33.8546 -33.6887 -33.6647
   -33.5684 -33.5652 -33.5318 -33.5202 -33.5159 -33.4800 -33.4551 -33.4266
   -33.4182 -33.4121 -33.3780 -33.3779 -33.3658 -33.3423 -33.3364 -33.3249
   -33.3235 -33.2867 -33.2798 -33.2781 -33.2714 -33.2683 -33.2382 -33.2367
   -33.2195 -33.2176 -33.1658 -33.1650 -33.0507 -33.0300 -32.9730 -32.9676
[...]
    -1.2990  -1.2685  -1.2503  -1.1918  -1.1525  -1.0332  -1.0218  -1.0137
    -0.9903  -0.9501  -0.9078  -0.8400  -0.7587  -0.7034  -0.6487  -0.5959
    -0.5918  -0.5367  -0.5201   0.0642   0.0643   0.2089   0.2106   2.1517
     2.1525   2.1990   2.2009   2.2362   2.2369   2.2640   2.2956   2.4861
     2.4916   2.5234   2.5532   2.6070   2.6146   2.6776   2.6796   2.6889
     2.6901   2.8419   2.9076   2.9809   2.9959   3.0321   3.0397   3.0956
     3.2177   3.2473   3.2703   3.3307   3.3716   3.3885   3.4427   3.4906
     3.4981   3.5206   3.5471   3.5789   3.6017   3.6780   3.6981   3.7435
     3.8326   3.8891   3.9054   3.9509   3.9513   4.0942   4.1011   4.1099
     4.1103   4.6127   4.7811   4.7853   4.7993   4.8684   4.9184   4.9236
     4.9396   4.9823   5.0246   5.2470   5.3373   5.3569   5.3676   5.7288
     5.7982   5.9089   5.9247   5.9777   6.0406   6.1512   6.3010   6.3474
     6.3626   6.3724   6.4075   6.5745   6.6064   6.6632   6.6633   6.7013
     6.7635   6.8429   6.8439   6.8505   6.8514   7.3607   7.4102   7.5259
     7.6615   7.8217   8.0155   8.1699   8.2229   8.3165   8.3953   8.8234
     8.9102   9.0443   9.0815

          k =-0.0253 0.0280 0.0000 ( 34687 PWs)   bands (ev):

   -57.6985 -57.6682 -57.3177 -57.2862 -57.2348 -57.1095 -57.0775 -57.0724
   -57.0537 -57.0420 -56.9898 -56.9591 -56.7299 -56.6973 -56.1492 -56.1187
   -34.1118 -33.9811 -33.9564 -33.8949 -33.8465 -33.8139 -33.7741 -33.6338
   -33.6140 -33.5840 -33.5445 -33.5368 -33.5242 -33.5184 -33.4956 -33.4749
   -33.4681 -33.4632 -33.4315 -33.3872 -33.3199 -33.2925 -33.2854 -33.2661
   -33.2613 -33.2563 -33.2553 -33.2495 -33.2395 -33.2381 -33.2370 -33.2181
   -33.2047 -33.1873 -33.1792 -33.1469 -33.1436 -32.9946 -32.9811 -32.9599
   -32.9150 -32.8350 -32.5436 -32.5031 -32.4791 -32.3675 -32.2882 -32.2010
   -20.3061 -17.9249 -17.7467 -17.4657 -17.3855 -17.3114 -17.2344 -17.1301
   -17.1003 -17.0080 -16.9650 -16.8612 -16.8321 -16.8088 -16.7859 -16.7721
   -16.7147 -16.7019 -16.6021 -16.5818 -16.5084 -16.4773 -16.3833 -16.3673
   -16.3584 -16.3314 -16.2023 -16.1755 -16.1555 -16.0125 -15.9680 -14.7445
   -14.6751 -11.4336  -7.2432  -5.4440  -5.2431  -5.1835  -5.1305  -5.0237
    -4.9682  -4.9385  -4.7607  -4.7011  -4.5642  -4.4047  -4.3728  -4.3478
    -4.2630  -4.2519  -4.1899  -4.1190  -4.0931  -4.0663  -4.0381  -4.0223
    -3.9769  -3.9427  -3.9163  -3.8703  -3.8242  -3.8133  -3.7861  -3.7218
    -3.7024  -3.6650  -3.6168  -3.6062  -3.5413  -3.5272  -3.3620  -3.2950
    -3.2553  -3.2215  -3.1513  -3.0746  -2.9845  -2.9477  -2.7867  -2.7083
    -2.6824  -2.6387  -2.6126  -2.5339  -2.5065  -2.4534  -2.4494  -2.4245
    -2.4077  -2.3865  -2.3415  -2.3034  -2.2197  -2.1773  -2.1231  -2.1056
    -2.0644  -1.9920  -1.9531  -1.8969  -1.8651  -1.8286  -1.7448  -1.7096
    -1.6548  -1.6010  -1.5950  -1.5619  -1.5178  -1.4719  -1.4381  -1.3944
    -1.3466  -1.3342  -1.2828  -1.2444  -1.1980  -1.1112  -1.0996  -1.0607
    -1.0117  -0.8941  -0.8425  -0.8319  -0.7572  -0.7406  -0.7103  -0.6614
    -0.4352  -0.2832  -0.1366  -0.0874   0.1476   0.1770   0.1872   1.7190
     1.8432   2.0145   2.0981   2.1934   2.2438   2.2832   2.3172   2.4019
     2.4137   2.4480   2.4840   2.5280   2.5308   2.5453   2.6057   2.6667
     2.7034   2.7371   2.7738   2.8101   2.9371   2.9842   3.0022   3.0252
     3.1053   3.1337   3.1444   3.1722   3.2068   3.2375   3.3459   3.3707
     3.4019   3.4180   3.4624   3.5048   3.5594   3.5689   3.6352   3.6591
     3.6712   3.7072   3.7474   3.8916   3.9907   4.1385   4.1838   4.2512
     4.3048   4.4505   4.5078   4.7690   4.9353   4.9483   4.9820   5.0761
     5.1569   5.1731   5.2212   5.3836   5.6431   5.6754   5.7279   5.7860
     5.8507   5.8634   5.8706   6.0040   6.0718   6.0767   6.1219   6.1436
     6.1950   6.2056   6.2137   6.2420   6.4267   6.5245   6.6109   6.6651
     6.7889   6.8577   6.9612   7.1500   7.2250   7.5037   7.9286   8.0284
     8.0922   8.2413   8.4417   8.5767   8.6449   8.7667   8.9468   9.2689
     9.3527   9.4639   9.5074

          k =-0.0253 0.0560 0.0000 ( 34699 PWs)   bands (ev):

   -57.6921 -57.6746 -57.3111 -57.2928 -57.2340 -57.1035 -57.0836 -57.0660
   -57.0545 -57.0484 -56.9834 -56.9656 -56.7233 -56.7040 -56.1428 -56.1251
   -34.0420 -33.9757 -33.9615 -33.8780 -33.8471 -33.8312 -33.7755 -33.5984
   -33.5760 -33.5744 -33.5374 -33.5276 -33.5109 -33.5097 -33.4797 -33.4746
   -33.4578 -33.4287 -33.4155 -33.3691 -33.3190 -33.3157 -33.3105 -33.3033
   -33.2882 -33.2785 -33.2698 -33.2651 -33.2554 -33.2508 -33.2402 -33.2364
   -33.2123 -33.2011 -33.1727 -33.1669 -33.1279 -32.9895 -32.9767 -32.9640
   -32.9279 -32.9046 -32.4980 -32.4842 -32.4729 -32.3509 -32.3051 -32.2752
   -20.3058 -17.7586 -17.5914 -17.3456 -17.2664 -17.2472 -17.1960 -17.1698
   -17.1414 -16.9977 -16.9724 -16.8827 -16.8784 -16.8321 -16.7993 -16.7744
   -16.7497 -16.6724 -16.6252 -16.6063 -16.5813 -16.5327 -16.4288 -16.4145
   -16.3579 -16.2869 -16.2359 -16.1963 -16.1590 -16.1133 -16.0406 -14.7630
   -14.7259 -11.4328  -7.2422  -5.4149  -5.1408  -5.0334  -4.9507  -4.8156
    -4.7589  -4.7168  -4.5602  -4.4986  -4.4933  -4.4153  -4.3963  -4.3464
    -4.2732  -4.2343  -4.2172  -4.1941  -4.1497  -4.1426  -4.1092  -4.0634
    -4.0336  -4.0118  -3.9964  -3.9385  -3.9261  -3.8753  -3.8654  -3.8241
    -3.7760  -3.7157  -3.6577  -3.5737  -3.4747  -3.4005  -3.3350  -3.2843
    -3.2400  -3.2188  -3.1846  -3.0155  -2.9391  -2.8665  -2.8282  -2.7850
    -2.7581  -2.6471  -2.5943  -2.5120  -2.4896  -2.4412  -2.3962  -2.3643
    -2.3450  -2.3260  -2.2927  -2.2675  -2.1914  -2.1427  -2.1286  -2.0382
    -2.0222  -2.0047  -1.9470  -1.9446  -1.9061  -1.8636  -1.8324  -1.8087
    -1.7449  -1.7126  -1.6744  -1.6441  -1.5814  -1.5414  -1.5070  -1.4621
    -1.4328  -1.3738  -1.3492  -1.3025  -1.2255  -1.2077  -1.1306  -1.1058
    -1.0622  -1.0154  -0.9257  -0.8775  -0.8156  -0.8018  -0.7397  -0.6823
    -0.6087  -0.4690  -0.2595   0.0903   0.1269   0.1540   0.1865   1.8598
     2.0461   2.1328   2.1770   2.2261   2.2677   2.3046   2.3312   2.3820
     2.4424   2.4571   2.4836   2.5110   2.5189   2.5817   2.6908   2.7223
     2.7427   2.7740   2.8257   2.8389   2.8913   2.9479   2.9688   2.9847
     3.0220   3.0328   3.1682   3.2060   3.2885   3.3148   3.3321   3.3687
     3.4096   3.4348   3.4581   3.5411   3.5575   3.6329   3.6553   3.7331
     3.7913   3.8152   3.8605   3.8969   3.9049   4.0707   4.1148   4.1635
     4.3409   4.3831   4.6135   4.9645   5.0173   5.1219   5.1361   5.1544
     5.2576   5.2851   5.3132   5.4258   5.5096   5.5592   5.6381   5.7608
     5.8227   5.8465   5.8930   5.9348   5.9542   5.9957   6.0512   6.0628
     6.1341   6.1537   6.2276   6.3217   6.3777   6.4087   6.4763   6.6447
     6.6909   6.7944   6.8392   7.0340   7.1498   7.3624   7.4839   7.5882
     7.9717   8.1725   8.3525   8.5214   8.6339   8.8566   9.0524   9.1148
     9.1806   9.5001   9.6237

          k =-0.0506 0.0280 0.0000 ( 34685 PWs)   bands (ev):

   -57.6985 -57.6682 -57.3177 -57.2862 -57.2348 -57.1094 -57.0775 -57.0725
   -57.0537 -57.0420 -56.9898 -56.9591 -56.7299 -56.6973 -56.1492 -56.1187
   -34.1125 -33.9810 -33.9564 -33.8935 -33.8468 -33.8139 -33.7741 -33.6353
   -33.6140 -33.5873 -33.5451 -33.5377 -33.5298 -33.5220 -33.4955 -33.4745
   -33.4609 -33.4509 -33.4315 -33.3710 -33.3196 -33.2927 -33.2810 -33.2673
   -33.2661 -33.2634 -33.2610 -33.2559 -33.2395 -33.2381 -33.2359 -33.2158
   -33.2051 -33.1876 -33.1792 -33.1467 -33.1436 -32.9946 -32.9854 -32.9586
   -32.9150 -32.8350 -32.5435 -32.5049 -32.4782 -32.3675 -32.2882 -32.2011
   -20.3057 -17.8627 -17.6531 -17.3709 -17.3435 -17.2520 -17.2265 -17.2164
   -17.1245 -17.0454 -16.9653 -16.9228 -16.8730 -16.8595 -16.8568 -16.8347
   -16.7656 -16.7468 -16.5614 -16.5301 -16.5062 -16.4399 -16.4173 -16.3783
   -16.3705 -16.3136 -16.1931 -16.1739 -16.1543 -16.0137 -15.9678 -14.7425
   -14.6752 -11.4311  -7.2375  -5.4573  -5.2278  -5.1287  -4.8941  -4.8359
    -4.7218  -4.7062  -4.6773  -4.6569  -4.6320  -4.5113  -4.4297  -4.3474
    -4.3207  -4.3034  -4.1614  -4.1289  -4.0626  -4.0285  -4.0105  -3.9951
    -3.9846  -3.9115  -3.8616  -3.8178  -3.7753  -3.7629  -3.7209  -3.6927
    -3.6576  -3.6353  -3.5849  -3.5532  -3.4482  -3.3210  -3.2873  -3.2639
    -3.2264  -3.1719  -3.1036  -3.0601  -2.9557  -2.9395  -2.8774  -2.8422
    -2.7448  -2.6964  -2.6615  -2.6524  -2.6057  -2.5926  -2.5375  -2.4970
    -2.4388  -2.3892  -2.3828  -2.3374  -2.3104  -2.2562  -2.1811  -2.1378
    -2.1150  -2.0642  -2.0273  -1.9761  -1.9417  -1.9066  -1.8617  -1.8332
    -1.7564  -1.7419  -1.7136  -1.6428  -1.5418  -1.5084  -1.4865  -1.4190
    -1.3685  -1.3491  -1.2804  -1.2617  -1.2394  -1.1488  -1.1124  -1.0149
    -0.9783  -0.8816  -0.8575  -0.8153  -0.7802  -0.7656  -0.7069  -0.6916
    -0.5148  -0.3137  -0.2613  -0.0748   0.1082   0.1376   0.1609   1.7024
     1.9033   2.0587   2.1207   2.1256   2.1708   2.2391   2.3594   2.3705
     2.4044   2.4361   2.5161   2.5657   2.5729   2.6010   2.6819   2.6947
     2.7414   2.8008   2.8313   2.9011   2.9541   2.9798   3.0399   3.0586
     3.0891   3.1586   3.1694   3.1989   3.3006   3.3547   3.3746   3.4087
     3.4443   3.4565   3.5451   3.5846   3.6025   3.6517   3.6743   3.6830
     3.7153   3.7692   3.8167   3.8676   3.9308   4.0574   4.1670   4.2803
     4.2913   4.4210   4.6205   4.6878   4.7627   4.8094   4.8536   4.9837
     5.0108   5.1241   5.2216   5.4682   5.5929   5.6389   5.7195   5.8032
     5.8595   5.8710   5.9235   5.9455   5.9790   6.0923   6.1162   6.1376
     6.2294   6.4303   6.4808   6.5385   6.5761   6.6075   6.6838   6.7412
     6.7963   6.8157   6.9721   7.1166   7.1659   7.3957   7.5688   7.6981
     8.1324   8.1619   8.2400   8.3849   8.7526   8.9667   9.0110   9.0430
     9.3762   9.4455   9.6083

          k =-0.0506 0.0560 0.0000 ( 34596 PWs)   bands (ev):

   -57.6921 -57.6746 -57.3111 -57.2928 -57.2340 -57.1034 -57.0836 -57.0661
   -57.0545 -57.0485 -56.9834 -56.9656 -56.7233 -56.7040 -56.1428 -56.1251
   -34.0425 -33.9757 -33.9614 -33.8768 -33.8473 -33.8308 -33.7756 -33.5983
   -33.5772 -33.5744 -33.5378 -33.5237 -33.5175 -33.5130 -33.4797 -33.4753
   -33.4558 -33.4287 -33.4060 -33.3555 -33.3200 -33.3198 -33.3029 -33.3008
   -33.2885 -33.2784 -33.2697 -33.2627 -33.2555 -33.2554 -33.2495 -33.2414
   -33.2124 -33.2026 -33.1727 -33.1666 -33.1275 -32.9895 -32.9795 -32.9637
   -32.9279 -32.9045 -32.4992 -32.4837 -32.4727 -32.3509 -32.3051 -32.2751
   -20.3054 -17.7082 -17.5024 -17.2934 -17.2418 -17.1998 -17.1756 -17.1640
   -17.0919 -17.0388 -17.0080 -16.9155 -16.8585 -16.8510 -16.8465 -16.8085
   -16.7782 -16.7239 -16.6646 -16.6246 -16.6149 -16.5527 -16.5145 -16.4009
   -16.3452 -16.2655 -16.2280 -16.1949 -16.1583 -16.1149 -16.0398 -14.7618
   -14.7262 -11.4302  -7.2363  -5.4302  -5.1394  -5.0239  -4.6610  -4.6190
    -4.5175  -4.5013  -4.4859  -4.4585  -4.4344  -4.3692  -4.3267  -4.3037
    -4.2275  -4.2075  -4.1482  -4.1339  -4.0847  -4.0691  -4.0481  -4.0384
    -4.0164  -3.9984  -3.9707  -3.9165  -3.8962  -3.8902  -3.8240  -3.7894
    -3.7327  -3.6619  -3.6321  -3.5244  -3.4900  -3.3786  -3.3305  -3.2638
    -3.2585  -3.2471  -3.1458  -3.0166  -2.9355  -2.9066  -2.8529  -2.8328
    -2.7585  -2.7287  -2.6868  -2.6115  -2.5935  -2.5697  -2.5307  -2.4918
    -2.4305  -2.4079  -2.3677  -2.3314  -2.3184  -2.3021  -2.2574  -2.1801
    -2.1542  -2.1230  -2.1158  -2.0794  -2.0494  -2.0043  -1.9864  -1.9037
    -1.8934  -1.8536  -1.8346  -1.7265  -1.6396  -1.6081  -1.5748  -1.4804
    -1.4098  -1.3766  -1.3092  -1.2490  -1.2078  -1.1121  -1.0752  -1.0191
    -1.0038  -0.9386  -0.8544  -0.8216  -0.7719  -0.7582  -0.6945  -0.6589
    -0.6535  -0.5196  -0.3265   0.0762   0.1104   0.1284   0.1919   1.8651
     2.0750   2.1633   2.1974   2.2192   2.2419   2.2966   2.3460   2.3913
     2.4019   2.5357   2.5684   2.5775   2.6057   2.6264   2.6815   2.7529
     2.7803   2.8025   2.8371   2.8791   2.9617   3.0024   3.0266   3.0602
     3.0954   3.1345   3.1659   3.2549   3.3339   3.3657   3.3953   3.4392
     3.4770   3.4980   3.5201   3.5408   3.6133   3.6458   3.7097   3.7426
     3.7783   3.8499   3.8785   3.9176   3.9236   3.9526   4.1100   4.1731
     4.2877   4.4718   4.7227   4.8051   4.8147   4.8946   4.9403   5.0904
     5.1637   5.2294   5.2702   5.3265   5.3703   5.4330   5.4935   5.6243
     5.7790   5.8284   5.8797   5.9503   6.0381   6.1224   6.2158   6.2577
     6.2850   6.3477   6.4144   6.4487   6.5027   6.5764   6.6484   6.7147
     6.7292   6.8228   6.8481   6.9828   7.0518   7.4091   7.4251   7.5769
     7.7455   7.9405   8.0702   8.3858   8.5736   8.6116   8.7389   9.0069
     9.2240   9.3231   9.4510

     the Fermi energy is     0.9953 ev

!    total energy              =   -3021.41972922 Ry
     Harris-Foulkes estimate   =   -3021.41972949 Ry
     estimated scf accuracy    <       0.00000031 Ry

     The total energy is the sum of the following terms:

     one-electron contribution =  -41239.53022947 Ry
     hartree contribution      =   20693.97947967 Ry
     xc contribution           =    -553.67784155 Ry
     ewald contribution        =   18077.80907327 Ry
     smearing contrib. (-TS)   =      -0.00021114 Ry

     total magnetization       =     0.00 Bohr mag/cell
     absolute magnetization    =     0.00 Bohr mag/cell

     convergence has been achieved in   9 iterations

     Forces acting on atoms (Ry/au):


     negative rho (up, down):  1.207E-02 1.207E-02
     atom    1 type  1   force =     0.00001771   -0.00035551   -0.13379373
     atom    2 type  2   force =     0.00000567    0.00002963    0.07213902
     atom    3 type  1   force =    -0.00135328    0.00030955   -0.06098570
     atom    4 type  2   force =     0.00290079    0.00048704    0.00638333
     atom    5 type  1   force =     0.00027884    0.00183956    0.00350661
     atom    6 type  2   force =     0.00005511    0.00001561   -0.00281165
     atom    7 type  1   force =    -0.00041171   -0.00064815    0.00421778
     atom    8 type  2   force =     0.00098090   -0.00017318   -0.00068844
     atom    9 type  1   force =    -0.00002710    0.00001909   -0.13355230
     atom   10 type  2   force =    -0.00006509    0.00006626    0.07131686
     atom   11 type  1   force =    -0.00131633   -0.00024194   -0.05589903
     atom   12 type  2   force =     0.00299244   -0.00006868    0.00609805
     atom   13 type  1   force =     0.00030210   -0.00146843    0.00344440
     atom   14 type  2   force =    -0.00119450   -0.00038551   -0.00288768
     atom   15 type  1   force =    -0.00058662    0.00014204    0.00454812
     atom   16 type  2   force =     0.00060866   -0.00022710   -0.00008638
     atom   17 type  2   force =    -0.00006927   -0.00007123    0.07939444
     atom   18 type  1   force =     0.00013708   -0.00017257    0.11912939
     atom   19 type  2   force =    -0.00010640   -0.00017242   -0.06667973
     atom   20 type  2   force =    -0.06322519    0.00014868   -0.03224095
     atom   21 type  2   force =     0.06320396    0.00001560   -0.03244663
     atom   22 type  1   force =     0.00072274    0.00108052    0.05974017
     atom   23 type  2   force =    -0.00017170    0.00005741   -0.00175001
     atom   24 type  2   force =    -0.00143329   -0.00000346   -0.02327107
     atom   25 type  2   force =    -0.00312649    0.00058932    0.00787009
     atom   26 type  1   force =     0.00063685    0.00029167    0.00461405
     atom   27 type  2   force =     0.00052379    0.00059890   -0.00383624
     atom   28 type  2   force =     0.00014351   -0.00009050   -0.00120255
     atom   29 type  2   force =     0.00020992   -0.00034360   -0.00058590
     atom   30 type  1   force =     0.00034519   -0.00072873    0.00390883
     atom   31 type  2   force =     0.00003310    0.00008148   -0.00264583
     atom   32 type  2   force =    -0.00002152    0.00003467   -0.00110888
     atom   33 type  2   force =    -0.00011761    0.00003944    0.07899595
     atom   34 type  1   force =     0.00006882   -0.00021772    0.11904491
     atom   35 type  2   force =    -0.00030381   -0.00005281   -0.06638129
     atom   36 type  2   force =    -0.06318494   -0.00005357   -0.03232981
     atom   37 type  2   force =     0.06333319   -0.00020347   -0.03248477
     atom   38 type  1   force =     0.00066204   -0.00098188    0.05995592
     atom   39 type  2   force =    -0.00045428    0.00010437   -0.00249727
     atom   40 type  2   force =    -0.00119118    0.00030536   -0.02218068
     atom   41 type  2   force =    -0.00316623   -0.00014923    0.00789485
     atom   42 type  1   force =     0.00051528    0.00006330    0.00372858
     atom   43 type  2   force =     0.00069173    0.00023760   -0.00300520
     atom   44 type  2   force =     0.00022862    0.00010105   -0.00116043
     atom   45 type  2   force =     0.00018774    0.00030930   -0.00061838
     atom   46 type  1   force =     0.00058040    0.00034452    0.00400865
     atom   47 type  2   force =     0.00005399   -0.00031247   -0.00142726
     atom   48 type  2   force =     0.00008714    0.00007499   -0.00093340
     atom   49 type  3   force =     0.00160974    0.01041755    0.01556623
     atom   50 type  2   force =     0.00057682    0.00199982    0.00012725
     atom   51 type  4   force =     0.00028754    0.00109096    0.00033700
     atom   52 type  4   force =     0.00050294    0.00031360    0.00074368
     atom   53 type  4   force =    -0.00012963   -0.00053435   -0.00179548
     atom   54 type  4   force =    -0.00182818   -0.01355237   -0.01542751

     Total force =     0.363680     Total SCF correction =     0.001185
 !ASE

     Writing output data file calc.save
 
     init_run     :     55.38s CPU     69.57s WALL (       1 calls)
     electrons    :   2123.11s CPU   2626.26s WALL (       1 calls)
     forces       :     39.90s CPU     41.68s WALL (       1 calls)

     Called by init_run:
     wfcinit      :     47.12s CPU     60.56s WALL (       1 calls)
     potinit      :      1.43s CPU      1.70s WALL (       1 calls)

     Called by electrons:
     c_bands      :   1849.82s CPU   2282.97s WALL (      10 calls)
     sum_band     :    233.66s CPU    297.66s WALL (      10 calls)
     v_of_rho     :      9.56s CPU     12.18s WALL (      10 calls)
     newd         :     33.76s CPU     37.25s WALL (      10 calls)
     mix_rho      :      0.32s CPU      0.46s WALL (      10 calls)
     vdW_energy   :      1.79s CPU      2.23s WALL (      11 calls)
     vdW_ffts     :      2.55s CPU      3.46s WALL (      22 calls)
     vdW_v        :      1.01s CPU      1.17s WALL (      11 calls)

     Called by c_bands:
     init_us_2    :      5.93s CPU      6.52s WALL (     880 calls)
     cegterg      :   1814.06s CPU   2245.18s WALL (     400 calls)

     Called by *egterg:
     h_psi        :    753.39s CPU   1100.80s WALL (    2154 calls)
     s_psi        :     91.05s CPU     96.17s WALL (    2154 calls)
     g_psi        :      4.95s CPU      5.02s WALL (    1714 calls)
     cdiaghg      :    627.98s CPU    644.93s WALL (    2074 calls)

     Called by h_psi:
     add_vuspsi   :     91.67s CPU     96.40s WALL (    2154 calls)

     General routines
     calbec       :    139.11s CPU    142.35s WALL (    2594 calls)
     fft          :      5.48s CPU      7.33s WALL (     875 calls)
     ffts         :      0.09s CPU      0.14s WALL (      40 calls)
     fftw         :    500.58s CPU    892.20s WALL (  726124 calls)
     interpolate  :      0.35s CPU      0.62s WALL (      40 calls)
     davcio       :      0.14s CPU      3.10s WALL (      40 calls)
 
     Parallel routines
     fft_scatter  :    267.58s CPU    472.53s WALL (  727039 calls)
 
     PWSCF        : 36m59.42s CPU    45m42.98s WALL

 
   This run was terminated on:  10:30: 9  13Feb2018            

=------------------------------------------------------------------------------=
   JOB DONE.
=------------------------------------------------------------------------------=
