  python dir          : /home/vossj/suncat/lib/python2.7/site-packages/espresso
  espresso dir        : /home/vossj/suncat/esdld/espresso-dynpy-beef/bin
  pseudo dir          : /home/alatimer/bin/psp/esp_psp_w_gbrvRu/
  ase-espresso py git : ffa2778-git



     Program PWSCF v.5.1rc2 (svn rev. ) starts on 12Feb2018 at 20: 4:52 

     This program is part of the open-source Quantum ESPRESSO suite
     for quantum simulation of materials; please cite
         "P. Giannozzi et al., J. Phys.:Condens. Matter 21 395502 (2009);
          URL http://www.quantum-espresso.org", 
     in publications or presentations arising from this work. More details at
     http://www.quantum-espresso.org/quote

     Parallel version (MPI), running on    16 processors
     R & G space division:  proc/nbgrp/npool/nimage =      16
     Reading input from pw.inp
     Message from routine read_cards :
     DEPRECATED: no units specified in CELL_PARAMETERS card

     Current dimensions of program PWSCF are:
     Max number of different atomic species (ntypx) = 10
     Max number of k-points (npk) =  40000
     Max angular momentum in pseudopotentials (lmaxx) =  3

     **************************************************************************
     Initializing libbeef V0.1.1 with the BEEF-vdW functional.
     Citation: Wellendorff et al., PRB 85, 235149 (2012).
     **************************************************************************


     IMPORTANT: XC functional enforced from input :
     Exchange-correlation      = BEEF ( 1  4 27 13 2)
     Any further DFT definition will be discarded
     Please, verify this is what you really want


     Subspace diagonalization in iterative solution of the eigenvalue problem:
     a serial algorithm will be used

 
     Parallelization info
     --------------------
     sticks:   dense  smooth     PW     G-vecs:    dense   smooth      PW
     Min         281     112     31                68535    17318    2565
     Max         282     113     32                68545    17369    2582
     Sum        4501    1795    503              1096637   277353   41113
 
     Generating pointlists ...
     new r_m :   0.4125 (alat units)  0.7795 (a.u.) for type    1
     new r_m :   0.3995 (alat units)  0.7549 (a.u.) for type    2
     new r_m :   0.4125 (alat units)  0.7795 (a.u.) for type    3
     new r_m :   0.3995 (alat units)  0.7549 (a.u.) for type    4


     bravais-lattice index     =            0
     lattice parameter (alat)  =       1.8897  a.u.
     unit-cell volume          =    7990.9933 (a.u.)^3
     number of atoms/cell      =           54
     number of atomic types    =            4
     number of electrons       =       398.00
     number of Kohn-Sham states=          299
     kinetic-energy cutoff     =      40.4243  Ry
     charge density cutoff     =     404.2426  Ry
     convergence threshold     =      7.3E-07
     mixing beta               =       0.1000
     number of iterations used =           10  plain     mixing
     Exchange-correlation      = BEEF ( 1  4 27 13 2)
     nstep                     =           50


     celldm(1)=   1.889726  celldm(2)=   0.000000  celldm(3)=   0.000000
     celldm(4)=   0.000000  celldm(5)=   0.000000  celldm(6)=   0.000000

     crystal axes: (cart. coord. in units of alat)
               a(1) = (   6.590708   0.000000   0.000000 )  
               a(2) = (   0.000000   5.950229   0.000000 )  
               a(3) = (   0.000000   0.000000  30.195235 )  

     reciprocal axes: (cart. coord. in units 2 pi/alat)
               b(1) = (  0.151729  0.000000  0.000000 )  
               b(2) = (  0.000000  0.168061  0.000000 )  
               b(3) = (  0.000000  0.000000  0.033118 )  


     PseudoPot. # 1 for Ti read from file:
     /home/alatimer/bin/psp/esp_psp_w_gbrvRu/Ti.UPF
     MD5 check sum: 8e4df49b7f0d34bbd5052bf3f5ea0213
     Pseudo is Ultrasoft, Zval = 12.0
     Generated by new atomic code, or converted to UPF format
     Using radial grid of  851 points,  6 beta functions with: 
                l(1) =   0
                l(2) =   0
                l(3) =   1
                l(4) =   1
                l(5) =   2
                l(6) =   2
     Q(r) pseudized with  8 coefficients,  rinner =    1.000   1.000   1.000
                                                       1.000   1.000

     PseudoPot. # 2 for  O read from file:
     /home/alatimer/bin/psp/esp_psp_w_gbrvRu/O.UPF
     MD5 check sum: e057bbcf3229fb5d8c36c0c92f9568b4
     Pseudo is Ultrasoft + core correction, Zval =  6.0
     Generated using "atomic" code by A. Dal Corso  v.5.0.2 svn rev. 9415
     Using radial grid of 1095 points,  4 beta functions with: 
                l(1) =   0
                l(2) =   0
                l(3) =   1
                l(4) =   1
     Q(r) pseudized with 0 coefficients 


     PseudoPot. # 3 for  C read from file:
     /home/alatimer/bin/psp/esp_psp_w_gbrvRu/C.UPF
     MD5 check sum: ab446d787031eba755f1d5ee46644bb0
     Pseudo is Ultrasoft + core correction, Zval =  4.0
     Generated using "atomic" code by A. Dal Corso  v.5.0.2 svn rev. 9415
     Using radial grid of 1073 points,  4 beta functions with: 
                l(1) =   0
                l(2) =   0
                l(3) =   1
                l(4) =   1
     Q(r) pseudized with 0 coefficients 


     PseudoPot. # 4 for  H read from file:
     /home/alatimer/bin/psp/esp_psp_w_gbrvRu/H.UPF
     MD5 check sum: bd57da0722753ddfd9833a65b40bb853
     Pseudo is Ultrasoft, Zval =  1.0
     Generated using "atomic" code by A. Dal Corso  v.5.0.2 svn rev. 9415
     Using radial grid of  929 points,  2 beta functions with: 
                l(1) =   0
                l(2) =   0
     Q(r) pseudized with 0 coefficients 


     vdW kernel table read from file vdW_kernel_table
     MD5 check sum: 095c7af220d748ca6e76c0b4c6cfb241

     atomic species   valence    mass     pseudopotential
        Ti1           12.00    47.88000     Ti( 1.00)
        O1             6.00    15.99940      O( 1.00)
        C1             4.00    12.01100      C( 1.00)
        H1             1.00     1.00794      H( 1.00)

     Starting magnetic structure 
     atomic species   magnetization
        Ti1          0.250
        O1           0.500
        C1           0.750
        H1           0.000

     No symmetry found



   Cartesian axes

     site n.     atom                  positions (alat units)
         1           Ti1 tau(   1) = (   1.6476770   0.7437786   2.6545865  )
         2           O1  tau(   2) = (   1.6476770   2.2313359   3.9361215  )
         3           Ti1 tau(   3) = (   1.6476770   2.2313359   5.9499405  )
         4           O1  tau(   4) = (   0.3661420   0.7437786   5.9499405  )
         5           Ti1 tau(   5) = (   1.7592931   0.7557636   9.1813031  )
         6           O1  tau(   6) = (   1.6162490   2.2572048  10.5951269  )
         7           Ti1 tau(   7) = (   1.5595004   2.2680265  12.4668274  )
         8           O1  tau(   8) = (   0.3709531   0.7738127  12.6996540  )
         9           Ti1 tau(   9) = (   1.6476770   3.7188931   2.6545865  )
        10           O1  tau(  10) = (   1.6476770   5.2064503   3.9361215  )
        11           Ti1 tau(  11) = (   1.6476770   5.2064503   5.9499405  )
        12           O1  tau(  12) = (   0.3661420   3.7188931   5.9499405  )
        13           Ti1 tau(  13) = (   1.7607536   3.7112867   9.1949733  )
        14           O1  tau(  14) = (   1.6133076   5.2250699  10.5465640  )
        15           Ti1 tau(  15) = (   1.6492307   5.2431137  12.3448001  )
        16           O1  tau(  16) = (   0.3719744   3.7598389  12.7007434  )
        17           O1  tau(  17) = (   1.6476770   2.2313359   1.3730516  )
        18           Ti1 tau(  18) = (   4.9430310   2.2313359   2.6545865  )
        19           O1  tau(  19) = (   4.9430310   2.2313359   4.6684056  )
        20           O1  tau(  20) = (   6.2245660   0.7437786   2.6545865  )
        21           O1  tau(  21) = (   3.6614961   0.7437786   2.6545865  )
        22           Ti1 tau(  22) = (   4.9430310   0.7437786   5.9499405  )
        23           O1  tau(  23) = (   1.6387103   2.2391978   8.0037664  )
        24           O1  tau(  24) = (   4.9430310   2.2313359   7.2314755  )
        25           O1  tau(  25) = (   2.9292120   0.7437786   5.9499405  )
        26           Ti1 tau(  26) = (   5.0158092   2.2383949   9.3973727  )
        27           O1  tau(  27) = (   4.9391445   2.2276729  11.2675731  )
        28           O1  tau(  28) = (   6.2094020   0.7514556   9.2742047  )
        29           O1  tau(  29) = (   3.6131301   0.7515640   9.2682932  )
        30           Ti1 tau(  30) = (   4.8940083   0.8207741  12.7348365  )
        31           O1  tau(  31) = (   4.8487174   2.2703822  13.8475395  )
        32           O1  tau(  32) = (   2.8766274   0.7418004  12.6316555  )
        33           O1  tau(  33) = (   1.6476770   5.2064503   1.3730516  )
        34           Ti1 tau(  34) = (   4.9430310   5.2064503   2.6545865  )
        35           O1  tau(  35) = (   4.9430310   5.2064503   4.6684056  )
        36           O1  tau(  36) = (   6.2245660   3.7188931   2.6545865  )
        37           O1  tau(  37) = (   3.6614961   3.7188931   2.6545865  )
        38           Ti1 tau(  38) = (   4.9430310   3.7188931   5.9499405  )
        39           O1  tau(  39) = (   1.6418458   5.2133935   8.0066417  )
        40           O1  tau(  40) = (   4.9430310   5.2064503   7.2314755  )
        41           O1  tau(  41) = (   2.9292120   3.7188931   5.9499405  )
        42           Ti1 tau(  42) = (   5.0218241   5.2139137   9.3870600  )
        43           O1  tau(  43) = (   4.9399496   5.2040061  11.2598200  )
        44           O1  tau(  44) = (   6.2073000   3.7245411   9.2731052  )
        45           O1  tau(  45) = (   3.6137513   3.7232133   9.2682466  )
        46           Ti1 tau(  46) = (   4.8936935   3.8094630  12.7397413  )
        47           O1  tau(  47) = (   4.9051259   5.2510468  13.8339921  )
        48           O1  tau(  48) = (   2.8743370   3.7938830  12.6403791  )
        49           C1  tau(  49) = (   1.0587210   2.2268971  15.9066084  )
        50           O1  tau(  50) = (   1.8917182   2.2355032  14.7378010  )
        51           H1  tau(  51) = (   0.0310076   2.2500215  15.5603933  )
        52           H1  tau(  52) = (   2.8355400   2.2288152  14.9543747  )
        53           H1  tau(  53) = (   1.2478062   1.3326534  16.5039879  )
        54           H1  tau(  54) = (   1.2341453   3.1195140  16.5098874  )

     number of k points=    40  Fermi-Dirac smearing, width (Ry)=  0.0073
                       cart. coord. in units 2pi/alat
        k(    1) = (   0.0000000   0.0000000   0.0000000), wk =   0.0277778
        k(    2) = (   0.0000000   0.0280101   0.0000000), wk =   0.0555556
        k(    3) = (   0.0000000   0.0560203   0.0000000), wk =   0.0555556
        k(    4) = (   0.0000000  -0.0840304   0.0000000), wk =   0.0277778
        k(    5) = (   0.0252881   0.0000000   0.0000000), wk =   0.0555556
        k(    6) = (   0.0252881   0.0280101   0.0000000), wk =   0.0555556
        k(    7) = (   0.0252881   0.0560203   0.0000000), wk =   0.0555556
        k(    8) = (   0.0252881  -0.0840304   0.0000000), wk =   0.0555556
        k(    9) = (   0.0505763   0.0000000   0.0000000), wk =   0.0555556
        k(   10) = (   0.0505763   0.0280101   0.0000000), wk =   0.0555556
        k(   11) = (   0.0505763   0.0560203   0.0000000), wk =   0.0555556
        k(   12) = (   0.0505763  -0.0840304   0.0000000), wk =   0.0555556
        k(   13) = (  -0.0758644   0.0000000   0.0000000), wk =   0.0277778
        k(   14) = (  -0.0758644   0.0280101   0.0000000), wk =   0.0555556
        k(   15) = (  -0.0758644   0.0560203   0.0000000), wk =   0.0555556
        k(   16) = (  -0.0758644  -0.0840304   0.0000000), wk =   0.0277778
        k(   17) = (  -0.0252881   0.0280101   0.0000000), wk =   0.0555556
        k(   18) = (  -0.0252881   0.0560203   0.0000000), wk =   0.0555556
        k(   19) = (  -0.0505763   0.0280101   0.0000000), wk =   0.0555556
        k(   20) = (  -0.0505763   0.0560203   0.0000000), wk =   0.0555556
        k(   21) = (   0.0000000   0.0000000   0.0000000), wk =   0.0277778
        k(   22) = (   0.0000000   0.0280101   0.0000000), wk =   0.0555556
        k(   23) = (   0.0000000   0.0560203   0.0000000), wk =   0.0555556
        k(   24) = (   0.0000000  -0.0840304   0.0000000), wk =   0.0277778
        k(   25) = (   0.0252881   0.0000000   0.0000000), wk =   0.0555556
        k(   26) = (   0.0252881   0.0280101   0.0000000), wk =   0.0555556
        k(   27) = (   0.0252881   0.0560203   0.0000000), wk =   0.0555556
        k(   28) = (   0.0252881  -0.0840304   0.0000000), wk =   0.0555556
        k(   29) = (   0.0505763   0.0000000   0.0000000), wk =   0.0555556
        k(   30) = (   0.0505763   0.0280101   0.0000000), wk =   0.0555556
        k(   31) = (   0.0505763   0.0560203   0.0000000), wk =   0.0555556
        k(   32) = (   0.0505763  -0.0840304   0.0000000), wk =   0.0555556
        k(   33) = (  -0.0758644   0.0000000   0.0000000), wk =   0.0277778
        k(   34) = (  -0.0758644   0.0280101   0.0000000), wk =   0.0555556
        k(   35) = (  -0.0758644   0.0560203   0.0000000), wk =   0.0555556
        k(   36) = (  -0.0758644  -0.0840304   0.0000000), wk =   0.0277778
        k(   37) = (  -0.0252881   0.0280101   0.0000000), wk =   0.0555556
        k(   38) = (  -0.0252881   0.0560203   0.0000000), wk =   0.0555556
        k(   39) = (  -0.0505763   0.0280101   0.0000000), wk =   0.0555556
        k(   40) = (  -0.0505763   0.0560203   0.0000000), wk =   0.0555556

     Dense  grid:  1096637 G-vectors     FFT dimensions: (  80,  72, 375)

     Smooth grid:   277353 G-vectors     FFT dimensions: (  54,  45, 240)

     Largest allocated arrays     est. size (Mb)     dimensions
        Kohn-Sham Wavefunctions         9.95 Mb     (    2180,  299)
        NL pseudopotentials            18.89 Mb     (    2180,  568)
        Each V/rho on FFT grid          4.22 Mb     (  138240,   2)
        Each G-vector array             0.52 Mb     (   68538)
        G-vector shells                 0.25 Mb     (   33046)
     Largest temporary arrays     est. size (Mb)     dimensions
        Auxiliary wavefunctions        39.78 Mb     (    2180, 1196)
        Each subspace H/S matrix       21.83 Mb     (    1196, 1196)
        Each <psi_i|beta_j> matrix      2.59 Mb     (     568,  299)
        Arrays for rho mixing          21.09 Mb     (  138240,   10)

     Check: negative/imaginary core charge=   -0.000049    0.000000

     The initial density is read from file :
     ./calc.save/charge-density.dat


     negative rho (up, down):  1.209E-02 1.209E-02


     ************************************************************************
     *
     * You are using vdW-DF for exchange-correlation in this calculation.
     * Please cite the following three references that made this development
     * possible:
     *
     *   M. Dion, H. Rydberg, E. Schroder, D. C. Langreth, and
     *   B. I. Lundqvist, Phys. Rev. Lett. 92, 246401 (2004).
     *
     *   T. Thonhauser, V. R. Cooper, S. Li, A. Puzder, P. Hyldgaard, and
     *   D. C. Langreth, Phys. Rev. B 76, 125112 (2007).
     *
     *   G. Roman-Perez and J. M. Soler, Phys. Rev. Lett. 103, 096102 (2009).
     *
     *
     * If you are using vdW-DF2, please also cite:
     *
     *   K. Lee, E. D. Murray, L. Kong, B. I. Lundqvist, and
     *   D. C. Langreth, Phys. Rev. B 82, 081101(R) (2010).
     *
     *
     * If you are calculating the stress with vdW-DF, please also cite:
     *
     *   R. Sabatini, E. Kucukbenli, B. Kolb, T. Thonhauser, and
     *   S. de Gironcoli, J. Phys.: Condens. Matter 24, 424209 (2012).
     *
     ************************************************************************

     Carrying out vdW-DF run using the following parameters:

     Nqs =      20    Nr_points =    1024   r_max =   100.000
     q_mesh =
               0.00001000     0.04494208     0.09755937     0.15916263
               0.23128650     0.31572767     0.41458969     0.53033537
               0.66584808     0.82450364     1.01025438     1.22772762
               1.48234092     1.78043706     2.12944203     2.53805004
               3.01644009     3.57652955     4.23227104     5.00000000

     Gradients computed in reciprocal space

     ************************************************************************


     Starting wfc are  300 randomized atomic wfcs

     total cpu time spent up to now is       74.1 secs

     Self-consistent Calculation

     iteration #  1     ecut=    40.42 Ry     beta=0.10
     Davidson diagonalization with overlap
     ethr =  1.00E-05,  avg # of iterations = 14.6

     Threshold (ethr) on eigenvalues was too large:
     Diagonalizing with lowered threshold

     Davidson diagonalization with overlap
     ethr =  2.88E-07,  avg # of iterations =  1.0

     negative rho (up, down):  1.209E-02 1.209E-02
 
     Magnetic moment per site:
     atom:    1    charge:    3.1250    magn:   -0.0002    constr:    0.0000
     atom:    2    charge:    1.9452    magn:    0.0000    constr:    0.0000
     atom:    3    charge:    3.1198    magn:    0.0000    constr:    0.0000
     atom:    4    charge:    1.9504    magn:   -0.0001    constr:    0.0000
     atom:    5    charge:    3.1166    magn:    0.0000    constr:    0.0000
     atom:    6    charge:    1.9476    magn:   -0.0001    constr:    0.0000
     atom:    7    charge:    3.1157    magn:    0.0001    constr:    0.0000
     atom:    8    charge:    1.9452    magn:   -0.0001    constr:    0.0000
     atom:    9    charge:    3.1250    magn:   -0.0002    constr:    0.0000
     atom:   10    charge:    1.9452    magn:    0.0000    constr:    0.0000
     atom:   11    charge:    3.1197    magn:    0.0000    constr:    0.0000
     atom:   12    charge:    1.9504    magn:   -0.0001    constr:    0.0000
     atom:   13    charge:    3.1158    magn:    0.0000    constr:    0.0000
     atom:   14    charge:    1.9587    magn:   -0.0001    constr:    0.0000
     atom:   15    charge:    3.1188    magn:    0.0001    constr:    0.0000
     atom:   16    charge:    1.9446    magn:   -0.0001    constr:    0.0000
     atom:   17    charge:    1.9184    magn:    0.0004    constr:    0.0000
     atom:   18    charge:    3.1239    magn:   -0.0001    constr:    0.0000
     atom:   19    charge:    1.9408    magn:   -0.0000    constr:    0.0000
     atom:   20    charge:    1.9471    magn:    0.0000    constr:    0.0000
     atom:   21    charge:    1.9471    magn:    0.0000    constr:    0.0000
     atom:   22    charge:    3.1196    magn:    0.0000    constr:    0.0000
     atom:   23    charge:    1.9566    magn:   -0.0001    constr:    0.0000
     atom:   24    charge:    1.9379    magn:   -0.0001    constr:    0.0000
     atom:   25    charge:    1.9505    magn:   -0.0001    constr:    0.0000
     atom:   26    charge:    3.1145    magn:    0.0001    constr:    0.0000
     atom:   27    charge:    1.9398    magn:   -0.0001    constr:    0.0000
     atom:   28    charge:    1.9517    magn:   -0.0001    constr:    0.0000
     atom:   29    charge:    1.9476    magn:   -0.0001    constr:    0.0000
     atom:   30    charge:    3.1166    magn:    0.0000    constr:    0.0000
     atom:   31    charge:    1.9447    magn:   -0.0000    constr:    0.0000
     atom:   32    charge:    1.9440    magn:   -0.0001    constr:    0.0000
     atom:   33    charge:    1.9184    magn:    0.0004    constr:    0.0000
     atom:   34    charge:    3.1239    magn:   -0.0001    constr:    0.0000
     atom:   35    charge:    1.9408    magn:   -0.0000    constr:    0.0000
     atom:   36    charge:    1.9471    magn:    0.0000    constr:    0.0000
     atom:   37    charge:    1.9471    magn:    0.0000    constr:    0.0000
     atom:   38    charge:    3.1196    magn:    0.0000    constr:    0.0000
     atom:   39    charge:    1.9549    magn:   -0.0001    constr:    0.0000
     atom:   40    charge:    1.9383    magn:   -0.0001    constr:    0.0000
     atom:   41    charge:    1.9505    magn:   -0.0001    constr:    0.0000
     atom:   42    charge:    3.1141    magn:    0.0001    constr:    0.0000
     atom:   43    charge:    1.9413    magn:   -0.0001    constr:    0.0000
     atom:   44    charge:    1.9518    magn:   -0.0001    constr:    0.0000
     atom:   45    charge:    1.9468    magn:   -0.0001    constr:    0.0000
     atom:   46    charge:    3.1165    magn:    0.0000    constr:    0.0000
     atom:   47    charge:    1.9431    magn:   -0.0000    constr:    0.0000
     atom:   48    charge:    1.9444    magn:   -0.0001    constr:    0.0000
     atom:   49    charge:    0.6581    magn:   -0.0001    constr:    0.0000
     atom:   50    charge:    1.9578    magn:   -0.0001    constr:    0.0000
     atom:   51    charge:    0.4013    magn:    0.0000    constr:    0.0000
     atom:   52    charge:    0.4006    magn:    0.0000    constr:    0.0000
     atom:   53    charge:    0.4032    magn:    0.0000    constr:    0.0000
     atom:   54    charge:    0.4040    magn:    0.0000    constr:    0.0000

     total cpu time spent up to now is     1006.2 secs

     total energy              =   -3021.42019188 Ry
     Harris-Foulkes estimate   =   -3021.42026761 Ry
     estimated scf accuracy    <       0.00114531 Ry

     total magnetization       =     0.00 Bohr mag/cell
     absolute magnetization    =     0.01 Bohr mag/cell

     iteration #  2     ecut=    40.42 Ry     beta=0.10
     Davidson diagonalization with overlap
     ethr =  2.88E-07,  avg # of iterations =  1.0

     negative rho (up, down):  1.209E-02 1.209E-02
 
     Magnetic moment per site:
     atom:    1    charge:    3.1250    magn:   -0.0001    constr:    0.0000
     atom:    2    charge:    1.9452    magn:    0.0000    constr:    0.0000
     atom:    3    charge:    3.1198    magn:    0.0000    constr:    0.0000
     atom:    4    charge:    1.9504    magn:   -0.0000    constr:    0.0000
     atom:    5    charge:    3.1166    magn:    0.0000    constr:    0.0000
     atom:    6    charge:    1.9476    magn:   -0.0001    constr:    0.0000
     atom:    7    charge:    3.1157    magn:    0.0000    constr:    0.0000
     atom:    8    charge:    1.9451    magn:   -0.0001    constr:    0.0000
     atom:    9    charge:    3.1250    magn:   -0.0001    constr:    0.0000
     atom:   10    charge:    1.9452    magn:    0.0000    constr:    0.0000
     atom:   11    charge:    3.1197    magn:    0.0000    constr:    0.0000
     atom:   12    charge:    1.9504    magn:   -0.0000    constr:    0.0000
     atom:   13    charge:    3.1158    magn:    0.0000    constr:    0.0000
     atom:   14    charge:    1.9587    magn:   -0.0001    constr:    0.0000
     atom:   15    charge:    3.1188    magn:    0.0000    constr:    0.0000
     atom:   16    charge:    1.9447    magn:   -0.0001    constr:    0.0000
     atom:   17    charge:    1.9184    magn:    0.0003    constr:    0.0000
     atom:   18    charge:    3.1239    magn:   -0.0001    constr:    0.0000
     atom:   19    charge:    1.9408    magn:   -0.0000    constr:    0.0000
     atom:   20    charge:    1.9471    magn:    0.0000    constr:    0.0000
     atom:   21    charge:    1.9471    magn:    0.0000    constr:    0.0000
     atom:   22    charge:    3.1196    magn:    0.0000    constr:    0.0000
     atom:   23    charge:    1.9566    magn:   -0.0001    constr:    0.0000
     atom:   24    charge:    1.9379    magn:   -0.0000    constr:    0.0000
     atom:   25    charge:    1.9505    magn:   -0.0000    constr:    0.0000
     atom:   26    charge:    3.1145    magn:    0.0000    constr:    0.0000
     atom:   27    charge:    1.9398    magn:   -0.0000    constr:    0.0000
     atom:   28    charge:    1.9517    magn:   -0.0001    constr:    0.0000
     atom:   29    charge:    1.9476    magn:   -0.0001    constr:    0.0000
     atom:   30    charge:    3.1166    magn:    0.0000    constr:    0.0000
     atom:   31    charge:    1.9447    magn:   -0.0000    constr:    0.0000
     atom:   32    charge:    1.9440    magn:   -0.0001    constr:    0.0000
     atom:   33    charge:    1.9184    magn:    0.0003    constr:    0.0000
     atom:   34    charge:    3.1239    magn:   -0.0001    constr:    0.0000
     atom:   35    charge:    1.9408    magn:   -0.0000    constr:    0.0000
     atom:   36    charge:    1.9471    magn:    0.0000    constr:    0.0000
     atom:   37    charge:    1.9471    magn:    0.0000    constr:    0.0000
     atom:   38    charge:    3.1196    magn:    0.0000    constr:    0.0000
     atom:   39    charge:    1.9550    magn:   -0.0001    constr:    0.0000
     atom:   40    charge:    1.9383    magn:   -0.0000    constr:    0.0000
     atom:   41    charge:    1.9505    magn:   -0.0000    constr:    0.0000
     atom:   42    charge:    3.1141    magn:    0.0000    constr:    0.0000
     atom:   43    charge:    1.9413    magn:   -0.0000    constr:    0.0000
     atom:   44    charge:    1.9517    magn:   -0.0001    constr:    0.0000
     atom:   45    charge:    1.9469    magn:   -0.0001    constr:    0.0000
     atom:   46    charge:    3.1166    magn:    0.0000    constr:    0.0000
     atom:   47    charge:    1.9431    magn:   -0.0000    constr:    0.0000
     atom:   48    charge:    1.9445    magn:   -0.0001    constr:    0.0000
     atom:   49    charge:    0.6580    magn:   -0.0000    constr:    0.0000
     atom:   50    charge:    1.9578    magn:   -0.0000    constr:    0.0000
     atom:   51    charge:    0.4017    magn:    0.0000    constr:    0.0000
     atom:   52    charge:    0.4006    magn:    0.0000    constr:    0.0000
     atom:   53    charge:    0.4027    magn:    0.0000    constr:    0.0000
     atom:   54    charge:    0.4046    magn:    0.0000    constr:    0.0000

     total cpu time spent up to now is     1180.3 secs

     total energy              =   -3021.41997283 Ry
     Harris-Foulkes estimate   =   -3021.42019685 Ry
     estimated scf accuracy    <       0.00085720 Ry

     total magnetization       =     0.00 Bohr mag/cell
     absolute magnetization    =     0.01 Bohr mag/cell

     iteration #  3     ecut=    40.42 Ry     beta=0.10
     Davidson diagonalization with overlap
     ethr =  2.15E-07,  avg # of iterations =  2.3

     negative rho (up, down):  1.209E-02 1.209E-02
 
     Magnetic moment per site:
     atom:    1    charge:    3.1250    magn:   -0.0001    constr:    0.0000
     atom:    2    charge:    1.9452    magn:    0.0000    constr:    0.0000
     atom:    3    charge:    3.1198    magn:    0.0000    constr:    0.0000
     atom:    4    charge:    1.9504    magn:   -0.0000    constr:    0.0000
     atom:    5    charge:    3.1166    magn:    0.0000    constr:    0.0000
     atom:    6    charge:    1.9477    magn:   -0.0000    constr:    0.0000
     atom:    7    charge:    3.1157    magn:    0.0000    constr:    0.0000
     atom:    8    charge:    1.9453    magn:   -0.0000    constr:    0.0000
     atom:    9    charge:    3.1250    magn:   -0.0001    constr:    0.0000
     atom:   10    charge:    1.9452    magn:    0.0000    constr:    0.0000
     atom:   11    charge:    3.1197    magn:    0.0000    constr:    0.0000
     atom:   12    charge:    1.9504    magn:   -0.0000    constr:    0.0000
     atom:   13    charge:    3.1158    magn:    0.0000    constr:    0.0000
     atom:   14    charge:    1.9587    magn:   -0.0001    constr:    0.0000
     atom:   15    charge:    3.1188    magn:    0.0000    constr:    0.0000
     atom:   16    charge:    1.9445    magn:   -0.0000    constr:    0.0000
     atom:   17    charge:    1.9184    magn:    0.0003    constr:    0.0000
     atom:   18    charge:    3.1239    magn:   -0.0000    constr:    0.0000
     atom:   19    charge:    1.9408    magn:   -0.0000    constr:    0.0000
     atom:   20    charge:    1.9471    magn:    0.0000    constr:    0.0000
     atom:   21    charge:    1.9471    magn:    0.0000    constr:    0.0000
     atom:   22    charge:    3.1196    magn:    0.0000    constr:    0.0000
     atom:   23    charge:    1.9566    magn:   -0.0000    constr:    0.0000
     atom:   24    charge:    1.9379    magn:   -0.0000    constr:    0.0000
     atom:   25    charge:    1.9505    magn:   -0.0000    constr:    0.0000
     atom:   26    charge:    3.1145    magn:    0.0000    constr:    0.0000
     atom:   27    charge:    1.9398    magn:   -0.0000    constr:    0.0000
     atom:   28    charge:    1.9517    magn:   -0.0000    constr:    0.0000
     atom:   29    charge:    1.9476    magn:   -0.0001    constr:    0.0000
     atom:   30    charge:    3.1168    magn:    0.0000    constr:    0.0000
     atom:   31    charge:    1.9447    magn:   -0.0000    constr:    0.0000
     atom:   32    charge:    1.9441    magn:   -0.0000    constr:    0.0000
     atom:   33    charge:    1.9184    magn:    0.0003    constr:    0.0000
     atom:   34    charge:    3.1239    magn:   -0.0000    constr:    0.0000
     atom:   35    charge:    1.9408    magn:   -0.0000    constr:    0.0000
     atom:   36    charge:    1.9471    magn:    0.0000    constr:    0.0000
     atom:   37    charge:    1.9471    magn:    0.0000    constr:    0.0000
     atom:   38    charge:    3.1196    magn:    0.0000    constr:    0.0000
     atom:   39    charge:    1.9550    magn:   -0.0000    constr:    0.0000
     atom:   40    charge:    1.9383    magn:   -0.0000    constr:    0.0000
     atom:   41    charge:    1.9505    magn:   -0.0000    constr:    0.0000
     atom:   42    charge:    3.1141    magn:    0.0000    constr:    0.0000
     atom:   43    charge:    1.9413    magn:   -0.0000    constr:    0.0000
     atom:   44    charge:    1.9517    magn:   -0.0000    constr:    0.0000
     atom:   45    charge:    1.9468    magn:   -0.0001    constr:    0.0000
     atom:   46    charge:    3.1164    magn:    0.0000    constr:    0.0000
     atom:   47    charge:    1.9431    magn:   -0.0000    constr:    0.0000
     atom:   48    charge:    1.9444    magn:   -0.0000    constr:    0.0000
     atom:   49    charge:    0.6580    magn:   -0.0000    constr:    0.0000
     atom:   50    charge:    1.9578    magn:   -0.0000    constr:    0.0000
     atom:   51    charge:    0.4019    magn:    0.0000    constr:    0.0000
     atom:   52    charge:    0.4006    magn:    0.0000    constr:    0.0000
     atom:   53    charge:    0.4027    magn:    0.0000    constr:    0.0000
     atom:   54    charge:    0.4046    magn:    0.0000    constr:    0.0000

     total cpu time spent up to now is     1376.1 secs

     total energy              =   -3021.42003005 Ry
     Harris-Foulkes estimate   =   -3021.42003701 Ry
     estimated scf accuracy    <       0.00010203 Ry

     total magnetization       =     0.00 Bohr mag/cell
     absolute magnetization    =     0.00 Bohr mag/cell

     iteration #  4     ecut=    40.42 Ry     beta=0.10
     Davidson diagonalization with overlap
     ethr =  2.56E-08,  avg # of iterations =  3.0

     negative rho (up, down):  1.209E-02 1.209E-02
 
     Magnetic moment per site:
     atom:    1    charge:    3.1250    magn:   -0.0001    constr:    0.0000
     atom:    2    charge:    1.9452    magn:    0.0000    constr:    0.0000
     atom:    3    charge:    3.1198    magn:    0.0000    constr:    0.0000
     atom:    4    charge:    1.9504    magn:   -0.0000    constr:    0.0000
     atom:    5    charge:    3.1166    magn:    0.0000    constr:    0.0000
     atom:    6    charge:    1.9477    magn:   -0.0000    constr:    0.0000
     atom:    7    charge:    3.1157    magn:    0.0000    constr:    0.0000
     atom:    8    charge:    1.9453    magn:   -0.0000    constr:    0.0000
     atom:    9    charge:    3.1250    magn:   -0.0001    constr:    0.0000
     atom:   10    charge:    1.9452    magn:    0.0000    constr:    0.0000
     atom:   11    charge:    3.1197    magn:    0.0000    constr:    0.0000
     atom:   12    charge:    1.9504    magn:   -0.0000    constr:    0.0000
     atom:   13    charge:    3.1158    magn:    0.0000    constr:    0.0000
     atom:   14    charge:    1.9587    magn:   -0.0000    constr:    0.0000
     atom:   15    charge:    3.1188    magn:    0.0000    constr:    0.0000
     atom:   16    charge:    1.9445    magn:   -0.0000    constr:    0.0000
     atom:   17    charge:    1.9184    magn:    0.0002    constr:    0.0000
     atom:   18    charge:    3.1239    magn:   -0.0000    constr:    0.0000
     atom:   19    charge:    1.9408    magn:   -0.0000    constr:    0.0000
     atom:   20    charge:    1.9471    magn:    0.0000    constr:    0.0000
     atom:   21    charge:    1.9471    magn:    0.0000    constr:    0.0000
     atom:   22    charge:    3.1196    magn:    0.0000    constr:    0.0000
     atom:   23    charge:    1.9566    magn:   -0.0000    constr:    0.0000
     atom:   24    charge:    1.9379    magn:   -0.0000    constr:    0.0000
     atom:   25    charge:    1.9505    magn:   -0.0000    constr:    0.0000
     atom:   26    charge:    3.1145    magn:    0.0000    constr:    0.0000
     atom:   27    charge:    1.9398    magn:   -0.0000    constr:    0.0000
     atom:   28    charge:    1.9517    magn:   -0.0000    constr:    0.0000
     atom:   29    charge:    1.9476    magn:   -0.0000    constr:    0.0000
     atom:   30    charge:    3.1167    magn:    0.0000    constr:    0.0000
     atom:   31    charge:    1.9447    magn:   -0.0000    constr:    0.0000
     atom:   32    charge:    1.9440    magn:   -0.0000    constr:    0.0000
     atom:   33    charge:    1.9184    magn:    0.0002    constr:    0.0000
     atom:   34    charge:    3.1239    magn:   -0.0000    constr:    0.0000
     atom:   35    charge:    1.9408    magn:   -0.0000    constr:    0.0000
     atom:   36    charge:    1.9471    magn:    0.0000    constr:    0.0000
     atom:   37    charge:    1.9471    magn:    0.0000    constr:    0.0000
     atom:   38    charge:    3.1196    magn:    0.0000    constr:    0.0000
     atom:   39    charge:    1.9549    magn:   -0.0000    constr:    0.0000
     atom:   40    charge:    1.9383    magn:   -0.0000    constr:    0.0000
     atom:   41    charge:    1.9505    magn:   -0.0000    constr:    0.0000
     atom:   42    charge:    3.1141    magn:    0.0000    constr:    0.0000
     atom:   43    charge:    1.9413    magn:   -0.0000    constr:    0.0000
     atom:   44    charge:    1.9518    magn:   -0.0000    constr:    0.0000
     atom:   45    charge:    1.9468    magn:   -0.0000    constr:    0.0000
     atom:   46    charge:    3.1165    magn:    0.0000    constr:    0.0000
     atom:   47    charge:    1.9431    magn:   -0.0000    constr:    0.0000
     atom:   48    charge:    1.9444    magn:   -0.0000    constr:    0.0000
     atom:   49    charge:    0.6580    magn:   -0.0000    constr:    0.0000
     atom:   50    charge:    1.9578    magn:   -0.0000    constr:    0.0000
     atom:   51    charge:    0.4020    magn:    0.0000    constr:    0.0000
     atom:   52    charge:    0.4006    magn:    0.0000    constr:    0.0000
     atom:   53    charge:    0.4028    magn:    0.0000    constr:    0.0000
     atom:   54    charge:    0.4044    magn:    0.0000    constr:    0.0000

     total cpu time spent up to now is     1580.1 secs

     total energy              =   -3021.42003782 Ry
     Harris-Foulkes estimate   =   -3021.42003680 Ry
     estimated scf accuracy    <       0.00002265 Ry

     total magnetization       =     0.00 Bohr mag/cell
     absolute magnetization    =     0.00 Bohr mag/cell

     iteration #  5     ecut=    40.42 Ry     beta=0.10
     Davidson diagonalization with overlap
     ethr =  5.69E-09,  avg # of iterations =  2.2

     negative rho (up, down):  1.209E-02 1.209E-02
 
     Magnetic moment per site:
     atom:    1    charge:    3.1250    magn:   -0.0001    constr:    0.0000
     atom:    2    charge:    1.9452    magn:    0.0000    constr:    0.0000
     atom:    3    charge:    3.1198    magn:    0.0000    constr:    0.0000
     atom:    4    charge:    1.9504    magn:   -0.0000    constr:    0.0000
     atom:    5    charge:    3.1166    magn:    0.0000    constr:    0.0000
     atom:    6    charge:    1.9476    magn:   -0.0000    constr:    0.0000
     atom:    7    charge:    3.1157    magn:    0.0000    constr:    0.0000
     atom:    8    charge:    1.9453    magn:   -0.0000    constr:    0.0000
     atom:    9    charge:    3.1250    magn:   -0.0001    constr:    0.0000
     atom:   10    charge:    1.9452    magn:    0.0000    constr:    0.0000
     atom:   11    charge:    3.1197    magn:    0.0000    constr:    0.0000
     atom:   12    charge:    1.9504    magn:   -0.0000    constr:    0.0000
     atom:   13    charge:    3.1158    magn:    0.0000    constr:    0.0000
     atom:   14    charge:    1.9587    magn:   -0.0000    constr:    0.0000
     atom:   15    charge:    3.1188    magn:    0.0000    constr:    0.0000
     atom:   16    charge:    1.9445    magn:   -0.0000    constr:    0.0000
     atom:   17    charge:    1.9184    magn:    0.0002    constr:    0.0000
     atom:   18    charge:    3.1239    magn:   -0.0000    constr:    0.0000
     atom:   19    charge:    1.9408    magn:   -0.0000    constr:    0.0000
     atom:   20    charge:    1.9471    magn:    0.0000    constr:    0.0000
     atom:   21    charge:    1.9471    magn:    0.0000    constr:    0.0000
     atom:   22    charge:    3.1196    magn:    0.0000    constr:    0.0000
     atom:   23    charge:    1.9566    magn:   -0.0000    constr:    0.0000
     atom:   24    charge:    1.9379    magn:   -0.0000    constr:    0.0000
     atom:   25    charge:    1.9505    magn:   -0.0000    constr:    0.0000
     atom:   26    charge:    3.1145    magn:    0.0000    constr:    0.0000
     atom:   27    charge:    1.9398    magn:   -0.0000    constr:    0.0000
     atom:   28    charge:    1.9517    magn:   -0.0000    constr:    0.0000
     atom:   29    charge:    1.9476    magn:   -0.0000    constr:    0.0000
     atom:   30    charge:    3.1167    magn:    0.0000    constr:    0.0000
     atom:   31    charge:    1.9447    magn:   -0.0000    constr:    0.0000
     atom:   32    charge:    1.9440    magn:   -0.0000    constr:    0.0000
     atom:   33    charge:    1.9184    magn:    0.0002    constr:    0.0000
     atom:   34    charge:    3.1239    magn:   -0.0000    constr:    0.0000
     atom:   35    charge:    1.9408    magn:   -0.0000    constr:    0.0000
     atom:   36    charge:    1.9471    magn:    0.0000    constr:    0.0000
     atom:   37    charge:    1.9471    magn:    0.0000    constr:    0.0000
     atom:   38    charge:    3.1196    magn:    0.0000    constr:    0.0000
     atom:   39    charge:    1.9549    magn:   -0.0000    constr:    0.0000
     atom:   40    charge:    1.9383    magn:   -0.0000    constr:    0.0000
     atom:   41    charge:    1.9505    magn:   -0.0000    constr:    0.0000
     atom:   42    charge:    3.1141    magn:    0.0000    constr:    0.0000
     atom:   43    charge:    1.9413    magn:   -0.0000    constr:    0.0000
     atom:   44    charge:    1.9518    magn:   -0.0000    constr:    0.0000
     atom:   45    charge:    1.9468    magn:   -0.0000    constr:    0.0000
     atom:   46    charge:    3.1165    magn:    0.0000    constr:    0.0000
     atom:   47    charge:    1.9431    magn:   -0.0000    constr:    0.0000
     atom:   48    charge:    1.9444    magn:   -0.0000    constr:    0.0000
     atom:   49    charge:    0.6580    magn:   -0.0000    constr:    0.0000
     atom:   50    charge:    1.9578    magn:   -0.0000    constr:    0.0000
     atom:   51    charge:    0.4020    magn:    0.0000    constr:    0.0000
     atom:   52    charge:    0.4006    magn:    0.0000    constr:    0.0000
     atom:   53    charge:    0.4031    magn:    0.0000    constr:    0.0000
     atom:   54    charge:    0.4042    magn:    0.0000    constr:    0.0000

     total cpu time spent up to now is     1771.4 secs

     total energy              =   -3021.42003611 Ry
     Harris-Foulkes estimate   =   -3021.42003831 Ry
     estimated scf accuracy    <       0.00000827 Ry

     total magnetization       =     0.00 Bohr mag/cell
     absolute magnetization    =     0.00 Bohr mag/cell

     iteration #  6     ecut=    40.42 Ry     beta=0.10
     Davidson diagonalization with overlap
     ethr =  2.08E-09,  avg # of iterations =  3.2

     negative rho (up, down):  1.209E-02 1.209E-02
 
     Magnetic moment per site:
     atom:    1    charge:    3.1250    magn:   -0.0001    constr:    0.0000
     atom:    2    charge:    1.9452    magn:    0.0000    constr:    0.0000
     atom:    3    charge:    3.1198    magn:    0.0000    constr:    0.0000
     atom:    4    charge:    1.9504    magn:   -0.0000    constr:    0.0000
     atom:    5    charge:    3.1166    magn:    0.0000    constr:    0.0000
     atom:    6    charge:    1.9476    magn:   -0.0000    constr:    0.0000
     atom:    7    charge:    3.1157    magn:    0.0000    constr:    0.0000
     atom:    8    charge:    1.9452    magn:   -0.0000    constr:    0.0000
     atom:    9    charge:    3.1250    magn:   -0.0001    constr:    0.0000
     atom:   10    charge:    1.9452    magn:    0.0000    constr:    0.0000
     atom:   11    charge:    3.1197    magn:    0.0000    constr:    0.0000
     atom:   12    charge:    1.9504    magn:   -0.0000    constr:    0.0000
     atom:   13    charge:    3.1158    magn:    0.0000    constr:    0.0000
     atom:   14    charge:    1.9587    magn:   -0.0000    constr:    0.0000
     atom:   15    charge:    3.1188    magn:    0.0000    constr:    0.0000
     atom:   16    charge:    1.9446    magn:   -0.0000    constr:    0.0000
     atom:   17    charge:    1.9184    magn:    0.0001    constr:    0.0000
     atom:   18    charge:    3.1239    magn:   -0.0000    constr:    0.0000
     atom:   19    charge:    1.9408    magn:   -0.0000    constr:    0.0000
     atom:   20    charge:    1.9471    magn:    0.0000    constr:    0.0000
     atom:   21    charge:    1.9471    magn:    0.0000    constr:    0.0000
     atom:   22    charge:    3.1196    magn:    0.0000    constr:    0.0000
     atom:   23    charge:    1.9566    magn:   -0.0000    constr:    0.0000
     atom:   24    charge:    1.9379    magn:   -0.0000    constr:    0.0000
     atom:   25    charge:    1.9505    magn:   -0.0000    constr:    0.0000
     atom:   26    charge:    3.1145    magn:    0.0000    constr:    0.0000
     atom:   27    charge:    1.9398    magn:   -0.0000    constr:    0.0000
     atom:   28    charge:    1.9517    magn:   -0.0000    constr:    0.0000
     atom:   29    charge:    1.9476    magn:   -0.0000    constr:    0.0000
     atom:   30    charge:    3.1167    magn:    0.0000    constr:    0.0000
     atom:   31    charge:    1.9447    magn:   -0.0000    constr:    0.0000
     atom:   32    charge:    1.9440    magn:   -0.0000    constr:    0.0000
     atom:   33    charge:    1.9184    magn:    0.0001    constr:    0.0000
     atom:   34    charge:    3.1239    magn:   -0.0000    constr:    0.0000
     atom:   35    charge:    1.9408    magn:   -0.0000    constr:    0.0000
     atom:   36    charge:    1.9471    magn:    0.0000    constr:    0.0000
     atom:   37    charge:    1.9471    magn:    0.0000    constr:    0.0000
     atom:   38    charge:    3.1196    magn:    0.0000    constr:    0.0000
     atom:   39    charge:    1.9549    magn:   -0.0000    constr:    0.0000
     atom:   40    charge:    1.9383    magn:   -0.0000    constr:    0.0000
     atom:   41    charge:    1.9505    magn:   -0.0000    constr:    0.0000
     atom:   42    charge:    3.1141    magn:    0.0000    constr:    0.0000
     atom:   43    charge:    1.9413    magn:   -0.0000    constr:    0.0000
     atom:   44    charge:    1.9517    magn:   -0.0000    constr:    0.0000
     atom:   45    charge:    1.9468    magn:   -0.0000    constr:    0.0000
     atom:   46    charge:    3.1165    magn:    0.0000    constr:    0.0000
     atom:   47    charge:    1.9431    magn:   -0.0000    constr:    0.0000
     atom:   48    charge:    1.9444    magn:   -0.0000    constr:    0.0000
     atom:   49    charge:    0.6580    magn:   -0.0000    constr:    0.0000
     atom:   50    charge:    1.9578    magn:   -0.0000    constr:    0.0000
     atom:   51    charge:    0.4020    magn:    0.0000    constr:    0.0000
     atom:   52    charge:    0.4006    magn:    0.0000    constr:    0.0000
     atom:   53    charge:    0.4031    magn:    0.0000    constr:    0.0000
     atom:   54    charge:    0.4042    magn:    0.0000    constr:    0.0000

     total cpu time spent up to now is     1983.9 secs

     total energy              =   -3021.42003702 Ry
     Harris-Foulkes estimate   =   -3021.42003705 Ry
     estimated scf accuracy    <       0.00000126 Ry

     total magnetization       =     0.00 Bohr mag/cell
     absolute magnetization    =     0.00 Bohr mag/cell

     iteration #  7     ecut=    40.42 Ry     beta=0.10
     Davidson diagonalization with overlap
     ethr =  3.18E-10,  avg # of iterations =  2.0

     negative rho (up, down):  1.209E-02 1.209E-02
 
     Magnetic moment per site:
     atom:    1    charge:    3.1250    magn:   -0.0000    constr:    0.0000
     atom:    2    charge:    1.9451    magn:    0.0000    constr:    0.0000
     atom:    3    charge:    3.1198    magn:    0.0000    constr:    0.0000
     atom:    4    charge:    1.9504    magn:   -0.0000    constr:    0.0000
     atom:    5    charge:    3.1166    magn:    0.0000    constr:    0.0000
     atom:    6    charge:    1.9476    magn:   -0.0000    constr:    0.0000
     atom:    7    charge:    3.1157    magn:    0.0000    constr:    0.0000
     atom:    8    charge:    1.9452    magn:   -0.0000    constr:    0.0000
     atom:    9    charge:    3.1250    magn:   -0.0000    constr:    0.0000
     atom:   10    charge:    1.9452    magn:    0.0000    constr:    0.0000
     atom:   11    charge:    3.1197    magn:    0.0000    constr:    0.0000
     atom:   12    charge:    1.9504    magn:   -0.0000    constr:    0.0000
     atom:   13    charge:    3.1158    magn:    0.0000    constr:    0.0000
     atom:   14    charge:    1.9587    magn:   -0.0000    constr:    0.0000
     atom:   15    charge:    3.1188    magn:    0.0000    constr:    0.0000
     atom:   16    charge:    1.9446    magn:   -0.0000    constr:    0.0000
     atom:   17    charge:    1.9184    magn:    0.0001    constr:    0.0000
     atom:   18    charge:    3.1239    magn:   -0.0000    constr:    0.0000
     atom:   19    charge:    1.9408    magn:   -0.0000    constr:    0.0000
     atom:   20    charge:    1.9471    magn:    0.0000    constr:    0.0000
     atom:   21    charge:    1.9471    magn:    0.0000    constr:    0.0000
     atom:   22    charge:    3.1196    magn:    0.0000    constr:    0.0000
     atom:   23    charge:    1.9566    magn:   -0.0000    constr:    0.0000
     atom:   24    charge:    1.9379    magn:   -0.0000    constr:    0.0000
     atom:   25    charge:    1.9505    magn:   -0.0000    constr:    0.0000
     atom:   26    charge:    3.1145    magn:    0.0000    constr:    0.0000
     atom:   27    charge:    1.9398    magn:   -0.0000    constr:    0.0000
     atom:   28    charge:    1.9517    magn:   -0.0000    constr:    0.0000
     atom:   29    charge:    1.9476    magn:   -0.0000    constr:    0.0000
     atom:   30    charge:    3.1167    magn:    0.0000    constr:    0.0000
     atom:   31    charge:    1.9447    magn:   -0.0000    constr:    0.0000
     atom:   32    charge:    1.9440    magn:   -0.0000    constr:    0.0000
     atom:   33    charge:    1.9184    magn:    0.0001    constr:    0.0000
     atom:   34    charge:    3.1239    magn:   -0.0000    constr:    0.0000
     atom:   35    charge:    1.9408    magn:   -0.0000    constr:    0.0000
     atom:   36    charge:    1.9471    magn:    0.0000    constr:    0.0000
     atom:   37    charge:    1.9471    magn:    0.0000    constr:    0.0000
     atom:   38    charge:    3.1196    magn:    0.0000    constr:    0.0000
     atom:   39    charge:    1.9549    magn:   -0.0000    constr:    0.0000
     atom:   40    charge:    1.9383    magn:   -0.0000    constr:    0.0000
     atom:   41    charge:    1.9505    magn:   -0.0000    constr:    0.0000
     atom:   42    charge:    3.1141    magn:    0.0000    constr:    0.0000
     atom:   43    charge:    1.9413    magn:   -0.0000    constr:    0.0000
     atom:   44    charge:    1.9517    magn:   -0.0000    constr:    0.0000
     atom:   45    charge:    1.9468    magn:   -0.0000    constr:    0.0000
     atom:   46    charge:    3.1165    magn:    0.0000    constr:    0.0000
     atom:   47    charge:    1.9431    magn:   -0.0000    constr:    0.0000
     atom:   48    charge:    1.9444    magn:   -0.0000    constr:    0.0000
     atom:   49    charge:    0.6580    magn:   -0.0000    constr:    0.0000
     atom:   50    charge:    1.9578    magn:   -0.0000    constr:    0.0000
     atom:   51    charge:    0.4020    magn:    0.0000    constr:    0.0000
     atom:   52    charge:    0.4006    magn:    0.0000    constr:    0.0000
     atom:   53    charge:    0.4030    magn:    0.0000    constr:    0.0000
     atom:   54    charge:    0.4042    magn:    0.0000    constr:    0.0000

     total cpu time spent up to now is     2174.4 secs

     End of self-consistent calculation

 ------ SPIN UP ------------


          k = 0.0000 0.0000 0.0000 ( 34665 PWs)   bands (ev):

   -57.6988 -57.6638 -57.3177 -57.2814 -57.2325 -57.1097 -57.0733 -57.0724
   -57.0507 -57.0376 -56.9899 -56.9544 -56.7304 -56.6929 -56.1493 -56.1140
   -34.1349 -33.9810 -33.9525 -33.8998 -33.8699 -33.8055 -33.7450 -33.6532
   -33.6183 -33.6052 -33.5677 -33.5406 -33.5185 -33.5076 -33.4896 -33.4855
   -33.4646 -33.4543 -33.4310 -33.3988 -33.3241 -33.2920 -33.2718 -33.2625
   -33.2547 -33.2540 -33.2431 -33.2429 -33.2370 -33.2295 -33.2291 -33.2125
   -33.1802 -33.1798 -33.1747 -33.1407 -33.1181 -32.9965 -32.9783 -32.9573
   -32.9080 -32.8051 -32.5671 -32.5016 -32.4755 -32.3713 -32.2796 -32.1713
   -20.2995 -18.0125 -17.8414 -17.5569 -17.4618 -17.3726 -17.2518 -17.0776
   -17.0664 -16.9744 -16.9387 -16.8842 -16.7839 -16.7776 -16.7292 -16.7074
   -16.7032 -16.6624 -16.6112 -16.6045 -16.5360 -16.4154 -16.4027 -16.3981
   -16.3214 -16.2677 -16.1945 -16.1674 -16.1499 -15.9793 -15.9296 -14.7339
   -14.6502 -11.4641  -7.2397  -5.4749  -5.3960  -5.3196  -5.2072  -5.1939
    -5.1455  -5.1250  -4.8391  -4.8169  -4.4720  -4.4428  -4.3592  -4.3553
    -4.3217  -4.2326  -4.0898  -4.0607  -4.0555  -4.0177  -3.9992  -3.9912
    -3.9607  -3.9521  -3.9511  -3.8400  -3.7880  -3.7656  -3.7367  -3.7187
    -3.6323  -3.6169  -3.5870  -3.5777  -3.5198  -3.5078  -3.4086  -3.3936
    -3.3731  -3.2714  -3.2367  -3.1901  -3.0135  -2.9355  -2.8788  -2.8336
    -2.6948  -2.6071  -2.5899  -2.5801  -2.5752  -2.5685  -2.4317  -2.4143
    -2.3360  -2.2691  -2.2472  -2.2047  -2.2002  -2.1660  -2.1385  -2.0929
    -2.0478  -2.0288  -2.0201  -1.8861  -1.8660  -1.7621  -1.7360  -1.6242
    -1.5430  -1.5411  -1.4903  -1.4806  -1.4632  -1.4234  -1.3232  -1.3093
    -1.3022  -1.2798  -1.2427  -1.1356  -1.0865  -1.0809  -1.0672  -1.0198
    -0.9542  -0.9154  -0.8197  -0.7648  -0.6104  -0.5874  -0.5692  -0.4791
    -0.3763  -0.2422  -0.0848  -0.0264   0.1313   0.2482   0.2618   1.6427
     1.6751   1.9857   2.0021   2.0655   2.0954   2.2050   2.2440   2.2872
     2.4301   2.4973   2.5260   2.5308   2.5421   2.6312   2.6491   2.6573
     2.7154   2.7997   2.8273   2.8391   2.9112   2.9998   3.0335   3.0994
     3.1053   3.1144   3.1612   3.2022   3.2084   3.2267   3.2400   3.2516
     3.2607   3.2890   3.3971   3.4318   3.4569   3.4666   3.5285   3.5858
     3.6534   3.6951   3.8080   3.9813   4.0164   4.0920   4.1801   4.3205
     4.3388   4.3919   4.5862   4.5995   4.8106   4.8390   5.0872   5.1670
     5.2459   5.3307   5.4789   5.5176   5.5279   5.5935   5.6781   5.7121
     5.8000   5.8654   5.8767   5.8866   5.9548   6.0391   6.0481   6.0724
     6.1446   6.2293   6.2436   6.2973   6.3783   6.5822   6.6365   6.7559
     6.8414   7.0090   7.0394   7.1619   7.3025   7.5787   7.9093   8.2532
     8.3340   8.6771   8.7947   8.8722   8.9390   9.0081   9.1759   9.2551
     9.3522   9.3812   9.5286

          k = 0.0000 0.0280 0.0000 ( 34717 PWs)   bands (ev):

   -57.6964 -57.6662 -57.3153 -57.2838 -57.2321 -57.1074 -57.0754 -57.0703
   -57.0511 -57.0400 -56.9875 -56.9568 -56.7279 -56.6954 -56.1469 -56.1164
   -34.1095 -33.9790 -33.9543 -33.8936 -33.8440 -33.8120 -33.7720 -33.6305
   -33.6115 -33.5802 -33.5423 -33.5376 -33.5205 -33.5006 -33.4925 -33.4841
   -33.4715 -33.4618 -33.4290 -33.3919 -33.3180 -33.2902 -33.2855 -33.2640
   -33.2590 -33.2524 -33.2502 -33.2396 -33.2379 -33.2361 -33.2358 -33.2174
   -33.2025 -33.1850 -33.1769 -33.1447 -33.1414 -32.9926 -32.9770 -32.9587
   -32.9130 -32.8331 -32.5414 -32.4999 -32.4774 -32.3652 -32.2859 -32.1988
   -20.2993 -17.9507 -17.7837 -17.5040 -17.4096 -17.3289 -17.2251 -17.0914
   -17.0361 -16.9983 -16.9929 -16.8859 -16.8195 -16.7614 -16.7071 -16.6893
   -16.6758 -16.6649 -16.6566 -16.6419 -16.5949 -16.4393 -16.3841 -16.3682
   -16.3480 -16.2973 -16.2116 -16.1739 -16.1537 -16.0101 -15.9666 -14.7439
   -14.6736 -11.4638  -7.2393  -5.4416  -5.3150  -5.2589  -5.1966  -5.1302
    -5.0684  -5.0466  -4.7636  -4.7028  -4.4355  -4.4002  -4.3940  -4.3119
    -4.3012  -4.1600  -4.1239  -4.1138  -4.0916  -4.0706  -4.0324  -4.0304
    -3.9658  -3.9613  -3.9499  -3.8916  -3.8531  -3.8464  -3.8377  -3.7661
    -3.7216  -3.7064  -3.6658  -3.6159  -3.5754  -3.5568  -3.4304  -3.3580
    -3.3124  -3.2353  -3.2049  -3.1040  -2.9342  -2.8710  -2.7461  -2.7247
    -2.6138  -2.6005  -2.5252  -2.5098  -2.4779  -2.4403  -2.4121  -2.4079
    -2.3866  -2.3618  -2.2882  -2.2767  -2.1679  -2.1424  -2.1362  -2.0943
    -2.0220  -1.9974  -1.9540  -1.8767  -1.8105  -1.7675  -1.7071  -1.6821
    -1.6428  -1.6259  -1.5637  -1.5257  -1.4813  -1.4381  -1.4357  -1.3961
    -1.3545  -1.2713  -1.2181  -1.2134  -1.1590  -1.0900  -1.0698  -1.0221
    -1.0091  -0.9044  -0.8669  -0.7908  -0.7610  -0.7065  -0.6081  -0.5909
    -0.3946  -0.2703  -0.0916  -0.0806   0.1462   0.2017   0.2284   1.7290
     1.7749   1.9859   2.0651   2.1306   2.1516   2.2186   2.2743   2.3131
     2.4245   2.4613   2.4991   2.5355   2.5860   2.6031   2.6304   2.6917
     2.7328   2.7707   2.7971   2.9125   2.9227   2.9514   2.9763   3.0101
     3.1111   3.1168   3.1347   3.1750   3.1926   3.2055   3.2583   3.3044
     3.3355   3.3709   3.4071   3.4735   3.5068   3.5520   3.5619   3.6490
     3.6649   3.6859   3.7716   3.9599   4.0344   4.1144   4.1912   4.2864
     4.3233   4.3968   4.5410   4.6893   4.8642   4.9255   5.0910   5.2586
     5.3041   5.3352   5.5374   5.5675   5.6037   5.6250   5.6859   5.7206
     5.7844   5.7926   5.8517   5.8781   5.8991   5.9478   6.0693   6.1228
     6.1495   6.1574   6.1759   6.2071   6.2753   6.5588   6.6032   6.6950
     6.8463   6.9490   6.9810   7.0831   7.2312   7.5830   7.9195   8.0125
     8.0603   8.4562   8.5651   8.8403   8.9092   8.9976   9.0883   9.1339
     9.2721   9.4338   9.4971

          k = 0.0000 0.0560 0.0000 ( 34721 PWs)   bands (ev):

   -57.6901 -57.6726 -57.3087 -57.2904 -57.2312 -57.1014 -57.0815 -57.0639
   -57.0520 -57.0464 -56.9811 -56.9633 -56.7213 -56.7020 -56.1405 -56.1229
   -34.0397 -33.9737 -33.9594 -33.8765 -33.8450 -33.8294 -33.7730 -33.5959
   -33.5728 -33.5718 -33.5348 -33.5273 -33.5063 -33.5040 -33.4767 -33.4722
   -33.4561 -33.4261 -33.4186 -33.3724 -33.3160 -33.3129 -33.3128 -33.3015
   -33.2859 -33.2761 -33.2677 -33.2636 -33.2533 -33.2462 -33.2341 -33.2320
   -33.2100 -33.1981 -33.1704 -33.1649 -33.1262 -32.9875 -32.9734 -32.9620
   -32.9260 -32.9028 -32.4951 -32.4821 -32.4707 -32.3487 -32.3028 -32.2729
   -20.2990 -17.7796 -17.6251 -17.3726 -17.2758 -17.2601 -17.2189 -17.1669
   -17.1361 -16.9625 -16.9532 -16.9187 -16.8737 -16.8196 -16.7883 -16.7256
   -16.7160 -16.6839 -16.6251 -16.5968 -16.5398 -16.5047 -16.4228 -16.3780
   -16.3624 -16.3019 -16.2407 -16.1950 -16.1572 -16.1107 -16.0395 -14.7621
   -14.7242 -11.4630  -7.2384  -5.4112  -5.2113  -5.0763  -5.0374  -4.9242
    -4.8584  -4.8241  -4.5618  -4.5056  -4.4730  -4.4175  -4.4095  -4.3665
    -4.3314  -4.2599  -4.2349  -4.2118  -4.1962  -4.1866  -4.1559  -4.0754
    -4.0576  -4.0058  -3.9872  -3.9686  -3.9306  -3.8912  -3.8565  -3.8178
    -3.7971  -3.7312  -3.6356  -3.5858  -3.4336  -3.4270  -3.3368  -3.2683
    -3.2387  -3.2124  -3.1932  -3.0827  -2.8930  -2.8433  -2.8376  -2.7988
    -2.7219  -2.6685  -2.5478  -2.4735  -2.4439  -2.3224  -2.3160  -2.3112
    -2.3031  -2.2491  -2.2070  -2.1793  -2.1479  -2.1174  -2.0318  -2.0103
    -1.9610  -1.9476  -1.9173  -1.9051  -1.8834  -1.8490  -1.8168  -1.7828
    -1.7451  -1.6948  -1.6251  -1.5421  -1.5273  -1.5098  -1.4557  -1.4200
    -1.3803  -1.3647  -1.3499  -1.2905  -1.2391  -1.2172  -1.1562  -1.1031
    -1.0828  -1.0238  -0.9232  -0.8907  -0.8507  -0.7851  -0.7632  -0.6602
    -0.5870  -0.4633  -0.2420   0.0911   0.1433   0.1784   0.1851   1.8646
     2.0246   2.0976   2.1091   2.2096   2.2344   2.2693   2.3664   2.3891
     2.3958   2.4112   2.4342   2.4760   2.5031   2.5378   2.6742   2.6952
     2.7338   2.7751   2.8301   2.9036   2.9154   2.9381   2.9716   2.9732
     3.0152   3.0986   3.1374   3.1570   3.2501   3.2615   3.2861   3.3292
     3.3681   3.3862   3.4405   3.5372   3.5434   3.6363   3.6769   3.7271
     3.7603   3.8231   3.8579   3.8899   3.9317   4.1304   4.1416   4.1583
     4.3270   4.3754   4.5641   4.9063   5.0156   5.0619   5.1744   5.3782
     5.3819   5.4781   5.5179   5.5494   5.6480   5.7229   5.7239   5.7333
     5.7791   5.7875   5.7991   5.8562   5.8853   5.9468   5.9776   5.9908
     6.0013   6.0545   6.1551   6.1708   6.3073   6.3739   6.4104   6.6154
     6.6606   6.7808   6.8700   7.0422   7.2143   7.3344   7.4442   7.7289
     8.0827   8.2056   8.3417   8.6167   8.8875   8.9910   9.3111   9.3320
     9.4285   9.4416   9.5616

          k = 0.0000-0.0840 0.0000 ( 34678 PWs)   bands (ev):

   -57.6814 -57.6812 -57.3012 -57.2979 -57.2308 -57.0959 -57.0870 -57.0552
   -57.0552 -57.0524 -56.9727 -56.9716 -56.7144 -56.7090 -56.1317 -56.1317
   -33.9666 -33.9664 -33.9432 -33.9430 -33.8531 -33.8530 -33.6861 -33.6621
   -33.5660 -33.5626 -33.5286 -33.5180 -33.5136 -33.4769 -33.4532 -33.4239
   -33.4140 -33.4075 -33.3751 -33.3749 -33.3624 -33.3470 -33.3412 -33.3240
   -33.3226 -33.2848 -33.2780 -33.2759 -33.2691 -33.2671 -33.2326 -33.2308
   -33.2155 -33.2136 -33.1635 -33.1627 -33.0489 -33.0281 -32.9703 -32.9648
   -32.9399 -32.9368 -32.4886 -32.4886 -32.3728 -32.3727 -32.3257 -32.3257
   -20.2989 -17.5689 -17.5054 -17.4104 -17.3901 -17.2293 -17.1753 -17.0660
   -17.0618 -17.0159 -17.0031 -16.9894 -16.8720 -16.8397 -16.8396 -16.8009
   -16.7943 -16.5962 -16.5942 -16.5260 -16.5231 -16.4885 -16.4871 -16.4047
   -16.4025 -16.2629 -16.2607 -16.2011 -16.1972 -16.1319 -16.1017 -14.7609
   -14.7608 -11.4626  -7.2379  -5.4035  -5.2155  -4.7997  -4.7333  -4.7323
    -4.6558  -4.6422  -4.6375  -4.6019  -4.5733  -4.5101  -4.5015  -4.4006
    -4.3733  -4.3393  -4.3375  -4.3086  -4.2955  -4.2803  -4.2749  -4.0547
    -4.0330  -4.0235  -4.0107  -3.9924  -3.9427  -3.8098  -3.7930  -3.7881
    -3.7155  -3.6946  -3.6400  -3.5075  -3.4727  -3.3398  -3.3268  -3.2512
    -3.1386  -3.1165  -3.0436  -3.0193  -2.9628  -2.9256  -2.8047  -2.7884
    -2.6980  -2.6936  -2.5770  -2.5393  -2.5128  -2.4950  -2.4782  -2.4474
    -2.4387  -2.4181  -2.3303  -2.2455  -2.0285  -2.0073  -1.9677  -1.9411
    -1.9274  -1.8288  -1.8226  -1.8092  -1.7820  -1.7450  -1.7310  -1.7001
    -1.6652  -1.6404  -1.6146  -1.5585  -1.5156  -1.4877  -1.4812  -1.4531
    -1.4252  -1.4175  -1.4100  -1.3819  -1.3593  -1.3262  -1.2210  -1.1874
    -1.1013  -1.0732  -1.0105  -0.9780  -0.9707  -0.9600  -0.9431  -0.5241
    -0.5191  -0.4569  -0.4428   0.1434   0.1435   0.1861   0.1878   2.0391
     2.0423   2.2185   2.2199   2.2207   2.2367   2.2848   2.3398   2.3471
     2.3471   2.3724   2.3831   2.5276   2.5539   2.5549   2.6011   2.6643
     2.7151   2.7370   2.7500   2.8915   2.9226   2.9898   2.9974   3.0573
     3.0584   3.1020   3.1128   3.1801   3.2182   3.2332   3.2460   3.4037
     3.4261   3.4372   3.4399   3.4729   3.4837   3.7251   3.7658   3.8043
     3.8078   3.8321   3.9090   3.9313   3.9687   4.0735   4.0758   4.1258
     4.1264   4.4182   4.6721   4.9604   5.0006   5.2605   5.3306   5.4573
     5.4891   5.5083   5.5083   5.5718   5.6038   5.6467   5.6653   5.6711
     5.7992   5.8042   5.8263   5.8518   5.8619   5.8667   5.8831   5.9738
     6.0200   6.0594   6.0716   6.1589   6.1963   6.4056   6.4665   6.5647
     6.6043   6.7462   6.7739   6.9803   7.0314   7.1016   7.3274   7.7013
     7.8843   8.1677   8.4116   8.7811   8.8392   8.8604   9.1454   9.6933
     9.7028   9.7481   9.7944

          k = 0.0253 0.0000 0.0000 ( 34707 PWs)   bands (ev):

   -57.6988 -57.6638 -57.3177 -57.2814 -57.2325 -57.1097 -57.0733 -57.0725
   -57.0507 -57.0376 -56.9899 -56.9544 -56.7304 -56.6929 -56.1493 -56.1140
   -34.1352 -33.9810 -33.9525 -33.8991 -33.8700 -33.8055 -33.7451 -33.6539
   -33.6183 -33.6068 -33.5679 -33.5372 -33.5322 -33.5085 -33.4855 -33.4748
   -33.4634 -33.4543 -33.4310 -33.3919 -33.3240 -33.2921 -33.2715 -33.2625
   -33.2581 -33.2573 -33.2443 -33.2412 -33.2392 -33.2296 -33.2292 -33.2123
   -33.1801 -33.1798 -33.1750 -33.1407 -33.1182 -32.9965 -32.9807 -32.9565
   -32.9080 -32.8052 -32.5670 -32.5027 -32.4750 -32.3713 -32.2797 -32.1714
   -20.2993 -17.9827 -17.8014 -17.5146 -17.4329 -17.3560 -17.2583 -17.1444
   -17.0922 -16.9753 -16.9383 -16.8711 -16.8189 -16.8057 -16.7893 -16.7803
   -16.7296 -16.6928 -16.5564 -16.5339 -16.4539 -16.4523 -16.4036 -16.3701
   -16.3389 -16.3123 -16.1831 -16.1652 -16.1512 -15.9791 -15.9293 -14.7327
   -14.6500 -11.4629  -7.2370  -5.4703  -5.3099  -5.2650  -5.1929  -5.0973
    -5.0443  -5.0159  -4.8337  -4.8123  -4.6177  -4.4690  -4.4356  -4.3305
    -4.3112  -4.3013  -4.2476  -4.0989  -4.0365  -4.0325  -3.9964  -3.9448
    -3.9377  -3.9097  -3.8306  -3.8008  -3.7511  -3.7200  -3.6946  -3.6919
    -3.6203  -3.5978  -3.5700  -3.5625  -3.5165  -3.4473  -3.3334  -3.3097
    -3.2510  -3.2344  -3.1826  -3.1063  -3.0335  -2.9764  -2.9237  -2.8959
    -2.7508  -2.6739  -2.6326  -2.6000  -2.5792  -2.5298  -2.5196  -2.5035
    -2.4317  -2.3354  -2.3223  -2.2365  -2.2206  -2.1819  -2.1581  -2.0704
    -2.0092  -1.9999  -1.9631  -1.8822  -1.8501  -1.7529  -1.7395  -1.6508
    -1.5856  -1.5821  -1.5379  -1.4636  -1.4579  -1.3661  -1.3575  -1.3442
    -1.3369  -1.2902  -1.2739  -1.1897  -1.1271  -1.1172  -1.0785  -1.0462
    -0.9725  -0.9149  -0.8293  -0.7856  -0.7742  -0.6509  -0.6424  -0.5507
    -0.4209  -0.2366  -0.1157  -0.0538   0.1172   0.2054   0.2062   1.6620
     1.7251   2.0013   2.0717   2.1488   2.2234   2.2381   2.2700   2.3783
     2.3855   2.4579   2.5046   2.5224   2.5413   2.5784   2.5976   2.6364
     2.6559   2.7346   2.7577   2.8673   2.8842   2.9700   3.0310   3.1041
     3.1213   3.1441   3.1627   3.2035   3.2087   3.2540   3.2696   3.3398
     3.3777   3.4026   3.4511   3.4732   3.5358   3.5605   3.5920   3.6000
     3.6643   3.7302   3.7474   3.9140   4.0021   4.0966   4.1743   4.2766
     4.3745   4.3950   4.5533   4.6751   4.8637   4.9115   4.9264   5.0698
     5.1216   5.1461   5.1889   5.3510   5.5683   5.6218   5.6937   5.8664
     5.8830   5.9250   5.9593   6.0302   6.0804   6.1149   6.1608   6.2097
     6.2191   6.2521   6.2590   6.3081   6.4487   6.5237   6.6419   6.6663
     6.8207   6.8688   7.0343   7.1470   7.3023   7.7520   7.8537   8.0873
     8.3350   8.3523   8.4311   8.6836   8.8456   8.9683   9.1493   9.3449
     9.3630   9.4638   9.4937

          k = 0.0253 0.0280 0.0000 ( 34687 PWs)   bands (ev):

   -57.6964 -57.6662 -57.3153 -57.2838 -57.2321 -57.1074 -57.0754 -57.0704
   -57.0511 -57.0400 -56.9875 -56.9568 -56.7280 -56.6954 -56.1469 -56.1164
   -34.1098 -33.9790 -33.9543 -33.8929 -33.8441 -33.8119 -33.7720 -33.6312
   -33.6115 -33.5818 -33.5425 -33.5344 -33.5218 -33.5160 -33.4928 -33.4722
   -33.4658 -33.4606 -33.4290 -33.3851 -33.3179 -33.2903 -33.2832 -33.2640
   -33.2590 -33.2540 -33.2525 -33.2475 -33.2375 -33.2361 -33.2349 -33.2162
   -33.2027 -33.1850 -33.1770 -33.1446 -33.1414 -32.9926 -32.9791 -32.9579
   -32.9130 -32.8331 -32.5413 -32.5008 -32.4768 -32.3652 -32.2859 -32.1988
   -20.2991 -17.9224 -17.7447 -17.4634 -17.3831 -17.3089 -17.2319 -17.1282
   -17.0977 -17.0060 -16.9630 -16.8584 -16.8301 -16.8054 -16.7839 -16.7699
   -16.7127 -16.6995 -16.5999 -16.5795 -16.5062 -16.4748 -16.3811 -16.3649
   -16.3560 -16.3293 -16.2002 -16.1734 -16.1534 -16.0106 -15.9663 -14.7429
   -14.6736 -11.4625  -7.2365  -5.4450  -5.2485  -5.1953  -5.1801  -5.0210
    -4.9659  -4.9358  -4.7586  -4.6998  -4.5619  -4.4029  -4.3710  -4.3454
    -4.2594  -4.2528  -4.1864  -4.1181  -4.0866  -4.0642  -4.0334  -4.0202
    -3.9760  -3.9423  -3.9127  -3.8676  -3.8218  -3.8097  -3.7841  -3.7195
    -3.6970  -3.6640  -3.6150  -3.6050  -3.5409  -3.5257  -3.3535  -3.2966
    -3.2517  -3.2168  -3.1501  -3.0738  -2.9815  -2.9495  -2.7846  -2.7062
    -2.6803  -2.6359  -2.6105  -2.5343  -2.5033  -2.4540  -2.4477  -2.4204
    -2.4048  -2.3862  -2.3398  -2.3022  -2.2156  -2.1778  -2.1156  -2.1002
    -2.0665  -1.9943  -1.9492  -1.8915  -1.8648  -1.8262  -1.7617  -1.6743
    -1.6450  -1.6164  -1.5885  -1.5620  -1.5090  -1.4614  -1.4400  -1.3996
    -1.3444  -1.3276  -1.2693  -1.2550  -1.2070  -1.1090  -1.0976  -1.0605
    -1.0096  -0.8867  -0.8389  -0.8350  -0.7643  -0.7389  -0.6958  -0.6583
    -0.4319  -0.2812  -0.1339  -0.0857   0.1493   0.1787   0.1888   1.7211
     1.8452   2.0166   2.0991   2.1959   2.2449   2.2822   2.3166   2.3972
     2.4178   2.4674   2.4892   2.5248   2.5330   2.5528   2.5907   2.6744
     2.7055   2.7277   2.7875   2.8070   2.9307   2.9872   3.0101   3.0351
     3.1066   3.1346   3.1461   3.1729   3.2088   3.2425   3.3445   3.3738
     3.4063   3.4366   3.4630   3.5105   3.5526   3.5693   3.6365   3.6613
     3.6736   3.7085   3.7501   3.8949   3.9941   4.1386   4.1858   4.2531
     4.3068   4.4524   4.5096   4.7700   4.9294   4.9521   4.9936   5.0782
     5.1602   5.1756   5.2238   5.3871   5.6431   5.6823   5.7319   5.7777
     5.8546   5.8654   5.8717   6.0076   6.0713   6.0856   6.1196   6.1451
     6.1971   6.2090   6.2193   6.2352   6.4288   6.5284   6.6124   6.6607
     6.7854   6.8660   6.9634   7.1505   7.2262   7.5110   7.9311   8.0290
     8.0939   8.2510   8.4485   8.5779   8.6480   8.7743   8.9466   9.2644
     9.3457   9.4574   9.5095

          k = 0.0253 0.0560 0.0000 ( 34699 PWs)   bands (ev):

   -57.6901 -57.6726 -57.3087 -57.2904 -57.2312 -57.1013 -57.0815 -57.0640
   -57.0520 -57.0464 -56.9811 -56.9633 -56.7213 -56.7020 -56.1405 -56.1229
   -34.0400 -33.9737 -33.9594 -33.8760 -33.8451 -33.8292 -33.7730 -33.5959
   -33.5734 -33.5719 -33.5349 -33.5253 -33.5086 -33.5075 -33.4767 -33.4726
   -33.4552 -33.4262 -33.4133 -33.3670 -33.3165 -33.3136 -33.3084 -33.3013
   -33.2860 -33.2765 -33.2677 -33.2625 -33.2534 -33.2484 -33.2382 -33.2343
   -33.2101 -33.1988 -33.1704 -33.1647 -33.1260 -32.9875 -32.9748 -32.9619
   -32.9260 -32.9027 -32.4958 -32.4819 -32.4706 -32.3487 -32.3028 -32.2729
   -20.2988 -17.7561 -17.5893 -17.3432 -17.2641 -17.2445 -17.1934 -17.1677
   -17.1392 -16.9957 -16.9701 -16.8804 -16.8760 -16.8291 -16.7963 -16.7724
   -16.7477 -16.6702 -16.6229 -16.6044 -16.5792 -16.5301 -16.4266 -16.4120
   -16.3557 -16.2848 -16.2337 -16.1943 -16.1569 -16.1115 -16.0389 -14.7615
   -14.7244 -11.4617  -7.2355  -5.4183  -5.2107  -5.0309  -4.9486  -4.8126
    -4.7567  -4.7143  -4.5581  -4.4979  -4.4905  -4.4134  -4.3940  -4.3392
    -4.2706  -4.2311  -4.2155  -4.1918  -4.1476  -4.1410  -4.1060  -4.0614
    -4.0324  -4.0123  -3.9930  -3.9352  -3.9242  -3.8749  -3.8592  -3.8214
    -3.7742  -3.7156  -3.6546  -3.5715  -3.4733  -3.3971  -3.3251  -3.2816
    -3.2367  -3.2228  -3.1862  -3.0119  -2.9376  -2.8631  -2.8292  -2.7793
    -2.7582  -2.6459  -2.5927  -2.5095  -2.4888  -2.4376  -2.3924  -2.3657
    -2.3427  -2.3243  -2.2881  -2.2632  -2.1896  -2.1408  -2.1275  -2.0394
    -2.0113  -2.0093  -1.9465  -1.9381  -1.9027  -1.8613  -1.8345  -1.8118
    -1.7447  -1.7037  -1.6784  -1.6372  -1.5727  -1.5377  -1.4943  -1.4750
    -1.4309  -1.3726  -1.3383  -1.3022  -1.2231  -1.2056  -1.1312  -1.1056
    -1.0603  -1.0128  -0.9115  -0.8745  -0.8208  -0.7994  -0.7436  -0.6807
    -0.6066  -0.4652  -0.2559   0.0920   0.1286   0.1557   0.1883   1.8620
     2.0482   2.1324   2.1791   2.2316   2.2720   2.3060   2.3478   2.3849
     2.4263   2.4622   2.4810   2.5081   2.5205   2.5838   2.6939   2.7217
     2.7391   2.7765   2.8240   2.8401   2.9041   2.9527   2.9748   2.9862
     3.0275   3.0339   3.1564   3.2077   3.2867   3.3297   3.3406   3.3833
     3.4076   3.4392   3.4609   3.5409   3.5599   3.6311   3.6562   3.7346
     3.7931   3.8199   3.8616   3.9008   3.9049   4.0721   4.1169   4.1655
     4.3432   4.3849   4.6156   4.9651   5.0125   5.1269   5.1419   5.1582
     5.2623   5.2894   5.3138   5.4368   5.5101   5.5614   5.6373   5.7585
     5.8237   5.8504   5.8916   5.9341   5.9608   6.0030   6.0486   6.0614
     6.1363   6.1568   6.2225   6.3291   6.3795   6.4038   6.4814   6.6423
     6.6913   6.7965   6.8484   7.0358   7.1532   7.3639   7.4831   7.5919
     7.9791   8.1727   8.3520   8.5206   8.6458   8.8576   9.0470   9.1141
     9.1823   9.4887   9.6258

          k = 0.0253-0.0840 0.0000 ( 34722 PWs)   bands (ev):

   -57.6814 -57.6812 -57.3012 -57.2979 -57.2308 -57.0959 -57.0870 -57.0552
   -57.0552 -57.0524 -56.9727 -56.9716 -56.7144 -56.7090 -56.1317 -56.1317
   -33.9666 -33.9664 -33.9434 -33.9433 -33.8528 -33.8526 -33.6862 -33.6622
   -33.5660 -33.5626 -33.5291 -33.5178 -33.5135 -33.4770 -33.4524 -33.4241
   -33.4161 -33.4099 -33.3760 -33.3759 -33.3632 -33.3402 -33.3343 -33.3226
   -33.3211 -33.2846 -33.2778 -33.2761 -33.2693 -33.2657 -33.2361 -33.2347
   -33.2171 -33.2152 -33.1635 -33.1626 -33.0489 -33.0281 -32.9709 -32.9656
   -32.9398 -32.9368 -32.4889 -32.4888 -32.3728 -32.3728 -32.3257 -32.3257
   -20.2987 -17.5556 -17.4873 -17.3821 -17.3636 -17.2132 -17.1543 -17.0592
   -17.0497 -17.0039 -16.9796 -16.9752 -16.8889 -16.8793 -16.8690 -16.7857
   -16.7803 -16.6345 -16.6288 -16.5685 -16.5645 -16.5222 -16.5208 -16.3883
   -16.3869 -16.2543 -16.2520 -16.1994 -16.1957 -16.1324 -16.1010 -14.7608
   -14.7607 -11.4613  -7.2350  -5.4106  -5.2153  -4.7998  -4.6453  -4.6355
    -4.6241  -4.5481  -4.5473  -4.5316  -4.5244  -4.4184  -4.4087  -4.3697
    -4.3466  -4.3162  -4.2980  -4.2847  -4.2631  -4.2314  -4.2277  -4.0423
    -4.0385  -4.0144  -3.9833  -3.9645  -3.9203  -3.8476  -3.8424  -3.8158
    -3.7382  -3.6612  -3.6418  -3.4141  -3.4006  -3.3478  -3.3192  -3.2428
    -3.1191  -3.0950  -3.0601  -3.0509  -3.0086  -2.9636  -2.9189  -2.8947
    -2.8089  -2.8050  -2.6224  -2.6026  -2.5769  -2.5582  -2.5299  -2.4659
    -2.4349  -2.3422  -2.3150  -2.2751  -2.1215  -2.0735  -2.0551  -2.0093
    -1.9229  -1.9205  -1.8785  -1.8670  -1.8564  -1.8159  -1.8055  -1.7951
    -1.7670  -1.7290  -1.6858  -1.6570  -1.6206  -1.6072  -1.5946  -1.4759
    -1.4015  -1.3885  -1.2788  -1.2615  -1.2413  -1.2268  -1.1856  -1.1295
    -1.0837  -1.0515  -1.0435  -1.0126  -0.9587  -0.8906  -0.8782  -0.5372
    -0.5294  -0.4574  -0.4449   0.1172   0.1173   0.1966   0.1983   2.0507
     2.0530   2.2179   2.2335   2.2365   2.2401   2.2783   2.3165   2.4238
     2.4258   2.4405   2.4427   2.5580   2.5595   2.5781   2.6556   2.7219
     2.7561   2.8204   2.8292   2.8803   2.9000   2.9384   2.9484   3.0260
     3.0399   3.0855   3.1149   3.2215   3.2694   3.2901   3.3071   3.4227
     3.4281   3.4524   3.4696   3.4943   3.5227   3.7147   3.7403   3.8084
     3.8264   3.8379   3.8862   3.9136   3.9206   4.0811   4.0836   4.1174
     4.1177   4.4737   4.7138   4.9849   5.0240   5.2701   5.3020   5.3102
     5.3281   5.3606   5.3852   5.4269   5.4791   5.5097   5.5535   5.6418
     5.6454   5.7632   5.8337   5.8764   5.8916   6.0161   6.0771   6.0888
     6.1316   6.1858   6.2183   6.2811   6.3017   6.4674   6.5205   6.5950
     6.6380   6.7875   6.7958   6.9902   7.0344   7.1217   7.3844   7.5831
     7.7445   8.0038   8.2780   8.7239   8.7410   8.9677   9.0035   9.2952
     9.3475   9.4509   9.5433

          k = 0.0506 0.0000 0.0000 ( 34729 PWs)   bands (ev):

   -57.6988 -57.6638 -57.3176 -57.2814 -57.2325 -57.1095 -57.0732 -57.0728
   -57.0507 -57.0376 -56.9899 -56.9544 -56.7304 -56.6929 -56.1493 -56.1140
   -34.1359 -33.9810 -33.9526 -33.8977 -33.8702 -33.8056 -33.7451 -33.6554
   -33.6182 -33.6101 -33.5684 -33.5491 -33.5293 -33.5087 -33.4854 -33.4609
   -33.4584 -33.4535 -33.4311 -33.3752 -33.3237 -33.2923 -33.2709 -33.2667
   -33.2626 -33.2614 -33.2604 -33.2374 -33.2341 -33.2296 -33.2293 -33.2117
   -33.1799 -33.1796 -33.1756 -33.1407 -33.1183 -32.9964 -32.9858 -32.9546
   -32.9081 -32.8053 -32.5669 -32.5048 -32.4739 -32.3712 -32.2797 -32.1715
   -20.2989 -17.9167 -17.7065 -17.4159 -17.3902 -17.2828 -17.2658 -17.2373
   -17.1397 -16.9783 -16.9675 -16.9375 -16.8951 -16.8858 -16.8680 -16.8457
   -16.7510 -16.7010 -16.5364 -16.4554 -16.4492 -16.4105 -16.4049 -16.3589
   -16.3541 -16.3276 -16.1752 -16.1602 -16.1536 -15.9792 -15.9289 -14.7305
   -14.6497 -11.4604  -7.2314  -5.4786  -5.2960  -5.1918  -4.9799  -4.9136
    -4.8025  -4.7978  -4.7712  -4.7481  -4.7139  -4.6331  -4.5250  -4.4647
    -4.4183  -4.2479  -4.1320  -4.0402  -4.0248  -4.0193  -3.9740  -3.9299
    -3.9119  -3.8287  -3.7884  -3.7618  -3.7529  -3.6588  -3.6372  -3.6145
    -3.5555  -3.5535  -3.5411  -3.5259  -3.4999  -3.2909  -3.2821  -3.2666
    -3.2431  -3.2021  -3.1560  -3.1106  -2.9949  -2.9424  -2.8847  -2.8512
    -2.8271  -2.7800  -2.7574  -2.6787  -2.6228  -2.6110  -2.5771  -2.5470
    -2.4626  -2.4596  -2.4271  -2.3656  -2.3137  -2.2063  -2.1982  -2.1212
    -2.0862  -1.9914  -1.9391  -1.9319  -1.8431  -1.8174  -1.8009  -1.7144
    -1.6360  -1.5744  -1.5579  -1.5551  -1.4864  -1.4779  -1.4426  -1.4004
    -1.3519  -1.3330  -1.3034  -1.2116  -1.1198  -1.1056  -1.0881  -1.0715
    -0.9906  -0.9530  -0.8883  -0.8150  -0.8095  -0.7934  -0.7570  -0.5323
    -0.5239  -0.2678  -0.2238  -0.0472   0.0929   0.1189   0.1373   1.6420
     1.8184   2.0003   2.0968   2.1008   2.1793   2.1969   2.2811   2.2936
     2.4543   2.4576   2.4707   2.5588   2.5639   2.5854   2.6262   2.6786
     2.7070   2.8226   2.8702   2.8736   2.8993   2.9236   3.0837   3.1082
     3.1476   3.1637   3.2009   3.2017   3.2867   3.2891   3.3314   3.4090
     3.4391   3.4483   3.5005   3.5527   3.5769   3.5857   3.7001   3.7110
     3.7595   3.7629   3.7986   3.8939   3.9251   4.0823   4.1573   4.2112
     4.3473   4.4655   4.5750   4.6514   4.7679   4.7976   4.8610   4.8943
     4.9110   5.1002   5.2087   5.4395   5.6434   5.7588   5.7608   5.8793
     5.8874   5.9184   5.9316   5.9647   6.0275   6.0953   6.1373   6.1580
     6.2405   6.4201   6.5136   6.5973   6.6056   6.6315   6.6847   6.7227
     6.8521   6.8533   7.0306   7.0443   7.2931   7.3024   7.4986   8.0108
     8.1404   8.3828   8.4758   8.7442   8.8119   8.9558   9.0424   9.2717
     9.3379   9.3741   9.6227

          k = 0.0506 0.0280 0.0000 ( 34685 PWs)   bands (ev):

   -57.6964 -57.6662 -57.3152 -57.2838 -57.2321 -57.1072 -57.0754 -57.0705
   -57.0511 -57.0400 -56.9875 -56.9568 -56.7280 -56.6954 -56.1470 -56.1164
   -34.1105 -33.9790 -33.9543 -33.8915 -33.8443 -33.8119 -33.7721 -33.6326
   -33.6115 -33.5852 -33.5432 -33.5353 -33.5273 -33.5196 -33.4927 -33.4718
   -33.4583 -33.4486 -33.4291 -33.3689 -33.3176 -33.2906 -33.2789 -33.2652
   -33.2640 -33.2611 -33.2588 -33.2531 -33.2375 -33.2361 -33.2338 -33.2138
   -33.2032 -33.1852 -33.1769 -33.1444 -33.1413 -32.9926 -32.9834 -32.9565
   -32.9130 -32.8331 -32.5412 -32.5026 -32.4759 -32.3652 -32.2859 -32.1988
   -20.2987 -17.8602 -17.6511 -17.3686 -17.3411 -17.2494 -17.2242 -17.2144
   -17.1218 -17.0437 -16.9633 -16.9198 -16.8702 -16.8575 -16.8547 -16.8327
   -16.7629 -16.7448 -16.5588 -16.5281 -16.5038 -16.4378 -16.4152 -16.3759
   -16.3682 -16.3115 -16.1910 -16.1718 -16.1522 -16.0118 -15.9661 -14.7410
   -14.6737 -11.4600  -7.2308  -5.4583  -5.2342  -5.1912  -4.8921  -4.8339
    -4.7186  -4.7033  -4.6751  -4.6555  -4.6300  -4.5092  -4.4273  -4.3457
    -4.3179  -4.3014  -4.1561  -4.1336  -4.0552  -4.0261  -4.0095  -3.9916
    -3.9830  -3.9094  -3.8601  -3.8150  -3.7736  -3.7608  -3.7178  -3.6900
    -3.6542  -3.6315  -3.5825  -3.5509  -3.4461  -3.3109  -3.2760  -3.2624
    -3.2283  -3.1729  -3.1044  -3.0634  -2.9538  -2.9382  -2.8770  -2.8423
    -2.7431  -2.6932  -2.6585  -2.6492  -2.6002  -2.5910  -2.5367  -2.4983
    -2.4361  -2.3859  -2.3808  -2.3408  -2.3094  -2.2520  -2.1773  -2.1370
    -2.1088  -2.0648  -2.0255  -1.9770  -1.9433  -1.9001  -1.8630  -1.8216
    -1.7525  -1.7372  -1.7109  -1.6303  -1.5369  -1.5055  -1.4793  -1.4321
    -1.3781  -1.3383  -1.2789  -1.2579  -1.2368  -1.1450  -1.1147  -1.0134
    -0.9727  -0.8852  -0.8574  -0.8049  -0.7845  -0.7650  -0.7028  -0.6882
    -0.5117  -0.3112  -0.2590  -0.0730   0.1098   0.1392   0.1627   1.7046
     1.9054   2.0607   2.1226   2.1275   2.1742   2.2514   2.3585   2.3727
     2.4084   2.4371   2.5141   2.5574   2.5749   2.6037   2.6726   2.6941
     2.7452   2.8039   2.8537   2.8977   2.9563   2.9741   3.0420   3.0592
     3.0987   3.1621   3.1716   3.1999   3.3005   3.3611   3.3760   3.4077
     3.4463   3.4783   3.5454   3.5808   3.6037   3.6473   3.6773   3.6866
     3.7189   3.7705   3.8191   3.8709   3.9349   4.0585   4.1692   4.2823
     4.2931   4.4233   4.6209   4.6898   4.7648   4.8122   4.8581   4.9842
     5.0133   5.1280   5.2244   5.4714   5.5957   5.6393   5.7330   5.8060
     5.8626   5.8713   5.9180   5.9479   5.9816   6.0892   6.1185   6.1397
     6.2299   6.4357   6.4736   6.5373   6.5777   6.6142   6.6871   6.7390
     6.7998   6.8179   6.9743   7.1155   7.1676   7.3949   7.5722   7.7085
     8.1320   8.1636   8.2443   8.3927   8.7545   8.9661   9.0140   9.0479
     9.3703   9.4372   9.6050

          k = 0.0506 0.0560 0.0000 ( 34596 PWs)   bands (ev):

   -57.6901 -57.6726 -57.3087 -57.2904 -57.2312 -57.1012 -57.0814 -57.0641
   -57.0520 -57.0465 -56.9811 -56.9633 -56.7213 -56.7020 -56.1405 -56.1229
   -34.0405 -33.9737 -33.9594 -33.8748 -33.8453 -33.8288 -33.7732 -33.5958
   -33.5745 -33.5719 -33.5353 -33.5212 -33.5151 -33.5108 -33.4767 -33.4733
   -33.4531 -33.4262 -33.4037 -33.3534 -33.3179 -33.3173 -33.3009 -33.2987
   -33.2863 -33.2764 -33.2675 -33.2602 -33.2535 -33.2530 -33.2475 -33.2394
   -33.2102 -33.2003 -33.1704 -33.1644 -33.1255 -32.9876 -32.9776 -32.9617
   -32.9259 -32.9026 -32.4969 -32.4815 -32.4705 -32.3487 -32.3028 -32.2728
   -20.2985 -17.7057 -17.5004 -17.2910 -17.2391 -17.1975 -17.1736 -17.1615
   -17.0896 -17.0368 -17.0059 -16.9131 -16.8559 -16.8484 -16.8440 -16.8060
   -16.7762 -16.7214 -16.6624 -16.6225 -16.6123 -16.5505 -16.5123 -16.3985
   -16.3430 -16.2634 -16.2259 -16.1928 -16.1562 -16.1131 -16.0380 -14.7603
   -14.7247 -11.4591  -7.2296  -5.4330  -5.2100  -5.0213  -4.6590  -4.6170
    -4.5140  -4.4988  -4.4853  -4.4557  -4.4313  -4.3676  -4.3235  -4.2994
    -4.2233  -4.2050  -4.1460  -4.1331  -4.0800  -4.0655  -4.0466  -4.0390
    -4.0141  -3.9980  -3.9653  -3.9174  -3.8954  -3.8879  -3.8212  -3.7829
    -3.7304  -3.6601  -3.6285  -3.5253  -3.4894  -3.3684  -3.3286  -3.2666
    -3.2560  -3.2419  -3.1428  -3.0195  -2.9310  -2.9057  -2.8485  -2.8336
    -2.7578  -2.7268  -2.6868  -2.6094  -2.5893  -2.5730  -2.5262  -2.4882
[...]
    -1.2972  -1.2664  -1.2512  -1.1897  -1.1521  -1.0309  -1.0197  -1.0115
    -0.9884  -0.9483  -0.9049  -0.8378  -0.7563  -0.7010  -0.6464  -0.5938
    -0.5897  -0.5345  -0.5178   0.0662   0.0663   0.2110   0.2127   2.1537
     2.1545   2.2011   2.2029   2.2386   2.2394   2.2665   2.2981   2.4882
     2.4936   2.5257   2.5555   2.6092   2.6169   2.6796   2.6816   2.6911
     2.6922   2.8443   2.9100   2.9831   2.9981   3.0344   3.0419   3.0985
     3.2200   3.2495   3.2725   3.3330   3.3738   3.3906   3.4449   3.4929
     3.5004   3.5228   3.5493   3.5811   3.6038   3.6801   3.7002   3.7455
     3.8350   3.8912   3.9075   3.9530   3.9533   4.0963   4.1032   4.1119
     4.1124   4.6145   4.7833   4.7872   4.8023   4.8709   4.9206   4.9257
     4.9421   4.9847   5.0272   5.2491   5.3398   5.3591   5.3697   5.7303
     5.8000   5.9109   5.9271   5.9798   6.0427   6.1492   6.3031   6.3495
     6.3653   6.3747   6.4102   6.5755   6.6173   6.6652   6.6653   6.7034
     6.7630   6.8446   6.8455   6.8525   6.8534   7.3599   7.4079   7.5240
     7.6624   7.8258   8.0129   8.1705   8.2235   8.3189   8.3896   8.8250
     8.9134   9.0449   9.0815

          k =-0.0253 0.0280 0.0000 ( 34687 PWs)   bands (ev):

   -57.6965 -57.6663 -57.3152 -57.2837 -57.2320 -57.1074 -57.0754 -57.0703
   -57.0511 -57.0400 -56.9875 -56.9567 -56.7279 -56.6953 -56.1472 -56.1166
   -34.1099 -33.9791 -33.9544 -33.8930 -33.8441 -33.8120 -33.7721 -33.6311
   -33.6115 -33.5818 -33.5425 -33.5344 -33.5218 -33.5159 -33.4927 -33.4722
   -33.4657 -33.4605 -33.4289 -33.3851 -33.3178 -33.2903 -33.2832 -33.2640
   -33.2587 -33.2539 -33.2526 -33.2475 -33.2375 -33.2361 -33.2349 -33.2161
   -33.2026 -33.1850 -33.1769 -33.1445 -33.1413 -32.9926 -32.9790 -32.9579
   -32.9130 -32.8331 -32.5416 -32.5010 -32.4771 -32.3654 -32.2861 -32.1990
   -20.2991 -17.9225 -17.7447 -17.4634 -17.3832 -17.3090 -17.2319 -17.1281
   -17.0979 -17.0057 -16.9630 -16.8588 -16.8301 -16.8064 -16.7835 -16.7699
   -16.7127 -16.6998 -16.5997 -16.5792 -16.5062 -16.4749 -16.3812 -16.3650
   -16.3561 -16.3293 -16.2002 -16.1735 -16.1533 -16.0106 -15.9664 -14.7424
   -14.6731 -11.4625  -7.2364  -5.4450  -5.2483  -5.1953  -5.1800  -5.0213
    -4.9660  -4.9361  -4.7586  -4.7005  -4.5618  -4.4027  -4.3709  -4.3457
    -4.2607  -4.2495  -4.1877  -4.1167  -4.0907  -4.0641  -4.0360  -4.0201
    -3.9748  -3.9406  -3.9140  -3.8683  -3.8220  -3.8114  -3.7840  -3.7196
    -3.7003  -3.6625  -3.6147  -3.6040  -3.5391  -3.5249  -3.3575  -3.2900
    -3.2525  -3.2194  -3.1484  -3.0714  -2.9827  -2.9456  -2.7834  -2.7051
    -2.6800  -2.6367  -2.6102  -2.5318  -2.5042  -2.4513  -2.4472  -2.4224
    -2.4056  -2.3845  -2.3394  -2.3012  -2.2175  -2.1751  -2.1211  -2.1035
    -2.0623  -1.9908  -1.9503  -1.8945  -1.8634  -1.8268  -1.7426  -1.7077
    -1.6524  -1.5989  -1.5928  -1.5596  -1.5153  -1.4699  -1.4356  -1.3932
    -1.3445  -1.3323  -1.2805  -1.2420  -1.1966  -1.1093  -1.0974  -1.0586
    -1.0108  -0.8922  -0.8405  -0.8302  -0.7551  -0.7386  -0.7082  -0.6593
    -0.4329  -0.2812  -0.1344  -0.0854   0.1496   0.1790   0.1893   1.7209
     1.8451   2.0165   2.1006   2.1957   2.2463   2.2854   2.3193   2.4043
     2.4157   2.4503   2.4862   2.5302   2.5328   2.5477   2.6081   2.6689
     2.7057   2.7393   2.7760   2.8125   2.9393   2.9865   3.0045   3.0275
     3.1077   3.1361   3.1465   3.1745   3.2090   3.2397   3.3480   3.3728
     3.4040   3.4202   3.4646   3.5069   3.5618   3.5711   3.6374   3.6611
     3.6733   3.7094   3.7496   3.8937   3.9928   4.1403   4.1858   4.2535
     4.3068   4.4528   4.5099   4.7708   4.9375   4.9514   4.9844   5.0781
     5.1591   5.1753   5.2235   5.3860   5.6447   5.6756   5.7288   5.7876
     5.8527   5.8652   5.8728   6.0065   6.0739   6.0788   6.1243   6.1459
     6.1971   6.2077   6.2157   6.2438   6.4287   6.5273   6.6124   6.6666
     6.7909   6.8597   6.9633   7.1508   7.2263   7.4974   7.9313   8.0298
     8.0938   8.2501   8.4416   8.5800   8.6501   8.7776   8.9442   9.2702
     9.3677   9.4722   9.5080

          k =-0.0253 0.0560 0.0000 ( 34699 PWs)   bands (ev):

   -57.6902 -57.6727 -57.3087 -57.2903 -57.2312 -57.1013 -57.0815 -57.0639
   -57.0519 -57.0464 -56.9810 -56.9632 -56.7213 -56.7020 -56.1408 -56.1231
   -34.0401 -33.9738 -33.9595 -33.8761 -33.8452 -33.8293 -33.7730 -33.5958
   -33.5733 -33.5718 -33.5349 -33.5252 -33.5086 -33.5074 -33.4767 -33.4725
   -33.4551 -33.4261 -33.4132 -33.3670 -33.3164 -33.3136 -33.3084 -33.3013
   -33.2860 -33.2765 -33.2677 -33.2624 -33.2534 -33.2485 -33.2381 -33.2343
   -33.2099 -33.1987 -33.1704 -33.1647 -33.1259 -32.9875 -32.9747 -32.9619
   -32.9259 -32.9027 -32.4960 -32.4821 -32.4709 -32.3489 -32.3031 -32.2731
   -20.2989 -17.7562 -17.5893 -17.3432 -17.2641 -17.2447 -17.1936 -17.1677
   -17.1390 -16.9957 -16.9701 -16.8805 -16.8762 -16.8297 -16.7968 -16.7724
   -16.7475 -16.6700 -16.6227 -16.6040 -16.5792 -16.5303 -16.4267 -16.4121
   -16.3558 -16.2848 -16.2338 -16.1943 -16.1568 -16.1115 -16.0389 -14.7610
   -14.7239 -11.4617  -7.2355  -5.4182  -5.2107  -5.0306  -4.9486  -4.8133
    -4.7568  -4.7144  -4.5581  -4.4963  -4.4909  -4.4132  -4.3942  -4.3440
    -4.2709  -4.2323  -4.2150  -4.1919  -4.1474  -4.1404  -4.1073  -4.0615
    -4.0312  -4.0097  -3.9943  -3.9364  -3.9240  -3.8730  -3.8629  -3.8220
    -3.7737  -3.7137  -3.6554  -3.5716  -3.4725  -3.3967  -3.3304  -3.2821
    -3.2376  -3.2169  -3.1798  -3.0132  -2.9353  -2.8643  -2.8262  -2.7827
    -2.7554  -2.6449  -2.5919  -2.5100  -2.4871  -2.4389  -2.3938  -2.3620
    -2.3430  -2.3238  -2.2904  -2.2654  -2.1893  -2.1407  -2.1265  -2.0366
    -2.0200  -2.0026  -1.9450  -1.9424  -1.9042  -1.8614  -1.8300  -1.8065
    -1.7428  -1.7103  -1.6719  -1.6421  -1.5791  -1.5391  -1.5049  -1.4602
    -1.4307  -1.3718  -1.3471  -1.3010  -1.2238  -1.2053  -1.1291  -1.1036
    -1.0606  -1.0136  -0.9238  -0.8757  -0.8135  -0.7997  -0.7375  -0.6802
    -0.6066  -0.4667  -0.2573   0.0923   0.1290   0.1561   0.1885   1.8618
     2.0481   2.1353   2.1790   2.2285   2.2701   2.3067   2.3336   2.3840
     2.4447   2.4593   2.4859   2.5135   2.5209   2.5838   2.6931   2.7246
     2.7450   2.7760   2.8280   2.8412   2.8935   2.9501   2.9712   2.9870
     3.0243   3.0350   3.1707   3.2083   3.2907   3.3170   3.3343   3.3710
     3.4119   3.4369   3.4603   3.5434   3.5596   3.6351   3.6576   3.7352
     3.7934   3.8173   3.8625   3.8990   3.9070   4.0729   4.1169   4.1656
     4.3429   4.3849   4.6164   4.9663   5.0196   5.1241   5.1380   5.1564
     5.2598   5.2872   5.3153   5.4284   5.5120   5.5612   5.6403   5.7630
     5.8248   5.8485   5.8953   5.9366   5.9560   5.9966   6.0525   6.0640
     6.1363   6.1558   6.2298   6.3228   6.3796   6.4098   6.4785   6.6462
     6.6949   6.7964   6.8410   7.0359   7.1478   7.3638   7.4843   7.5848
     7.9774   8.1804   8.3501   8.5214   8.6487   8.8578   9.0526   9.1158
     9.1798   9.5000   9.6224

          k =-0.0506 0.0280 0.0000 ( 34685 PWs)   bands (ev):

   -57.6965 -57.6663 -57.3152 -57.2837 -57.2320 -57.1072 -57.0754 -57.0705
   -57.0511 -57.0400 -56.9875 -56.9567 -56.7279 -56.6953 -56.1472 -56.1166
   -34.1106 -33.9791 -33.9544 -33.8916 -33.8443 -33.8119 -33.7722 -33.6326
   -33.6115 -33.5851 -33.5431 -33.5353 -33.5273 -33.5195 -33.4926 -33.4718
   -33.4582 -33.4485 -33.4290 -33.3689 -33.3176 -33.2906 -33.2789 -33.2652
   -33.2640 -33.2611 -33.2585 -33.2533 -33.2375 -33.2361 -33.2338 -33.2138
   -33.2031 -33.1852 -33.1769 -33.1444 -33.1413 -32.9926 -32.9833 -32.9565
   -32.9130 -32.8331 -32.5415 -32.5029 -32.4762 -32.3654 -32.2861 -32.1990
   -20.2988 -17.8602 -17.6510 -17.3686 -17.3412 -17.2495 -17.2242 -17.2144
   -17.1222 -17.0430 -16.9633 -16.9204 -16.8706 -16.8574 -16.8547 -16.8325
   -16.7631 -16.7448 -16.5590 -16.5278 -16.5037 -16.4378 -16.4152 -16.3759
   -16.3684 -16.3114 -16.1911 -16.1719 -16.1522 -16.0118 -15.9661 -14.7405
   -14.6732 -11.4600  -7.2308  -5.4583  -5.2340  -5.1913  -4.8921  -4.8338
    -4.7199  -4.7044  -4.6749  -4.6551  -4.6300  -4.5092  -4.4276  -4.3452
    -4.3183  -4.3016  -4.1589  -4.1268  -4.0604  -4.0264  -4.0083  -3.9929
    -3.9824  -3.9094  -3.8595  -3.8155  -3.7731  -3.7606  -3.7185  -3.6905
    -3.6555  -3.6330  -3.5826  -3.5510  -3.4452  -3.3169  -3.2830  -3.2620
    -3.2233  -3.1695  -3.1012  -3.0576  -2.9529  -2.9371  -2.8736  -2.8399
    -2.7428  -2.6930  -2.6594  -2.6499  -2.6038  -2.5905  -2.5354  -2.4947
    -2.4365  -2.3872  -2.3806  -2.3352  -2.3084  -2.2540  -2.1789  -2.1354
    -2.1131  -2.0621  -2.0257  -1.9740  -1.9397  -1.9046  -1.8594  -1.8310
    -1.7542  -1.7397  -1.7115  -1.6405  -1.5397  -1.5063  -1.4845  -1.4171
    -1.3667  -1.3471  -1.2789  -1.2606  -1.2368  -1.1461  -1.1120  -1.0128
    -0.9770  -0.8795  -0.8553  -0.8132  -0.7782  -0.7634  -0.7047  -0.6895
    -0.5125  -0.3116  -0.2592  -0.0727   0.1103   0.1396   0.1629   1.7044
     1.9053   2.0606   2.1232   2.1279   2.1729   2.2414   2.3618   2.3726
     2.4066   2.4386   2.5183   2.5680   2.5748   2.6032   2.6843   2.6971
     2.7436   2.8032   2.8337   2.9033   2.9564   2.9821   3.0420   3.0609
     3.0916   3.1610   3.1716   3.2010   3.3028   3.3570   3.3766   3.4108
     3.4464   3.4586   3.5474   3.5867   3.6046   3.6540   3.6764   3.6852
     3.7176   3.7714   3.8188   3.8699   3.9329   4.0594   4.1690   4.2824
     4.2936   4.4231   4.6226   4.6902   4.7647   4.8115   4.8559   4.9858
     5.0130   5.1269   5.2244   5.4703   5.5949   5.6412   5.7220   5.8058
     5.8618   5.8731   5.9258   5.9471   5.9810   6.0934   6.1174   6.1394
     6.2311   6.4325   6.4828   6.5408   6.5782   6.6078   6.6858   6.7416
     6.7975   6.8177   6.9742   7.1157   7.1676   7.3956   7.5674   7.7009
     8.1341   8.1637   8.2456   8.3889   8.7655   8.9686   9.0127   9.0445
     9.3778   9.4479   9.6082

          k =-0.0506 0.0560 0.0000 ( 34596 PWs)   bands (ev):

   -57.6902 -57.6727 -57.3087 -57.2903 -57.2312 -57.1012 -57.0814 -57.0641
   -57.0519 -57.0464 -56.9810 -56.9632 -56.7213 -56.7020 -56.1408 -56.1231
   -34.0406 -33.9738 -33.9595 -33.8749 -33.8453 -33.8289 -33.7731 -33.5958
   -33.5745 -33.5719 -33.5352 -33.5212 -33.5150 -33.5108 -33.4767 -33.4733
   -33.4531 -33.4261 -33.4036 -33.3534 -33.3178 -33.3172 -33.3009 -33.2987
   -33.2863 -33.2764 -33.2675 -33.2601 -33.2535 -33.2530 -33.2474 -33.2394
   -33.2101 -33.2002 -33.1704 -33.1644 -33.1255 -32.9876 -32.9775 -32.9617
   -32.9259 -32.9025 -32.4971 -32.4817 -32.4707 -32.3489 -32.3030 -32.2731
   -20.2985 -17.7057 -17.5004 -17.2909 -17.2394 -17.1974 -17.1735 -17.1616
   -17.0895 -17.0368 -17.0057 -16.9133 -16.8563 -16.8488 -16.8442 -16.8061
   -16.7761 -16.7216 -16.6622 -16.6221 -16.6124 -16.5506 -16.5123 -16.3986
   -16.3431 -16.2634 -16.2259 -16.1928 -16.1562 -16.1132 -16.0380 -14.7598
   -14.7242 -11.4591  -7.2296  -5.4330  -5.2099  -5.0211  -4.6590  -4.6169
    -4.5151  -4.4990  -4.4835  -4.4561  -4.4320  -4.3672  -4.3245  -4.3014
    -4.2257  -4.2057  -4.1462  -4.1318  -4.0824  -4.0669  -4.0460  -4.0362
    -4.0141  -3.9960  -3.9686  -3.9143  -3.8940  -3.8881  -3.8217  -3.7871
    -3.7305  -3.6599  -3.6298  -3.5224  -3.4875  -3.3740  -3.3286  -3.2612
    -3.2565  -3.2452  -3.1390  -3.0136  -2.9333  -2.9043  -2.8507  -2.8298
    -2.7562  -2.7264  -2.6846  -2.6093  -2.5916  -2.5674  -2.5282  -2.4897
    -2.4282  -2.4054  -2.3657  -2.3290  -2.3163  -2.3000  -2.2552  -2.1778
    -2.1525  -2.1211  -2.1141  -2.0773  -2.0472  -2.0020  -1.9838  -1.9015
    -1.8912  -1.8515  -1.8325  -1.7244  -1.6374  -1.6058  -1.5727  -1.4783
    -1.4085  -1.3746  -1.3071  -1.2495  -1.2061  -1.1088  -1.0737  -1.0174
    -1.0022  -0.9365  -0.8527  -0.8191  -0.7699  -0.7559  -0.6922  -0.6568
    -0.6514  -0.5173  -0.3243   0.0783   0.1124   0.1304   0.1940   1.8671
     2.0769   2.1658   2.1999   2.2214   2.2440   2.2988   2.3484   2.3936
     2.4040   2.5378   2.5706   2.5797   2.6078   2.6288   2.6839   2.7551
     2.7824   2.8047   2.8393   2.8815   2.9639   3.0049   3.0288   3.0626
     3.0977   3.1367   3.1681   3.2572   3.3360   3.3678   3.3975   3.4414
     3.4792   3.5002   3.5223   3.5431   3.6154   3.6479   3.7120   3.7446
     3.7804   3.8519   3.8807   3.9197   3.9256   3.9547   4.1120   4.1752
     4.2897   4.4738   4.7255   4.8071   4.8171   4.8967   4.9427   5.0925
     5.1659   5.2321   5.2722   5.3277   5.3726   5.4354   5.4961   5.6266
     5.7814   5.8311   5.8819   5.9524   6.0410   6.1245   6.2172   6.2594
     6.2871   6.3476   6.4166   6.4508   6.5038   6.5781   6.6489   6.7165
     6.7309   6.8245   6.8488   6.9846   7.0509   7.4109   7.4334   7.5755
     7.7445   7.9435   8.0701   8.3921   8.5707   8.6099   8.7419   9.0103
     9.2226   9.3219   9.4535

     the Fermi energy is     0.9973 ev

!    total energy              =   -3021.42003706 Ry
     Harris-Foulkes estimate   =   -3021.42003712 Ry
     estimated scf accuracy    <       0.00000026 Ry

     The total energy is the sum of the following terms:

     one-electron contribution =  -41241.39081139 Ry
     hartree contribution      =   20694.94254544 Ry
     xc contribution           =    -553.69091340 Ry
     ewald contribution        =   18078.71935341 Ry
     smearing contrib. (-TS)   =      -0.00021113 Ry

     total magnetization       =     0.00 Bohr mag/cell
     absolute magnetization    =     0.00 Bohr mag/cell

     convergence has been achieved in   7 iterations

     Forces acting on atoms (Ry/au):


     negative rho (up, down):  1.209E-02 1.209E-02
     atom    1 type  1   force =     0.00001726   -0.00035192   -0.13378510
     atom    2 type  2   force =     0.00000428    0.00003130    0.07212642
     atom    3 type  1   force =    -0.00135554    0.00030966   -0.06096271
     atom    4 type  2   force =     0.00290403    0.00049053    0.00638399
     atom    5 type  1   force =     0.00027340    0.00184913    0.00352407
     atom    6 type  2   force =     0.00006052    0.00002007   -0.00288119
     atom    7 type  1   force =    -0.00033264   -0.00086565    0.00452755
     atom    8 type  2   force =     0.00095811   -0.00019626   -0.00070613
     atom    9 type  1   force =    -0.00002823    0.00002271   -0.13354325
     atom   10 type  2   force =    -0.00006707    0.00006850    0.07130628
     atom   11 type  1   force =    -0.00131698   -0.00023652   -0.05587814
     atom   12 type  2   force =     0.00299421   -0.00006438    0.00609931
     atom   13 type  1   force =     0.00029784   -0.00147227    0.00347045
     atom   14 type  2   force =    -0.00119796   -0.00038740   -0.00290236
     atom   15 type  1   force =    -0.00054491    0.00028010    0.00448993
     atom   16 type  2   force =     0.00055609   -0.00018225   -0.00003069
     atom   17 type  2   force =    -0.00006949   -0.00006818    0.07938459
     atom   18 type  1   force =     0.00013605   -0.00017088    0.11912858
     atom   19 type  2   force =    -0.00010791   -0.00017110   -0.06668946
     atom   20 type  2   force =    -0.06322200    0.00015275   -0.03224167
     atom   21 type  2   force =     0.06320061    0.00001754   -0.03244598
     atom   22 type  1   force =     0.00072383    0.00108399    0.05975116
     atom   23 type  2   force =    -0.00017293    0.00005531   -0.00175802
     atom   24 type  2   force =    -0.00143210   -0.00000517   -0.02327035
     atom   25 type  2   force =    -0.00313132    0.00059110    0.00787319
     atom   26 type  1   force =     0.00063908    0.00029934    0.00461485
     atom   27 type  2   force =     0.00052267    0.00060051   -0.00382148
     atom   28 type  2   force =     0.00014171   -0.00008699   -0.00120290
     atom   29 type  2   force =     0.00021080   -0.00034522   -0.00059123
     atom   30 type  1   force =     0.00037170   -0.00069500    0.00400616
     atom   31 type  2   force =     0.00005184    0.00019779   -0.00261685
     atom   32 type  2   force =     0.00003440   -0.00005978   -0.00118637
     atom   33 type  2   force =    -0.00011820    0.00004029    0.07898715
     atom   34 type  1   force =     0.00006927   -0.00021679    0.11904268
     atom   35 type  2   force =    -0.00030332   -0.00005123   -0.06638753
     atom   36 type  2   force =    -0.06318293   -0.00004940   -0.03232992
     atom   37 type  2   force =     0.06332974   -0.00019997   -0.03248468
     atom   38 type  1   force =     0.00066162   -0.00097728    0.05997042
     atom   39 type  2   force =    -0.00045657    0.00011282   -0.00250225
     atom   40 type  2   force =    -0.00119003    0.00031359   -0.02217933
     atom   41 type  2   force =    -0.00317175   -0.00014705    0.00789720
     atom   42 type  1   force =     0.00051763    0.00006142    0.00373804
     atom   43 type  2   force =     0.00069313    0.00023861   -0.00299025
     atom   44 type  2   force =     0.00022107    0.00010771   -0.00115966
     atom   45 type  2   force =     0.00019224    0.00031292   -0.00061635
     atom   46 type  1   force =     0.00049543    0.00032926    0.00380637
     atom   47 type  2   force =     0.00006762   -0.00035947   -0.00134430
     atom   48 type  2   force =     0.00009978    0.00011180   -0.00094272
     atom   49 type  3   force =    -0.00140657    0.00497353    0.00275965
     atom   50 type  2   force =     0.00131238   -0.00043721   -0.00314140
     atom   51 type  4   force =     0.00021677   -0.00530430   -0.00002961
     atom   52 type  4   force =     0.00034253    0.00031861    0.00076034
     atom   53 type  4   force =    -0.00277770    0.00084575   -0.00163129
     atom   54 type  4   force =     0.00326852   -0.00073499    0.00060481

     Total force =     0.362714     Total SCF correction =     0.001409
 !ASE

     Writing output data file calc.save
 
     init_run     :     59.36s CPU     73.56s WALL (       1 calls)
     electrons    :   1693.63s CPU   2100.58s WALL (       1 calls)
     forces       :     39.75s CPU     41.78s WALL (       1 calls)

     Called by init_run:
     wfcinit      :     50.66s CPU     64.19s WALL (       1 calls)
     potinit      :      1.56s CPU      1.84s WALL (       1 calls)

     Called by electrons:
     c_bands      :   1475.91s CPU   1826.72s WALL (       8 calls)
     sum_band     :    186.74s CPU    238.17s WALL (       8 calls)
     v_of_rho     :      8.05s CPU     10.18s WALL (       8 calls)
     newd         :     27.24s CPU     30.03s WALL (       8 calls)
     mix_rho      :      0.22s CPU      0.34s WALL (       8 calls)
     vdW_energy   :      1.47s CPU      1.78s WALL (       9 calls)
     vdW_ffts     :      2.30s CPU      2.99s WALL (      18 calls)
     vdW_v        :      0.90s CPU      1.06s WALL (       9 calls)

     Called by c_bands:
     init_us_2    :      4.90s CPU      5.41s WALL (     720 calls)
     cegterg      :   1446.80s CPU   1795.82s WALL (     320 calls)

     Called by *egterg:
     h_psi        :    629.61s CPU    920.38s WALL (    1537 calls)
     s_psi        :     74.53s CPU     78.70s WALL (    1537 calls)
     g_psi        :      4.09s CPU      4.20s WALL (    1177 calls)
     cdiaghg      :    467.84s CPU    477.40s WALL (    1457 calls)

     Called by h_psi:
     add_vuspsi   :     75.09s CPU     78.91s WALL (    1537 calls)

     General routines
     calbec       :    114.21s CPU    117.39s WALL (    1897 calls)
     fft          :      4.67s CPU      6.11s WALL (     713 calls)
     ffts         :      0.03s CPU      0.05s WALL (      32 calls)
     fftw         :    418.58s CPU    743.56s WALL (  599528 calls)
     interpolate  :      0.22s CPU      0.42s WALL (      32 calls)
     davcio       :      0.15s CPU      3.49s WALL (      40 calls)
 
     Parallel routines
     fft_scatter  :    228.61s CPU    395.75s WALL (  600273 calls)
 
     PWSCF        : 29m53.98s CPU    37m 1.43s WALL

 
   This run was terminated on:  20:41:54  12Feb2018            

=------------------------------------------------------------------------------=
   JOB DONE.
=------------------------------------------------------------------------------=
