  python dir          : /home/vossj/suncat/lib/python2.7/site-packages/espresso
  espresso dir        : /home/vossj/suncat/esdld/espresso-dynpy-beef/bin
  pseudo dir          : /home/alatimer/bin/psp/esp_psp_w_gbrvRu/
  ase-espresso py git : ffa2778-git



     Program PWSCF v.5.1rc2 (svn rev. ) starts on 26Feb2018 at 13: 4:29 

     This program is part of the open-source Quantum ESPRESSO suite
     for quantum simulation of materials; please cite
         "P. Giannozzi et al., J. Phys.:Condens. Matter 21 395502 (2009);
          URL http://www.quantum-espresso.org", 
     in publications or presentations arising from this work. More details at
     http://www.quantum-espresso.org/quote

     Parallel version (MPI), running on    16 processors
     R & G space division:  proc/nbgrp/npool/nimage =      16
     Reading input from pw.inp
     Message from routine read_cards :
     DEPRECATED: no units specified in CELL_PARAMETERS card

     Current dimensions of program PWSCF are:
     Max number of different atomic species (ntypx) = 10
     Max number of k-points (npk) =  40000
     Max angular momentum in pseudopotentials (lmaxx) =  3

     **************************************************************************
     Initializing libbeef V0.1.1 with the BEEF-vdW functional.
     Citation: Wellendorff et al., PRB 85, 235149 (2012).
     **************************************************************************


     IMPORTANT: XC functional enforced from input :
     Exchange-correlation      = BEEF ( 1  4 27 13 2)
     Any further DFT definition will be discarded
     Please, verify this is what you really want


     Subspace diagonalization in iterative solution of the eigenvalue problem:
     a serial algorithm will be used

 
     Parallelization info
     --------------------
     sticks:   dense  smooth     PW     G-vecs:    dense   smooth      PW
     Min         281     112     31                68535    17318    2565
     Max         282     113     32                68545    17369    2582
     Sum        4501    1795    503              1096637   277353   41113
 
     Generating pointlists ...
     new r_m :   0.4125 (alat units)  0.7795 (a.u.) for type    1
     new r_m :   0.4125 (alat units)  0.7795 (a.u.) for type    2
     new r_m :   0.4125 (alat units)  0.7795 (a.u.) for type    3
     new r_m :   0.4125 (alat units)  0.7795 (a.u.) for type    4


     bravais-lattice index     =            0
     lattice parameter (alat)  =       1.8897  a.u.
     unit-cell volume          =    7990.9933 (a.u.)^3
     number of atoms/cell      =           54
     number of atomic types    =            4
     number of electrons       =       398.00
     number of Kohn-Sham states=          299
     kinetic-energy cutoff     =      40.4243  Ry
     charge density cutoff     =     404.2426  Ry
     convergence threshold     =      7.3E-07
     mixing beta               =       0.1000
     number of iterations used =           10  plain     mixing
     Exchange-correlation      = BEEF ( 1  4 27 13 2)
     nstep                     =           50


     celldm(1)=   1.889726  celldm(2)=   0.000000  celldm(3)=   0.000000
     celldm(4)=   0.000000  celldm(5)=   0.000000  celldm(6)=   0.000000

     crystal axes: (cart. coord. in units of alat)
               a(1) = (   6.590708   0.000000   0.000000 )  
               a(2) = (   0.000000   5.950229   0.000000 )  
               a(3) = (   0.000000   0.000000  30.195235 )  

     reciprocal axes: (cart. coord. in units 2 pi/alat)
               b(1) = (  0.151729  0.000000  0.000000 )  
               b(2) = (  0.000000  0.168061  0.000000 )  
               b(3) = (  0.000000  0.000000  0.033118 )  


     PseudoPot. # 1 for Ti read from file:
     /home/alatimer/bin/psp/esp_psp_w_gbrvRu/Ti.UPF
     MD5 check sum: 8e4df49b7f0d34bbd5052bf3f5ea0213
     Pseudo is Ultrasoft, Zval = 12.0
     Generated by new atomic code, or converted to UPF format
     Using radial grid of  851 points,  6 beta functions with: 
                l(1) =   0
                l(2) =   0
                l(3) =   1
                l(4) =   1
                l(5) =   2
                l(6) =   2
     Q(r) pseudized with  8 coefficients,  rinner =    1.000   1.000   1.000
                                                       1.000   1.000

     PseudoPot. # 2 for  O read from file:
     /home/alatimer/bin/psp/esp_psp_w_gbrvRu/O.UPF
     MD5 check sum: e057bbcf3229fb5d8c36c0c92f9568b4
     Pseudo is Ultrasoft + core correction, Zval =  6.0
     Generated using "atomic" code by A. Dal Corso  v.5.0.2 svn rev. 9415
     Using radial grid of 1095 points,  4 beta functions with: 
                l(1) =   0
                l(2) =   0
                l(3) =   1
                l(4) =   1
     Q(r) pseudized with 0 coefficients 


     PseudoPot. # 3 for  C read from file:
     /home/alatimer/bin/psp/esp_psp_w_gbrvRu/C.UPF
     MD5 check sum: ab446d787031eba755f1d5ee46644bb0
     Pseudo is Ultrasoft + core correction, Zval =  4.0
     Generated using "atomic" code by A. Dal Corso  v.5.0.2 svn rev. 9415
     Using radial grid of 1073 points,  4 beta functions with: 
                l(1) =   0
                l(2) =   0
                l(3) =   1
                l(4) =   1
     Q(r) pseudized with 0 coefficients 


     PseudoPot. # 4 for  H read from file:
     /home/alatimer/bin/psp/esp_psp_w_gbrvRu/H.UPF
     MD5 check sum: bd57da0722753ddfd9833a65b40bb853
     Pseudo is Ultrasoft, Zval =  1.0
     Generated using "atomic" code by A. Dal Corso  v.5.0.2 svn rev. 9415
     Using radial grid of  929 points,  2 beta functions with: 
                l(1) =   0
                l(2) =   0
     Q(r) pseudized with 0 coefficients 


     vdW kernel table read from file vdW_kernel_table
     MD5 check sum: 095c7af220d748ca6e76c0b4c6cfb241

     atomic species   valence    mass     pseudopotential
        Ti1           12.00    47.88000     Ti( 1.00)
        O1             6.00    15.99940      O( 1.00)
        C1             4.00    12.01100      C( 1.00)
        H1             1.00     1.00794      H( 1.00)

     Starting magnetic structure 
     atomic species   magnetization
        Ti1          0.250
        O1           0.500
        C1           0.750
        H1           0.000

     No symmetry found



   Cartesian axes

     site n.     atom                  positions (alat units)
         1           Ti1 tau(   1) = (   1.6476770   0.7437786   2.6545865  )
         2           O1  tau(   2) = (   1.6476770   2.2313359   3.9361215  )
         3           Ti1 tau(   3) = (   1.6476770   2.2313359   5.9499405  )
         4           O1  tau(   4) = (   0.3661420   0.7437786   5.9499405  )
         5           Ti1 tau(   5) = (   1.6407309   0.9134410   9.3139491  )
         6           O1  tau(   6) = (   1.6648823   2.2608486  10.4895904  )
         7           Ti1 tau(   7) = (   1.7578240   2.2899216  13.0472362  )
         8           O1  tau(   8) = (   0.4801583   0.7600008  12.7739736  )
         9           Ti1 tau(   9) = (   1.6476770   3.7188931   2.6545865  )
        10           O1  tau(  10) = (   1.6476770   5.2064503   3.9361215  )
        11           Ti1 tau(  11) = (   1.6476770   5.2064503   5.9499405  )
        12           O1  tau(  12) = (   0.3661420   3.7188931   5.9499405  )
        13           Ti1 tau(  13) = (   1.6336050   3.7786827   9.1566831  )
        14           O1  tau(  14) = (   1.6678212   5.2513959  10.5409436  )
        15           Ti1 tau(  15) = (   1.7144009   5.2558216  12.3462911  )
        16           O1  tau(  16) = (   0.4635505   3.7986228  12.7318280  )
        17           O1  tau(  17) = (   1.6476770   2.2313359   1.3730516  )
        18           Ti1 tau(  18) = (   4.9430310   2.2313359   2.6545865  )
        19           O1  tau(  19) = (   4.9430310   2.2313359   4.6684056  )
        20           O1  tau(  20) = (   6.2245660   0.7437786   2.6545865  )
        21           O1  tau(  21) = (   3.6614961   0.7437786   2.6545865  )
        22           Ti1 tau(  22) = (   4.9430310   0.7437786   5.9499405  )
        23           O1  tau(  23) = (   1.6683653   2.2752577   7.9427336  )
        24           O1  tau(  24) = (   4.9430310   2.2313359   7.2314755  )
        25           O1  tau(  25) = (   2.9292120   0.7437786   5.9499405  )
        26           Ti1 tau(  26) = (   4.9404121   2.2664794   9.4552217  )
        27           O1  tau(  27) = (   5.0099888   2.2616732  11.2946145  )
        28           O1  tau(  28) = (   6.2612001   0.7714827   9.2659748  )
        29           O1  tau(  29) = (   3.6791272   0.7744986   9.2965846  )
        30           Ti1 tau(  30) = (   5.0117873   0.7976728  12.8161605  )
        31           O1  tau(  31) = (   4.9963122   2.2836652  13.8750618  )
        32           O1  tau(  32) = (   2.9819382   0.7448324  12.7109220  )
        33           O1  tau(  33) = (   1.6476770   5.2064503   1.3730516  )
        34           Ti1 tau(  34) = (   4.9430310   5.2064503   2.6545865  )
        35           O1  tau(  35) = (   4.9430310   5.2064503   4.6684056  )
        36           O1  tau(  36) = (   6.2245660   3.7188931   2.6545865  )
        37           O1  tau(  37) = (   3.6614961   3.7188931   2.6545865  )
        38           Ti1 tau(  38) = (   4.9430310   3.7188931   5.9499405  )
        39           O1  tau(  39) = (   1.6664207   5.2035600   7.9365221  )
        40           O1  tau(  40) = (   4.9430310   5.2064503   7.2314755  )
        41           O1  tau(  41) = (   2.9292120   3.7188931   5.9499405  )
        42           Ti1 tau(  42) = (   4.9524353   5.2460635   9.4426343  )
        43           O1  tau(  43) = (   5.0107556   5.2394944  11.2927493  )
        44           O1  tau(  44) = (   6.2663940   3.7551737   9.2646230  )
        45           O1  tau(  45) = (   3.6780957   3.7542261   9.2971476  )
        46           Ti1 tau(  46) = (   5.0587989   3.7766986  12.8010349  )
        47           O1  tau(  47) = (   5.0196089   5.2502198  13.8813978  )
        48           O1  tau(  48) = (   2.9624133   3.7943242  12.7299881  )
        49           O1  tau(  49) = (   1.7427453   2.2533568  14.8370015  )
        50           C1  tau(  50) = (   2.7196098   4.2826273  16.2318421  )
        51           H1  tau(  51) = (   3.3037454   4.9255546  15.5827400  )
        52           H1  tau(  52) = (   3.3586606   3.7870117  16.9822022  )
        53           H1  tau(  53) = (   2.3125587   3.4026405  15.5729816  )
        54           H1  tau(  54) = (   1.8391288   4.7650601  16.6448379  )

     number of k points=    40  Fermi-Dirac smearing, width (Ry)=  0.0073
                       cart. coord. in units 2pi/alat
        k(    1) = (   0.0000000   0.0000000   0.0000000), wk =   0.0277778
        k(    2) = (   0.0000000   0.0280101   0.0000000), wk =   0.0555556
        k(    3) = (   0.0000000   0.0560203   0.0000000), wk =   0.0555556
        k(    4) = (   0.0000000  -0.0840304   0.0000000), wk =   0.0277778
        k(    5) = (   0.0252881   0.0000000   0.0000000), wk =   0.0555556
        k(    6) = (   0.0252881   0.0280101   0.0000000), wk =   0.0555556
        k(    7) = (   0.0252881   0.0560203   0.0000000), wk =   0.0555556
        k(    8) = (   0.0252881  -0.0840304   0.0000000), wk =   0.0555556
        k(    9) = (   0.0505763   0.0000000   0.0000000), wk =   0.0555556
        k(   10) = (   0.0505763   0.0280101   0.0000000), wk =   0.0555556
        k(   11) = (   0.0505763   0.0560203   0.0000000), wk =   0.0555556
        k(   12) = (   0.0505763  -0.0840304   0.0000000), wk =   0.0555556
        k(   13) = (  -0.0758644   0.0000000   0.0000000), wk =   0.0277778
        k(   14) = (  -0.0758644   0.0280101   0.0000000), wk =   0.0555556
        k(   15) = (  -0.0758644   0.0560203   0.0000000), wk =   0.0555556
        k(   16) = (  -0.0758644  -0.0840304   0.0000000), wk =   0.0277778
        k(   17) = (  -0.0252881   0.0280101   0.0000000), wk =   0.0555556
        k(   18) = (  -0.0252881   0.0560203   0.0000000), wk =   0.0555556
        k(   19) = (  -0.0505763   0.0280101   0.0000000), wk =   0.0555556
        k(   20) = (  -0.0505763   0.0560203   0.0000000), wk =   0.0555556
        k(   21) = (   0.0000000   0.0000000   0.0000000), wk =   0.0277778
        k(   22) = (   0.0000000   0.0280101   0.0000000), wk =   0.0555556
        k(   23) = (   0.0000000   0.0560203   0.0000000), wk =   0.0555556
        k(   24) = (   0.0000000  -0.0840304   0.0000000), wk =   0.0277778
        k(   25) = (   0.0252881   0.0000000   0.0000000), wk =   0.0555556
        k(   26) = (   0.0252881   0.0280101   0.0000000), wk =   0.0555556
        k(   27) = (   0.0252881   0.0560203   0.0000000), wk =   0.0555556
        k(   28) = (   0.0252881  -0.0840304   0.0000000), wk =   0.0555556
        k(   29) = (   0.0505763   0.0000000   0.0000000), wk =   0.0555556
        k(   30) = (   0.0505763   0.0280101   0.0000000), wk =   0.0555556
        k(   31) = (   0.0505763   0.0560203   0.0000000), wk =   0.0555556
        k(   32) = (   0.0505763  -0.0840304   0.0000000), wk =   0.0555556
        k(   33) = (  -0.0758644   0.0000000   0.0000000), wk =   0.0277778
        k(   34) = (  -0.0758644   0.0280101   0.0000000), wk =   0.0555556
        k(   35) = (  -0.0758644   0.0560203   0.0000000), wk =   0.0555556
        k(   36) = (  -0.0758644  -0.0840304   0.0000000), wk =   0.0277778
        k(   37) = (  -0.0252881   0.0280101   0.0000000), wk =   0.0555556
        k(   38) = (  -0.0252881   0.0560203   0.0000000), wk =   0.0555556
        k(   39) = (  -0.0505763   0.0280101   0.0000000), wk =   0.0555556
        k(   40) = (  -0.0505763   0.0560203   0.0000000), wk =   0.0555556

     Dense  grid:  1096637 G-vectors     FFT dimensions: (  80,  72, 375)

     Smooth grid:   277353 G-vectors     FFT dimensions: (  54,  45, 240)

     Largest allocated arrays     est. size (Mb)     dimensions
        Kohn-Sham Wavefunctions         9.95 Mb     (    2180,  299)
        NL pseudopotentials            18.89 Mb     (    2180,  568)
        Each V/rho on FFT grid          4.22 Mb     (  138240,   2)
        Each G-vector array             0.52 Mb     (   68538)
        G-vector shells                 0.25 Mb     (   33046)
     Largest temporary arrays     est. size (Mb)     dimensions
        Auxiliary wavefunctions        39.78 Mb     (    2180, 1196)
        Each subspace H/S matrix       21.83 Mb     (    1196, 1196)
        Each <psi_i|beta_j> matrix      2.59 Mb     (     568,  299)
        Arrays for rho mixing          21.09 Mb     (  138240,   10)

     Check: negative/imaginary core charge=   -0.000049    0.000000

     The initial density is read from file :
     ./calc.save/charge-density.dat


     negative rho (up, down):  1.189E-02 1.196E-02


     ************************************************************************
     *
     * You are using vdW-DF for exchange-correlation in this calculation.
     * Please cite the following three references that made this development
     * possible:
     *
     *   M. Dion, H. Rydberg, E. Schroder, D. C. Langreth, and
     *   B. I. Lundqvist, Phys. Rev. Lett. 92, 246401 (2004).
     *
     *   T. Thonhauser, V. R. Cooper, S. Li, A. Puzder, P. Hyldgaard, and
     *   D. C. Langreth, Phys. Rev. B 76, 125112 (2007).
     *
     *   G. Roman-Perez and J. M. Soler, Phys. Rev. Lett. 103, 096102 (2009).
     *
     *
     * If you are using vdW-DF2, please also cite:
     *
     *   K. Lee, E. D. Murray, L. Kong, B. I. Lundqvist, and
     *   D. C. Langreth, Phys. Rev. B 82, 081101(R) (2010).
     *
     *
     * If you are calculating the stress with vdW-DF, please also cite:
     *
     *   R. Sabatini, E. Kucukbenli, B. Kolb, T. Thonhauser, and
     *   S. de Gironcoli, J. Phys.: Condens. Matter 24, 424209 (2012).
     *
     ************************************************************************

     Carrying out vdW-DF run using the following parameters:

     Nqs =      20    Nr_points =    1024   r_max =   100.000
     q_mesh =
               0.00001000     0.04494208     0.09755937     0.15916263
               0.23128650     0.31572767     0.41458969     0.53033537
               0.66584808     0.82450364     1.01025438     1.22772762
               1.48234092     1.78043706     2.12944203     2.53805004
               3.01644009     3.57652955     4.23227104     5.00000000

     Gradients computed in reciprocal space

     ************************************************************************


     Starting wfc are  300 randomized atomic wfcs

     total cpu time spent up to now is       76.7 secs

     Self-consistent Calculation

     iteration #  1     ecut=    40.42 Ry     beta=0.10
     Davidson diagonalization with overlap
     ethr =  1.00E-05,  avg # of iterations = 15.0

     Threshold (ethr) on eigenvalues was too large:
     Diagonalizing with lowered threshold

     Davidson diagonalization with overlap
     ethr =  5.09E-07,  avg # of iterations =  1.0

     negative rho (up, down):  1.189E-02 1.195E-02
 
     Magnetic moment per site:
     atom:    1    charge:    3.1244    magn:   -0.0003    constr:    0.0000
     atom:    2    charge:    2.0897    magn:    0.0003    constr:    0.0000
     atom:    3    charge:    3.1198    magn:   -0.0000    constr:    0.0000
     atom:    4    charge:    2.0867    magn:   -0.0001    constr:    0.0000
     atom:    5    charge:    3.1161    magn:   -0.0002    constr:    0.0000
     atom:    6    charge:    2.0795    magn:    0.0020    constr:    0.0000
     atom:    7    charge:    3.1167    magn:   -0.0053    constr:    0.0000
     atom:    8    charge:    2.0794    magn:    0.0248    constr:    0.0000
     atom:    9    charge:    3.1244    magn:   -0.0003    constr:    0.0000
     atom:   10    charge:    2.0898    magn:    0.0003    constr:    0.0000
     atom:   11    charge:    3.1198    magn:   -0.0000    constr:    0.0000
     atom:   12    charge:    2.0870    magn:   -0.0000    constr:    0.0000
     atom:   13    charge:    3.1150    magn:   -0.0002    constr:    0.0000
     atom:   14    charge:    2.0939    magn:    0.0022    constr:    0.0000
     atom:   15    charge:    3.1184    magn:   -0.0008    constr:    0.0000
     atom:   16    charge:    2.0828    magn:    0.0046    constr:    0.0000
     atom:   17    charge:    2.0624    magn:    0.0018    constr:    0.0000
     atom:   18    charge:    3.1239    magn:   -0.0001    constr:    0.0000
     atom:   19    charge:    2.0875    magn:    0.0001    constr:    0.0000
     atom:   20    charge:    2.0847    magn:    0.0002    constr:    0.0000
     atom:   21    charge:    2.0847    magn:    0.0002    constr:    0.0000
     atom:   22    charge:    3.1199    magn:    0.0000    constr:    0.0000
     atom:   23    charge:    2.0908    magn:    0.0002    constr:    0.0000
     atom:   24    charge:    2.0754    magn:   -0.0002    constr:    0.0000
     atom:   25    charge:    2.0867    magn:    0.0000    constr:    0.0000
     atom:   26    charge:    3.1127    magn:   -0.0002    constr:    0.0000
     atom:   27    charge:    2.0803    magn:    0.0025    constr:    0.0000
     atom:   28    charge:    2.0839    magn:    0.0006    constr:    0.0000
     atom:   29    charge:    2.0860    magn:    0.0008    constr:    0.0000
     atom:   30    charge:    3.1171    magn:   -0.0008    constr:    0.0000
     atom:   31    charge:    2.0826    magn:    0.0006    constr:    0.0000
     atom:   32    charge:    2.0829    magn:    0.0064    constr:    0.0000
     atom:   33    charge:    2.0624    magn:    0.0018    constr:    0.0000
     atom:   34    charge:    3.1239    magn:   -0.0001    constr:    0.0000
     atom:   35    charge:    2.0876    magn:    0.0001    constr:    0.0000
     atom:   36    charge:    2.0847    magn:    0.0002    constr:    0.0000
     atom:   37    charge:    2.0847    magn:    0.0002    constr:    0.0000
     atom:   38    charge:    3.1200    magn:    0.0000    constr:    0.0000
     atom:   39    charge:    2.0839    magn:    0.0002    constr:    0.0000
     atom:   40    charge:    2.0756    magn:   -0.0003    constr:    0.0000
     atom:   41    charge:    2.0870    magn:   -0.0000    constr:    0.0000
     atom:   42    charge:    3.1151    magn:   -0.0002    constr:    0.0000
     atom:   43    charge:    2.0803    magn:    0.0030    constr:    0.0000
     atom:   44    charge:    2.0851    magn:    0.0008    constr:    0.0000
     atom:   45    charge:    2.0859    magn:    0.0004    constr:    0.0000
     atom:   46    charge:    3.1147    magn:   -0.0007    constr:    0.0000
     atom:   47    charge:    2.0807    magn:    0.0046    constr:    0.0000
     atom:   48    charge:    2.0838    magn:    0.0136    constr:    0.0000
     atom:   49    charge:    2.0518    magn:    0.2396    constr:    0.0000
     atom:   50    charge:    0.6703    magn:    0.0548    constr:    0.0000
     atom:   51    charge:    0.4222    magn:    0.0009    constr:    0.0000
     atom:   52    charge:    0.4129    magn:    0.0008    constr:    0.0000
     atom:   53    charge:    0.3674    magn:    0.0234    constr:    0.0000
     atom:   54    charge:    0.4230    magn:    0.0006    constr:    0.0000

     total cpu time spent up to now is     1238.5 secs

     total energy              =   -3021.14970721 Ry
     Harris-Foulkes estimate   =   -3021.14991771 Ry
     estimated scf accuracy    <       0.00202386 Ry

     total magnetization       =     1.06 Bohr mag/cell
     absolute magnetization    =     1.23 Bohr mag/cell

     iteration #  2     ecut=    40.42 Ry     beta=0.10
     Davidson diagonalization with overlap
     ethr =  5.09E-07,  avg # of iterations =  1.9

     negative rho (up, down):  1.189E-02 1.195E-02
 
     Magnetic moment per site:
     atom:    1    charge:    3.1244    magn:   -0.0003    constr:    0.0000
     atom:    2    charge:    2.0897    magn:    0.0003    constr:    0.0000
     atom:    3    charge:    3.1198    magn:   -0.0000    constr:    0.0000
     atom:    4    charge:    2.0867    magn:   -0.0001    constr:    0.0000
     atom:    5    charge:    3.1161    magn:   -0.0002    constr:    0.0000
     atom:    6    charge:    2.0795    magn:    0.0021    constr:    0.0000
     atom:    7    charge:    3.1167    magn:   -0.0052    constr:    0.0000
     atom:    8    charge:    2.0793    magn:    0.0248    constr:    0.0000
     atom:    9    charge:    3.1244    magn:   -0.0003    constr:    0.0000
     atom:   10    charge:    2.0899    magn:    0.0003    constr:    0.0000
     atom:   11    charge:    3.1198    magn:   -0.0000    constr:    0.0000
     atom:   12    charge:    2.0871    magn:   -0.0000    constr:    0.0000
     atom:   13    charge:    3.1150    magn:   -0.0002    constr:    0.0000
     atom:   14    charge:    2.0939    magn:    0.0022    constr:    0.0000
     atom:   15    charge:    3.1184    magn:   -0.0008    constr:    0.0000
     atom:   16    charge:    2.0828    magn:    0.0046    constr:    0.0000
     atom:   17    charge:    2.0626    magn:    0.0017    constr:    0.0000
     atom:   18    charge:    3.1240    magn:   -0.0001    constr:    0.0000
     atom:   19    charge:    2.0875    magn:    0.0001    constr:    0.0000
     atom:   20    charge:    2.0847    magn:    0.0002    constr:    0.0000
     atom:   21    charge:    2.0847    magn:    0.0002    constr:    0.0000
     atom:   22    charge:    3.1199    magn:    0.0000    constr:    0.0000
     atom:   23    charge:    2.0908    magn:    0.0002    constr:    0.0000
     atom:   24    charge:    2.0754    magn:   -0.0002    constr:    0.0000
     atom:   25    charge:    2.0867    magn:    0.0000    constr:    0.0000
     atom:   26    charge:    3.1127    magn:   -0.0002    constr:    0.0000
     atom:   27    charge:    2.0802    magn:    0.0025    constr:    0.0000
     atom:   28    charge:    2.0839    magn:    0.0006    constr:    0.0000
     atom:   29    charge:    2.0860    magn:    0.0008    constr:    0.0000
     atom:   30    charge:    3.1171    magn:   -0.0008    constr:    0.0000
     atom:   31    charge:    2.0826    magn:    0.0006    constr:    0.0000
     atom:   32    charge:    2.0829    magn:    0.0065    constr:    0.0000
     atom:   33    charge:    2.0625    magn:    0.0018    constr:    0.0000
     atom:   34    charge:    3.1239    magn:   -0.0001    constr:    0.0000
     atom:   35    charge:    2.0876    magn:    0.0001    constr:    0.0000
     atom:   36    charge:    2.0847    magn:    0.0002    constr:    0.0000
     atom:   37    charge:    2.0847    magn:    0.0002    constr:    0.0000
     atom:   38    charge:    3.1200    magn:    0.0000    constr:    0.0000
     atom:   39    charge:    2.0839    magn:    0.0002    constr:    0.0000
     atom:   40    charge:    2.0756    magn:   -0.0003    constr:    0.0000
     atom:   41    charge:    2.0870    magn:   -0.0000    constr:    0.0000
     atom:   42    charge:    3.1151    magn:   -0.0002    constr:    0.0000
     atom:   43    charge:    2.0802    magn:    0.0030    constr:    0.0000
     atom:   44    charge:    2.0851    magn:    0.0008    constr:    0.0000
     atom:   45    charge:    2.0858    magn:    0.0004    constr:    0.0000
     atom:   46    charge:    3.1147    magn:   -0.0007    constr:    0.0000
     atom:   47    charge:    2.0807    magn:    0.0046    constr:    0.0000
     atom:   48    charge:    2.0838    magn:    0.0136    constr:    0.0000
     atom:   49    charge:    2.0517    magn:    0.2396    constr:    0.0000
     atom:   50    charge:    0.6699    magn:    0.0548    constr:    0.0000
     atom:   51    charge:    0.4223    magn:    0.0009    constr:    0.0000
     atom:   52    charge:    0.4130    magn:    0.0008    constr:    0.0000
     atom:   53    charge:    0.3674    magn:    0.0234    constr:    0.0000
     atom:   54    charge:    0.4230    magn:    0.0007    constr:    0.0000

     total cpu time spent up to now is     1453.5 secs

     total energy              =   -3021.14961732 Ry
     Harris-Foulkes estimate   =   -3021.14974866 Ry
     estimated scf accuracy    <       0.00169962 Ry

     total magnetization       =     1.06 Bohr mag/cell
     absolute magnetization    =     1.23 Bohr mag/cell

     iteration #  3     ecut=    40.42 Ry     beta=0.10
     Davidson diagonalization with overlap
     ethr =  4.27E-07,  avg # of iterations =  1.1

     negative rho (up, down):  1.188E-02 1.195E-02
 
     Magnetic moment per site:
     atom:    1    charge:    3.1244    magn:   -0.0003    constr:    0.0000
     atom:    2    charge:    2.0897    magn:    0.0003    constr:    0.0000
     atom:    3    charge:    3.1198    magn:   -0.0000    constr:    0.0000
     atom:    4    charge:    2.0867    magn:   -0.0001    constr:    0.0000
     atom:    5    charge:    3.1161    magn:   -0.0002    constr:    0.0000
     atom:    6    charge:    2.0795    magn:    0.0021    constr:    0.0000
     atom:    7    charge:    3.1167    magn:   -0.0052    constr:    0.0000
     atom:    8    charge:    2.0793    magn:    0.0247    constr:    0.0000
     atom:    9    charge:    3.1244    magn:   -0.0003    constr:    0.0000
     atom:   10    charge:    2.0898    magn:    0.0003    constr:    0.0000
     atom:   11    charge:    3.1198    magn:   -0.0000    constr:    0.0000
     atom:   12    charge:    2.0871    magn:   -0.0000    constr:    0.0000
     atom:   13    charge:    3.1150    magn:   -0.0002    constr:    0.0000
     atom:   14    charge:    2.0939    magn:    0.0022    constr:    0.0000
     atom:   15    charge:    3.1184    magn:   -0.0008    constr:    0.0000
     atom:   16    charge:    2.0829    magn:    0.0046    constr:    0.0000
     atom:   17    charge:    2.0625    magn:    0.0016    constr:    0.0000
     atom:   18    charge:    3.1240    magn:   -0.0001    constr:    0.0000
     atom:   19    charge:    2.0875    magn:    0.0001    constr:    0.0000
     atom:   20    charge:    2.0847    magn:    0.0001    constr:    0.0000
     atom:   21    charge:    2.0847    magn:    0.0001    constr:    0.0000
     atom:   22    charge:    3.1199    magn:    0.0000    constr:    0.0000
     atom:   23    charge:    2.0908    magn:    0.0002    constr:    0.0000
     atom:   24    charge:    2.0754    magn:   -0.0001    constr:    0.0000
     atom:   25    charge:    2.0867    magn:    0.0000    constr:    0.0000
     atom:   26    charge:    3.1127    magn:   -0.0002    constr:    0.0000
     atom:   27    charge:    2.0802    magn:    0.0025    constr:    0.0000
     atom:   28    charge:    2.0839    magn:    0.0006    constr:    0.0000
     atom:   29    charge:    2.0860    magn:    0.0008    constr:    0.0000
     atom:   30    charge:    3.1171    magn:   -0.0008    constr:    0.0000
     atom:   31    charge:    2.0827    magn:    0.0006    constr:    0.0000
     atom:   32    charge:    2.0829    magn:    0.0064    constr:    0.0000
     atom:   33    charge:    2.0625    magn:    0.0016    constr:    0.0000
     atom:   34    charge:    3.1239    magn:   -0.0001    constr:    0.0000
     atom:   35    charge:    2.0875    magn:    0.0001    constr:    0.0000
     atom:   36    charge:    2.0847    magn:    0.0001    constr:    0.0000
     atom:   37    charge:    2.0847    magn:    0.0001    constr:    0.0000
     atom:   38    charge:    3.1200    magn:    0.0000    constr:    0.0000
     atom:   39    charge:    2.0839    magn:    0.0002    constr:    0.0000
     atom:   40    charge:    2.0756    magn:   -0.0002    constr:    0.0000
     atom:   41    charge:    2.0870    magn:   -0.0000    constr:    0.0000
     atom:   42    charge:    3.1151    magn:   -0.0002    constr:    0.0000
     atom:   43    charge:    2.0803    magn:    0.0030    constr:    0.0000
     atom:   44    charge:    2.0851    magn:    0.0009    constr:    0.0000
     atom:   45    charge:    2.0858    magn:    0.0004    constr:    0.0000
     atom:   46    charge:    3.1148    magn:   -0.0007    constr:    0.0000
     atom:   47    charge:    2.0808    magn:    0.0046    constr:    0.0000
     atom:   48    charge:    2.0838    magn:    0.0135    constr:    0.0000
     atom:   49    charge:    2.0518    magn:    0.2394    constr:    0.0000
     atom:   50    charge:    0.6678    magn:    0.0548    constr:    0.0000
     atom:   51    charge:    0.4228    magn:    0.0009    constr:    0.0000
     atom:   52    charge:    0.4132    magn:    0.0008    constr:    0.0000
     atom:   53    charge:    0.3673    magn:    0.0236    constr:    0.0000
     atom:   54    charge:    0.4229    magn:    0.0007    constr:    0.0000

     total cpu time spent up to now is     1655.8 secs

     total energy              =   -3021.14939278 Ry
     Harris-Foulkes estimate   =   -3021.14969272 Ry
     estimated scf accuracy    <       0.00189482 Ry

     total magnetization       =     1.06 Bohr mag/cell
     absolute magnetization    =     1.23 Bohr mag/cell

     iteration #  4     ecut=    40.42 Ry     beta=0.10
     Davidson diagonalization with overlap
     ethr =  4.27E-07,  avg # of iterations =  3.0

     negative rho (up, down):  1.188E-02 1.194E-02
 
     Magnetic moment per site:
     atom:    1    charge:    3.1244    magn:   -0.0003    constr:    0.0000
     atom:    2    charge:    2.0897    magn:    0.0003    constr:    0.0000
     atom:    3    charge:    3.1198    magn:   -0.0000    constr:    0.0000
     atom:    4    charge:    2.0867    magn:   -0.0001    constr:    0.0000
     atom:    5    charge:    3.1161    magn:   -0.0002    constr:    0.0000
     atom:    6    charge:    2.0795    magn:    0.0021    constr:    0.0000
     atom:    7    charge:    3.1167    magn:   -0.0052    constr:    0.0000
     atom:    8    charge:    2.0792    magn:    0.0248    constr:    0.0000
     atom:    9    charge:    3.1244    magn:   -0.0003    constr:    0.0000
     atom:   10    charge:    2.0898    magn:    0.0003    constr:    0.0000
     atom:   11    charge:    3.1198    magn:   -0.0000    constr:    0.0000
     atom:   12    charge:    2.0871    magn:   -0.0000    constr:    0.0000
     atom:   13    charge:    3.1150    magn:   -0.0002    constr:    0.0000
     atom:   14    charge:    2.0939    magn:    0.0022    constr:    0.0000
     atom:   15    charge:    3.1184    magn:   -0.0008    constr:    0.0000
     atom:   16    charge:    2.0828    magn:    0.0046    constr:    0.0000
     atom:   17    charge:    2.0624    magn:    0.0015    constr:    0.0000
     atom:   18    charge:    3.1239    magn:   -0.0001    constr:    0.0000
     atom:   19    charge:    2.0875    magn:    0.0001    constr:    0.0000
     atom:   20    charge:    2.0847    magn:    0.0001    constr:    0.0000
     atom:   21    charge:    2.0847    magn:    0.0001    constr:    0.0000
     atom:   22    charge:    3.1199    magn:    0.0000    constr:    0.0000
     atom:   23    charge:    2.0908    magn:    0.0002    constr:    0.0000
     atom:   24    charge:    2.0754    magn:   -0.0001    constr:    0.0000
     atom:   25    charge:    2.0867    magn:    0.0000    constr:    0.0000
     atom:   26    charge:    3.1127    magn:   -0.0002    constr:    0.0000
     atom:   27    charge:    2.0802    magn:    0.0025    constr:    0.0000
     atom:   28    charge:    2.0839    magn:    0.0006    constr:    0.0000
     atom:   29    charge:    2.0860    magn:    0.0008    constr:    0.0000
     atom:   30    charge:    3.1171    magn:   -0.0008    constr:    0.0000
     atom:   31    charge:    2.0826    magn:    0.0006    constr:    0.0000
     atom:   32    charge:    2.0829    magn:    0.0065    constr:    0.0000
     atom:   33    charge:    2.0624    magn:    0.0015    constr:    0.0000
     atom:   34    charge:    3.1239    magn:   -0.0001    constr:    0.0000
     atom:   35    charge:    2.0876    magn:    0.0001    constr:    0.0000
     atom:   36    charge:    2.0847    magn:    0.0001    constr:    0.0000
     atom:   37    charge:    2.0847    magn:    0.0001    constr:    0.0000
     atom:   38    charge:    3.1200    magn:    0.0000    constr:    0.0000
     atom:   39    charge:    2.0839    magn:    0.0002    constr:    0.0000
     atom:   40    charge:    2.0756    magn:   -0.0002    constr:    0.0000
     atom:   41    charge:    2.0870    magn:   -0.0000    constr:    0.0000
     atom:   42    charge:    3.1151    magn:   -0.0002    constr:    0.0000
     atom:   43    charge:    2.0802    magn:    0.0030    constr:    0.0000
     atom:   44    charge:    2.0851    magn:    0.0009    constr:    0.0000
     atom:   45    charge:    2.0858    magn:    0.0004    constr:    0.0000
     atom:   46    charge:    3.1148    magn:   -0.0007    constr:    0.0000
     atom:   47    charge:    2.0807    magn:    0.0046    constr:    0.0000
     atom:   48    charge:    2.0837    magn:    0.0135    constr:    0.0000
     atom:   49    charge:    2.0517    magn:    0.2395    constr:    0.0000
     atom:   50    charge:    0.6680    magn:    0.0547    constr:    0.0000
     atom:   51    charge:    0.4227    magn:    0.0009    constr:    0.0000
     atom:   52    charge:    0.4132    magn:    0.0008    constr:    0.0000
     atom:   53    charge:    0.3674    magn:    0.0235    constr:    0.0000
     atom:   54    charge:    0.4228    magn:    0.0007    constr:    0.0000

     total cpu time spent up to now is     1893.5 secs

     total energy              =   -3021.14949713 Ry
     Harris-Foulkes estimate   =   -3021.14951625 Ry
     estimated scf accuracy    <       0.00026645 Ry

     total magnetization       =     1.06 Bohr mag/cell
     absolute magnetization    =     1.23 Bohr mag/cell

     iteration #  5     ecut=    40.42 Ry     beta=0.10
     Davidson diagonalization with overlap
     ethr =  6.69E-08,  avg # of iterations =  1.0

     negative rho (up, down):  1.188E-02 1.194E-02
 
     Magnetic moment per site:
     atom:    1    charge:    3.1244    magn:   -0.0002    constr:    0.0000
     atom:    2    charge:    2.0897    magn:    0.0002    constr:    0.0000
     atom:    3    charge:    3.1198    magn:   -0.0000    constr:    0.0000
     atom:    4    charge:    2.0867    magn:   -0.0001    constr:    0.0000
     atom:    5    charge:    3.1161    magn:   -0.0002    constr:    0.0000
     atom:    6    charge:    2.0795    magn:    0.0021    constr:    0.0000
     atom:    7    charge:    3.1166    magn:   -0.0053    constr:    0.0000
     atom:    8    charge:    2.0791    magn:    0.0249    constr:    0.0000
     atom:    9    charge:    3.1244    magn:   -0.0002    constr:    0.0000
     atom:   10    charge:    2.0898    magn:    0.0002    constr:    0.0000
     atom:   11    charge:    3.1198    magn:   -0.0000    constr:    0.0000
     atom:   12    charge:    2.0870    magn:   -0.0000    constr:    0.0000
     atom:   13    charge:    3.1150    magn:   -0.0002    constr:    0.0000
     atom:   14    charge:    2.0939    magn:    0.0022    constr:    0.0000
     atom:   15    charge:    3.1184    magn:   -0.0008    constr:    0.0000
     atom:   16    charge:    2.0828    magn:    0.0046    constr:    0.0000
     atom:   17    charge:    2.0624    magn:    0.0014    constr:    0.0000
     atom:   18    charge:    3.1239    magn:   -0.0001    constr:    0.0000
     atom:   19    charge:    2.0875    magn:    0.0001    constr:    0.0000
     atom:   20    charge:    2.0847    magn:    0.0001    constr:    0.0000
     atom:   21    charge:    2.0847    magn:    0.0001    constr:    0.0000
     atom:   22    charge:    3.1199    magn:    0.0000    constr:    0.0000
     atom:   23    charge:    2.0908    magn:    0.0002    constr:    0.0000
     atom:   24    charge:    2.0754    magn:   -0.0001    constr:    0.0000
     atom:   25    charge:    2.0867    magn:    0.0000    constr:    0.0000
     atom:   26    charge:    3.1127    magn:   -0.0002    constr:    0.0000
     atom:   27    charge:    2.0803    magn:    0.0026    constr:    0.0000
     atom:   28    charge:    2.0839    magn:    0.0007    constr:    0.0000
     atom:   29    charge:    2.0860    magn:    0.0008    constr:    0.0000
     atom:   30    charge:    3.1171    magn:   -0.0008    constr:    0.0000
     atom:   31    charge:    2.0825    magn:    0.0006    constr:    0.0000
     atom:   32    charge:    2.0829    magn:    0.0065    constr:    0.0000
     atom:   33    charge:    2.0624    magn:    0.0014    constr:    0.0000
     atom:   34    charge:    3.1239    magn:   -0.0001    constr:    0.0000
     atom:   35    charge:    2.0876    magn:    0.0001    constr:    0.0000
     atom:   36    charge:    2.0847    magn:    0.0001    constr:    0.0000
     atom:   37    charge:    2.0847    magn:    0.0001    constr:    0.0000
     atom:   38    charge:    3.1200    magn:    0.0000    constr:    0.0000
     atom:   39    charge:    2.0839    magn:    0.0002    constr:    0.0000
     atom:   40    charge:    2.0756    magn:   -0.0002    constr:    0.0000
     atom:   41    charge:    2.0870    magn:   -0.0000    constr:    0.0000
     atom:   42    charge:    3.1151    magn:   -0.0002    constr:    0.0000
     atom:   43    charge:    2.0803    magn:    0.0031    constr:    0.0000
     atom:   44    charge:    2.0851    magn:    0.0009    constr:    0.0000
     atom:   45    charge:    2.0858    magn:    0.0005    constr:    0.0000
     atom:   46    charge:    3.1148    magn:   -0.0007    constr:    0.0000
     atom:   47    charge:    2.0805    magn:    0.0046    constr:    0.0000
     atom:   48    charge:    2.0836    magn:    0.0136    constr:    0.0000
     atom:   49    charge:    2.0515    magn:    0.2397    constr:    0.0000
     atom:   50    charge:    0.6684    magn:    0.0546    constr:    0.0000
     atom:   51    charge:    0.4226    magn:    0.0009    constr:    0.0000
     atom:   52    charge:    0.4131    magn:    0.0007    constr:    0.0000
     atom:   53    charge:    0.3676    magn:    0.0232    constr:    0.0000
     atom:   54    charge:    0.4227    magn:    0.0007    constr:    0.0000

     total cpu time spent up to now is     2093.5 secs

     total energy              =   -3021.14947854 Ry
     Harris-Foulkes estimate   =   -3021.14950026 Ry
     estimated scf accuracy    <       0.00016200 Ry

     total magnetization       =     1.06 Bohr mag/cell
     absolute magnetization    =     1.23 Bohr mag/cell

     iteration #  6     ecut=    40.42 Ry     beta=0.10
     Davidson diagonalization with overlap
     ethr =  4.07E-08,  avg # of iterations =  2.1

     negative rho (up, down):  1.188E-02 1.194E-02
 
     Magnetic moment per site:
     atom:    1    charge:    3.1244    magn:   -0.0002    constr:    0.0000
     atom:    2    charge:    2.0897    magn:    0.0002    constr:    0.0000
     atom:    3    charge:    3.1198    magn:   -0.0000    constr:    0.0000
     atom:    4    charge:    2.0867    magn:   -0.0001    constr:    0.0000
     atom:    5    charge:    3.1161    magn:   -0.0002    constr:    0.0000
     atom:    6    charge:    2.0795    magn:    0.0021    constr:    0.0000
     atom:    7    charge:    3.1166    magn:   -0.0053    constr:    0.0000
     atom:    8    charge:    2.0792    magn:    0.0249    constr:    0.0000
     atom:    9    charge:    3.1244    magn:   -0.0002    constr:    0.0000
     atom:   10    charge:    2.0898    magn:    0.0002    constr:    0.0000
     atom:   11    charge:    3.1198    magn:   -0.0000    constr:    0.0000
     atom:   12    charge:    2.0870    magn:   -0.0000    constr:    0.0000
     atom:   13    charge:    3.1150    magn:   -0.0002    constr:    0.0000
     atom:   14    charge:    2.0939    magn:    0.0022    constr:    0.0000
     atom:   15    charge:    3.1184    magn:   -0.0008    constr:    0.0000
     atom:   16    charge:    2.0828    magn:    0.0047    constr:    0.0000
     atom:   17    charge:    2.0624    magn:    0.0013    constr:    0.0000
     atom:   18    charge:    3.1239    magn:   -0.0001    constr:    0.0000
     atom:   19    charge:    2.0876    magn:    0.0000    constr:    0.0000
     atom:   20    charge:    2.0847    magn:    0.0001    constr:    0.0000
     atom:   21    charge:    2.0847    magn:    0.0001    constr:    0.0000
     atom:   22    charge:    3.1199    magn:    0.0000    constr:    0.0000
     atom:   23    charge:    2.0908    magn:    0.0002    constr:    0.0000
     atom:   24    charge:    2.0754    magn:   -0.0001    constr:    0.0000
     atom:   25    charge:    2.0867    magn:    0.0000    constr:    0.0000
     atom:   26    charge:    3.1127    magn:   -0.0002    constr:    0.0000
     atom:   27    charge:    2.0803    magn:    0.0026    constr:    0.0000
     atom:   28    charge:    2.0839    magn:    0.0007    constr:    0.0000
     atom:   29    charge:    2.0860    magn:    0.0008    constr:    0.0000
     atom:   30    charge:    3.1171    magn:   -0.0008    constr:    0.0000
     atom:   31    charge:    2.0824    magn:    0.0006    constr:    0.0000
     atom:   32    charge:    2.0829    magn:    0.0065    constr:    0.0000
     atom:   33    charge:    2.0624    magn:    0.0013    constr:    0.0000
     atom:   34    charge:    3.1239    magn:   -0.0001    constr:    0.0000
     atom:   35    charge:    2.0876    magn:    0.0000    constr:    0.0000
     atom:   36    charge:    2.0847    magn:    0.0001    constr:    0.0000
     atom:   37    charge:    2.0847    magn:    0.0001    constr:    0.0000
     atom:   38    charge:    3.1200    magn:    0.0000    constr:    0.0000
     atom:   39    charge:    2.0839    magn:    0.0002    constr:    0.0000
     atom:   40    charge:    2.0756    magn:   -0.0002    constr:    0.0000
     atom:   41    charge:    2.0870    magn:   -0.0000    constr:    0.0000
     atom:   42    charge:    3.1151    magn:   -0.0002    constr:    0.0000
     atom:   43    charge:    2.0803    magn:    0.0031    constr:    0.0000
     atom:   44    charge:    2.0851    magn:    0.0009    constr:    0.0000
     atom:   45    charge:    2.0858    magn:    0.0005    constr:    0.0000
     atom:   46    charge:    3.1148    magn:   -0.0007    constr:    0.0000
     atom:   47    charge:    2.0805    magn:    0.0047    constr:    0.0000
     atom:   48    charge:    2.0836    magn:    0.0136    constr:    0.0000
     atom:   49    charge:    2.0515    magn:    0.2398    constr:    0.0000
     atom:   50    charge:    0.6684    magn:    0.0546    constr:    0.0000
     atom:   51    charge:    0.4226    magn:    0.0009    constr:    0.0000
     atom:   52    charge:    0.4131    magn:    0.0007    constr:    0.0000
     atom:   53    charge:    0.3676    magn:    0.0232    constr:    0.0000
     atom:   54    charge:    0.4227    magn:    0.0007    constr:    0.0000

     total cpu time spent up to now is     2314.7 secs

     total energy              =   -3021.14948887 Ry
     Harris-Foulkes estimate   =   -3021.14948816 Ry
     estimated scf accuracy    <       0.00003210 Ry

     total magnetization       =     1.06 Bohr mag/cell
     absolute magnetization    =     1.23 Bohr mag/cell

     iteration #  7     ecut=    40.42 Ry     beta=0.10
     Davidson diagonalization with overlap
     ethr =  8.07E-09,  avg # of iterations =  3.0

     negative rho (up, down):  1.188E-02 1.194E-02
 
     Magnetic moment per site:
     atom:    1    charge:    3.1244    magn:   -0.0002    constr:    0.0000
     atom:    2    charge:    2.0897    magn:    0.0002    constr:    0.0000
     atom:    3    charge:    3.1198    magn:   -0.0000    constr:    0.0000
     atom:    4    charge:    2.0867    magn:   -0.0001    constr:    0.0000
     atom:    5    charge:    3.1161    magn:   -0.0003    constr:    0.0000
     atom:    6    charge:    2.0795    magn:    0.0021    constr:    0.0000
     atom:    7    charge:    3.1167    magn:   -0.0053    constr:    0.0000
     atom:    8    charge:    2.0793    magn:    0.0250    constr:    0.0000
     atom:    9    charge:    3.1244    magn:   -0.0002    constr:    0.0000
     atom:   10    charge:    2.0898    magn:    0.0002    constr:    0.0000
     atom:   11    charge:    3.1198    magn:   -0.0000    constr:    0.0000
     atom:   12    charge:    2.0870    magn:   -0.0000    constr:    0.0000
     atom:   13    charge:    3.1150    magn:   -0.0002    constr:    0.0000
     atom:   14    charge:    2.0939    magn:    0.0022    constr:    0.0000
     atom:   15    charge:    3.1184    magn:   -0.0008    constr:    0.0000
     atom:   16    charge:    2.0828    magn:    0.0047    constr:    0.0000
     atom:   17    charge:    2.0624    magn:    0.0012    constr:    0.0000
     atom:   18    charge:    3.1239    magn:   -0.0000    constr:    0.0000
     atom:   19    charge:    2.0875    magn:    0.0000    constr:    0.0000
     atom:   20    charge:    2.0847    magn:    0.0001    constr:    0.0000
     atom:   21    charge:    2.0847    magn:    0.0001    constr:    0.0000
     atom:   22    charge:    3.1199    magn:    0.0000    constr:    0.0000
     atom:   23    charge:    2.0908    magn:    0.0003    constr:    0.0000
     atom:   24    charge:    2.0754    magn:   -0.0001    constr:    0.0000
     atom:   25    charge:    2.0867    magn:    0.0000    constr:    0.0000
     atom:   26    charge:    3.1127    magn:   -0.0003    constr:    0.0000
     atom:   27    charge:    2.0803    magn:    0.0026    constr:    0.0000
     atom:   28    charge:    2.0839    magn:    0.0007    constr:    0.0000
     atom:   29    charge:    2.0860    magn:    0.0009    constr:    0.0000
     atom:   30    charge:    3.1171    magn:   -0.0008    constr:    0.0000
     atom:   31    charge:    2.0824    magn:    0.0006    constr:    0.0000
     atom:   32    charge:    2.0829    magn:    0.0065    constr:    0.0000
     atom:   33    charge:    2.0624    magn:    0.0012    constr:    0.0000
     atom:   34    charge:    3.1239    magn:   -0.0000    constr:    0.0000
     atom:   35    charge:    2.0876    magn:    0.0000    constr:    0.0000
     atom:   36    charge:    2.0847    magn:    0.0001    constr:    0.0000
     atom:   37    charge:    2.0847    magn:    0.0001    constr:    0.0000
     atom:   38    charge:    3.1200    magn:    0.0000    constr:    0.0000
     atom:   39    charge:    2.0839    magn:    0.0002    constr:    0.0000
     atom:   40    charge:    2.0756    magn:   -0.0001    constr:    0.0000
     atom:   41    charge:    2.0870    magn:   -0.0000    constr:    0.0000
     atom:   42    charge:    3.1151    magn:   -0.0002    constr:    0.0000
     atom:   43    charge:    2.0803    magn:    0.0031    constr:    0.0000
     atom:   44    charge:    2.0851    magn:    0.0010    constr:    0.0000
     atom:   45    charge:    2.0858    magn:    0.0005    constr:    0.0000
     atom:   46    charge:    3.1147    magn:   -0.0007    constr:    0.0000
     atom:   47    charge:    2.0806    magn:    0.0047    constr:    0.0000
     atom:   48    charge:    2.0837    magn:    0.0136    constr:    0.0000
     atom:   49    charge:    2.0517    magn:    0.2398    constr:    0.0000
     atom:   50    charge:    0.6688    magn:    0.0546    constr:    0.0000
     atom:   51    charge:    0.4224    magn:    0.0009    constr:    0.0000
     atom:   52    charge:    0.4130    magn:    0.0007    constr:    0.0000
     atom:   53    charge:    0.3676    magn:    0.0231    constr:    0.0000
     atom:   54    charge:    0.4227    magn:    0.0008    constr:    0.0000

     total cpu time spent up to now is     2551.6 secs

     total energy              =   -3021.14948842 Ry
     Harris-Foulkes estimate   =   -3021.14949045 Ry
     estimated scf accuracy    <       0.00001110 Ry

     total magnetization       =     1.06 Bohr mag/cell
     absolute magnetization    =     1.23 Bohr mag/cell

     iteration #  8     ecut=    40.42 Ry     beta=0.10
     Davidson diagonalization with overlap
     ethr =  2.79E-09,  avg # of iterations =  3.0

     negative rho (up, down):  1.188E-02 1.194E-02
 
     Magnetic moment per site:
     atom:    1    charge:    3.1244    magn:   -0.0002    constr:    0.0000
     atom:    2    charge:    2.0897    magn:    0.0002    constr:    0.0000
     atom:    3    charge:    3.1198    magn:   -0.0000    constr:    0.0000
     atom:    4    charge:    2.0867    magn:   -0.0001    constr:    0.0000
     atom:    5    charge:    3.1161    magn:   -0.0003    constr:    0.0000
     atom:    6    charge:    2.0795    magn:    0.0021    constr:    0.0000
     atom:    7    charge:    3.1167    magn:   -0.0053    constr:    0.0000
     atom:    8    charge:    2.0793    magn:    0.0250    constr:    0.0000
     atom:    9    charge:    3.1244    magn:   -0.0002    constr:    0.0000
     atom:   10    charge:    2.0898    magn:    0.0002    constr:    0.0000
     atom:   11    charge:    3.1198    magn:   -0.0000    constr:    0.0000
     atom:   12    charge:    2.0870    magn:   -0.0000    constr:    0.0000
     atom:   13    charge:    3.1150    magn:   -0.0002    constr:    0.0000
     atom:   14    charge:    2.0939    magn:    0.0022    constr:    0.0000
     atom:   15    charge:    3.1184    magn:   -0.0008    constr:    0.0000
     atom:   16    charge:    2.0828    magn:    0.0047    constr:    0.0000
     atom:   17    charge:    2.0624    magn:    0.0011    constr:    0.0000
     atom:   18    charge:    3.1239    magn:   -0.0000    constr:    0.0000
     atom:   19    charge:    2.0875    magn:    0.0000    constr:    0.0000
     atom:   20    charge:    2.0847    magn:    0.0001    constr:    0.0000
     atom:   21    charge:    2.0847    magn:    0.0001    constr:    0.0000
     atom:   22    charge:    3.1199    magn:    0.0000    constr:    0.0000
     atom:   23    charge:    2.0908    magn:    0.0003    constr:    0.0000
     atom:   24    charge:    2.0754    magn:   -0.0000    constr:    0.0000
     atom:   25    charge:    2.0867    magn:    0.0000    constr:    0.0000
     atom:   26    charge:    3.1127    magn:   -0.0003    constr:    0.0000
     atom:   27    charge:    2.0802    magn:    0.0027    constr:    0.0000
     atom:   28    charge:    2.0839    magn:    0.0007    constr:    0.0000
     atom:   29    charge:    2.0860    magn:    0.0009    constr:    0.0000
     atom:   30    charge:    3.1171    magn:   -0.0008    constr:    0.0000
     atom:   31    charge:    2.0825    magn:    0.0006    constr:    0.0000
     atom:   32    charge:    2.0829    magn:    0.0065    constr:    0.0000
     atom:   33    charge:    2.0624    magn:    0.0011    constr:    0.0000
     atom:   34    charge:    3.1239    magn:   -0.0000    constr:    0.0000
     atom:   35    charge:    2.0875    magn:    0.0000    constr:    0.0000
     atom:   36    charge:    2.0847    magn:    0.0001    constr:    0.0000
     atom:   37    charge:    2.0847    magn:    0.0001    constr:    0.0000
     atom:   38    charge:    3.1200    magn:    0.0000    constr:    0.0000
     atom:   39    charge:    2.0839    magn:    0.0002    constr:    0.0000
     atom:   40    charge:    2.0756    magn:   -0.0001    constr:    0.0000
     atom:   41    charge:    2.0870    magn:   -0.0000    constr:    0.0000
     atom:   42    charge:    3.1151    magn:   -0.0002    constr:    0.0000
     atom:   43    charge:    2.0803    magn:    0.0032    constr:    0.0000
     atom:   44    charge:    2.0851    magn:    0.0010    constr:    0.0000
     atom:   45    charge:    2.0858    magn:    0.0005    constr:    0.0000
     atom:   46    charge:    3.1148    magn:   -0.0007    constr:    0.0000
     atom:   47    charge:    2.0806    magn:    0.0047    constr:    0.0000
     atom:   48    charge:    2.0837    magn:    0.0136    constr:    0.0000
     atom:   49    charge:    2.0517    magn:    0.2398    constr:    0.0000
     atom:   50    charge:    0.6688    magn:    0.0546    constr:    0.0000
     atom:   51    charge:    0.4224    magn:    0.0009    constr:    0.0000
     atom:   52    charge:    0.4130    magn:    0.0007    constr:    0.0000
     atom:   53    charge:    0.3676    magn:    0.0231    constr:    0.0000
     atom:   54    charge:    0.4227    magn:    0.0008    constr:    0.0000

     total cpu time spent up to now is     2792.0 secs

     total energy              =   -3021.14948953 Ry
     Harris-Foulkes estimate   =   -3021.14948956 Ry
     estimated scf accuracy    <       0.00000334 Ry

     total magnetization       =     1.06 Bohr mag/cell
     absolute magnetization    =     1.23 Bohr mag/cell

     iteration #  9     ecut=    40.42 Ry     beta=0.10
     Davidson diagonalization with overlap
     ethr =  8.39E-10,  avg # of iterations =  3.0

     negative rho (up, down):  1.188E-02 1.194E-02
 
     Magnetic moment per site:
     atom:    1    charge:    3.1244    magn:   -0.0002    constr:    0.0000
     atom:    2    charge:    2.0897    magn:    0.0001    constr:    0.0000
     atom:    3    charge:    3.1198    magn:   -0.0000    constr:    0.0000
     atom:    4    charge:    2.0867    magn:   -0.0001    constr:    0.0000
     atom:    5    charge:    3.1161    magn:   -0.0003    constr:    0.0000
     atom:    6    charge:    2.0795    magn:    0.0022    constr:    0.0000
     atom:    7    charge:    3.1167    magn:   -0.0053    constr:    0.0000
     atom:    8    charge:    2.0793    magn:    0.0250    constr:    0.0000
     atom:    9    charge:    3.1244    magn:   -0.0002    constr:    0.0000
     atom:   10    charge:    2.0898    magn:    0.0002    constr:    0.0000
     atom:   11    charge:    3.1198    magn:   -0.0000    constr:    0.0000
     atom:   12    charge:    2.0870    magn:   -0.0000    constr:    0.0000
     atom:   13    charge:    3.1150    magn:   -0.0002    constr:    0.0000
     atom:   14    charge:    2.0939    magn:    0.0022    constr:    0.0000
     atom:   15    charge:    3.1184    magn:   -0.0008    constr:    0.0000
     atom:   16    charge:    2.0828    magn:    0.0047    constr:    0.0000
     atom:   17    charge:    2.0624    magn:    0.0010    constr:    0.0000
     atom:   18    charge:    3.1239    magn:   -0.0000    constr:    0.0000
     atom:   19    charge:    2.0875    magn:    0.0000    constr:    0.0000
     atom:   20    charge:    2.0847    magn:    0.0001    constr:    0.0000
     atom:   21    charge:    2.0847    magn:    0.0001    constr:    0.0000
     atom:   22    charge:    3.1199    magn:    0.0000    constr:    0.0000
     atom:   23    charge:    2.0908    magn:    0.0003    constr:    0.0000
     atom:   24    charge:    2.0754    magn:   -0.0000    constr:    0.0000
     atom:   25    charge:    2.0867    magn:    0.0000    constr:    0.0000
     atom:   26    charge:    3.1127    magn:   -0.0003    constr:    0.0000
     atom:   27    charge:    2.0802    magn:    0.0027    constr:    0.0000
     atom:   28    charge:    2.0839    magn:    0.0008    constr:    0.0000
     atom:   29    charge:    2.0860    magn:    0.0009    constr:    0.0000
     atom:   30    charge:    3.1171    magn:   -0.0008    constr:    0.0000
     atom:   31    charge:    2.0825    magn:    0.0006    constr:    0.0000
     atom:   32    charge:    2.0829    magn:    0.0065    constr:    0.0000
     atom:   33    charge:    2.0624    magn:    0.0010    constr:    0.0000
     atom:   34    charge:    3.1239    magn:   -0.0000    constr:    0.0000
     atom:   35    charge:    2.0875    magn:    0.0000    constr:    0.0000
     atom:   36    charge:    2.0847    magn:    0.0001    constr:    0.0000
     atom:   37    charge:    2.0847    magn:    0.0001    constr:    0.0000
     atom:   38    charge:    3.1200    magn:    0.0000    constr:    0.0000
     atom:   39    charge:    2.0839    magn:    0.0002    constr:    0.0000
     atom:   40    charge:    2.0756    magn:   -0.0001    constr:    0.0000
     atom:   41    charge:    2.0870    magn:   -0.0000    constr:    0.0000
     atom:   42    charge:    3.1151    magn:   -0.0002    constr:    0.0000
     atom:   43    charge:    2.0803    magn:    0.0032    constr:    0.0000
     atom:   44    charge:    2.0851    magn:    0.0010    constr:    0.0000
     atom:   45    charge:    2.0858    magn:    0.0005    constr:    0.0000
     atom:   46    charge:    3.1148    magn:   -0.0007    constr:    0.0000
     atom:   47    charge:    2.0807    magn:    0.0047    constr:    0.0000
     atom:   48    charge:    2.0837    magn:    0.0137    constr:    0.0000
     atom:   49    charge:    2.0518    magn:    0.2399    constr:    0.0000
     atom:   50    charge:    0.6690    magn:    0.0546    constr:    0.0000
     atom:   51    charge:    0.4223    magn:    0.0009    constr:    0.0000
     atom:   52    charge:    0.4129    magn:    0.0007    constr:    0.0000
     atom:   53    charge:    0.3675    magn:    0.0231    constr:    0.0000
     atom:   54    charge:    0.4228    magn:    0.0008    constr:    0.0000

     total cpu time spent up to now is     3030.8 secs

     total energy              =   -3021.14948949 Ry
     Harris-Foulkes estimate   =   -3021.14948986 Ry
     estimated scf accuracy    <       0.00000140 Ry

     total magnetization       =     1.06 Bohr mag/cell
     absolute magnetization    =     1.23 Bohr mag/cell

     iteration # 10     ecut=    40.42 Ry     beta=0.10
     Davidson diagonalization with overlap
     ethr =  3.52E-10,  avg # of iterations =  3.1

     negative rho (up, down):  1.188E-02 1.194E-02
 
     Magnetic moment per site:
     atom:    1    charge:    3.1244    magn:   -0.0001    constr:    0.0000
     atom:    2    charge:    2.0897    magn:    0.0001    constr:    0.0000
     atom:    3    charge:    3.1198    magn:   -0.0000    constr:    0.0000
     atom:    4    charge:    2.0867    magn:   -0.0001    constr:    0.0000
     atom:    5    charge:    3.1161    magn:   -0.0003    constr:    0.0000
     atom:    6    charge:    2.0795    magn:    0.0022    constr:    0.0000
     atom:    7    charge:    3.1167    magn:   -0.0053    constr:    0.0000
     atom:    8    charge:    2.0793    magn:    0.0250    constr:    0.0000
     atom:    9    charge:    3.1244    magn:   -0.0001    constr:    0.0000
     atom:   10    charge:    2.0898    magn:    0.0001    constr:    0.0000
     atom:   11    charge:    3.1198    magn:   -0.0000    constr:    0.0000
     atom:   12    charge:    2.0870    magn:   -0.0000    constr:    0.0000
     atom:   13    charge:    3.1150    magn:   -0.0002    constr:    0.0000
     atom:   14    charge:    2.0939    magn:    0.0023    constr:    0.0000
     atom:   15    charge:    3.1184    magn:   -0.0008    constr:    0.0000
     atom:   16    charge:    2.0828    magn:    0.0047    constr:    0.0000
     atom:   17    charge:    2.0624    magn:    0.0007    constr:    0.0000
     atom:   18    charge:    3.1239    magn:   -0.0000    constr:    0.0000
     atom:   19    charge:    2.0876    magn:    0.0000    constr:    0.0000
     atom:   20    charge:    2.0847    magn:    0.0001    constr:    0.0000
     atom:   21    charge:    2.0847    magn:    0.0001    constr:    0.0000
     atom:   22    charge:    3.1199    magn:    0.0000    constr:    0.0000
     atom:   23    charge:    2.0908    magn:    0.0003    constr:    0.0000
     atom:   24    charge:    2.0754    magn:   -0.0000    constr:    0.0000
     atom:   25    charge:    2.0867    magn:    0.0000    constr:    0.0000
     atom:   26    charge:    3.1127    magn:   -0.0003    constr:    0.0000
     atom:   27    charge:    2.0803    magn:    0.0027    constr:    0.0000
     atom:   28    charge:    2.0839    magn:    0.0008    constr:    0.0000
     atom:   29    charge:    2.0860    magn:    0.0009    constr:    0.0000
     atom:   30    charge:    3.1171    magn:   -0.0008    constr:    0.0000
     atom:   31    charge:    2.0825    magn:    0.0006    constr:    0.0000
     atom:   32    charge:    2.0829    magn:    0.0065    constr:    0.0000
     atom:   33    charge:    2.0624    magn:    0.0008    constr:    0.0000
     atom:   34    charge:    3.1239    magn:   -0.0000    constr:    0.0000
     atom:   35    charge:    2.0876    magn:    0.0000    constr:    0.0000
     atom:   36    charge:    2.0847    magn:    0.0001    constr:    0.0000
     atom:   37    charge:    2.0847    magn:    0.0001    constr:    0.0000
     atom:   38    charge:    3.1200    magn:    0.0000    constr:    0.0000
     atom:   39    charge:    2.0839    magn:    0.0002    constr:    0.0000
     atom:   40    charge:    2.0756    magn:   -0.0001    constr:    0.0000
     atom:   41    charge:    2.0870    magn:   -0.0000    constr:    0.0000
     atom:   42    charge:    3.1151    magn:   -0.0003    constr:    0.0000
     atom:   43    charge:    2.0803    magn:    0.0032    constr:    0.0000
     atom:   44    charge:    2.0851    magn:    0.0010    constr:    0.0000
     atom:   45    charge:    2.0858    magn:    0.0006    constr:    0.0000
     atom:   46    charge:    3.1148    magn:   -0.0007    constr:    0.0000
     atom:   47    charge:    2.0806    magn:    0.0047    constr:    0.0000
     atom:   48    charge:    2.0837    magn:    0.0137    constr:    0.0000
     atom:   49    charge:    2.0517    magn:    0.2399    constr:    0.0000
     atom:   50    charge:    0.6689    magn:    0.0546    constr:    0.0000
     atom:   51    charge:    0.4224    magn:    0.0009    constr:    0.0000
     atom:   52    charge:    0.4129    magn:    0.0007    constr:    0.0000
     atom:   53    charge:    0.3675    magn:    0.0231    constr:    0.0000
     atom:   54    charge:    0.4227    magn:    0.0008    constr:    0.0000

     total cpu time spent up to now is     3280.8 secs

     End of self-consistent calculation

 ------ SPIN UP ------------


          k = 0.0000 0.0000 0.0000 ( 34665 PWs)   bands (ev):

   -58.3075 -58.2725 -57.3896 -57.3839 -57.3509 -57.3132 -57.2618 -57.0927
   -57.0664 -57.0609 -57.0225 -56.9236 -56.8981 -56.8884 -56.8032 -56.7648
   -34.7528 -34.5761 -34.5474 -34.5141 -34.4191 -34.3623 -33.8846 -33.8722
   -33.7542 -33.6811 -33.6392 -33.5963 -33.5641 -33.5571 -33.5512 -33.5447
   -33.5330 -33.5182 -33.4928 -33.4913 -33.4769 -33.4748 -33.4725 -33.4534
   -33.3430 -33.3381 -33.3336 -33.3310 -33.3178 -33.2900 -33.2846 -33.2644
   -33.2442 -33.2388 -33.2386 -33.2293 -33.1995 -33.1787 -33.1431 -33.1422
   -33.1035 -33.0812 -33.0523 -33.0310 -33.0177 -32.9921 -32.9506 -32.8844
   -18.4729 -18.0401 -17.8158 -17.7153 -17.5549 -17.5333 -17.4894 -17.3877
   -17.3610 -17.2608 -17.0488 -17.0281 -17.0203 -16.9887 -16.9280 -16.8581
   -16.8391 -16.8016 -16.7437 -16.7116 -16.6928 -16.6603 -16.5965 -16.5922
   -16.4695 -16.4218 -16.4028 -16.3652 -16.3292 -16.1499 -16.0891 -15.6029
   -15.5421 -11.1532  -6.0514  -5.5003  -5.2862  -5.2062  -5.0974  -4.9952
    -4.9853  -4.9212  -4.8821  -4.7361  -4.6535  -4.6031  -4.5891  -4.5138
    -4.4325  -4.4173  -4.3559  -4.3198  -4.2356  -4.2223  -4.1979  -4.1456
    -4.0345  -4.0269  -3.9819  -3.9117  -3.8956  -3.8895  -3.8868  -3.8248
    -3.7802  -3.7547  -3.7216  -3.6371  -3.5982  -3.5766  -3.5439  -3.5313
    -3.5119  -3.4220  -3.4106  -3.3623  -3.2762  -3.2356  -3.1910  -3.0902
    -2.9239  -2.9002  -2.8543  -2.8054  -2.7492  -2.6971  -2.6755  -2.6645
    -2.6368  -2.5400  -2.4884  -2.4421  -2.3810  -2.3360  -2.2506  -2.2325
    -2.2282  -2.1633  -2.0723  -2.0444  -2.0026  -1.9626  -1.9330  -1.9018
    -1.8566  -1.7406  -1.6970  -1.6713  -1.6438  -1.6336  -1.5893  -1.5072
    -1.4239  -1.3702  -1.3559  -1.3408  -1.3168  -1.2719  -1.2271  -1.1736
    -1.1629  -1.1136  -1.1113  -1.0966  -1.0669  -0.9832  -0.8764  -0.8359
    -0.8115  -0.6963  -0.6901  -0.6272  -0.5552  -0.5139  -0.4863  -0.1897
     1.0233   1.1200   1.4149   1.6932   1.8014   1.9195   1.9667   2.0135
     2.0436   2.1308   2.2076   2.2282   2.2745   2.3932   2.4685   2.4823
     2.4894   2.5164   2.6192   2.6645   2.6693   2.6857   2.7082   2.8250
     2.8398   2.8843   2.8987   2.9513   2.9663   3.0193   3.0282   3.0494
     3.1034   3.1584   3.1967   3.1980   3.2455   3.2535   3.4093   3.4437
     3.4761   3.5184   3.5955   3.6242   3.6684   3.7123   3.8266   3.9539
     4.1017   4.1329   4.3243   4.4705   4.5921   4.7045   4.7824   4.8332
     5.0835   5.1307   5.2083   5.3515   5.3957   5.4013   5.4243   5.4309
     5.4443   5.5204   5.5525   5.6600   5.7164   5.7333   5.9040   5.9186
     5.9536   6.0729   6.0919   6.1341   6.2157   6.2938   6.4201   6.4876
     6.5406   6.5634   6.7806   6.8120   7.2141   7.9178   8.1515   8.1749
     8.3459   8.3887   8.6153   8.7108   8.7512   8.9587   9.1488   9.2502
     9.2993   9.4436   9.6173

          k = 0.0000 0.0280 0.0000 ( 34717 PWs)   bands (ev):

   -58.3052 -58.2749 -57.3879 -57.3822 -57.3532 -57.3142 -57.2615 -57.0924
   -57.0664 -57.0592 -57.0245 -56.9213 -56.8983 -56.8908 -56.8007 -56.7673
   -34.7274 -34.5742 -34.5493 -34.5079 -34.4257 -34.3893 -33.8592 -33.8468
   -33.7334 -33.6748 -33.6330 -33.5937 -33.5710 -33.5535 -33.5455 -33.5374
   -33.5323 -33.5201 -33.5168 -33.4997 -33.4918 -33.4753 -33.4667 -33.4469
   -33.3374 -33.3316 -33.3181 -33.3157 -33.3117 -33.3066 -33.2821 -33.2627
   -33.2490 -33.2406 -33.2392 -33.2286 -33.2049 -33.2014 -33.1493 -33.1363
   -33.1154 -33.0777 -33.0585 -33.0310 -33.0174 -32.9969 -32.9780 -32.9130
   -18.4146 -17.9804 -17.7658 -17.6851 -17.6096 -17.5102 -17.4404 -17.3756
   -17.3297 -17.2915 -17.0998 -17.0072 -16.9989 -16.9778 -16.9306 -16.8795
   -16.7997 -16.7772 -16.7646 -16.7393 -16.7110 -16.6853 -16.6215 -16.5700
   -16.4835 -16.4471 -16.4096 -16.3885 -16.3614 -16.1687 -16.1307 -15.6170
   -15.5676 -11.1541  -5.9660  -5.4161  -5.2068  -5.1356  -5.0273  -4.9587
    -4.9287  -4.9002  -4.8111  -4.7328  -4.6719  -4.6571  -4.5301  -4.5192
    -4.4201  -4.3803  -4.3664  -4.3266  -4.2612  -4.2151  -4.2021  -4.1805
    -4.1032  -4.0706  -4.0201  -4.0026  -3.9817  -3.9745  -3.9252  -3.8557
    -3.8180  -3.7682  -3.7572  -3.7179  -3.6795  -3.6072  -3.5509  -3.4395
    -3.4039  -3.3244  -3.3041  -3.3038  -3.2711  -3.1265  -3.1074  -2.9481
    -2.9069  -2.8856  -2.8047  -2.7516  -2.7475  -2.7242  -2.6907  -2.6549
    -2.6014  -2.5207  -2.4610  -2.4455  -2.4185  -2.2827  -2.2585  -2.2263
    -2.2155  -2.1563  -2.1478  -2.0314  -1.9872  -1.9609  -1.9288  -1.9162
    -1.8769  -1.7706  -1.7613  -1.7222  -1.6836  -1.6135  -1.5855  -1.5752
    -1.5048  -1.4633  -1.3943  -1.3810  -1.3781  -1.3612  -1.2879  -1.2748
    -1.2383  -1.1780  -1.1498  -1.0730  -0.9964  -0.9565  -0.9314  -0.9000
    -0.8795  -0.8425  -0.7326  -0.6024  -0.5759  -0.5622  -0.5423  -0.2308
     1.1559   1.1610   1.4162   1.8295   1.8738   1.8914   1.9240   2.0003
     2.0587   2.0767   2.2979   2.3060   2.3389   2.4559   2.4919   2.5124
     2.5202   2.5420   2.5469   2.5954   2.7125   2.7301   2.8003   2.8116
     2.8336   2.8981   2.9344   2.9628   2.9793   2.9921   3.0131   3.0641
     3.0843   3.1206   3.1742   3.2327   3.2451   3.3256   3.4340   3.4748
     3.5107   3.5414   3.5632   3.5865   3.6417   3.6652   3.7849   3.9060
     4.0560   4.2002   4.2807   4.5238   4.7028   4.7058   4.8125   4.9082
     5.1103   5.1712   5.2542   5.3007   5.3708   5.4101   5.4328   5.4773
     5.5049   5.5325   5.5471   5.6592   5.7027   5.7117   5.8209   5.8819
     5.9446   5.9896   6.0356   6.0490   6.1787   6.2494   6.3865   6.4316
     6.4493   6.5527   6.7234   6.8149   7.3197   7.4518   7.9894   8.0634
     8.3423   8.4969   8.5219   8.6954   8.7790   8.9910   9.1002   9.3091
     9.3699   9.4467   9.5141

          k = 0.0000 0.0560 0.0000 ( 34721 PWs)   bands (ev):

   -58.2988 -58.2813 -57.3845 -57.3771 -57.3596 -57.3165 -57.2607 -57.0920
   -57.0668 -57.0547 -57.0295 -56.9149 -56.8988 -56.8972 -56.7940 -56.7740
   -34.6575 -34.5689 -34.5545 -34.4907 -34.4624 -34.4433 -33.7894 -33.7774
   -33.6827 -33.6579 -33.6163 -33.5941 -33.5934 -33.5875 -33.5728 -33.5694
   -33.5414 -33.5323 -33.5151 -33.4965 -33.4733 -33.4686 -33.4651 -33.4127
   -33.3720 -33.3274 -33.3249 -33.3097 -33.2836 -33.2736 -33.2582 -33.2580
   -33.2570 -33.2484 -33.2453 -33.2273 -33.2199 -33.2108 -33.1666 -33.1349
   -33.1201 -33.0751 -33.0749 -33.0519 -33.0305 -33.0173 -33.0089 -32.9835
   -18.2534 -17.8157 -17.7934 -17.6360 -17.6024 -17.4124 -17.3934 -17.3751
   -17.3098 -17.2674 -17.2329 -17.0466 -16.9902 -16.9230 -16.9193 -16.9021
   -16.8435 -16.8187 -16.7302 -16.7068 -16.7013 -16.6757 -16.6252 -16.5628
   -16.5163 -16.5108 -16.4551 -16.4431 -16.4164 -16.2342 -16.2112 -15.6455
   -15.6212 -11.1559  -5.7266  -5.1833  -5.0474  -4.9907  -4.9547  -4.9181
    -4.8502  -4.8342  -4.8169  -4.7729  -4.7350  -4.5555  -4.5099  -4.4672
    -4.3955  -4.3945  -4.3528  -4.3218  -4.3073  -4.2893  -4.2514  -4.2150
    -4.2105  -4.1931  -4.1320  -4.0600  -4.0162  -3.9753  -3.9671  -3.9098
    -3.8751  -3.8167  -3.7509  -3.6746  -3.6252  -3.5377  -3.4129  -3.4053
    -3.3651  -3.2866  -3.2475  -3.1365  -3.0905  -3.0721  -3.0403  -3.0128
    -2.9695  -2.9590  -2.8275  -2.7985  -2.7407  -2.6966  -2.6515  -2.5576
    -2.4848  -2.4762  -2.4425  -2.3563  -2.3037  -2.2982  -2.2231  -2.1898
    -2.1548  -2.1407  -2.1204  -2.0881  -2.0554  -2.0117  -1.9969  -1.9709
    -1.9351  -1.8932  -1.8830  -1.8624  -1.8143  -1.7537  -1.6585  -1.6084
    -1.5967  -1.5795  -1.5139  -1.4752  -1.4528  -1.4475  -1.4329  -1.3783
    -1.2937  -1.2729  -1.2164  -1.1969  -1.0914  -1.0057  -0.9801  -0.9459
    -0.8612  -0.8378  -0.7393  -0.7174  -0.6222  -0.5838  -0.5659  -0.3341
     1.2848   1.4266   1.4992   1.7204   1.7971   1.8901   1.9608   2.0585
     2.1390   2.2747   2.2799   2.3316   2.4156   2.4850   2.5042   2.5302
     2.5711   2.6105   2.6609   2.7077   2.7514   2.7687   2.7998   2.8482
     2.8637   2.8825   2.8924   2.9620   3.0085   3.0266   3.0356   3.0623
     3.1235   3.1567   3.1802   3.2585   3.3067   3.3381   3.3850   3.4330
     3.4706   3.4863   3.5619   3.6102   3.6730   3.6847   3.7243   3.8003
     3.9228   4.1579   4.3227   4.6511   4.7415   4.8417   4.9335   5.0715
     5.0773   5.1749   5.2810   5.3325   5.4008   5.4362   5.4695   5.4983
     5.4988   5.5606   5.5805   5.6466   5.6517   5.7522   5.7708   5.8111
     5.8444   5.8661   5.8872   5.9299   6.1162   6.1571   6.2958   6.3690
     6.4222   6.4416   6.7191   6.7474   6.9941   7.2065   7.6134   7.7459
     8.2028   8.3793   8.7044   8.8201   8.8286   8.8758   9.1752   9.3381
     9.4087   9.6052   9.7098

          k = 0.0000-0.0840 0.0000 ( 34678 PWs)   bands (ev):

   -58.2908 -58.2894 -57.3828 -57.3708 -57.3665 -57.3177 -57.2603 -57.0918
   -57.0672 -57.0513 -57.0329 -56.9064 -56.9057 -56.8990 -56.7872 -56.7808
   -34.5625 -34.5616 -34.5606 -34.5601 -34.4677 -34.4665 -33.7055 -33.6924
   -33.6888 -33.6500 -33.6487 -33.6429 -33.6113 -33.5952 -33.5911 -33.5803
   -33.5398 -33.5341 -33.5145 -33.5057 -33.4703 -33.4638 -33.4020 -33.3868
   -33.3823 -33.3663 -33.3287 -33.3242 -33.3066 -33.2758 -33.2627 -33.2538
   -33.2519 -33.2514 -33.2271 -33.2240 -33.1757 -33.1516 -33.1507 -33.1427
   -33.1291 -33.1267 -33.0980 -33.0974 -33.0309 -33.0226 -33.0197 -33.0138
   -18.0284 -18.0276 -17.5959 -17.5867 -17.5129 -17.4891 -17.4888 -17.3985
   -17.2616 -17.2209 -17.1333 -17.1079 -17.0759 -17.0408 -16.8958 -16.8482
   -16.8112 -16.8109 -16.8095 -16.6781 -16.6162 -16.6129 -16.6066 -16.5826
   -16.5510 -16.5285 -16.5107 -16.4784 -16.4693 -16.2766 -16.2526 -15.6547
   -15.6547 -11.1569  -5.3870  -5.3868  -4.9138  -4.8908  -4.8898  -4.8771
    -4.8550  -4.7733  -4.7617  -4.7226  -4.6620  -4.6075  -4.5703  -4.5636
    -4.4949  -4.4725  -4.4493  -4.3950  -4.3792  -4.2691  -4.2569  -4.2491
    -4.1618  -4.1198  -4.0698  -4.0343  -3.9963  -3.9046  -3.8867  -3.8608
    -3.7815  -3.7239  -3.6987  -3.6753  -3.6522  -3.6344  -3.6226  -3.4123
    -3.3625  -3.3489  -3.1503  -3.0803  -3.0746  -3.0320  -2.9315  -2.9297
    -2.9208  -2.8529  -2.8299  -2.7947  -2.7763  -2.6957  -2.6726  -2.6454
    -2.5244  -2.5056  -2.4233  -2.4067  -2.3988  -2.3768  -2.3140  -2.2438
    -2.2301  -2.1682  -2.1220  -2.0596  -2.0085  -1.9828  -1.9787  -1.9732
    -1.9688  -1.9444  -1.8412  -1.8015  -1.7813  -1.7313  -1.6951  -1.6597
    -1.6439  -1.6130  -1.5941  -1.5196  -1.5105  -1.4682  -1.4487  -1.4251
    -1.3845  -1.3340  -1.2813  -1.1810  -1.1406  -1.1193  -1.0936  -1.0664
    -0.8410  -0.8174  -0.6200  -0.6110  -0.6060  -0.5979  -0.5491  -0.5005
     1.4810   1.4837   1.6333   1.6340   1.7130   1.7138   2.0839   2.0847
     2.1478   2.2028   2.3735   2.4082   2.4448   2.4908   2.5386   2.5461
     2.6532   2.6651   2.6745   2.6882   2.7401   2.7507   2.8081   2.8110
     2.9108   2.9459   2.9896   3.0173   3.0223   3.0252   3.0317   3.0352
     3.0424   3.2236   3.2332   3.2638   3.2962   3.3383   3.3645   3.3947
     3.4319   3.4468   3.5017   3.6240   3.6942   3.7334   3.7479   3.7899
     3.8444   4.0350   4.3752   4.7554   4.8309   4.8646   4.8653   5.0512
     5.1428   5.2228   5.3134   5.3291   5.3636   5.4067   5.4671   5.5421
     5.5634   5.5954   5.5980   5.6854   5.6981   5.7173   5.7278   5.7414
     5.7668   5.8076   5.8409   5.9416   6.0232   6.1566   6.2761   6.3840
     6.4589   6.4748   6.5875   6.6080   6.9309   6.9837   7.4489   7.6134
     8.0373   8.2393   8.7154   8.9344   9.1132   9.2081   9.3461   9.3476
     9.4352   9.6134   9.7012

          k = 0.0253 0.0000 0.0000 ( 34707 PWs)   bands (ev):

   -58.3075 -58.2725 -57.3892 -57.3843 -57.3509 -57.3132 -57.2618 -57.0927
   -57.0661 -57.0611 -57.0225 -56.9237 -56.8981 -56.8884 -56.8032 -56.7648
   -34.7531 -34.5761 -34.5474 -34.5133 -34.4192 -34.3624 -33.8848 -33.8742
   -33.7544 -33.6733 -33.6391 -33.5964 -33.5675 -33.5575 -33.5534 -33.5449
   -33.5331 -33.5215 -33.4925 -33.4914 -33.4757 -33.4730 -33.4709 -33.4535
   -33.3430 -33.3391 -33.3315 -33.3302 -33.3147 -33.2900 -33.2846 -33.2656
   -33.2496 -33.2386 -33.2383 -33.2291 -33.1995 -33.1788 -33.1422 -33.1416
   -33.1031 -33.0812 -33.0524 -33.0351 -33.0167 -32.9921 -32.9507 -32.8845
   -18.4283 -18.0022 -17.7939 -17.7880 -17.5646 -17.4604 -17.4524 -17.3870
   -17.3654 -17.3246 -17.1100 -17.0416 -17.0167 -16.9831 -16.9307 -16.8955
   -16.8611 -16.7981 -16.7679 -16.7458 -16.6419 -16.5998 -16.5904 -16.5826
   -16.4677 -16.4469 -16.4033 -16.3871 -16.3268 -16.1482 -16.0892 -15.6019
   -15.5419 -11.1531  -5.9265  -5.3938  -5.2180  -5.2027  -5.0773  -5.0277
    -4.9735  -4.9247  -4.8833  -4.7381  -4.7014  -4.5869  -4.5832  -4.5157
    -4.4879  -4.4123  -4.3309  -4.2660  -4.2613  -4.2013  -4.1947  -4.1084
    -4.0330  -4.0002  -3.9932  -3.9185  -3.9030  -3.8613  -3.8514  -3.7999
    -3.7390  -3.7157  -3.6275  -3.6001  -3.5575  -3.5543  -3.5264  -3.4973
    -3.4441  -3.4183  -3.3219  -3.3172  -3.2769  -3.2607  -3.2403  -3.1545
    -3.0155  -2.9048  -2.8413  -2.8211  -2.7737  -2.7462  -2.7034  -2.6733
    -2.6146  -2.5612  -2.5428  -2.5007  -2.4381  -2.3847  -2.3358  -2.2692
    -2.2505  -2.2016  -2.0939  -2.0487  -2.0077  -1.9588  -1.8861  -1.8537
    -1.8303  -1.8012  -1.7157  -1.6278  -1.5818  -1.5739  -1.5481  -1.5121
    -1.4805  -1.4359  -1.4318  -1.3960  -1.3371  -1.3058  -1.2941  -1.2246
    -1.1894  -1.1586  -1.1086  -1.0851  -1.0448  -1.0257  -0.9592  -0.9145
    -0.8373  -0.8299  -0.6735  -0.6466  -0.6096  -0.5917  -0.5604  -0.2492
     1.1058   1.1204   1.4140   1.7808   1.8170   1.9021   1.9285   2.0476
     2.0835   2.1154   2.2019   2.2427   2.3360   2.3816   2.4397   2.5036
     2.5259   2.5946   2.6267   2.6459   2.6762   2.7012   2.8102   2.8244
     2.8444   2.8478   2.8893   2.8984   2.9435   3.0253   3.0734   3.1321
     3.1887   3.2006   3.2138   3.2155   3.2400   3.3074   3.4051   3.4407
     3.4867   3.5423   3.5907   3.6327   3.6977   3.7624   3.7836   3.9072
     4.0502   4.1890   4.2624   4.4238   4.5794   4.6218   4.8077   4.8262
     4.9583   4.9822   5.0853   5.1698   5.3023   5.3148   5.4262   5.5271
     5.5562   5.7076   5.7400   5.9033   5.9114   5.9365   5.9617   5.9847
     6.0219   6.0312   6.0680   6.1678   6.2267   6.2592   6.4383   6.4942
     6.5412   6.6159   6.7386   6.8084   7.2599   7.6692   7.7578   8.0231
     8.2249   8.2989   8.3790   8.6755   8.7574   8.9587   9.0966   9.2135
     9.4094   9.4928   9.7757

          k = 0.0253 0.0280 0.0000 ( 34687 PWs)   bands (ev):

   -58.3052 -58.2749 -57.3875 -57.3826 -57.3532 -57.3143 -57.2615 -57.0924
   -57.0662 -57.0594 -57.0245 -56.9213 -56.8983 -56.8908 -56.8007 -56.7673
   -34.7277 -34.5742 -34.5493 -34.5071 -34.4256 -34.3894 -33.8594 -33.8488
   -33.7335 -33.6672 -33.6330 -33.5939 -33.5681 -33.5539 -33.5506 -33.5408
   -33.5328 -33.5210 -33.5193 -33.4992 -33.4919 -33.4692 -33.4670 -33.4475
   -33.3376 -33.3275 -33.3180 -33.3174 -33.3080 -33.3064 -33.2821 -33.2637
   -33.2532 -33.2400 -33.2393 -33.2302 -33.2046 -33.2013 -33.1474 -33.1363
   -33.1157 -33.0777 -33.0585 -33.0331 -33.0177 -32.9969 -32.9780 -32.9130
   -18.3709 -17.9439 -17.7763 -17.7404 -17.5239 -17.5216 -17.4139 -17.3688
   -17.3519 -17.3203 -17.1144 -17.0713 -17.0003 -16.9693 -16.9200 -16.8782
   -16.8313 -16.8059 -16.7966 -16.7342 -16.6713 -16.6675 -16.6148 -16.5508
   -16.4891 -16.4667 -16.4116 -16.4068 -16.3584 -16.1669 -16.1313 -15.6160
   -15.5676 -11.1540  -5.8415  -5.3104  -5.1449  -5.1290  -4.9942  -4.9575
    -4.9280  -4.9076  -4.8224  -4.6987  -4.6778  -4.6366  -4.5345  -4.4989
    -4.4403  -4.4025  -4.3141  -4.2949  -4.2449  -4.2065  -4.1839  -4.1562
    -4.1278  -4.0959  -4.0333  -3.9978  -3.9550  -3.9416  -3.8999  -3.8234
    -3.7896  -3.7533  -3.7253  -3.6675  -3.6279  -3.6018  -3.5183  -3.4006
    -3.3464  -3.3245  -3.3144  -3.2679  -3.2372  -3.1919  -3.1180  -3.0972
    -2.9308  -2.8950  -2.8412  -2.7802  -2.7512  -2.7115  -2.6793  -2.6405
    -2.6113  -2.5241  -2.5015  -2.4718  -2.4520  -2.3844  -2.3310  -2.3063
    -2.2297  -2.1900  -2.1303  -2.0661  -2.0163  -1.9553  -1.9383  -1.9105
[...]
    -1.7312  -1.5085  -1.4666  -1.4557  -1.4371  -1.3997  -1.3206  -1.1567
    -1.1460  -1.0894  -1.0719  -1.0558  -0.9728  -0.9127  -0.8735  -0.7890
    -0.7354  -0.7285  -0.6996  -0.6721  -0.5970  -0.5753  -0.5615   0.2939
     1.6000   1.6034   1.6160   1.6214   1.9638   1.9647   2.0936   2.0946
     2.2771   2.2979   2.3112   2.3929   2.4160   2.4859   2.5724   2.6320
     2.6539   2.6985   2.7820   2.8153   2.8723   2.9241   2.9461   2.9741
     2.9887   2.9973   3.0383   3.0962   3.1106   3.2077   3.2333   3.2423
     3.2580   3.2819   3.3393   3.3854   3.3990   3.4043   3.4608   3.4718
     3.4820   3.5098   3.5243   3.5783   3.6355   3.6525   3.7750   3.8761
     3.9118   3.9221   4.1387   4.1392   4.5894   4.6182   4.6407   4.7261
     4.8813   4.8973   4.9301   5.0802   5.1591   5.1641   5.1834   5.4452
     5.6720   5.6809   5.6921   5.9248   5.9302   5.9640   6.0145   6.0174
     6.0923   6.1042   6.1733   6.2653   6.2692   6.2775   6.3814   6.4587
     6.4979   6.6046   7.0593   7.2193   7.3380   7.3997   7.5547   7.5918
     7.7177   7.7695   7.9218   8.1135   8.2983   8.3466   8.4480   8.8681
     9.0124   9.0715   9.2132

          k =-0.0253 0.0280 0.0000 ( 34687 PWs)   bands (ev):

   -58.3054 -58.2751 -57.3876 -57.3826 -57.3532 -57.3143 -57.2623 -57.0965
   -57.0675 -57.0606 -57.0257 -56.9227 -56.9221 -56.8915 -56.8043 -56.7709
   -34.7278 -34.5744 -34.5495 -34.5073 -34.4258 -34.3895 -33.8594 -33.8488
   -33.7344 -33.6672 -33.6329 -33.5940 -33.5681 -33.5540 -33.5505 -33.5416
   -33.5335 -33.5210 -33.5193 -33.4993 -33.4928 -33.4698 -33.4687 -33.4499
   -33.3384 -33.3292 -33.3214 -33.3187 -33.3129 -33.3077 -33.2836 -33.2644
   -33.2539 -33.2408 -33.2407 -33.2319 -33.2145 -33.2052 -33.1676 -33.1370
   -33.1342 -33.0811 -33.0592 -33.0407 -33.0218 -33.0002 -32.9788 -32.9157
   -18.3707 -17.9415 -17.7761 -17.7340 -17.5232 -17.5168 -17.3755 -17.3687
   -17.3453 -17.3156 -17.1119 -17.0690 -16.9843 -16.9392 -16.8732 -16.8306
   -16.7924 -16.7504 -16.7330 -16.6695 -16.6630 -16.5829 -16.5440 -16.4855
   -16.4614 -16.4056 -16.3661 -16.3482 -16.1564 -16.1219 -15.8821 -15.6124
   -15.5637 -10.7540  -5.8415  -5.3101  -5.1440  -5.1258  -4.9939  -4.9530
    -4.9141  -4.8250  -4.6987  -4.6779  -4.6368  -4.5365  -4.4986  -4.4421
    -4.4085  -4.3139  -4.2904  -4.2505  -4.1995  -4.1823  -4.1417  -4.1273
    -4.0938  -4.0473  -4.0092  -3.9919  -3.9537  -3.9136  -3.8810  -3.7993
    -3.7835  -3.7245  -3.6917  -3.6226  -3.6065  -3.5553  -3.4772  -3.3889
    -3.3449  -3.3207  -3.2841  -3.2635  -3.2242  -3.1813  -3.1123  -3.0967
    -2.9204  -2.8824  -2.8226  -2.7783  -2.7221  -2.6856  -2.6749  -2.6179
    -2.5875  -2.5095  -2.5001  -2.4429  -2.4088  -2.3589  -2.2886  -2.2662
    -2.2137  -2.1929  -2.1048  -2.0432  -1.9600  -1.9413  -1.9169  -1.8509
    -1.8399  -1.7918  -1.7461  -1.6856  -1.6364  -1.5958  -1.5630  -1.5112
    -1.4772  -1.4364  -1.4075  -1.3813  -1.3622  -1.3466  -1.3152  -1.2914
    -1.2060  -1.1254  -1.0644  -1.0113  -0.9879  -0.9544  -0.9301  -0.8856
    -0.8437  -0.8209  -0.6324  -0.6106  -0.5863  -0.5230  -0.2660   0.3179
     1.1518   1.2455   1.4295   1.8188   1.8582   1.9254   1.9618   2.0292
     2.0402   2.1893   2.3002   2.3459   2.3874   2.4306   2.4539   2.5039
     2.5241   2.5482   2.5891   2.6495   2.6975   2.7218   2.7774   2.8317
     2.8765   2.9138   2.9303   2.9736   2.9906   3.0144   3.0405   3.0933
     3.1703   3.1909   3.2333   3.2586   3.2943   3.3365   3.4297   3.4647
     3.4948   3.5579   3.6116   3.6423   3.6636   3.7439   3.8211   3.8652
     4.0122   4.2085   4.2846   4.4358   4.6245   4.7226   4.8437   4.8609
     5.0016   5.0254   5.1125   5.1981   5.2414   5.3566   5.4604   5.5481
     5.6603   5.6947   5.7145   5.8028   5.8495   5.8829   5.9091   5.9313
     5.9667   5.9893   6.0646   6.1248   6.1749   6.2820   6.3980   6.4483
     6.4619   6.5811   6.7524   6.8077   7.3768   7.4842   7.7909   7.8907
     8.0838   8.2282   8.4887   8.5322   8.7840   8.8917   9.0823   9.3050
     9.3731   9.5272   9.6111

          k =-0.0253 0.0560 0.0000 ( 34699 PWs)   bands (ev):

   -58.2990 -58.2815 -57.3843 -57.3773 -57.3596 -57.3166 -57.2615 -57.0960
   -57.0680 -57.0560 -57.0307 -56.9232 -56.9156 -56.8980 -56.7976 -56.7777
   -34.6579 -34.5691 -34.5547 -34.4903 -34.4627 -34.4432 -33.7896 -33.7796
   -33.6836 -33.6519 -33.6162 -33.5926 -33.5886 -33.5876 -33.5762 -33.5694
   -33.5431 -33.5331 -33.5198 -33.4978 -33.4849 -33.4673 -33.4569 -33.4158
   -33.3733 -33.3263 -33.3228 -33.3138 -33.2855 -33.2760 -33.2595 -33.2594
   -33.2585 -33.2491 -33.2457 -33.2325 -33.2227 -33.2162 -33.1829 -33.1634
   -33.1208 -33.0781 -33.0759 -33.0527 -33.0377 -33.0242 -33.0123 -32.9863
   -18.2129 -17.8030 -17.7812 -17.6125 -17.6012 -17.4571 -17.3946 -17.3707
   -17.2497 -17.2424 -17.2049 -17.0590 -16.9493 -16.9205 -16.8822 -16.8414
   -16.7986 -16.7448 -16.7341 -16.7188 -16.6846 -16.5988 -16.5491 -16.5323
   -16.5011 -16.4424 -16.4122 -16.4076 -16.2185 -16.2029 -15.8809 -15.6411
   -15.6175 -10.7559  -5.6063  -5.0827  -5.0251  -4.9571  -4.9247  -4.8183
    -4.7963  -4.7590  -4.6888  -4.6742  -4.5270  -4.5102  -4.4471  -4.3965
    -4.3786  -4.3703  -4.3218  -4.2780  -4.2512  -4.2411  -4.2059  -4.1741
    -4.1321  -4.1223  -4.0562  -4.0213  -3.9918  -3.9557  -3.9286  -3.8910
    -3.8301  -3.7969  -3.6912  -3.5969  -3.5651  -3.5233  -3.4480  -3.3852
    -3.3618  -3.2891  -3.1886  -3.1605  -3.1206  -3.1120  -3.0593  -3.0253
    -2.9828  -2.9279  -2.8435  -2.7939  -2.7632  -2.7050  -2.6097  -2.5891
    -2.5253  -2.5112  -2.4572  -2.3923  -2.3769  -2.3190  -2.3011  -2.2598
    -2.1886  -2.1366  -2.1222  -2.0897  -2.0495  -2.0076  -1.9862  -1.9494
    -1.9320  -1.9069  -1.8940  -1.8470  -1.7687  -1.7034  -1.6908  -1.5947
    -1.5734  -1.5452  -1.5193  -1.4857  -1.4442  -1.4141  -1.3850  -1.3258
    -1.2904  -1.2233  -1.1562  -1.0348  -1.0054  -0.9710  -0.9385  -0.8583
    -0.7641  -0.7368  -0.7057  -0.6410  -0.6102  -0.5565  -0.3633   0.2987
     1.2862   1.4681   1.5634   1.7574   1.7728   1.9111   1.9779   2.0573
     2.2645   2.2751   2.3416   2.3779   2.4144   2.4866   2.5217   2.5474
     2.5720   2.5955   2.6530   2.7053   2.7203   2.7639   2.8065   2.8563
     2.8818   2.9168   2.9611   3.0063   3.0321   3.0455   3.0555   3.1090
     3.1584   3.1983   3.2174   3.2882   3.3170   3.3455   3.3772   3.4572
     3.5088   3.5339   3.6121   3.6336   3.6676   3.7264   3.7454   3.7989
     3.8949   4.0989   4.3919   4.5003   4.7153   4.8583   4.9095   4.9604
     4.9948   5.0893   5.1864   5.2073   5.3357   5.3874   5.4333   5.5279
     5.5636   5.5989   5.6514   5.7090   5.7383   5.8032   5.8196   5.8600
     5.9267   5.9429   5.9945   6.0894   6.1323   6.2114   6.3281   6.4312
     6.4574   6.4752   6.7183   6.7688   7.0709   7.2897   7.6724   7.8307
     8.0894   8.2345   8.3174   8.4953   8.7761   8.8984   9.0048   9.1796
     9.3773   9.5504   9.6376

          k =-0.0506 0.0280 0.0000 ( 34685 PWs)   bands (ev):

   -58.3054 -58.2751 -57.3867 -57.3834 -57.3532 -57.3143 -57.2623 -57.0965
   -57.0671 -57.0610 -57.0257 -56.9227 -56.9221 -56.8915 -56.8043 -56.7709
   -34.7286 -34.5744 -34.5495 -34.5057 -34.4257 -34.3896 -33.8598 -33.8529
   -33.7346 -33.6477 -33.6327 -33.5941 -33.5732 -33.5558 -33.5545 -33.5469
   -33.5338 -33.5284 -33.5182 -33.4991 -33.4929 -33.4698 -33.4575 -33.4510
   -33.3386 -33.3224 -33.3209 -33.3186 -33.3086 -33.3073 -33.2838 -33.2664
   -33.2638 -33.2408 -33.2398 -33.2348 -33.2147 -33.2046 -33.1635 -33.1370
   -33.1345 -33.0812 -33.0592 -33.0477 -33.0202 -33.0002 -32.9788 -32.9158
   -18.2623 -17.8642 -17.8519 -17.7013 -17.5879 -17.4558 -17.4382 -17.3446
   -17.3174 -17.2508 -17.1805 -17.0865 -16.9970 -16.9518 -16.9230 -16.8957
   -16.8105 -16.7676 -16.7565 -16.6965 -16.6335 -16.5498 -16.5229 -16.4896
   -16.4614 -16.4066 -16.3900 -16.3531 -16.1529 -16.1223 -15.8829 -15.6105
   -15.5638 -10.7538  -5.5401  -5.1875  -5.1542  -5.1211  -4.9495  -4.8699
    -4.7680  -4.7100  -4.6828  -4.6526  -4.6016  -4.5874  -4.5333  -4.4076
    -4.3635  -4.3230  -4.2418  -4.2158  -4.1802  -4.1652  -4.1486  -4.0563
    -4.0309  -4.0117  -3.9742  -3.9283  -3.8860  -3.8392  -3.8135  -3.7808
    -3.7218  -3.6716  -3.6448  -3.5926  -3.5564  -3.5233  -3.4825  -3.4520
    -3.3779  -3.3657  -3.2946  -3.2653  -3.2044  -3.1469  -3.1179  -3.0584
    -3.0099  -2.9808  -2.9026  -2.8353  -2.7578  -2.6991  -2.6896  -2.6661
    -2.6171  -2.5945  -2.5808  -2.5259  -2.5172  -2.3929  -2.3414  -2.3332
    -2.2702  -2.2017  -2.1862  -2.1595  -2.0813  -2.0110  -2.0048  -1.9436
    -1.9245  -1.8947  -1.8112  -1.7227  -1.7096  -1.6852  -1.6156  -1.5866
    -1.5245  -1.4768  -1.4545  -1.3944  -1.3796  -1.3279  -1.3122  -1.2612
    -1.2450  -1.1215  -1.0585  -1.0354  -1.0113  -0.9573  -0.9251  -0.8771
    -0.8288  -0.7973  -0.7214  -0.6822  -0.6609  -0.5367  -0.3920   0.3026
     1.1388   1.3388   1.4639   1.5647   1.9326   1.9426   1.9651   2.0569
     2.1230   2.1979   2.2527   2.3285   2.4045   2.4385   2.5273   2.5448
     2.5912   2.6497   2.6863   2.6999   2.7536   2.8272   2.8501   2.8806
     2.9391   2.9452   2.9788   2.9834   2.9900   3.1009   3.1078   3.1365
     3.1842   3.2133   3.2883   3.3089   3.3544   3.3814   3.4054   3.4538
     3.4682   3.5463   3.6008   3.6658   3.7414   3.7779   3.7977   3.8992
     3.9571   4.0603   4.1081   4.4059   4.5090   4.6548   4.7465   4.8078
     4.8404   4.9127   4.9650   5.2876   5.3283   5.4114   5.5260   5.5580
     5.6391   5.7655   5.7855   5.8524   5.8975   5.9118   5.9657   6.0545
     6.0926   6.1643   6.2489   6.3331   6.3855   6.4006   6.4421   6.4887
     6.5400   6.5505   6.7103   6.9174   7.0705   7.2179   7.5498   7.6119
     7.7204   8.2081   8.4118   8.4841   8.8658   8.9348   9.0656   9.2257
     9.4242   9.6040   9.6774

          k =-0.0506 0.0560 0.0000 ( 34596 PWs)   bands (ev):

   -58.2990 -58.2815 -57.3839 -57.3776 -57.3596 -57.3166 -57.2615 -57.0960
   -57.0678 -57.0562 -57.0307 -56.9232 -56.9157 -56.8980 -56.7976 -56.7777
   -34.6585 -34.5691 -34.5547 -34.4890 -34.4629 -34.4427 -33.7899 -33.7842
   -33.6838 -33.6362 -33.6160 -33.5918 -33.5902 -33.5874 -33.5706 -33.5694
   -33.5464 -33.5334 -33.5319 -33.4980 -33.4942 -33.4674 -33.4453 -33.4174
   -33.3736 -33.3261 -33.3115 -33.3091 -33.2880 -33.2781 -33.2607 -33.2593
   -33.2582 -33.2489 -33.2452 -33.2425 -33.2234 -33.2165 -33.1823 -33.1592
   -33.1208 -33.0782 -33.0759 -33.0526 -33.0420 -33.0248 -33.0122 -32.9862
   -18.1098 -17.8208 -17.7033 -17.6154 -17.5992 -17.5593 -17.3823 -17.3708
   -17.2207 -17.2082 -17.1192 -17.0969 -16.9795 -16.9140 -16.8694 -16.8443
   -16.8255 -16.8095 -16.7636 -16.7377 -16.7228 -16.6293 -16.5986 -16.5083
   -16.4980 -16.4399 -16.4227 -16.4127 -16.2179 -16.1993 -15.8808 -15.6399
   -15.6179 -10.7557  -5.3036  -4.9937  -4.9430  -4.9350  -4.7851  -4.7774
    -4.7184  -4.6415  -4.5284  -4.5083  -4.5025  -4.4198  -4.4053  -4.3827
    -4.3630  -4.3293  -4.3111  -4.2497  -4.2021  -4.1779  -4.1681  -4.1144
    -4.1040  -4.0591  -4.0452  -3.9943  -3.9808  -3.9057  -3.8868  -3.8293
    -3.7813  -3.7078  -3.6756  -3.6165  -3.5824  -3.5528  -3.4895  -3.4314
    -3.3917  -3.3207  -3.2616  -3.2328  -3.1358  -3.1307  -3.0814  -3.0518
    -2.9973  -2.9795  -2.9597  -2.9023  -2.8012  -2.7649  -2.7505  -2.7077
    -2.6314  -2.5888  -2.5469  -2.5042  -2.4801  -2.4161  -2.3910  -2.3712
    -2.3527  -2.2916  -2.1966  -2.1737  -2.1487  -2.1304  -2.1043  -2.0497
    -2.0148  -1.9731  -1.9458  -1.8722  -1.8500  -1.7835  -1.7327  -1.6584
    -1.5678  -1.5506  -1.5403  -1.4981  -1.4450  -1.3868  -1.3547  -1.3078
    -1.2459  -1.1771  -1.0787  -1.0234  -0.9901  -0.9048  -0.8541  -0.8468
    -0.7951  -0.7081  -0.6938  -0.6726  -0.6574  -0.5546  -0.4772   0.3012
     1.3067   1.4964   1.6451   1.6669   1.8515   2.0026   2.0311   2.0663
     2.2422   2.2549   2.3591   2.3754   2.4316   2.4603   2.5469   2.5840
     2.6492   2.6944   2.7285   2.7431   2.8103   2.8414   2.8698   2.9022
     2.9329   2.9499   3.0055   3.0406   3.0712   3.1123   3.1439   3.1896
     3.1946   3.2493   3.2835   3.3235   3.3327   3.3758   3.4151   3.4659
     3.4804   3.5480   3.5773   3.6401   3.6666   3.7435   3.8032   3.8390
     3.8819   3.9588   4.1515   4.5026   4.5954   4.6150   4.7533   4.8209
     4.8874   4.9638   5.0090   5.1855   5.3007   5.3748   5.4106   5.4430
     5.5933   5.6155   5.6669   5.7158   5.8783   5.8956   5.9862   6.0051
     6.0670   6.1074   6.1687   6.2055   6.3122   6.3359   6.4117   6.4223
     6.5393   6.6139   6.7626   6.8072   7.1799   7.3540   7.4962   7.6198
     7.9397   8.0111   8.1045   8.3771   8.6083   8.7224   8.8051   9.0395
     9.1915   9.3283   9.4342

     the Fermi energy is    -0.2924 ev

!    total energy              =   -3021.14948956 Ry
     Harris-Foulkes estimate   =   -3021.14948975 Ry
     estimated scf accuracy    <       0.00000036 Ry

     The total energy is the sum of the following terms:

     one-electron contribution =  -40438.30247733 Ry
     hartree contribution      =   20290.49267878 Ry
     xc contribution           =    -553.19629585 Ry
     ewald contribution        =   17679.87641522 Ry
     smearing contrib. (-TS)   =      -0.01981039 Ry

     total magnetization       =     1.06 Bohr mag/cell
     absolute magnetization    =     1.23 Bohr mag/cell

     convergence has been achieved in  10 iterations

     Forces acting on atoms (Ry/au):


     negative rho (up, down):  1.188E-02 1.194E-02
     atom    1 type  1   force =     0.00018429   -0.00089932   -0.10469154
     atom    2 type  2   force =     0.00014368    0.00068165    0.04003101
     atom    3 type  1   force =     0.00074900   -0.00175187   -0.02053761
     atom    4 type  2   force =    -0.00326846    0.00312410   -0.00323770
     atom    5 type  1   force =     0.00034824    0.00006935    0.00033667
     atom    6 type  2   force =    -0.00013339   -0.00009633    0.00024111
     atom    7 type  1   force =    -0.00022920   -0.00003444   -0.00035233
     atom    8 type  2   force =    -0.00016125   -0.00014651   -0.00019535
     atom    9 type  1   force =    -0.00003405    0.00056627   -0.10482559
     atom   10 type  2   force =     0.00034884   -0.00021087    0.03600475
     atom   11 type  1   force =     0.00067897    0.00183643    0.00261821
     atom   12 type  2   force =    -0.00519585   -0.00266824   -0.00520235
     atom   13 type  1   force =     0.00041502    0.00008516   -0.00023528
     atom   14 type  2   force =     0.00012835   -0.00007947   -0.00006309
     atom   15 type  1   force =    -0.00004674   -0.00005229    0.00000000
     atom   16 type  2   force =    -0.00021731    0.00002270   -0.00035760
     atom   17 type  2   force =     0.00001040   -0.00001416    0.06659327
     atom   18 type  1   force =     0.00005837    0.00003193    0.13146600
     atom   19 type  2   force =     0.00017817   -0.00052886   -0.08521308
     atom   20 type  2   force =    -0.05792480    0.00014267   -0.03607281
     atom   21 type  2   force =     0.05781563   -0.00004776   -0.03603452
     atom   22 type  1   force =    -0.00042931    0.00074993    0.08017591
     atom   23 type  2   force =     0.00019767   -0.00004959    0.00003310
     atom   24 type  2   force =     0.00064189    0.00185885   -0.03467140
     atom   25 type  2   force =     0.00414073    0.00332715   -0.00510772
     atom   26 type  1   force =     0.00040698   -0.00004907    0.00008990
     atom   27 type  2   force =    -0.00009798   -0.00012522    0.00005901
     atom   28 type  2   force =     0.00005351   -0.00019614   -0.00002246
     atom   29 type  2   force =    -0.00000089   -0.00007422    0.00007568
     atom   30 type  1   force =    -0.00027017   -0.00016392    0.00005484
     atom   31 type  2   force =     0.00012260   -0.00007191   -0.00002854
     atom   32 type  2   force =    -0.00010148   -0.00001883    0.00004643
     atom   33 type  2   force =    -0.00016622    0.00004842    0.06632619
     atom   34 type  1   force =     0.00007820   -0.00003474    0.13124684
     atom   35 type  2   force =     0.00018932   -0.00013086   -0.08482463
     atom   36 type  2   force =    -0.05781865    0.00006464   -0.03568599
     atom   37 type  2   force =     0.05799018   -0.00017402   -0.03608595
     atom   38 type  1   force =    -0.00037619   -0.00020441    0.07984390
     atom   39 type  2   force =     0.00007662   -0.00026297   -0.00008865
     atom   40 type  2   force =     0.00049029    0.00124105   -0.03527474
     atom   41 type  2   force =     0.00588962   -0.00243488   -0.00722944
     atom   42 type  1   force =     0.00024242   -0.00006759    0.00002849
     atom   43 type  2   force =    -0.00019505   -0.00010072    0.00006069
     atom   44 type  2   force =     0.00000598   -0.00016024   -0.00002873
     atom   45 type  2   force =     0.00000246   -0.00016991    0.00005983
     atom   46 type  1   force =    -0.00017755   -0.00008269   -0.00001184
     atom   47 type  2   force =    -0.00001158   -0.00016037    0.00008074
     atom   48 type  2   force =    -0.00012649   -0.00002664    0.00029174
     atom   49 type  2   force =    -0.00054432   -0.00057905   -0.00037955
     atom   50 type  3   force =     0.01404443   -0.00837082    0.01105216
     atom   51 type  4   force =    -0.00218646    0.00029434   -0.00158693
     atom   52 type  4   force =    -0.01584682    0.00830192   -0.01209786
     atom   53 type  4   force =    -0.00028034   -0.00101354    0.00136035
     atom   54 type  4   force =     0.00020868   -0.00119407    0.00196647

     Total force =     0.343561     Total SCF correction =     0.001146
 !ASE

     Writing output data file calc.save
 
     init_run     :     64.59s CPU     76.21s WALL (       1 calls)
     electrons    :   2778.39s CPU   3204.42s WALL (       1 calls)
     forces       :     49.46s CPU     50.70s WALL (       1 calls)

     Called by init_run:
     wfcinit      :     56.82s CPU     67.62s WALL (       1 calls)
     potinit      :      1.28s CPU      1.52s WALL (       1 calls)

     Called by electrons:
     c_bands      :   2435.37s CPU   2803.01s WALL (      11 calls)
     sum_band     :    297.92s CPU    351.45s WALL (      11 calls)
     v_of_rho     :     11.31s CPU     13.39s WALL (      11 calls)
     newd         :     37.09s CPU     40.18s WALL (      11 calls)
     mix_rho      :      0.44s CPU      0.56s WALL (      11 calls)
     vdW_energy   :      2.48s CPU      2.77s WALL (      12 calls)
     vdW_ffts     :      3.08s CPU      3.75s WALL (      24 calls)
     vdW_v        :      1.19s CPU      1.35s WALL (      12 calls)

     Called by c_bands:
     init_us_2    :      6.76s CPU      7.28s WALL (     960 calls)
     cegterg      :   2392.48s CPU   2757.97s WALL (     440 calls)

     Called by *egterg:
     h_psi        :    946.74s CPU   1234.69s WALL (    1966 calls)
     s_psi        :    164.13s CPU    168.91s WALL (    1966 calls)
     g_psi        :      4.79s CPU      4.89s WALL (    1486 calls)
     cdiaghg      :    730.77s CPU    745.85s WALL (    1886 calls)

     Called by h_psi:
     add_vuspsi   :    165.89s CPU    171.01s WALL (    1966 calls)

     General routines
     calbec       :    245.47s CPU    250.04s WALL (    2446 calls)
     fft          :      6.39s CPU      7.81s WALL (     956 calls)
     ffts         :      0.04s CPU      0.06s WALL (      44 calls)
     fftw         :    521.07s CPU    847.05s WALL (  781062 calls)
     interpolate  :      0.37s CPU      0.54s WALL (      44 calls)
     davcio       :      0.01s CPU      1.04s WALL (      40 calls)
 
     Parallel routines
     fft_scatter  :    256.98s CPU    434.75s WALL (  782062 calls)
 
     PWSCF        : 48m14.68s CPU    55m35.69s WALL

 
   This run was terminated on:  14: 0: 4  26Feb2018            

=------------------------------------------------------------------------------=
   JOB DONE.
=------------------------------------------------------------------------------=
