  python dir          : /home/vossj/suncat/lib/python2.7/site-packages/espresso
  espresso dir        : /home/vossj/suncat/esdld/espresso-dynpy-beef/bin
  pseudo dir          : /home/alatimer/bin/psp/esp_psp_w_gbrvRu/
  ase-espresso py git : ffa2778-git



     Program PWSCF v.5.1rc2 (svn rev. ) starts on 12Feb2018 at 17:12:43 

     This program is part of the open-source Quantum ESPRESSO suite
     for quantum simulation of materials; please cite
         "P. Giannozzi et al., J. Phys.:Condens. Matter 21 395502 (2009);
          URL http://www.quantum-espresso.org", 
     in publications or presentations arising from this work. More details at
     http://www.quantum-espresso.org/quote

     Parallel version (MPI), running on    16 processors
     R & G space division:  proc/nbgrp/npool/nimage =      16
     Reading input from pw.inp
     Message from routine read_cards :
     DEPRECATED: no units specified in CELL_PARAMETERS card

     Current dimensions of program PWSCF are:
     Max number of different atomic species (ntypx) = 10
     Max number of k-points (npk) =  40000
     Max angular momentum in pseudopotentials (lmaxx) =  3

     **************************************************************************
     Initializing libbeef V0.1.1 with the BEEF-vdW functional.
     Citation: Wellendorff et al., PRB 85, 235149 (2012).
     **************************************************************************


     IMPORTANT: XC functional enforced from input :
     Exchange-correlation      = BEEF ( 1  4 27 13 2)
     Any further DFT definition will be discarded
     Please, verify this is what you really want


     Subspace diagonalization in iterative solution of the eigenvalue problem:
     a serial algorithm will be used

 
     Parallelization info
     --------------------
     sticks:   dense  smooth     PW     G-vecs:    dense   smooth      PW
     Min         281     112     31                68535    17318    2565
     Max         282     113     32                68545    17369    2582
     Sum        4501    1795    503              1096637   277353   41113
 
     Generating pointlists ...
     new r_m :   0.4125 (alat units)  0.7795 (a.u.) for type    1
     new r_m :   0.3969 (alat units)  0.7500 (a.u.) for type    2
     new r_m :   0.4125 (alat units)  0.7795 (a.u.) for type    3
     new r_m :   0.3969 (alat units)  0.7500 (a.u.) for type    4


     bravais-lattice index     =            0
     lattice parameter (alat)  =       1.8897  a.u.
     unit-cell volume          =    7990.9933 (a.u.)^3
     number of atoms/cell      =           54
     number of atomic types    =            4
     number of electrons       =       398.00
     number of Kohn-Sham states=          299
     kinetic-energy cutoff     =      40.4243  Ry
     charge density cutoff     =     404.2426  Ry
     convergence threshold     =      7.3E-07
     mixing beta               =       0.1000
     number of iterations used =           10  plain     mixing
     Exchange-correlation      = BEEF ( 1  4 27 13 2)
     nstep                     =           50


     celldm(1)=   1.889726  celldm(2)=   0.000000  celldm(3)=   0.000000
     celldm(4)=   0.000000  celldm(5)=   0.000000  celldm(6)=   0.000000

     crystal axes: (cart. coord. in units of alat)
               a(1) = (   6.590708   0.000000   0.000000 )  
               a(2) = (   0.000000   5.950229   0.000000 )  
               a(3) = (   0.000000   0.000000  30.195235 )  

     reciprocal axes: (cart. coord. in units 2 pi/alat)
               b(1) = (  0.151729  0.000000  0.000000 )  
               b(2) = (  0.000000  0.168061  0.000000 )  
               b(3) = (  0.000000  0.000000  0.033118 )  


     PseudoPot. # 1 for Ti read from file:
     /home/alatimer/bin/psp/esp_psp_w_gbrvRu/Ti.UPF
     MD5 check sum: 8e4df49b7f0d34bbd5052bf3f5ea0213
     Pseudo is Ultrasoft, Zval = 12.0
     Generated by new atomic code, or converted to UPF format
     Using radial grid of  851 points,  6 beta functions with: 
                l(1) =   0
                l(2) =   0
                l(3) =   1
                l(4) =   1
                l(5) =   2
                l(6) =   2
     Q(r) pseudized with  8 coefficients,  rinner =    1.000   1.000   1.000
                                                       1.000   1.000

     PseudoPot. # 2 for  O read from file:
     /home/alatimer/bin/psp/esp_psp_w_gbrvRu/O.UPF
     MD5 check sum: e057bbcf3229fb5d8c36c0c92f9568b4
     Pseudo is Ultrasoft + core correction, Zval =  6.0
     Generated using "atomic" code by A. Dal Corso  v.5.0.2 svn rev. 9415
     Using radial grid of 1095 points,  4 beta functions with: 
                l(1) =   0
                l(2) =   0
                l(3) =   1
                l(4) =   1
     Q(r) pseudized with 0 coefficients 


     PseudoPot. # 3 for  C read from file:
     /home/alatimer/bin/psp/esp_psp_w_gbrvRu/C.UPF
     MD5 check sum: ab446d787031eba755f1d5ee46644bb0
     Pseudo is Ultrasoft + core correction, Zval =  4.0
     Generated using "atomic" code by A. Dal Corso  v.5.0.2 svn rev. 9415
     Using radial grid of 1073 points,  4 beta functions with: 
                l(1) =   0
                l(2) =   0
                l(3) =   1
                l(4) =   1
     Q(r) pseudized with 0 coefficients 


     PseudoPot. # 4 for  H read from file:
     /home/alatimer/bin/psp/esp_psp_w_gbrvRu/H.UPF
     MD5 check sum: bd57da0722753ddfd9833a65b40bb853
     Pseudo is Ultrasoft, Zval =  1.0
     Generated using "atomic" code by A. Dal Corso  v.5.0.2 svn rev. 9415
     Using radial grid of  929 points,  2 beta functions with: 
                l(1) =   0
                l(2) =   0
     Q(r) pseudized with 0 coefficients 


     vdW kernel table read from file vdW_kernel_table
     MD5 check sum: 095c7af220d748ca6e76c0b4c6cfb241

     atomic species   valence    mass     pseudopotential
        Ti1           12.00    47.88000     Ti( 1.00)
        O1             6.00    15.99940      O( 1.00)
        C1             4.00    12.01100      C( 1.00)
        H1             1.00     1.00794      H( 1.00)

     Starting magnetic structure 
     atomic species   magnetization
        Ti1          0.250
        O1           0.500
        C1           0.750
        H1           0.000

     No symmetry found



   Cartesian axes

     site n.     atom                  positions (alat units)
         1           Ti1 tau(   1) = (   1.6476770   0.7437786   2.6545865  )
         2           O1  tau(   2) = (   1.6476770   2.2313359   3.9361215  )
         3           Ti1 tau(   3) = (   1.6476770   2.2313359   5.9499405  )
         4           O1  tau(   4) = (   0.3661420   0.7437786   5.9499405  )
         5           Ti1 tau(   5) = (   1.7592931   0.7557636   9.1813031  )
         6           O1  tau(   6) = (   1.6162490   2.2572048  10.5951269  )
         7           Ti1 tau(   7) = (   1.5595004   2.2680265  12.4668274  )
         8           O1  tau(   8) = (   0.3709531   0.7738127  12.6996540  )
         9           Ti1 tau(   9) = (   1.6476770   3.7188931   2.6545865  )
        10           O1  tau(  10) = (   1.6476770   5.2064503   3.9361215  )
        11           Ti1 tau(  11) = (   1.6476770   5.2064503   5.9499405  )
        12           O1  tau(  12) = (   0.3661420   3.7188931   5.9499405  )
        13           Ti1 tau(  13) = (   1.7607536   3.7112867   9.1949733  )
        14           O1  tau(  14) = (   1.6133076   5.2250699  10.5465640  )
        15           Ti1 tau(  15) = (   1.6492307   5.2431137  12.3448001  )
        16           O1  tau(  16) = (   0.3719744   3.7598389  12.7007434  )
        17           O1  tau(  17) = (   1.6476770   2.2313359   1.3730516  )
        18           Ti1 tau(  18) = (   4.9430310   2.2313359   2.6545865  )
        19           O1  tau(  19) = (   4.9430310   2.2313359   4.6684056  )
        20           O1  tau(  20) = (   6.2245660   0.7437786   2.6545865  )
        21           O1  tau(  21) = (   3.6614961   0.7437786   2.6545865  )
        22           Ti1 tau(  22) = (   4.9430310   0.7437786   5.9499405  )
        23           O1  tau(  23) = (   1.6387103   2.2391978   8.0037664  )
        24           O1  tau(  24) = (   4.9430310   2.2313359   7.2314755  )
        25           O1  tau(  25) = (   2.9292120   0.7437786   5.9499405  )
        26           Ti1 tau(  26) = (   5.0158092   2.2383949   9.3973727  )
        27           O1  tau(  27) = (   4.9391445   2.2276729  11.2675731  )
        28           O1  tau(  28) = (   6.2094020   0.7514556   9.2742047  )
        29           O1  tau(  29) = (   3.6131301   0.7515640   9.2682932  )
        30           Ti1 tau(  30) = (   4.8940083   0.8207741  12.7348365  )
        31           O1  tau(  31) = (   4.8487174   2.2703822  13.8475395  )
        32           O1  tau(  32) = (   2.8766274   0.7418004  12.6316555  )
        33           O1  tau(  33) = (   1.6476770   5.2064503   1.3730516  )
        34           Ti1 tau(  34) = (   4.9430310   5.2064503   2.6545865  )
        35           O1  tau(  35) = (   4.9430310   5.2064503   4.6684056  )
        36           O1  tau(  36) = (   6.2245660   3.7188931   2.6545865  )
        37           O1  tau(  37) = (   3.6614961   3.7188931   2.6545865  )
        38           Ti1 tau(  38) = (   4.9430310   3.7188931   5.9499405  )
        39           O1  tau(  39) = (   1.6418458   5.2133935   8.0066417  )
        40           O1  tau(  40) = (   4.9430310   5.2064503   7.2314755  )
        41           O1  tau(  41) = (   2.9292120   3.7188931   5.9499405  )
        42           Ti1 tau(  42) = (   5.0218241   5.2139137   9.3870600  )
        43           O1  tau(  43) = (   4.9399496   5.2040061  11.2598200  )
        44           O1  tau(  44) = (   6.2073000   3.7245411   9.2731052  )
        45           O1  tau(  45) = (   3.6137513   3.7232133   9.2682466  )
        46           Ti1 tau(  46) = (   4.8936935   3.8094630  12.7397413  )
        47           O1  tau(  47) = (   4.9051259   5.2510468  13.8339921  )
        48           O1  tau(  48) = (   2.8743370   3.7938830  12.6403791  )
        49           C1  tau(  49) = (   1.0587210   2.2268971  15.9066084  )
        50           O1  tau(  50) = (   1.8917182   2.2355032  14.7678010  )
        51           H1  tau(  51) = (   0.0310076   2.2200215  15.5603933  )
        52           H1  tau(  52) = (   2.8355400   2.2288152  14.9543747  )
        53           H1  tau(  53) = (   1.2478062   1.3326534  16.5039879  )
        54           H1  tau(  54) = (   1.2341453   3.1195140  16.5098874  )

     number of k points=    40  Fermi-Dirac smearing, width (Ry)=  0.0073
                       cart. coord. in units 2pi/alat
        k(    1) = (   0.0000000   0.0000000   0.0000000), wk =   0.0277778
        k(    2) = (   0.0000000   0.0280101   0.0000000), wk =   0.0555556
        k(    3) = (   0.0000000   0.0560203   0.0000000), wk =   0.0555556
        k(    4) = (   0.0000000  -0.0840304   0.0000000), wk =   0.0277778
        k(    5) = (   0.0252881   0.0000000   0.0000000), wk =   0.0555556
        k(    6) = (   0.0252881   0.0280101   0.0000000), wk =   0.0555556
        k(    7) = (   0.0252881   0.0560203   0.0000000), wk =   0.0555556
        k(    8) = (   0.0252881  -0.0840304   0.0000000), wk =   0.0555556
        k(    9) = (   0.0505763   0.0000000   0.0000000), wk =   0.0555556
        k(   10) = (   0.0505763   0.0280101   0.0000000), wk =   0.0555556
        k(   11) = (   0.0505763   0.0560203   0.0000000), wk =   0.0555556
        k(   12) = (   0.0505763  -0.0840304   0.0000000), wk =   0.0555556
        k(   13) = (  -0.0758644   0.0000000   0.0000000), wk =   0.0277778
        k(   14) = (  -0.0758644   0.0280101   0.0000000), wk =   0.0555556
        k(   15) = (  -0.0758644   0.0560203   0.0000000), wk =   0.0555556
        k(   16) = (  -0.0758644  -0.0840304   0.0000000), wk =   0.0277778
        k(   17) = (  -0.0252881   0.0280101   0.0000000), wk =   0.0555556
        k(   18) = (  -0.0252881   0.0560203   0.0000000), wk =   0.0555556
        k(   19) = (  -0.0505763   0.0280101   0.0000000), wk =   0.0555556
        k(   20) = (  -0.0505763   0.0560203   0.0000000), wk =   0.0555556
        k(   21) = (   0.0000000   0.0000000   0.0000000), wk =   0.0277778
        k(   22) = (   0.0000000   0.0280101   0.0000000), wk =   0.0555556
        k(   23) = (   0.0000000   0.0560203   0.0000000), wk =   0.0555556
        k(   24) = (   0.0000000  -0.0840304   0.0000000), wk =   0.0277778
        k(   25) = (   0.0252881   0.0000000   0.0000000), wk =   0.0555556
        k(   26) = (   0.0252881   0.0280101   0.0000000), wk =   0.0555556
        k(   27) = (   0.0252881   0.0560203   0.0000000), wk =   0.0555556
        k(   28) = (   0.0252881  -0.0840304   0.0000000), wk =   0.0555556
        k(   29) = (   0.0505763   0.0000000   0.0000000), wk =   0.0555556
        k(   30) = (   0.0505763   0.0280101   0.0000000), wk =   0.0555556
        k(   31) = (   0.0505763   0.0560203   0.0000000), wk =   0.0555556
        k(   32) = (   0.0505763  -0.0840304   0.0000000), wk =   0.0555556
        k(   33) = (  -0.0758644   0.0000000   0.0000000), wk =   0.0277778
        k(   34) = (  -0.0758644   0.0280101   0.0000000), wk =   0.0555556
        k(   35) = (  -0.0758644   0.0560203   0.0000000), wk =   0.0555556
        k(   36) = (  -0.0758644  -0.0840304   0.0000000), wk =   0.0277778
        k(   37) = (  -0.0252881   0.0280101   0.0000000), wk =   0.0555556
        k(   38) = (  -0.0252881   0.0560203   0.0000000), wk =   0.0555556
        k(   39) = (  -0.0505763   0.0280101   0.0000000), wk =   0.0555556
        k(   40) = (  -0.0505763   0.0560203   0.0000000), wk =   0.0555556

     Dense  grid:  1096637 G-vectors     FFT dimensions: (  80,  72, 375)

     Smooth grid:   277353 G-vectors     FFT dimensions: (  54,  45, 240)

     Largest allocated arrays     est. size (Mb)     dimensions
        Kohn-Sham Wavefunctions         9.95 Mb     (    2180,  299)
        NL pseudopotentials            18.89 Mb     (    2180,  568)
        Each V/rho on FFT grid          4.22 Mb     (  138240,   2)
        Each G-vector array             0.52 Mb     (   68538)
        G-vector shells                 0.25 Mb     (   33046)
     Largest temporary arrays     est. size (Mb)     dimensions
        Auxiliary wavefunctions        39.78 Mb     (    2180, 1196)
        Each subspace H/S matrix       21.83 Mb     (    1196, 1196)
        Each <psi_i|beta_j> matrix      2.59 Mb     (     568,  299)
        Arrays for rho mixing          21.09 Mb     (  138240,   10)

     Check: negative/imaginary core charge=   -0.000049    0.000000

     The initial density is read from file :
     ./calc.save/charge-density.dat


     negative rho (up, down):  1.209E-02 1.209E-02


     ************************************************************************
     *
     * You are using vdW-DF for exchange-correlation in this calculation.
     * Please cite the following three references that made this development
     * possible:
     *
     *   M. Dion, H. Rydberg, E. Schroder, D. C. Langreth, and
     *   B. I. Lundqvist, Phys. Rev. Lett. 92, 246401 (2004).
     *
     *   T. Thonhauser, V. R. Cooper, S. Li, A. Puzder, P. Hyldgaard, and
     *   D. C. Langreth, Phys. Rev. B 76, 125112 (2007).
     *
     *   G. Roman-Perez and J. M. Soler, Phys. Rev. Lett. 103, 096102 (2009).
     *
     *
     * If you are using vdW-DF2, please also cite:
     *
     *   K. Lee, E. D. Murray, L. Kong, B. I. Lundqvist, and
     *   D. C. Langreth, Phys. Rev. B 82, 081101(R) (2010).
     *
     *
     * If you are calculating the stress with vdW-DF, please also cite:
     *
     *   R. Sabatini, E. Kucukbenli, B. Kolb, T. Thonhauser, and
     *   S. de Gironcoli, J. Phys.: Condens. Matter 24, 424209 (2012).
     *
     ************************************************************************

     Carrying out vdW-DF run using the following parameters:

     Nqs =      20    Nr_points =    1024   r_max =   100.000
     q_mesh =
               0.00001000     0.04494208     0.09755937     0.15916263
               0.23128650     0.31572767     0.41458969     0.53033537
               0.66584808     0.82450364     1.01025438     1.22772762
               1.48234092     1.78043706     2.12944203     2.53805004
               3.01644009     3.57652955     4.23227104     5.00000000

     Gradients computed in reciprocal space

     ************************************************************************


     Starting wfc are  300 randomized atomic wfcs

     total cpu time spent up to now is       72.2 secs

     Self-consistent Calculation

     iteration #  1     ecut=    40.42 Ry     beta=0.10
     Davidson diagonalization with overlap
     ethr =  1.00E-05,  avg # of iterations = 14.3

     negative rho (up, down):  1.209E-02 1.209E-02
 
     Magnetic moment per site:
     atom:    1    charge:    3.1249    magn:   -0.0002    constr:    0.0000
     atom:    2    charge:    1.9174    magn:    0.0000    constr:    0.0000
     atom:    3    charge:    3.1197    magn:    0.0000    constr:    0.0000
     atom:    4    charge:    1.9231    magn:   -0.0001    constr:    0.0000
     atom:    5    charge:    3.1165    magn:    0.0000    constr:    0.0000
     atom:    6    charge:    1.9208    magn:   -0.0001    constr:    0.0000
     atom:    7    charge:    3.1134    magn:    0.0001    constr:    0.0000
     atom:    8    charge:    1.9182    magn:   -0.0001    constr:    0.0000
     atom:    9    charge:    3.1249    magn:   -0.0002    constr:    0.0000
     atom:   10    charge:    1.9174    magn:    0.0000    constr:    0.0000
     atom:   11    charge:    3.1196    magn:    0.0000    constr:    0.0000
     atom:   12    charge:    1.9231    magn:   -0.0001    constr:    0.0000
     atom:   13    charge:    3.1158    magn:    0.0000    constr:    0.0000
     atom:   14    charge:    1.9318    magn:   -0.0001    constr:    0.0000
     atom:   15    charge:    3.1191    magn:    0.0001    constr:    0.0000
     atom:   16    charge:    1.9179    magn:   -0.0001    constr:    0.0000
     atom:   17    charge:    1.8910    magn:    0.0004    constr:    0.0000
     atom:   18    charge:    3.1241    magn:   -0.0001    constr:    0.0000
     atom:   19    charge:    1.9129    magn:   -0.0000    constr:    0.0000
     atom:   20    charge:    1.9198    magn:    0.0000    constr:    0.0000
     atom:   21    charge:    1.9198    magn:    0.0000    constr:    0.0000
     atom:   22    charge:    3.1197    magn:    0.0000    constr:    0.0000
     atom:   23    charge:    1.9296    magn:   -0.0001    constr:    0.0000
     atom:   24    charge:    1.9116    magn:   -0.0001    constr:    0.0000
     atom:   25    charge:    1.9232    magn:   -0.0001    constr:    0.0000
     atom:   26    charge:    3.1145    magn:    0.0001    constr:    0.0000
     atom:   27    charge:    1.9118    magn:   -0.0001    constr:    0.0000
     atom:   28    charge:    1.9243    magn:   -0.0001    constr:    0.0000
     atom:   29    charge:    1.9202    magn:   -0.0001    constr:    0.0000
     atom:   30    charge:    3.1164    magn:    0.0000    constr:    0.0000
     atom:   31    charge:    1.9183    magn:   -0.0000    constr:    0.0000
     atom:   32    charge:    1.9164    magn:   -0.0001    constr:    0.0000
     atom:   33    charge:    1.8910    magn:    0.0004    constr:    0.0000
     atom:   34    charge:    3.1241    magn:   -0.0001    constr:    0.0000
     atom:   35    charge:    1.9129    magn:   -0.0000    constr:    0.0000
     atom:   36    charge:    1.9198    magn:    0.0000    constr:    0.0000
     atom:   37    charge:    1.9198    magn:    0.0000    constr:    0.0000
     atom:   38    charge:    3.1197    magn:    0.0000    constr:    0.0000
     atom:   39    charge:    1.9276    magn:   -0.0001    constr:    0.0000
     atom:   40    charge:    1.9120    magn:   -0.0001    constr:    0.0000
     atom:   41    charge:    1.9232    magn:   -0.0001    constr:    0.0000
     atom:   42    charge:    3.1141    magn:    0.0001    constr:    0.0000
     atom:   43    charge:    1.9142    magn:   -0.0001    constr:    0.0000
     atom:   44    charge:    1.9245    magn:   -0.0001    constr:    0.0000
     atom:   45    charge:    1.9196    magn:   -0.0001    constr:    0.0000
     atom:   46    charge:    3.1162    magn:    0.0000    constr:    0.0000
     atom:   47    charge:    1.9179    magn:   -0.0000    constr:    0.0000
     atom:   48    charge:    1.9163    magn:   -0.0001    constr:    0.0000
     atom:   49    charge:    0.6607    magn:   -0.0001    constr:    0.0000
     atom:   50    charge:    1.9297    magn:   -0.0001    constr:    0.0000
     atom:   51    charge:    0.3963    magn:    0.0000    constr:    0.0000
     atom:   52    charge:    0.3952    magn:    0.0000    constr:    0.0000
     atom:   53    charge:    0.3978    magn:    0.0000    constr:    0.0000
     atom:   54    charge:    0.3984    magn:    0.0000    constr:    0.0000

     total cpu time spent up to now is      850.2 secs

     total energy              =   -3021.44795984 Ry
     Harris-Foulkes estimate   =   -3021.46533683 Ry
     estimated scf accuracy    <       0.11048387 Ry

     total magnetization       =     0.00 Bohr mag/cell
     absolute magnetization    =     0.01 Bohr mag/cell

     iteration #  2     ecut=    40.42 Ry     beta=0.10
     Davidson diagonalization with overlap
     ethr =  2.78E-05,  avg # of iterations =  2.2

     negative rho (up, down):  1.208E-02 1.208E-02
 
     Magnetic moment per site:
     atom:    1    charge:    3.1251    magn:   -0.0002    constr:    0.0000
     atom:    2    charge:    1.9174    magn:    0.0000    constr:    0.0000
     atom:    3    charge:    3.1197    magn:    0.0000    constr:    0.0000
     atom:    4    charge:    1.9231    magn:   -0.0000    constr:    0.0000
     atom:    5    charge:    3.1166    magn:    0.0000    constr:    0.0000
     atom:    6    charge:    1.9210    magn:   -0.0001    constr:    0.0000
     atom:    7    charge:    3.1118    magn:    0.0000    constr:    0.0000
     atom:    8    charge:    1.9180    magn:   -0.0001    constr:    0.0000
     atom:    9    charge:    3.1251    magn:   -0.0002    constr:    0.0000
     atom:   10    charge:    1.9174    magn:    0.0000    constr:    0.0000
     atom:   11    charge:    3.1197    magn:    0.0000    constr:    0.0000
     atom:   12    charge:    1.9231    magn:   -0.0000    constr:    0.0000
     atom:   13    charge:    3.1158    magn:    0.0000    constr:    0.0000
     atom:   14    charge:    1.9319    magn:   -0.0001    constr:    0.0000
     atom:   15    charge:    3.1190    magn:    0.0001    constr:    0.0000
     atom:   16    charge:    1.9177    magn:   -0.0001    constr:    0.0000
     atom:   17    charge:    1.8907    magn:    0.0004    constr:    0.0000
     atom:   18    charge:    3.1240    magn:   -0.0001    constr:    0.0000
     atom:   19    charge:    1.9129    magn:   -0.0000    constr:    0.0000
     atom:   20    charge:    1.9199    magn:    0.0000    constr:    0.0000
     atom:   21    charge:    1.9199    magn:    0.0000    constr:    0.0000
     atom:   22    charge:    3.1196    magn:    0.0000    constr:    0.0000
     atom:   23    charge:    1.9296    magn:   -0.0001    constr:    0.0000
     atom:   24    charge:    1.9118    magn:   -0.0000    constr:    0.0000
     atom:   25    charge:    1.9232    magn:   -0.0000    constr:    0.0000
     atom:   26    charge:    3.1145    magn:    0.0000    constr:    0.0000
     atom:   27    charge:    1.9119    magn:   -0.0001    constr:    0.0000
     atom:   28    charge:    1.9243    magn:   -0.0001    constr:    0.0000
     atom:   29    charge:    1.9203    magn:   -0.0001    constr:    0.0000
     atom:   30    charge:    3.1165    magn:    0.0000    constr:    0.0000
     atom:   31    charge:    1.9185    magn:   -0.0000    constr:    0.0000
     atom:   32    charge:    1.9160    magn:   -0.0001    constr:    0.0000
     atom:   33    charge:    1.8907    magn:    0.0004    constr:    0.0000
     atom:   34    charge:    3.1240    magn:   -0.0001    constr:    0.0000
     atom:   35    charge:    1.9129    magn:   -0.0000    constr:    0.0000
     atom:   36    charge:    1.9199    magn:    0.0000    constr:    0.0000
     atom:   37    charge:    1.9199    magn:    0.0000    constr:    0.0000
     atom:   38    charge:    3.1196    magn:    0.0000    constr:    0.0000
     atom:   39    charge:    1.9276    magn:   -0.0001    constr:    0.0000
     atom:   40    charge:    1.9122    magn:   -0.0000    constr:    0.0000
     atom:   41    charge:    1.9232    magn:   -0.0000    constr:    0.0000
     atom:   42    charge:    3.1141    magn:    0.0000    constr:    0.0000
     atom:   43    charge:    1.9142    magn:   -0.0001    constr:    0.0000
     atom:   44    charge:    1.9245    magn:   -0.0001    constr:    0.0000
     atom:   45    charge:    1.9197    magn:   -0.0001    constr:    0.0000
     atom:   46    charge:    3.1163    magn:    0.0000    constr:    0.0000
     atom:   47    charge:    1.9181    magn:   -0.0000    constr:    0.0000
     atom:   48    charge:    1.9160    magn:   -0.0001    constr:    0.0000
     atom:   49    charge:    0.6660    magn:   -0.0000    constr:    0.0000
     atom:   50    charge:    1.9337    magn:   -0.0001    constr:    0.0000
     atom:   51    charge:    0.3952    magn:    0.0000    constr:    0.0000
     atom:   52    charge:    0.3967    magn:    0.0000    constr:    0.0000
     atom:   53    charge:    0.3978    magn:    0.0000    constr:    0.0000
     atom:   54    charge:    0.3985    magn:    0.0000    constr:    0.0000

     total cpu time spent up to now is     1040.4 secs

     total energy              =   -3021.42225519 Ry
     Harris-Foulkes estimate   =   -3021.44933992 Ry
     estimated scf accuracy    <       0.06713964 Ry

     total magnetization       =     0.00 Bohr mag/cell
     absolute magnetization    =     0.01 Bohr mag/cell

     iteration #  3     ecut=    40.42 Ry     beta=0.10
     Davidson diagonalization with overlap
     ethr =  1.69E-05,  avg # of iterations =  6.8

     negative rho (up, down):  1.208E-02 1.208E-02
 
     Magnetic moment per site:
     atom:    1    charge:    3.1251    magn:   -0.0001    constr:    0.0000
     atom:    2    charge:    1.9173    magn:    0.0000    constr:    0.0000
     atom:    3    charge:    3.1199    magn:    0.0000    constr:    0.0000
     atom:    4    charge:    1.9231    magn:   -0.0000    constr:    0.0000
     atom:    5    charge:    3.1167    magn:    0.0000    constr:    0.0000
     atom:    6    charge:    1.9201    magn:   -0.0001    constr:    0.0000
     atom:    7    charge:    3.1159    magn:    0.0000    constr:    0.0000
     atom:    8    charge:    1.9172    magn:   -0.0001    constr:    0.0000
     atom:    9    charge:    3.1251    magn:   -0.0001    constr:    0.0000
     atom:   10    charge:    1.9173    magn:    0.0000    constr:    0.0000
     atom:   11    charge:    3.1198    magn:    0.0000    constr:    0.0000
     atom:   12    charge:    1.9231    magn:   -0.0000    constr:    0.0000
     atom:   13    charge:    3.1159    magn:    0.0000    constr:    0.0000
     atom:   14    charge:    1.9318    magn:   -0.0001    constr:    0.0000
     atom:   15    charge:    3.1185    magn:    0.0000    constr:    0.0000
     atom:   16    charge:    1.9168    magn:   -0.0001    constr:    0.0000
     atom:   17    charge:    1.8900    magn:    0.0003    constr:    0.0000
     atom:   18    charge:    3.1237    magn:   -0.0001    constr:    0.0000
     atom:   19    charge:    1.9130    magn:   -0.0000    constr:    0.0000
     atom:   20    charge:    1.9198    magn:    0.0000    constr:    0.0000
     atom:   21    charge:    1.9198    magn:    0.0000    constr:    0.0000
     atom:   22    charge:    3.1196    magn:    0.0000    constr:    0.0000
     atom:   23    charge:    1.9292    magn:   -0.0001    constr:    0.0000
     atom:   24    charge:    1.9122    magn:   -0.0000    constr:    0.0000
     atom:   25    charge:    1.9233    magn:   -0.0000    constr:    0.0000
     atom:   26    charge:    3.1145    magn:    0.0000    constr:    0.0000
     atom:   27    charge:    1.9126    magn:   -0.0000    constr:    0.0000
     atom:   28    charge:    1.9243    magn:   -0.0001    constr:    0.0000
     atom:   29    charge:    1.9202    magn:   -0.0001    constr:    0.0000
     atom:   30    charge:    3.1169    magn:    0.0000    constr:    0.0000
     atom:   31    charge:    1.9175    magn:   -0.0000    constr:    0.0000
     atom:   32    charge:    1.9164    magn:   -0.0001    constr:    0.0000
     atom:   33    charge:    1.8900    magn:    0.0003    constr:    0.0000
     atom:   34    charge:    3.1237    magn:   -0.0001    constr:    0.0000
     atom:   35    charge:    1.9130    magn:   -0.0000    constr:    0.0000
     atom:   36    charge:    1.9198    magn:    0.0000    constr:    0.0000
     atom:   37    charge:    1.9198    magn:    0.0000    constr:    0.0000
     atom:   38    charge:    3.1196    magn:    0.0000    constr:    0.0000
     atom:   39    charge:    1.9272    magn:   -0.0001    constr:    0.0000
     atom:   40    charge:    1.9125    magn:   -0.0000    constr:    0.0000
     atom:   41    charge:    1.9232    magn:   -0.0000    constr:    0.0000
     atom:   42    charge:    3.1141    magn:    0.0000    constr:    0.0000
     atom:   43    charge:    1.9145    magn:   -0.0000    constr:    0.0000
     atom:   44    charge:    1.9244    magn:   -0.0001    constr:    0.0000
     atom:   45    charge:    1.9196    magn:   -0.0001    constr:    0.0000
     atom:   46    charge:    3.1167    magn:    0.0000    constr:    0.0000
     atom:   47    charge:    1.9161    magn:   -0.0000    constr:    0.0000
     atom:   48    charge:    1.9163    magn:   -0.0001    constr:    0.0000
     atom:   49    charge:    0.6666    magn:   -0.0000    constr:    0.0000
     atom:   50    charge:    1.9379    magn:   -0.0000    constr:    0.0000
     atom:   51    charge:    0.3952    magn:    0.0000    constr:    0.0000
     atom:   52    charge:    0.3980    magn:    0.0000    constr:    0.0000
     atom:   53    charge:    0.3980    magn:    0.0000    constr:    0.0000
     atom:   54    charge:    0.3987    magn:    0.0000    constr:    0.0000

     total cpu time spent up to now is     1305.7 secs

     total energy              =   -3021.41837393 Ry
     Harris-Foulkes estimate   =   -3021.42707685 Ry
     estimated scf accuracy    <       0.01798144 Ry

     total magnetization       =     0.00 Bohr mag/cell
     absolute magnetization    =     0.00 Bohr mag/cell

     iteration #  4     ecut=    40.42 Ry     beta=0.10
     Davidson diagonalization with overlap
     ethr =  4.52E-06,  avg # of iterations =  6.5

     negative rho (up, down):  1.208E-02 1.208E-02
 
     Magnetic moment per site:
     atom:    1    charge:    3.1250    magn:   -0.0001    constr:    0.0000
     atom:    2    charge:    1.9173    magn:    0.0000    constr:    0.0000
     atom:    3    charge:    3.1198    magn:    0.0000    constr:    0.0000
     atom:    4    charge:    1.9231    magn:   -0.0000    constr:    0.0000
     atom:    5    charge:    3.1166    magn:    0.0000    constr:    0.0000
     atom:    6    charge:    1.9200    magn:   -0.0001    constr:    0.0000
     atom:    7    charge:    3.1169    magn:    0.0000    constr:    0.0000
     atom:    8    charge:    1.9176    magn:   -0.0001    constr:    0.0000
     atom:    9    charge:    3.1250    magn:   -0.0001    constr:    0.0000
     atom:   10    charge:    1.9174    magn:    0.0000    constr:    0.0000
     atom:   11    charge:    3.1197    magn:    0.0000    constr:    0.0000
     atom:   12    charge:    1.9231    magn:   -0.0000    constr:    0.0000
     atom:   13    charge:    3.1159    magn:    0.0000    constr:    0.0000
     atom:   14    charge:    1.9317    magn:   -0.0001    constr:    0.0000
     atom:   15    charge:    3.1186    magn:    0.0000    constr:    0.0000
     atom:   16    charge:    1.9172    magn:   -0.0001    constr:    0.0000
     atom:   17    charge:    1.8902    magn:    0.0003    constr:    0.0000
     atom:   18    charge:    3.1238    magn:   -0.0001    constr:    0.0000
     atom:   19    charge:    1.9129    magn:   -0.0000    constr:    0.0000
     atom:   20    charge:    1.9198    magn:    0.0000    constr:    0.0000
     atom:   21    charge:    1.9198    magn:    0.0000    constr:    0.0000
     atom:   22    charge:    3.1196    magn:    0.0000    constr:    0.0000
     atom:   23    charge:    1.9293    magn:   -0.0001    constr:    0.0000
     atom:   24    charge:    1.9120    magn:   -0.0000    constr:    0.0000
     atom:   25    charge:    1.9233    magn:   -0.0000    constr:    0.0000
     atom:   26    charge:    3.1145    magn:    0.0000    constr:    0.0000
     atom:   27    charge:    1.9124    magn:   -0.0000    constr:    0.0000
     atom:   28    charge:    1.9243    magn:   -0.0000    constr:    0.0000
     atom:   29    charge:    1.9202    magn:   -0.0001    constr:    0.0000
     atom:   30    charge:    3.1168    magn:    0.0000    constr:    0.0000
     atom:   31    charge:    1.9173    magn:   -0.0000    constr:    0.0000
     atom:   32    charge:    1.9167    magn:   -0.0001    constr:    0.0000
     atom:   33    charge:    1.8902    magn:    0.0003    constr:    0.0000
     atom:   34    charge:    3.1238    magn:   -0.0001    constr:    0.0000
     atom:   35    charge:    1.9130    magn:   -0.0000    constr:    0.0000
     atom:   36    charge:    1.9198    magn:    0.0000    constr:    0.0000
     atom:   37    charge:    1.9198    magn:    0.0000    constr:    0.0000
     atom:   38    charge:    3.1196    magn:    0.0000    constr:    0.0000
     atom:   39    charge:    1.9273    magn:   -0.0001    constr:    0.0000
     atom:   40    charge:    1.9123    magn:   -0.0000    constr:    0.0000
     atom:   41    charge:    1.9232    magn:   -0.0000    constr:    0.0000
     atom:   42    charge:    3.1141    magn:    0.0000    constr:    0.0000
     atom:   43    charge:    1.9145    magn:   -0.0000    constr:    0.0000
     atom:   44    charge:    1.9245    magn:   -0.0000    constr:    0.0000
     atom:   45    charge:    1.9196    magn:   -0.0001    constr:    0.0000
     atom:   46    charge:    3.1166    magn:    0.0000    constr:    0.0000
     atom:   47    charge:    1.9161    magn:   -0.0000    constr:    0.0000
     atom:   48    charge:    1.9166    magn:   -0.0001    constr:    0.0000
     atom:   49    charge:    0.6650    magn:   -0.0000    constr:    0.0000
     atom:   50    charge:    1.9399    magn:   -0.0000    constr:    0.0000
     atom:   51    charge:    0.3957    magn:    0.0000    constr:    0.0000
     atom:   52    charge:    0.3987    magn:    0.0000    constr:    0.0000
     atom:   53    charge:    0.3983    magn:    0.0000    constr:    0.0000
     atom:   54    charge:    0.3989    magn:    0.0000    constr:    0.0000

     total cpu time spent up to now is     1571.4 secs

     total energy              =   -3021.41896007 Ry
     Harris-Foulkes estimate   =   -3021.42005800 Ry
     estimated scf accuracy    <       0.00273431 Ry

     total magnetization       =     0.00 Bohr mag/cell
     absolute magnetization    =     0.00 Bohr mag/cell

     iteration #  5     ecut=    40.42 Ry     beta=0.10
     Davidson diagonalization with overlap
     ethr =  6.87E-07,  avg # of iterations =  5.2

     negative rho (up, down):  1.209E-02 1.209E-02
 
     Magnetic moment per site:
     atom:    1    charge:    3.1250    magn:   -0.0001    constr:    0.0000
     atom:    2    charge:    1.9174    magn:    0.0000    constr:    0.0000
     atom:    3    charge:    3.1197    magn:    0.0000    constr:    0.0000
     atom:    4    charge:    1.9231    magn:   -0.0000    constr:    0.0000
     atom:    5    charge:    3.1166    magn:    0.0000    constr:    0.0000
     atom:    6    charge:    1.9203    magn:   -0.0000    constr:    0.0000
     atom:    7    charge:    3.1168    magn:    0.0000    constr:    0.0000
     atom:    8    charge:    1.9184    magn:   -0.0000    constr:    0.0000
     atom:    9    charge:    3.1250    magn:   -0.0001    constr:    0.0000
     atom:   10    charge:    1.9174    magn:    0.0000    constr:    0.0000
     atom:   11    charge:    3.1196    magn:    0.0000    constr:    0.0000
     atom:   12    charge:    1.9231    magn:   -0.0000    constr:    0.0000
     atom:   13    charge:    3.1158    magn:    0.0000    constr:    0.0000
     atom:   14    charge:    1.9316    magn:   -0.0000    constr:    0.0000
     atom:   15    charge:    3.1188    magn:    0.0000    constr:    0.0000
     atom:   16    charge:    1.9180    magn:   -0.0000    constr:    0.0000
     atom:   17    charge:    1.8905    magn:    0.0002    constr:    0.0000
     atom:   18    charge:    3.1240    magn:   -0.0000    constr:    0.0000
     atom:   19    charge:    1.9129    magn:   -0.0000    constr:    0.0000
     atom:   20    charge:    1.9198    magn:    0.0000    constr:    0.0000
     atom:   21    charge:    1.9198    magn:    0.0000    constr:    0.0000
     atom:   22    charge:    3.1197    magn:    0.0000    constr:    0.0000
     atom:   23    charge:    1.9295    magn:   -0.0000    constr:    0.0000
     atom:   24    charge:    1.9117    magn:   -0.0000    constr:    0.0000
     atom:   25    charge:    1.9233    magn:   -0.0000    constr:    0.0000
     atom:   26    charge:    3.1146    magn:    0.0000    constr:    0.0000
     atom:   27    charge:    1.9119    magn:   -0.0000    constr:    0.0000
     atom:   28    charge:    1.9244    magn:   -0.0000    constr:    0.0000
     atom:   29    charge:    1.9202    magn:   -0.0000    constr:    0.0000
     atom:   30    charge:    3.1166    magn:    0.0000    constr:    0.0000
     atom:   31    charge:    1.9173    magn:   -0.0000    constr:    0.0000
     atom:   32    charge:    1.9171    magn:   -0.0000    constr:    0.0000
     atom:   33    charge:    1.8905    magn:    0.0002    constr:    0.0000
     atom:   34    charge:    3.1240    magn:   -0.0000    constr:    0.0000
     atom:   35    charge:    1.9130    magn:   -0.0000    constr:    0.0000
     atom:   36    charge:    1.9198    magn:    0.0000    constr:    0.0000
     atom:   37    charge:    1.9198    magn:    0.0000    constr:    0.0000
     atom:   38    charge:    3.1197    magn:    0.0000    constr:    0.0000
     atom:   39    charge:    1.9275    magn:   -0.0000    constr:    0.0000
     atom:   40    charge:    1.9121    magn:   -0.0000    constr:    0.0000
     atom:   41    charge:    1.9232    magn:   -0.0000    constr:    0.0000
     atom:   42    charge:    3.1142    magn:    0.0000    constr:    0.0000
     atom:   43    charge:    1.9143    magn:   -0.0000    constr:    0.0000
     atom:   44    charge:    1.9245    magn:   -0.0000    constr:    0.0000
     atom:   45    charge:    1.9196    magn:   -0.0000    constr:    0.0000
     atom:   46    charge:    3.1164    magn:    0.0000    constr:    0.0000
     atom:   47    charge:    1.9166    magn:   -0.0000    constr:    0.0000
     atom:   48    charge:    1.9170    magn:   -0.0000    constr:    0.0000
     atom:   49    charge:    0.6610    magn:   -0.0000    constr:    0.0000
     atom:   50    charge:    1.9412    magn:   -0.0000    constr:    0.0000
     atom:   51    charge:    0.3969    magn:    0.0000    constr:    0.0000
     atom:   52    charge:    0.3992    magn:    0.0000    constr:    0.0000
     atom:   53    charge:    0.3986    magn:    0.0000    constr:    0.0000
     atom:   54    charge:    0.3993    magn:    0.0000    constr:    0.0000

     total cpu time spent up to now is     1809.3 secs

     total energy              =   -3021.41879550 Ry
     Harris-Foulkes estimate   =   -3021.41918120 Ry
     estimated scf accuracy    <       0.00085170 Ry

     total magnetization       =     0.00 Bohr mag/cell
     absolute magnetization    =     0.00 Bohr mag/cell

     iteration #  6     ecut=    40.42 Ry     beta=0.10
     Davidson diagonalization with overlap
     ethr =  2.14E-07,  avg # of iterations =  3.6

     negative rho (up, down):  1.209E-02 1.209E-02
 
     Magnetic moment per site:
     atom:    1    charge:    3.1250    magn:   -0.0001    constr:    0.0000
     atom:    2    charge:    1.9174    magn:    0.0000    constr:    0.0000
     atom:    3    charge:    3.1198    magn:    0.0000    constr:    0.0000
     atom:    4    charge:    1.9231    magn:   -0.0000    constr:    0.0000
     atom:    5    charge:    3.1166    magn:    0.0000    constr:    0.0000
     atom:    6    charge:    1.9204    magn:   -0.0000    constr:    0.0000
     atom:    7    charge:    3.1162    magn:    0.0000    constr:    0.0000
     atom:    8    charge:    1.9182    magn:   -0.0000    constr:    0.0000
     atom:    9    charge:    3.1250    magn:   -0.0001    constr:    0.0000
     atom:   10    charge:    1.9174    magn:    0.0000    constr:    0.0000
     atom:   11    charge:    3.1197    magn:    0.0000    constr:    0.0000
     atom:   12    charge:    1.9231    magn:   -0.0000    constr:    0.0000
     atom:   13    charge:    3.1158    magn:    0.0000    constr:    0.0000
     atom:   14    charge:    1.9317    magn:   -0.0000    constr:    0.0000
     atom:   15    charge:    3.1188    magn:    0.0000    constr:    0.0000
     atom:   16    charge:    1.9178    magn:   -0.0000    constr:    0.0000
     atom:   17    charge:    1.8905    magn:    0.0002    constr:    0.0000
     atom:   18    charge:    3.1239    magn:   -0.0000    constr:    0.0000
     atom:   19    charge:    1.9129    magn:   -0.0000    constr:    0.0000
     atom:   20    charge:    1.9198    magn:    0.0000    constr:    0.0000
     atom:   21    charge:    1.9198    magn:    0.0000    constr:    0.0000
     atom:   22    charge:    3.1196    magn:    0.0000    constr:    0.0000
     atom:   23    charge:    1.9295    magn:   -0.0000    constr:    0.0000
     atom:   24    charge:    1.9118    magn:   -0.0000    constr:    0.0000
     atom:   25    charge:    1.9232    magn:   -0.0000    constr:    0.0000
     atom:   26    charge:    3.1145    magn:    0.0000    constr:    0.0000
     atom:   27    charge:    1.9120    magn:   -0.0000    constr:    0.0000
     atom:   28    charge:    1.9243    magn:   -0.0000    constr:    0.0000
     atom:   29    charge:    1.9202    magn:   -0.0000    constr:    0.0000
     atom:   30    charge:    3.1167    magn:    0.0000    constr:    0.0000
     atom:   31    charge:    1.9175    magn:   -0.0000    constr:    0.0000
     atom:   32    charge:    1.9169    magn:   -0.0000    constr:    0.0000
     atom:   33    charge:    1.8905    magn:    0.0002    constr:    0.0000
     atom:   34    charge:    3.1239    magn:   -0.0000    constr:    0.0000
     atom:   35    charge:    1.9129    magn:   -0.0000    constr:    0.0000
     atom:   36    charge:    1.9198    magn:    0.0000    constr:    0.0000
     atom:   37    charge:    1.9198    magn:    0.0000    constr:    0.0000
     atom:   38    charge:    3.1196    magn:    0.0000    constr:    0.0000
     atom:   39    charge:    1.9275    magn:   -0.0000    constr:    0.0000
     atom:   40    charge:    1.9122    magn:   -0.0000    constr:    0.0000
     atom:   41    charge:    1.9232    magn:   -0.0000    constr:    0.0000
     atom:   42    charge:    3.1141    magn:    0.0000    constr:    0.0000
     atom:   43    charge:    1.9143    magn:   -0.0000    constr:    0.0000
     atom:   44    charge:    1.9245    magn:   -0.0000    constr:    0.0000
     atom:   45    charge:    1.9196    magn:   -0.0000    constr:    0.0000
     atom:   46    charge:    3.1165    magn:    0.0000    constr:    0.0000
     atom:   47    charge:    1.9167    magn:   -0.0000    constr:    0.0000
     atom:   48    charge:    1.9168    magn:   -0.0000    constr:    0.0000
     atom:   49    charge:    0.6611    magn:   -0.0000    constr:    0.0000
     atom:   50    charge:    1.9414    magn:   -0.0000    constr:    0.0000
     atom:   51    charge:    0.3970    magn:    0.0000    constr:    0.0000
     atom:   52    charge:    0.3993    magn:    0.0000    constr:    0.0000
     atom:   53    charge:    0.3986    magn:    0.0000    constr:    0.0000
     atom:   54    charge:    0.3993    magn:    0.0000    constr:    0.0000

     total cpu time spent up to now is     2026.8 secs

     total energy              =   -3021.41889273 Ry
     Harris-Foulkes estimate   =   -3021.41892894 Ry
     estimated scf accuracy    <       0.00013207 Ry

     total magnetization       =     0.00 Bohr mag/cell
     absolute magnetization    =     0.00 Bohr mag/cell

     iteration #  7     ecut=    40.42 Ry     beta=0.10
     Davidson diagonalization with overlap
     ethr =  3.32E-08,  avg # of iterations =  2.5

     negative rho (up, down):  1.209E-02 1.209E-02
 
     Magnetic moment per site:
     atom:    1    charge:    3.1250    magn:   -0.0001    constr:    0.0000
     atom:    2    charge:    1.9174    magn:    0.0000    constr:    0.0000
     atom:    3    charge:    3.1198    magn:    0.0000    constr:    0.0000
     atom:    4    charge:    1.9231    magn:   -0.0000    constr:    0.0000
     atom:    5    charge:    3.1166    magn:    0.0000    constr:    0.0000
     atom:    6    charge:    1.9204    magn:   -0.0000    constr:    0.0000
     atom:    7    charge:    3.1160    magn:    0.0000    constr:    0.0000
     atom:    8    charge:    1.9180    magn:   -0.0000    constr:    0.0000
     atom:    9    charge:    3.1250    magn:   -0.0001    constr:    0.0000
     atom:   10    charge:    1.9174    magn:    0.0000    constr:    0.0000
     atom:   11    charge:    3.1197    magn:    0.0000    constr:    0.0000
     atom:   12    charge:    1.9231    magn:   -0.0000    constr:    0.0000
     atom:   13    charge:    3.1158    magn:    0.0000    constr:    0.0000
     atom:   14    charge:    1.9318    magn:   -0.0000    constr:    0.0000
     atom:   15    charge:    3.1189    magn:    0.0000    constr:    0.0000
     atom:   16    charge:    1.9177    magn:   -0.0000    constr:    0.0000
     atom:   17    charge:    1.8905    magn:    0.0002    constr:    0.0000
     atom:   18    charge:    3.1240    magn:   -0.0000    constr:    0.0000
     atom:   19    charge:    1.9129    magn:   -0.0000    constr:    0.0000
     atom:   20    charge:    1.9198    magn:    0.0000    constr:    0.0000
     atom:   21    charge:    1.9198    magn:    0.0000    constr:    0.0000
     atom:   22    charge:    3.1196    magn:    0.0000    constr:    0.0000
     atom:   23    charge:    1.9295    magn:   -0.0000    constr:    0.0000
     atom:   24    charge:    1.9119    magn:   -0.0000    constr:    0.0000
     atom:   25    charge:    1.9232    magn:   -0.0000    constr:    0.0000
     atom:   26    charge:    3.1145    magn:    0.0000    constr:    0.0000
     atom:   27    charge:    1.9121    magn:   -0.0000    constr:    0.0000
     atom:   28    charge:    1.9243    magn:   -0.0000    constr:    0.0000
     atom:   29    charge:    1.9202    magn:   -0.0000    constr:    0.0000
     atom:   30    charge:    3.1167    magn:    0.0000    constr:    0.0000
     atom:   31    charge:    1.9177    magn:   -0.0000    constr:    0.0000
     atom:   32    charge:    1.9168    magn:   -0.0000    constr:    0.0000
     atom:   33    charge:    1.8905    magn:    0.0002    constr:    0.0000
     atom:   34    charge:    3.1239    magn:   -0.0000    constr:    0.0000
     atom:   35    charge:    1.9129    magn:   -0.0000    constr:    0.0000
     atom:   36    charge:    1.9198    magn:    0.0000    constr:    0.0000
     atom:   37    charge:    1.9198    magn:    0.0000    constr:    0.0000
     atom:   38    charge:    3.1196    magn:    0.0000    constr:    0.0000
     atom:   39    charge:    1.9275    magn:   -0.0000    constr:    0.0000
     atom:   40    charge:    1.9122    magn:   -0.0000    constr:    0.0000
     atom:   41    charge:    1.9232    magn:   -0.0000    constr:    0.0000
     atom:   42    charge:    3.1141    magn:    0.0000    constr:    0.0000
     atom:   43    charge:    1.9144    magn:   -0.0000    constr:    0.0000
     atom:   44    charge:    1.9245    magn:   -0.0000    constr:    0.0000
     atom:   45    charge:    1.9196    magn:   -0.0000    constr:    0.0000
     atom:   46    charge:    3.1165    magn:    0.0000    constr:    0.0000
     atom:   47    charge:    1.9169    magn:   -0.0000    constr:    0.0000
     atom:   48    charge:    1.9167    magn:   -0.0000    constr:    0.0000
     atom:   49    charge:    0.6605    magn:   -0.0000    constr:    0.0000
     atom:   50    charge:    1.9416    magn:   -0.0000    constr:    0.0000
     atom:   51    charge:    0.3973    magn:    0.0000    constr:    0.0000
     atom:   52    charge:    0.3994    magn:    0.0000    constr:    0.0000
     atom:   53    charge:    0.3986    magn:    0.0000    constr:    0.0000
     atom:   54    charge:    0.3993    magn:    0.0000    constr:    0.0000

     total cpu time spent up to now is     2225.4 secs

     total energy              =   -3021.41889499 Ry
     Harris-Foulkes estimate   =   -3021.41890999 Ry
     estimated scf accuracy    <       0.00004996 Ry

     total magnetization       =     0.00 Bohr mag/cell
     absolute magnetization    =     0.00 Bohr mag/cell

     iteration #  8     ecut=    40.42 Ry     beta=0.10
     Davidson diagonalization with overlap
     ethr =  1.26E-08,  avg # of iterations =  3.0

     negative rho (up, down):  1.209E-02 1.209E-02
 
     Magnetic moment per site:
     atom:    1    charge:    3.1250    magn:   -0.0001    constr:    0.0000
     atom:    2    charge:    1.9174    magn:    0.0000    constr:    0.0000
     atom:    3    charge:    3.1198    magn:    0.0000    constr:    0.0000
     atom:    4    charge:    1.9231    magn:   -0.0000    constr:    0.0000
     atom:    5    charge:    3.1166    magn:    0.0000    constr:    0.0000
     atom:    6    charge:    1.9204    magn:   -0.0000    constr:    0.0000
     atom:    7    charge:    3.1158    magn:    0.0000    constr:    0.0000
     atom:    8    charge:    1.9180    magn:   -0.0000    constr:    0.0000
     atom:    9    charge:    3.1250    magn:   -0.0001    constr:    0.0000
     atom:   10    charge:    1.9174    magn:    0.0000    constr:    0.0000
     atom:   11    charge:    3.1197    magn:    0.0000    constr:    0.0000
     atom:   12    charge:    1.9231    magn:   -0.0000    constr:    0.0000
     atom:   13    charge:    3.1158    magn:    0.0000    constr:    0.0000
     atom:   14    charge:    1.9318    magn:   -0.0000    constr:    0.0000
     atom:   15    charge:    3.1188    magn:    0.0000    constr:    0.0000
     atom:   16    charge:    1.9176    magn:   -0.0000    constr:    0.0000
     atom:   17    charge:    1.8905    magn:    0.0001    constr:    0.0000
     atom:   18    charge:    3.1240    magn:   -0.0000    constr:    0.0000
     atom:   19    charge:    1.9129    magn:   -0.0000    constr:    0.0000
     atom:   20    charge:    1.9198    magn:    0.0000    constr:    0.0000
     atom:   21    charge:    1.9198    magn:    0.0000    constr:    0.0000
     atom:   22    charge:    3.1196    magn:    0.0000    constr:    0.0000
     atom:   23    charge:    1.9295    magn:   -0.0000    constr:    0.0000
     atom:   24    charge:    1.9119    magn:   -0.0000    constr:    0.0000
     atom:   25    charge:    1.9232    magn:   -0.0000    constr:    0.0000
     atom:   26    charge:    3.1145    magn:    0.0000    constr:    0.0000
     atom:   27    charge:    1.9121    magn:   -0.0000    constr:    0.0000
     atom:   28    charge:    1.9243    magn:   -0.0000    constr:    0.0000
     atom:   29    charge:    1.9202    magn:   -0.0000    constr:    0.0000
     atom:   30    charge:    3.1167    magn:    0.0000    constr:    0.0000
     atom:   31    charge:    1.9177    magn:   -0.0000    constr:    0.0000
     atom:   32    charge:    1.9167    magn:   -0.0000    constr:    0.0000
     atom:   33    charge:    1.8905    magn:    0.0001    constr:    0.0000
     atom:   34    charge:    3.1240    magn:   -0.0000    constr:    0.0000
     atom:   35    charge:    1.9129    magn:   -0.0000    constr:    0.0000
     atom:   36    charge:    1.9198    magn:    0.0000    constr:    0.0000
     atom:   37    charge:    1.9198    magn:    0.0000    constr:    0.0000
     atom:   38    charge:    3.1196    magn:    0.0000    constr:    0.0000
     atom:   39    charge:    1.9274    magn:   -0.0000    constr:    0.0000
     atom:   40    charge:    1.9122    magn:   -0.0000    constr:    0.0000
     atom:   41    charge:    1.9232    magn:   -0.0000    constr:    0.0000
     atom:   42    charge:    3.1141    magn:    0.0000    constr:    0.0000
     atom:   43    charge:    1.9144    magn:   -0.0000    constr:    0.0000
     atom:   44    charge:    1.9245    magn:   -0.0000    constr:    0.0000
     atom:   45    charge:    1.9196    magn:   -0.0000    constr:    0.0000
     atom:   46    charge:    3.1165    magn:    0.0000    constr:    0.0000
     atom:   47    charge:    1.9170    magn:   -0.0000    constr:    0.0000
     atom:   48    charge:    1.9166    magn:   -0.0000    constr:    0.0000
     atom:   49    charge:    0.6604    magn:   -0.0000    constr:    0.0000
     atom:   50    charge:    1.9418    magn:   -0.0000    constr:    0.0000
     atom:   51    charge:    0.3974    magn:    0.0000    constr:    0.0000
     atom:   52    charge:    0.3994    magn:    0.0000    constr:    0.0000
     atom:   53    charge:    0.3986    magn:    0.0000    constr:    0.0000
     atom:   54    charge:    0.3993    magn:    0.0000    constr:    0.0000

     total cpu time spent up to now is     2433.3 secs

     total energy              =   -3021.41889926 Ry
     Harris-Foulkes estimate   =   -3021.41890006 Ry
     estimated scf accuracy    <       0.00001062 Ry

     total magnetization       =     0.00 Bohr mag/cell
     absolute magnetization    =     0.00 Bohr mag/cell

     iteration #  9     ecut=    40.42 Ry     beta=0.10
     Davidson diagonalization with overlap
     ethr =  2.67E-09,  avg # of iterations =  3.0

     negative rho (up, down):  1.209E-02 1.209E-02
 
     Magnetic moment per site:
     atom:    1    charge:    3.1250    magn:   -0.0000    constr:    0.0000
     atom:    2    charge:    1.9174    magn:    0.0000    constr:    0.0000
     atom:    3    charge:    3.1198    magn:    0.0000    constr:    0.0000
     atom:    4    charge:    1.9231    magn:   -0.0000    constr:    0.0000
     atom:    5    charge:    3.1166    magn:    0.0000    constr:    0.0000
     atom:    6    charge:    1.9204    magn:   -0.0000    constr:    0.0000
     atom:    7    charge:    3.1157    magn:    0.0000    constr:    0.0000
     atom:    8    charge:    1.9179    magn:   -0.0000    constr:    0.0000
     atom:    9    charge:    3.1250    magn:   -0.0000    constr:    0.0000
     atom:   10    charge:    1.9174    magn:    0.0000    constr:    0.0000
     atom:   11    charge:    3.1197    magn:    0.0000    constr:    0.0000
     atom:   12    charge:    1.9231    magn:   -0.0000    constr:    0.0000
     atom:   13    charge:    3.1158    magn:    0.0000    constr:    0.0000
     atom:   14    charge:    1.9318    magn:   -0.0000    constr:    0.0000
     atom:   15    charge:    3.1188    magn:    0.0000    constr:    0.0000
     atom:   16    charge:    1.9176    magn:   -0.0000    constr:    0.0000
     atom:   17    charge:    1.8905    magn:    0.0001    constr:    0.0000
     atom:   18    charge:    3.1239    magn:   -0.0000    constr:    0.0000
     atom:   19    charge:    1.9129    magn:   -0.0000    constr:    0.0000
     atom:   20    charge:    1.9198    magn:    0.0000    constr:    0.0000
     atom:   21    charge:    1.9198    magn:    0.0000    constr:    0.0000
     atom:   22    charge:    3.1196    magn:    0.0000    constr:    0.0000
     atom:   23    charge:    1.9294    magn:   -0.0000    constr:    0.0000
     atom:   24    charge:    1.9119    magn:   -0.0000    constr:    0.0000
     atom:   25    charge:    1.9232    magn:   -0.0000    constr:    0.0000
     atom:   26    charge:    3.1145    magn:    0.0000    constr:    0.0000
     atom:   27    charge:    1.9121    magn:   -0.0000    constr:    0.0000
     atom:   28    charge:    1.9243    magn:   -0.0000    constr:    0.0000
     atom:   29    charge:    1.9202    magn:   -0.0000    constr:    0.0000
     atom:   30    charge:    3.1167    magn:    0.0000    constr:    0.0000
     atom:   31    charge:    1.9177    magn:   -0.0000    constr:    0.0000
     atom:   32    charge:    1.9166    magn:   -0.0000    constr:    0.0000
     atom:   33    charge:    1.8905    magn:    0.0001    constr:    0.0000
     atom:   34    charge:    3.1239    magn:   -0.0000    constr:    0.0000
     atom:   35    charge:    1.9129    magn:   -0.0000    constr:    0.0000
     atom:   36    charge:    1.9198    magn:    0.0000    constr:    0.0000
     atom:   37    charge:    1.9198    magn:    0.0000    constr:    0.0000
     atom:   38    charge:    3.1196    magn:    0.0000    constr:    0.0000
     atom:   39    charge:    1.9274    magn:   -0.0000    constr:    0.0000
     atom:   40    charge:    1.9122    magn:   -0.0000    constr:    0.0000
     atom:   41    charge:    1.9232    magn:   -0.0000    constr:    0.0000
     atom:   42    charge:    3.1141    magn:    0.0000    constr:    0.0000
     atom:   43    charge:    1.9144    magn:   -0.0000    constr:    0.0000
     atom:   44    charge:    1.9245    magn:   -0.0000    constr:    0.0000
     atom:   45    charge:    1.9196    magn:   -0.0000    constr:    0.0000
     atom:   46    charge:    3.1165    magn:    0.0000    constr:    0.0000
     atom:   47    charge:    1.9170    magn:   -0.0000    constr:    0.0000
     atom:   48    charge:    1.9165    magn:   -0.0000    constr:    0.0000
     atom:   49    charge:    0.6607    magn:   -0.0000    constr:    0.0000
     atom:   50    charge:    1.9419    magn:   -0.0000    constr:    0.0000
     atom:   51    charge:    0.3973    magn:    0.0000    constr:    0.0000
     atom:   52    charge:    0.3994    magn:    0.0000    constr:    0.0000
     atom:   53    charge:    0.3986    magn:    0.0000    constr:    0.0000
     atom:   54    charge:    0.3993    magn:    0.0000    constr:    0.0000

     total cpu time spent up to now is     2640.6 secs

     total energy              =   -3021.41889898 Ry
     Harris-Foulkes estimate   =   -3021.41890029 Ry
     estimated scf accuracy    <       0.00000643 Ry

     total magnetization       =     0.00 Bohr mag/cell
     absolute magnetization    =     0.00 Bohr mag/cell

     iteration # 10     ecut=    40.42 Ry     beta=0.10
     Davidson diagonalization with overlap
     ethr =  1.62E-09,  avg # of iterations =  3.1

     negative rho (up, down):  1.209E-02 1.209E-02
 
     Magnetic moment per site:
     atom:    1    charge:    3.1250    magn:   -0.0000    constr:    0.0000
     atom:    2    charge:    1.9174    magn:    0.0000    constr:    0.0000
     atom:    3    charge:    3.1198    magn:    0.0000    constr:    0.0000
     atom:    4    charge:    1.9231    magn:   -0.0000    constr:    0.0000
     atom:    5    charge:    3.1166    magn:    0.0000    constr:    0.0000
     atom:    6    charge:    1.9204    magn:   -0.0000    constr:    0.0000
     atom:    7    charge:    3.1156    magn:    0.0000    constr:    0.0000
     atom:    8    charge:    1.9180    magn:   -0.0000    constr:    0.0000
     atom:    9    charge:    3.1250    magn:   -0.0000    constr:    0.0000
     atom:   10    charge:    1.9174    magn:    0.0000    constr:    0.0000
     atom:   11    charge:    3.1197    magn:    0.0000    constr:    0.0000
     atom:   12    charge:    1.9231    magn:   -0.0000    constr:    0.0000
     atom:   13    charge:    3.1158    magn:    0.0000    constr:    0.0000
     atom:   14    charge:    1.9318    magn:   -0.0000    constr:    0.0000
     atom:   15    charge:    3.1188    magn:    0.0000    constr:    0.0000
     atom:   16    charge:    1.9176    magn:   -0.0000    constr:    0.0000
     atom:   17    charge:    1.8905    magn:    0.0001    constr:    0.0000
     atom:   18    charge:    3.1239    magn:   -0.0000    constr:    0.0000
     atom:   19    charge:    1.9129    magn:   -0.0000    constr:    0.0000
     atom:   20    charge:    1.9198    magn:    0.0000    constr:    0.0000
     atom:   21    charge:    1.9198    magn:    0.0000    constr:    0.0000
     atom:   22    charge:    3.1196    magn:    0.0000    constr:    0.0000
     atom:   23    charge:    1.9294    magn:   -0.0000    constr:    0.0000
     atom:   24    charge:    1.9119    magn:   -0.0000    constr:    0.0000
     atom:   25    charge:    1.9232    magn:   -0.0000    constr:    0.0000
     atom:   26    charge:    3.1145    magn:    0.0000    constr:    0.0000
     atom:   27    charge:    1.9121    magn:   -0.0000    constr:    0.0000
     atom:   28    charge:    1.9243    magn:   -0.0000    constr:    0.0000
     atom:   29    charge:    1.9202    magn:   -0.0000    constr:    0.0000
     atom:   30    charge:    3.1167    magn:    0.0000    constr:    0.0000
     atom:   31    charge:    1.9177    magn:   -0.0000    constr:    0.0000
     atom:   32    charge:    1.9167    magn:   -0.0000    constr:    0.0000
     atom:   33    charge:    1.8905    magn:    0.0001    constr:    0.0000
     atom:   34    charge:    3.1239    magn:   -0.0000    constr:    0.0000
     atom:   35    charge:    1.9129    magn:   -0.0000    constr:    0.0000
     atom:   36    charge:    1.9198    magn:    0.0000    constr:    0.0000
     atom:   37    charge:    1.9198    magn:    0.0000    constr:    0.0000
     atom:   38    charge:    3.1196    magn:    0.0000    constr:    0.0000
     atom:   39    charge:    1.9274    magn:   -0.0000    constr:    0.0000
     atom:   40    charge:    1.9122    magn:   -0.0000    constr:    0.0000
     atom:   41    charge:    1.9232    magn:   -0.0000    constr:    0.0000
     atom:   42    charge:    3.1141    magn:    0.0000    constr:    0.0000
     atom:   43    charge:    1.9144    magn:   -0.0000    constr:    0.0000
     atom:   44    charge:    1.9245    magn:   -0.0000    constr:    0.0000
     atom:   45    charge:    1.9196    magn:   -0.0000    constr:    0.0000
     atom:   46    charge:    3.1165    magn:    0.0000    constr:    0.0000
     atom:   47    charge:    1.9169    magn:   -0.0000    constr:    0.0000
     atom:   48    charge:    1.9165    magn:   -0.0000    constr:    0.0000
     atom:   49    charge:    0.6608    magn:   -0.0000    constr:    0.0000
     atom:   50    charge:    1.9419    magn:   -0.0000    constr:    0.0000
     atom:   51    charge:    0.3973    magn:    0.0000    constr:    0.0000
     atom:   52    charge:    0.3994    magn:    0.0000    constr:    0.0000
     atom:   53    charge:    0.3986    magn:    0.0000    constr:    0.0000
     atom:   54    charge:    0.3993    magn:    0.0000    constr:    0.0000

     total cpu time spent up to now is     2847.8 secs

     total energy              =   -3021.41890002 Ry
     Harris-Foulkes estimate   =   -3021.41889965 Ry
     estimated scf accuracy    <       0.00000098 Ry

     total magnetization       =     0.00 Bohr mag/cell
     absolute magnetization    =     0.00 Bohr mag/cell

     iteration # 11     ecut=    40.42 Ry     beta=0.10
     Davidson diagonalization with overlap
     ethr =  2.47E-10,  avg # of iterations =  3.7

     negative rho (up, down):  1.208E-02 1.208E-02
 
     Magnetic moment per site:
     atom:    1    charge:    3.1250    magn:   -0.0000    constr:    0.0000
     atom:    2    charge:    1.9174    magn:    0.0000    constr:    0.0000
     atom:    3    charge:    3.1198    magn:    0.0000    constr:    0.0000
     atom:    4    charge:    1.9231    magn:   -0.0000    constr:    0.0000
     atom:    5    charge:    3.1166    magn:    0.0000    constr:    0.0000
     atom:    6    charge:    1.9204    magn:   -0.0000    constr:    0.0000
     atom:    7    charge:    3.1157    magn:    0.0000    constr:    0.0000
     atom:    8    charge:    1.9180    magn:   -0.0000    constr:    0.0000
     atom:    9    charge:    3.1250    magn:   -0.0000    constr:    0.0000
     atom:   10    charge:    1.9174    magn:    0.0000    constr:    0.0000
     atom:   11    charge:    3.1197    magn:    0.0000    constr:    0.0000
     atom:   12    charge:    1.9231    magn:   -0.0000    constr:    0.0000
     atom:   13    charge:    3.1158    magn:    0.0000    constr:    0.0000
     atom:   14    charge:    1.9318    magn:   -0.0000    constr:    0.0000
     atom:   15    charge:    3.1188    magn:    0.0000    constr:    0.0000
     atom:   16    charge:    1.9176    magn:   -0.0000    constr:    0.0000
     atom:   17    charge:    1.8905    magn:    0.0000    constr:    0.0000
     atom:   18    charge:    3.1239    magn:   -0.0000    constr:    0.0000
     atom:   19    charge:    1.9129    magn:   -0.0000    constr:    0.0000
     atom:   20    charge:    1.9198    magn:    0.0000    constr:    0.0000
     atom:   21    charge:    1.9198    magn:    0.0000    constr:    0.0000
     atom:   22    charge:    3.1196    magn:    0.0000    constr:    0.0000
     atom:   23    charge:    1.9295    magn:   -0.0000    constr:    0.0000
     atom:   24    charge:    1.9118    magn:   -0.0000    constr:    0.0000
     atom:   25    charge:    1.9232    magn:   -0.0000    constr:    0.0000
     atom:   26    charge:    3.1145    magn:    0.0000    constr:    0.0000
     atom:   27    charge:    1.9121    magn:   -0.0000    constr:    0.0000
     atom:   28    charge:    1.9243    magn:   -0.0000    constr:    0.0000
     atom:   29    charge:    1.9202    magn:   -0.0000    constr:    0.0000
     atom:   30    charge:    3.1167    magn:    0.0000    constr:    0.0000
     atom:   31    charge:    1.9177    magn:   -0.0000    constr:    0.0000
     atom:   32    charge:    1.9167    magn:   -0.0000    constr:    0.0000
     atom:   33    charge:    1.8905    magn:    0.0000    constr:    0.0000
     atom:   34    charge:    3.1239    magn:   -0.0000    constr:    0.0000
     atom:   35    charge:    1.9129    magn:   -0.0000    constr:    0.0000
     atom:   36    charge:    1.9198    magn:    0.0000    constr:    0.0000
     atom:   37    charge:    1.9198    magn:    0.0000    constr:    0.0000
     atom:   38    charge:    3.1196    magn:    0.0000    constr:    0.0000
     atom:   39    charge:    1.9275    magn:   -0.0000    constr:    0.0000
     atom:   40    charge:    1.9122    magn:   -0.0000    constr:    0.0000
     atom:   41    charge:    1.9232    magn:   -0.0000    constr:    0.0000
     atom:   42    charge:    3.1141    magn:    0.0000    constr:    0.0000
     atom:   43    charge:    1.9143    magn:   -0.0000    constr:    0.0000
     atom:   44    charge:    1.9245    magn:   -0.0000    constr:    0.0000
     atom:   45    charge:    1.9196    magn:   -0.0000    constr:    0.0000
     atom:   46    charge:    3.1165    magn:    0.0000    constr:    0.0000
     atom:   47    charge:    1.9169    magn:   -0.0000    constr:    0.0000
     atom:   48    charge:    1.9166    magn:   -0.0000    constr:    0.0000
     atom:   49    charge:    0.6607    magn:   -0.0000    constr:    0.0000
     atom:   50    charge:    1.9420    magn:   -0.0000    constr:    0.0000
     atom:   51    charge:    0.3972    magn:    0.0000    constr:    0.0000
     atom:   52    charge:    0.3994    magn:    0.0000    constr:    0.0000
     atom:   53    charge:    0.3986    magn:    0.0000    constr:    0.0000
     atom:   54    charge:    0.3993    magn:    0.0000    constr:    0.0000

     total cpu time spent up to now is     3065.4 secs

     End of self-consistent calculation

 ------ SPIN UP ------------


          k = 0.0000 0.0000 0.0000 ( 34665 PWs)   bands (ev):

   -57.7212 -57.6862 -57.3455 -57.3092 -57.2657 -57.1339 -57.0974 -57.0965
   -57.0810 -57.0618 -57.0161 -56.9806 -56.7539 -56.7164 -56.1714 -56.1361
   -34.1572 -34.0034 -33.9749 -33.9222 -33.8979 -33.8279 -33.7674 -33.6848
   -33.6466 -33.6293 -33.5918 -33.5683 -33.5451 -33.5352 -33.5177 -33.5172
   -33.4968 -33.4823 -33.4610 -33.4229 -33.3483 -33.3162 -33.2959 -33.2866
   -33.2849 -33.2805 -33.2672 -33.2662 -33.2612 -33.2600 -33.2537 -33.2366
   -33.2065 -33.2059 -33.1988 -33.1666 -33.1444 -33.0200 -33.0028 -32.9817
   -32.9314 -32.8281 -32.5892 -32.5237 -32.4976 -32.3934 -32.3017 -32.1934
   -20.4316 -18.0398 -17.8645 -17.5831 -17.4892 -17.3997 -17.2798 -17.1031
   -17.0884 -17.0016 -16.9622 -16.9063 -16.8110 -16.8065 -16.7582 -16.7320
   -16.7285 -16.6894 -16.6340 -16.6332 -16.5603 -16.4424 -16.4273 -16.4211
   -16.3508 -16.2921 -16.2186 -16.1910 -16.1732 -16.0020 -15.9518 -14.7553
   -14.6716 -11.4767  -7.2986  -5.5008  -5.4186  -5.3473  -5.2323  -5.2289
    -5.1718  -5.1552  -4.8632  -4.8450  -4.4959  -4.4699  -4.3847  -4.3819
    -4.3489  -4.2553  -4.1149  -4.0853  -4.0755  -4.0420  -4.0273  -4.0165
    -3.9828  -3.9804  -3.9745  -3.8645  -3.8145  -3.7930  -3.7617  -3.7409
    -3.6573  -3.6428  -3.6150  -3.6036  -3.5437  -3.5310  -3.4335  -3.4164
    -3.3875  -3.2738  -3.2448  -3.1496  -3.0380  -2.9581  -2.9009  -2.8387
    -2.7142  -2.6350  -2.6141  -2.6026  -2.5982  -2.5957  -2.4536  -2.4396
    -2.3601  -2.2928  -2.2699  -2.2287  -2.2247  -2.1809  -2.1649  -2.1185
    -2.0729  -2.0521  -2.0473  -1.9011  -1.8874  -1.7698  -1.7614  -1.6470
    -1.5693  -1.5629  -1.5150  -1.5066  -1.4864  -1.4479  -1.3394  -1.3339
    -1.3259  -1.3053  -1.2680  -1.1615  -1.1107  -1.0939  -1.0734  -1.0411
    -0.9793  -0.9403  -0.8327  -0.7828  -0.6346  -0.6117  -0.5919  -0.5051
    -0.4021  -0.2633  -0.1069  -0.0518   0.1093   0.2266   0.2402   1.6203
     1.6524   1.9614   1.9797   2.0381   2.0661   2.1810   2.2166   2.2604
     2.4021   2.4718   2.5014   2.5085   2.5180   2.6054   2.6236   2.6334
     2.6902   2.7745   2.8012   2.8124   2.8850   2.9717   3.0073   3.0692
     3.0830   3.0857   3.1370   3.1779   3.1822   3.2046   3.2146   3.2263
     3.2384   3.2626   3.3746   3.4096   3.4310   3.4411   3.5062   3.5591
     3.6280   3.6690   3.7815   3.9549   3.9920   4.0678   4.1579   4.2936
     4.3139   4.3697   4.5754   4.6034   4.7939   4.8143   5.0629   5.1402
     5.2229   5.3084   5.4673   5.4934   5.5400   5.5667   5.6584   5.6831
     5.7758   5.8400   5.8526   5.8629   5.9270   6.0259   6.0431   6.0681
     6.1225   6.2049   6.2136   6.2710   6.3541   6.5725   6.6129   6.7592
     6.8256   7.0037   7.0518   7.1724   7.2804   7.6151   7.9151   8.2413
     8.3715   8.7247   8.7767   8.8894   8.9331   9.0124   9.2122   9.3195
     9.3375   9.3975   9.5471

          k = 0.0000 0.0280 0.0000 ( 34717 PWs)   bands (ev):

   -57.7189 -57.6886 -57.3431 -57.3117 -57.2653 -57.1316 -57.0995 -57.0944
   -57.0815 -57.0641 -57.0138 -56.9830 -56.7515 -56.7189 -56.1690 -56.1385
   -34.1319 -34.0014 -33.9768 -33.9160 -33.8720 -33.8344 -33.7944 -33.6621
   -33.6398 -33.6044 -33.5664 -33.5653 -33.5484 -33.5280 -33.5232 -33.5108
   -33.5010 -33.4939 -33.4589 -33.4160 -33.3421 -33.3144 -33.3096 -33.2894
   -33.2882 -33.2831 -33.2766 -33.2637 -33.2621 -33.2603 -33.2599 -33.2407
   -33.2267 -33.2113 -33.2029 -33.1710 -33.1672 -33.0161 -33.0014 -32.9830
   -32.9365 -32.8561 -32.5635 -32.5220 -32.4995 -32.3873 -32.3080 -32.2209
   -20.4315 -17.9781 -17.8069 -17.5301 -17.4370 -17.3562 -17.2530 -17.1185
   -17.0582 -17.0215 -17.0183 -16.9087 -16.8482 -16.7887 -16.7358 -16.7160
   -16.7008 -16.6930 -16.6832 -16.6639 -16.6193 -16.4663 -16.4090 -16.3912
   -16.3773 -16.3216 -16.2357 -16.1977 -16.1767 -16.0326 -15.9889 -14.7654
   -14.6950 -11.4764  -7.2981  -5.4681  -5.3377  -5.2835  -5.2331  -5.1575
    -5.0942  -5.0759  -4.7876  -4.7307  -4.4625  -4.4274  -4.4177  -4.3383
    -4.3278  -4.1826  -4.1505  -4.1401  -4.1163  -4.0954  -4.0569  -4.0504
    -3.9894  -3.9866  -3.9754  -3.9178  -3.8789  -3.8722  -3.8644  -3.7910
    -3.7442  -3.7359  -3.6898  -3.6397  -3.6004  -3.5792  -3.4528  -3.3748
    -3.3093  -3.2545  -3.1724  -3.1090  -2.9587  -2.8932  -2.7581  -2.7458
    -2.6367  -2.6201  -2.5465  -2.5335  -2.5036  -2.4620  -2.4361  -2.4307
    -2.4115  -2.3873  -2.3110  -2.3019  -2.1910  -2.1658  -2.1605  -2.1196
    -2.0462  -2.0186  -1.9764  -1.8961  -1.8329  -1.7787  -1.7307  -1.7075
    -1.6684  -1.6500  -1.5909  -1.5505  -1.5015  -1.4636  -1.4599  -1.4216
    -1.3743  -1.2950  -1.2442  -1.2355  -1.1806  -1.1119  -1.0741  -1.0459
    -1.0271  -0.9281  -0.8761  -0.8142  -0.7807  -0.7307  -0.6327  -0.6168
    -0.4204  -0.2922  -0.1130  -0.1061   0.1243   0.1801   0.2068   1.7064
     1.7526   1.9633   2.0369   2.1013   2.1275   2.1919   2.2496   2.2868
     2.3985   2.4368   2.4768   2.5093   2.5605   2.5799   2.6036   2.6653
     2.7074   2.7435   2.7717   2.8854   2.8968   2.9241   2.9508   2.9864
     3.0830   3.0899   3.1108   3.1503   3.1686   3.1807   3.2320   3.2785
     3.3124   3.3475   3.3803   3.4471   3.4822   3.5293   3.5375   3.6263
     3.6397   3.6609   3.7454   3.9351   4.0094   4.0891   4.1692   4.2607
     4.3009   4.3667   4.5186   4.7017   4.8533   4.9007   5.0661   5.2336
     5.2787   5.3129   5.5133   5.5539   5.5766   5.6281   5.6614   5.7054
     5.7602   5.7674   5.8266   5.8534   5.8769   5.9256   6.0526   6.1043
     6.1273   6.1281   6.1683   6.1973   6.2512   6.5441   6.5815   6.6844
     6.8415   6.9325   7.0134   7.0902   7.2152   7.6216   7.9450   8.0333
     8.0465   8.4400   8.5902   8.8858   8.9618   9.0053   9.0854   9.1513
     9.2761   9.4556   9.5307

          k = 0.0000 0.0560 0.0000 ( 34721 PWs)   bands (ev):

   -57.7125 -57.6950 -57.3366 -57.3182 -57.2644 -57.1255 -57.1056 -57.0881
   -57.0823 -57.0706 -57.0073 -56.9895 -56.7449 -56.7256 -56.1626 -56.1449
   -34.0621 -33.9961 -33.9818 -33.8989 -33.8674 -33.8518 -33.8009 -33.6241
   -33.6045 -33.6000 -33.5632 -33.5549 -33.5319 -33.5308 -33.5081 -33.4963
   -33.4884 -33.4560 -33.4449 -33.3966 -33.3466 -33.3371 -33.3369 -33.3256
   -33.3101 -33.3003 -33.2939 -33.2919 -33.2775 -33.2725 -33.2583 -33.2562
   -33.2363 -33.2244 -33.1964 -33.1901 -33.1499 -33.0109 -32.9978 -32.9864
   -32.9494 -32.9259 -32.5172 -32.5042 -32.4928 -32.3707 -32.3249 -32.2950
   -20.4313 -17.8071 -17.6482 -17.3989 -17.3031 -17.2879 -17.2461 -17.1902
   -17.1631 -16.9902 -16.9753 -16.9419 -16.8992 -16.8483 -16.8172 -16.7477
   -16.7402 -16.7109 -16.6544 -16.6214 -16.5644 -16.5317 -16.4523 -16.4023
   -16.3877 -16.3251 -16.2645 -16.2193 -16.1804 -16.1320 -16.0619 -14.7835
   -14.7455 -11.4757  -7.2970  -5.4379  -5.2437  -5.0999  -5.0658  -4.9513
    -4.8834  -4.8531  -4.5857  -4.5333  -4.5001  -4.4450  -4.4327  -4.3928
    -4.3587  -4.2834  -4.2617  -4.2369  -4.2201  -4.2123  -4.1820  -4.1004
    -4.0844  -4.0291  -4.0146  -3.9939  -3.9541  -3.9185  -3.8840  -3.8400
    -3.8222  -3.7548  -3.6593  -3.6093  -3.4577  -3.4501  -3.3023  -3.2884
    -3.2642  -3.2270  -3.1965  -3.0983  -2.8899  -2.8665  -2.8493  -2.8234
    -2.7460  -2.6907  -2.5683  -2.4968  -2.4657  -2.3446  -2.3381  -2.3353
    -2.3270  -2.2736  -2.2317  -2.2042  -2.1701  -2.1405  -2.0554  -2.0365
    -1.9842  -1.9710  -1.9431  -1.9282  -1.9062  -1.8716  -1.8423  -1.8046
    -1.7671  -1.7132  -1.6499  -1.5671  -1.5521  -1.5352  -1.4816  -1.4449
    -1.4034  -1.3882  -1.3740  -1.3166  -1.2613  -1.2412  -1.1753  -1.1220
    -1.0790  -1.0479  -0.9413  -0.9017  -0.8744  -0.8080  -0.7885  -0.6824
    -0.6117  -0.4883  -0.2680   0.0696   0.1215   0.1568   0.1634   1.8421
     2.0022   2.0689   2.0866   2.1812   2.2080   2.2457   2.3396   2.3637
     2.3734   2.3854   2.4070   2.4523   2.4806   2.5083   2.6481   2.6689
     2.7055   2.7515   2.8056   2.8776   2.8892   2.9121   2.9472   2.9477
     2.9901   3.0738   3.1092   3.1319   3.2244   3.2346   3.2598   3.3064
     3.3413   3.3583   3.4169   3.5121   3.5190   3.6106   3.6520   3.7039
     3.7363   3.8004   3.8334   3.8673   3.9068   4.1061   4.1178   4.1352
     4.3013   4.3531   4.5273   4.8852   4.9901   5.0826   5.1550   5.3559
     5.3584   5.4516   5.4910   5.5238   5.6185   5.6977   5.7017   5.7086
     5.7548   5.7635   5.7795   5.8347   5.8627   5.9352   5.9500   5.9735
     6.0017   6.0304   6.1335   6.1474   6.3131   6.3702   6.4137   6.6168
     6.6536   6.7596   6.8603   7.0327   7.2544   7.3236   7.4577   7.7562
     8.1099   8.2329   8.3721   8.6493   8.9109   8.9766   9.3278   9.3539
     9.4307   9.4598   9.5977

          k = 0.0000-0.0840 0.0000 ( 34678 PWs)   bands (ev):

   -57.7039 -57.7037 -57.3291 -57.3257 -57.2640 -57.1200 -57.1111 -57.0827
   -57.0794 -57.0793 -56.9990 -56.9978 -56.7379 -56.7326 -56.1538 -56.1538
   -33.9890 -33.9889 -33.9655 -33.9654 -33.8755 -33.8753 -33.7140 -33.6901
   -33.5941 -33.5914 -33.5607 -33.5457 -33.5413 -33.5087 -33.4855 -33.4535
   -33.4383 -33.4316 -33.3992 -33.3990 -33.3927 -33.3712 -33.3653 -33.3503
   -33.3489 -33.3090 -33.3022 -33.3000 -33.2973 -33.2932 -33.2568 -33.2550
   -33.2419 -33.2399 -33.1896 -33.1886 -33.0719 -33.0512 -32.9947 -32.9892
   -32.9634 -32.9602 -32.5107 -32.5107 -32.3948 -32.3948 -32.3478 -32.3478
   -20.4312 -17.5969 -17.5322 -17.4333 -17.4133 -17.2557 -17.2041 -17.0905
   -17.0885 -17.0425 -17.0312 -17.0165 -16.9021 -16.8617 -16.8617 -16.8251
   -16.8184 -16.6232 -16.6213 -16.5550 -16.5528 -16.5129 -16.5115 -16.4302
   -16.4276 -16.2868 -16.2845 -16.2241 -16.2203 -16.1542 -16.1235 -14.7823
   -14.7821 -11.4754  -7.2964  -5.4300  -5.2494  -4.8277  -4.7555  -4.7545
    -4.6836  -4.6692  -4.6643  -4.6270  -4.6021  -4.5384  -4.5306  -4.4269
    -4.3997  -4.3641  -4.3634  -4.3324  -4.3192  -4.3039  -4.2995  -4.0816
    -4.0572  -4.0480  -4.0375  -4.0178  -3.9711  -3.8362  -3.8179  -3.8092
    -3.7405  -3.7204  -3.6674  -3.5255  -3.4957  -3.3639  -3.3505  -3.1653
    -3.1608  -3.1390  -3.0657  -3.0422  -2.9858  -2.9307  -2.8258  -2.8143
    -2.7221  -2.7172  -2.6004  -2.5627  -2.5363  -2.5197  -2.4978  -2.4717
    -2.4630  -2.4393  -2.3546  -2.2707  -2.0476  -2.0303  -1.9878  -1.9582
    -1.9523  -1.8511  -1.8460  -1.8332  -1.8060  -1.7681  -1.7554  -1.7248
    -1.6906  -1.6662  -1.6377  -1.5857  -1.5438  -1.5119  -1.5054  -1.4799
    -1.4484  -1.4413  -1.4324  -1.4061  -1.3852  -1.3511  -1.2354  -1.2115
    -1.1165  -1.0960  -1.0139  -1.0011  -0.9928  -0.9836  -0.9448  -0.5495
    -0.5441  -0.4825  -0.4688   0.1217   0.1218   0.1646   0.1663   2.0160
     2.0193   2.1904   2.1973   2.1978   2.2082   2.2567   2.3123   2.3247
     2.3249   2.3454   2.3554   2.4988   2.5306   2.5315   2.5736   2.6380
     2.6893   2.7130   2.7252   2.8650   2.8973   2.9649   2.9722   3.0318
     3.0332   3.0772   3.0878   3.1514   3.1890   3.2067   3.2192   3.3773
     3.4016   3.4127   3.4158   3.4481   3.4582   3.7012   3.7414   3.7804
     3.7837   3.8077   3.8854   3.9073   3.9432   4.0508   4.0532   4.1033
     4.1040   4.3915   4.6306   4.9347   4.9749   5.2403   5.3105   5.4323
     5.4638   5.4860   5.4860   5.5832   5.6215   5.6252   5.6397   5.6511
     5.7746   5.7797   5.8023   5.8278   5.8378   5.8425   5.8535   5.9506
     5.9990   6.0414   6.0587   6.1375   6.1776   6.4184   6.4579   6.5568
     6.5911   6.7495   6.7734   6.9871   7.0150   7.1279   7.3345   7.7425
     7.8979   8.1921   8.4483   8.8045   8.8587   8.9070   9.1665   9.6937
     9.7228   9.7624   9.8299

[...]
    -1.3197  -1.2900  -1.2419  -1.2124  -1.1423  -1.0558  -1.0431  -1.0350
    -1.0109  -0.9721  -0.9272  -0.8629  -0.7845  -0.7249  -0.6674  -0.6176
    -0.6134  -0.5598  -0.5427   0.0446   0.0447   0.1893   0.1910   2.1304
     2.1312   2.1780   2.1799   2.2108   2.2117   2.2377   2.2700   2.4641
     2.4705   2.4996   2.5288   2.5835   2.5904   2.6562   2.6586   2.6665
     2.6677   2.8162   2.8827   2.9585   2.9728   3.0093   3.0168   3.0685
     3.1937   3.2247   3.2473   3.3064   3.3487   3.3668   3.4195   3.4668
     3.4747   3.4981   3.5236   3.5554   3.5786   3.6545   3.6755   3.7212
     3.8071   3.8665   3.8829   3.9310   3.9314   4.0738   4.0806   4.0895
     4.0899   4.5873   4.7562   4.7650   4.7715   4.8432   4.8948   4.9014
     4.9148   4.9562   4.9987   5.2235   5.3144   5.3346   5.3476   5.7428
     5.7765   5.8901   5.8980   5.9585   6.0335   6.1646   6.2982   6.3248
     6.3414   6.3488   6.3888   6.5630   6.6436   6.6436   6.6715   6.6918
     6.7712   6.8279   6.8291   6.8303   6.8312   7.3797   7.4387   7.5469
     7.6866   7.8376   8.0368   8.1828   8.2326   8.3277   8.4438   8.8535
     8.9246   9.0898   9.0943

          k =-0.0253 0.0280 0.0000 ( 34687 PWs)   bands (ev):

   -57.7189 -57.6887 -57.3431 -57.3116 -57.2652 -57.1315 -57.0995 -57.0945
   -57.0814 -57.0641 -57.0137 -56.9830 -56.7515 -56.7189 -56.1692 -56.1386
   -34.1322 -34.0015 -33.9768 -33.9153 -33.8721 -33.8343 -33.7945 -33.6628
   -33.6398 -33.6061 -33.5666 -33.5621 -33.5495 -33.5433 -33.5235 -33.5015
   -33.4929 -33.4925 -33.4589 -33.4092 -33.3420 -33.3146 -33.3074 -33.2891
   -33.2881 -33.2834 -33.2803 -33.2716 -33.2616 -33.2602 -33.2591 -33.2396
   -33.2268 -33.2113 -33.2029 -33.1708 -33.1671 -33.0161 -33.0034 -32.9823
   -32.9365 -32.8561 -32.5636 -32.5230 -32.4991 -32.3875 -32.3081 -32.2210
   -20.4314 -17.9500 -17.7677 -17.4895 -17.4105 -17.3361 -17.2597 -17.1503
   -17.1247 -17.0319 -16.9862 -16.8860 -16.8526 -16.8350 -16.8117 -16.7950
   -16.7349 -16.7252 -16.6265 -16.6089 -16.5305 -16.5017 -16.4064 -16.3920
   -16.3814 -16.3529 -16.2243 -16.1974 -16.1764 -16.0330 -15.9887 -14.7641
   -14.6947 -11.4751  -7.2956  -5.4718  -5.2724  -5.2321  -5.2042  -5.0483
    -4.9908  -4.9648  -4.7828  -4.7284  -4.5890  -4.4264  -4.3975  -4.3687
    -4.2869  -4.2759  -4.2125  -4.1441  -4.1175  -4.0895  -4.0611  -4.0422
    -3.9985  -3.9655  -3.9396  -3.8943  -3.8467  -3.8365  -3.8089  -3.7425
    -3.7267  -3.6885  -3.6388  -3.6287  -3.5637  -3.5469  -3.3685  -3.2917
    -3.2636  -3.2149  -3.1520  -3.0797  -3.0065  -2.9695  -2.7993  -2.7208
    -2.6946  -2.6580  -2.6333  -2.5561  -2.5275  -2.4759  -2.4711  -2.4466
    -2.4296  -2.4076  -2.3648  -2.3254  -2.2414  -2.2000  -2.1444  -2.1277
    -2.0859  -2.0092  -1.9740  -1.9164  -1.8840  -1.8475  -1.7670  -1.7311
    -1.6779  -1.6234  -1.6178  -1.5847  -1.5405  -1.4932  -1.4603  -1.4134
    -1.3680  -1.3545  -1.3055  -1.2674  -1.2171  -1.1278  -1.1053  -1.0825
    -1.0202  -0.9117  -0.8648  -0.8444  -0.7797  -0.7602  -0.7330  -0.6837
    -0.4585  -0.3033  -0.1598  -0.1069   0.1276   0.1573   0.1676   1.6984
     1.8227   1.9940   2.0722   2.1693   2.2180   2.2606   2.2945   2.3778
     2.3920   2.4244   2.4608   2.5052   2.5098   2.5211   2.5813   2.6434
     2.6803   2.7141   2.7508   2.7849   2.9135   2.9605   2.9775   3.0016
     3.0814   3.1086   3.1226   3.1492   3.1844   3.2135   3.3236   3.3487
     3.3806   3.3952   3.4402   3.4831   3.5347   3.5458   3.6120   3.6385
     3.6498   3.6833   3.7242   3.8692   3.9676   4.1157   4.1634   4.2264
     4.2846   4.4256   4.4869   4.7845   4.9129   4.9385   4.9578   5.0554
     5.1338   5.1509   5.1962   5.3622   5.6262   5.6659   5.7202   5.7722
     5.8341   5.8436   5.8536   5.9778   6.0513   6.0574   6.0998   6.1204
     6.1731   6.1849   6.2021   6.2444   6.4066   6.5200   6.5947   6.6572
     6.7974   6.8411   6.9412   7.1509   7.2229   7.5439   7.9590   8.0546
     8.0777   8.2995   8.4479   8.5749   8.6698   8.8010   8.9723   9.2826
     9.3617   9.4913   9.5277

          k =-0.0253 0.0560 0.0000 ( 34699 PWs)   bands (ev):

   -57.7125 -57.6951 -57.3366 -57.3182 -57.2644 -57.1254 -57.1056 -57.0881
   -57.0823 -57.0706 -57.0073 -56.9895 -56.7449 -56.7255 -56.1627 -56.1451
   -34.0624 -33.9962 -33.9819 -33.8984 -33.8675 -33.8516 -33.8010 -33.6241
   -33.6050 -33.6000 -33.5633 -33.5528 -33.5359 -33.5325 -33.5082 -33.4967
   -33.4874 -33.4560 -33.4396 -33.3911 -33.3470 -33.3377 -33.3325 -33.3254
   -33.3103 -33.3007 -33.2928 -33.2918 -33.2776 -33.2748 -33.2623 -33.2585
   -33.2363 -33.2251 -33.1964 -33.1900 -33.1497 -33.0109 -32.9991 -32.9863
   -32.9494 -32.9258 -32.5180 -32.5041 -32.4928 -32.3709 -32.3251 -32.2951
   -20.4311 -17.7838 -17.6123 -17.3697 -17.2906 -17.2733 -17.2202 -17.1909
   -17.1661 -17.0184 -16.9974 -16.9051 -16.9000 -16.8584 -16.8253 -16.7947
   -16.7720 -16.6967 -16.6520 -16.6306 -16.6035 -16.5569 -16.4517 -16.4395
   -16.3812 -16.3080 -16.2577 -16.2186 -16.1800 -16.1328 -16.0613 -14.7826
   -14.7454 -11.4744  -7.2944  -5.4453  -5.2429  -5.0606  -4.9710  -4.8402
    -4.7814  -4.7432  -4.5821  -4.5242  -4.5181  -4.4406  -4.4171  -4.3709
    -4.2973  -4.2574  -4.2389  -4.2183  -4.1728  -4.1652  -4.1340  -4.0858
    -4.0577  -4.0345  -4.0198  -3.9619  -3.9476  -3.8984  -3.8896  -3.8468
    -3.7985  -3.7366  -3.6791  -3.5960  -3.4956  -3.4082  -3.3299  -3.2969
    -3.2614  -3.2412  -3.1523  -3.0370  -2.9282  -2.8850  -2.8490  -2.8076
    -2.7707  -2.6688  -2.6119  -2.5332  -2.5095  -2.4632  -2.4183  -2.3852
    -2.3661  -2.3469  -2.3152  -2.2902  -2.2132  -2.1628  -2.1497  -2.0590
    -2.0449  -2.0266  -1.9689  -1.9661  -1.9283  -1.8859  -1.8527  -1.8317
    -1.7663  -1.7344  -1.6960  -1.6663  -1.6031  -1.5641  -1.5297  -1.4838
    -1.4541  -1.3952  -1.3711  -1.3227  -1.2445  -1.2270  -1.1402  -1.1261
    -1.0670  -1.0294  -0.9480  -0.8885  -0.8378  -0.8222  -0.7620  -0.7027
    -0.6310  -0.4920  -0.2829   0.0707   0.1072   0.1344   0.1668   1.8392
     2.0257   2.1059   2.1565   2.2018   2.2427   2.2834   2.3063   2.3613
     2.4181   2.4344   2.4594   2.4850   2.4981   2.5593   2.6663   2.6980
     2.7184   2.7528   2.8021   2.8162   2.8683   2.9242   2.9444   2.9607
     2.9989   3.0106   3.1434   3.1817   3.2649   3.2913   3.3100   3.3449
     3.3856   3.4127   3.4349   3.5174   3.5359   3.6108   3.6308   3.7120
     3.7690   3.7927   3.8398   3.8752   3.8837   4.0474   4.0945   4.1429
     4.3205   4.3582   4.5810   4.9444   4.9933   5.1070   5.1336   5.1532
     5.2354   5.2636   5.2900   5.4035   5.4855   5.5388   5.6145   5.7379
     5.8021   5.8245   5.8704   5.9156   5.9377   5.9809   6.0325   6.0634
     6.1149   6.1358   6.2066   6.3232   6.3583   6.4064   6.4757   6.6427
     6.6895   6.7750   6.8413   7.0235   7.1782   7.3494   7.5014   7.6158
     8.0182   8.2028   8.3770   8.5460   8.6731   8.8693   9.0738   9.1018
     9.2021   9.5234   9.6601

          k =-0.0506 0.0280 0.0000 ( 34685 PWs)   bands (ev):

   -57.7189 -57.6887 -57.3431 -57.3116 -57.2652 -57.1314 -57.0995 -57.0946
   -57.0814 -57.0641 -57.0137 -56.9830 -56.7515 -56.7189 -56.1692 -56.1386
   -34.1329 -34.0015 -33.9769 -33.9140 -33.8723 -33.8343 -33.7945 -33.6642
   -33.6398 -33.6094 -33.5673 -33.5624 -33.5551 -33.5474 -33.5234 -33.5013
   -33.4904 -33.4754 -33.4589 -33.3930 -33.3417 -33.3148 -33.3030 -33.2897
   -33.2886 -33.2882 -33.2871 -33.2839 -33.2617 -33.2602 -33.2580 -33.2376
   -33.2273 -33.2115 -33.2028 -33.1707 -33.1671 -33.0162 -33.0077 -32.9809
   -32.9365 -32.8561 -32.5634 -32.5249 -32.4982 -32.3874 -32.3082 -32.2210
   -20.4310 -17.8882 -17.6739 -17.3940 -17.3687 -17.2775 -17.2511 -17.2365
   -17.1482 -17.0701 -16.9867 -16.9473 -16.8997 -16.8817 -16.8778 -16.8583
   -16.7920 -16.7669 -16.5860 -16.5543 -16.5334 -16.4620 -16.4394 -16.4038
   -16.3937 -16.3344 -16.2151 -16.1960 -16.1753 -16.0341 -15.9885 -14.7621
   -14.6947 -11.4726  -7.2906  -5.4856  -5.2573  -5.2306  -4.9144  -4.8580
    -4.7475  -4.7315  -4.7026  -4.6818  -4.6555  -4.5319  -4.4514  -4.3703
    -4.3453  -4.3281  -4.1865  -4.1530  -4.0865  -4.0493  -4.0330  -4.0178
    -4.0066  -3.9343  -3.8839  -3.8409  -3.7991  -3.7872  -3.7435  -3.7143
    -3.6809  -3.6583  -3.6069  -3.5767  -3.4630  -3.3310  -3.2889  -3.2720
    -3.2073  -3.1899  -3.1171  -3.0785  -2.9741  -2.9568  -2.8772  -2.8596
    -2.7660  -2.7043  -2.6838  -2.6722  -2.6282  -2.6117  -2.5586  -2.5198
    -2.4619  -2.4111  -2.4046  -2.3597  -2.3320  -2.2796  -2.2040  -2.1615
    -2.1361  -2.0862  -2.0457  -1.9977  -1.9629  -1.9263  -1.8855  -1.8563
    -1.7793  -1.7640  -1.7356  -1.6666  -1.5633  -1.5296  -1.5073  -1.4402
    -1.3901  -1.3695  -1.3015  -1.2786  -1.2602  -1.1695  -1.1073  -1.0369
    -0.9882  -0.9013  -0.8764  -0.8360  -0.7990  -0.7862  -0.7301  -0.7124
    -0.5376  -0.3350  -0.2832  -0.0942   0.0885   0.1180   0.1409   1.6818
     1.8828   2.0382   2.0949   2.1022   2.1492   2.2150   2.3346   2.3479
     2.3813   2.4101   2.4930   2.5419   2.5525   2.5787   2.6578   2.6704
     2.7184   2.7757   2.8069   2.8785   2.9297   2.9559   3.0181   3.0346
     3.0627   3.1343   3.1474   3.1778   3.2775   3.3297   3.3532   3.3860
     3.4224   3.4343   3.5209   3.5627   3.5814   3.6281   3.6531   3.6597
     3.6917   3.7460   3.7962   3.8440   3.9081   4.0346   4.1466   4.2583
     4.2664   4.4007   4.5985   4.6633   4.7421   4.7871   4.8285   4.9870
     4.9986   5.1159   5.1976   5.4488   5.5729   5.6217   5.7072   5.7964
     5.8416   5.8553   5.9011   5.9295   5.9666   6.0758   6.1010   6.1208
     6.2312   6.4075   6.4667   6.5145   6.5541   6.5972   6.6623   6.7393
     6.7842   6.7956   6.9520   7.1259   7.1582   7.4189   7.5907   7.7254
     8.1466   8.1541   8.2728   8.4363   8.7999   8.9610   9.0400   9.0837
     9.3859   9.5076   9.6336

          k =-0.0506 0.0560 0.0000 ( 34596 PWs)   bands (ev):

   -57.7125 -57.6951 -57.3366 -57.3182 -57.2644 -57.1253 -57.1055 -57.0882
   -57.0823 -57.0706 -57.0073 -56.9895 -56.7449 -56.7255 -56.1628 -56.1451
   -34.0629 -33.9962 -33.9819 -33.8973 -33.8677 -33.8512 -33.8011 -33.6240
   -33.6062 -33.6001 -33.5635 -33.5489 -33.5425 -33.5356 -33.5082 -33.4974
   -33.4854 -33.4560 -33.4301 -33.3775 -33.3479 -33.3419 -33.3251 -33.3228
   -33.3106 -33.3006 -33.2917 -33.2904 -33.2794 -33.2776 -33.2716 -33.2636
   -33.2364 -33.2266 -33.1964 -33.1897 -33.1493 -33.0110 -33.0019 -32.9860
   -32.9494 -32.9256 -32.5191 -32.5037 -32.4927 -32.3709 -32.3250 -32.2950
   -20.4308 -17.7337 -17.5232 -17.3182 -17.2657 -17.2245 -17.1971 -17.1882
   -17.1166 -17.0598 -17.0316 -16.9385 -16.8823 -16.8741 -16.8697 -16.8336
   -16.8002 -16.7491 -16.6887 -16.6506 -16.6407 -16.5748 -16.5365 -16.4257
   -16.3685 -16.2865 -16.2500 -16.2173 -16.1793 -16.1344 -16.0604 -14.7814
   -14.7457 -11.4717  -7.2893  -5.4605  -5.2417  -5.0514  -4.6816  -4.6407
    -4.5419  -4.5260  -4.5112  -4.4832  -4.4602  -4.3935  -4.3494  -4.3260
    -4.2510  -4.2306  -4.1689  -4.1565  -4.1087  -4.0924  -4.0704  -4.0623
    -4.0400  -4.0228  -3.9931  -3.9402  -3.9194  -3.9124  -3.8473  -3.8126
    -3.7555  -3.6829  -3.6528  -3.5463  -3.5083  -3.3733  -3.3514  -3.2871
    -3.2753  -3.2670  -3.1087  -3.0096  -2.9508  -2.9207  -2.8716  -2.8433
    -2.7804  -2.7485  -2.7077  -2.6333  -2.6139  -2.5921  -2.5534  -2.5138
    -2.4519  -2.4275  -2.3899  -2.3533  -2.3406  -2.3232  -2.2794  -2.2034
    -2.1760  -2.1448  -2.1362  -2.1008  -2.0726  -2.0282  -2.0096  -1.9263
    -1.9164  -1.8765  -1.8569  -1.7473  -1.6606  -1.6313  -1.5969  -1.5025
    -1.4285  -1.3979  -1.3311  -1.2499  -1.2248  -1.1266  -1.0871  -1.0371
    -1.0180  -0.9591  -0.8723  -0.8428  -0.7936  -0.7808  -0.7161  -0.6806
    -0.6746  -0.5424  -0.3493   0.0566   0.0908   0.1088   0.1722   1.8444
     2.0545   2.1363   2.1726   2.1969   2.2210   2.2732   2.3211   2.3669
     2.3807   2.5139   2.5445   2.5541   2.5840   2.6020   2.6563   2.7301
     2.7588   2.7796   2.8140   2.8549   2.9382   2.9772   3.0037   3.0357
     3.0719   3.1110   3.1427   3.2307   3.3118   3.3433   3.3726   3.4156
     3.4529   3.4747   3.4969   3.5166   3.5910   3.6232   3.6855   3.7219
     3.7557   3.8277   3.8558   3.8970   3.9030   3.9294   4.0898   4.1526
     4.2674   4.4454   4.6932   4.7841   4.7906   4.8724   4.9146   5.0680
     5.1407   5.2116   5.2500   5.3383   5.3560   5.4093   5.4712   5.6009
     5.7580   5.8145   5.8581   5.9310   6.0448   6.1030   6.2003   6.2408
     6.2685   6.3445   6.3920   6.4283   6.5064   6.5611   6.6363   6.6966
     6.7115   6.8050   6.8789   6.9645   7.0723   7.3948   7.4613   7.6117
     7.7630   7.9549   8.0938   8.4152   8.5834   8.6400   8.7951   9.0345
     9.2416   9.3316   9.4451

     the Fermi energy is     0.9750 ev

!    total energy              =   -3021.41890262 Ry
     Harris-Foulkes estimate   =   -3021.41890015 Ry
     estimated scf accuracy    <       0.00000034 Ry

     The total energy is the sum of the following terms:

     one-electron contribution =  -41229.62256365 Ry
     hartree contribution      =   20688.71963658 Ry
     xc contribution           =    -553.71388621 Ry
     ewald contribution        =   18073.19812286 Ry
     smearing contrib. (-TS)   =      -0.00021220 Ry

     total magnetization       =     0.00 Bohr mag/cell
     absolute magnetization    =     0.00 Bohr mag/cell

     convergence has been achieved in  11 iterations

     Forces acting on atoms (Ry/au):


     negative rho (up, down):  1.208E-02 1.208E-02
     atom    1 type  1   force =     0.00002044   -0.00035837   -0.13395331
     atom    2 type  2   force =    -0.00004951    0.00004075    0.07225636
     atom    3 type  1   force =    -0.00132384    0.00030880   -0.06116772
     atom    4 type  2   force =     0.00291389    0.00049626    0.00643282
     atom    5 type  1   force =     0.00025698    0.00169772    0.00321800
     atom    6 type  2   force =    -0.00005331    0.00002870   -0.00202080
     atom    7 type  1   force =    -0.00033288   -0.00081283    0.00542026
     atom    8 type  2   force =     0.00144792    0.00014353   -0.00044944
     atom    9 type  1   force =    -0.00002500    0.00000725   -0.13368889
     atom   10 type  2   force =    -0.00005175    0.00006285    0.07143368
     atom   11 type  1   force =    -0.00130046   -0.00023544   -0.05608661
     atom   12 type  2   force =     0.00300327   -0.00007444    0.00615062
     atom   13 type  1   force =     0.00027173   -0.00131661    0.00312987
     atom   14 type  2   force =    -0.00110679   -0.00038644   -0.00270997
     atom   15 type  1   force =    -0.00080519    0.00022660    0.00470631
     atom   16 type  2   force =     0.00105342   -0.00045269    0.00008014
     atom   17 type  2   force =    -0.00004548   -0.00006163    0.07955977
     atom   18 type  1   force =     0.00010260   -0.00017081    0.11894123
     atom   19 type  2   force =    -0.00010248   -0.00018020   -0.06655702
     atom   20 type  2   force =    -0.06321415    0.00013324   -0.03227838
     atom   21 type  2   force =     0.06321558    0.00001005   -0.03243053
     atom   22 type  1   force =     0.00072615    0.00108764    0.05960029
     atom   23 type  2   force =    -0.00021082    0.00007575   -0.00152851
     atom   24 type  2   force =    -0.00146702   -0.00000710   -0.02316392
     atom   25 type  2   force =    -0.00316307    0.00061434    0.00790664
     atom   26 type  1   force =     0.00073796    0.00029829    0.00459666
     atom   27 type  2   force =     0.00053433    0.00058129   -0.00398302
     atom   28 type  2   force =     0.00021714   -0.00008745   -0.00117314
     atom   29 type  2   force =     0.00006549   -0.00034308   -0.00058650
     atom   30 type  1   force =     0.00049938   -0.00068489    0.00446341
     atom   31 type  2   force =    -0.00023077    0.00001701   -0.00318869
     atom   32 type  2   force =    -0.00058301    0.00065456   -0.00053528
     atom   33 type  2   force =    -0.00008321    0.00005368    0.07911155
     atom   34 type  1   force =     0.00007946   -0.00022863    0.11885050
     atom   35 type  2   force =    -0.00028122   -0.00004578   -0.06632455
     atom   36 type  2   force =    -0.06318984   -0.00003896   -0.03237421
     atom   37 type  2   force =     0.06333721   -0.00018519   -0.03250262
     atom   38 type  1   force =     0.00066576   -0.00099650    0.05982822
     atom   39 type  2   force =    -0.00045371    0.00009330   -0.00229580
     atom   40 type  2   force =    -0.00122079    0.00029859   -0.02206832
     atom   41 type  2   force =    -0.00318068   -0.00016915    0.00792389
     atom   42 type  1   force =     0.00055928    0.00005999    0.00365380
     atom   43 type  2   force =     0.00064257    0.00024789   -0.00313614
     atom   44 type  2   force =     0.00030462    0.00010623   -0.00108810
     atom   45 type  2   force =     0.00002546    0.00030238   -0.00060616
     atom   46 type  1   force =     0.00072677    0.00026462    0.00456339
     atom   47 type  2   force =     0.00004769   -0.00038346   -0.00178664
     atom   48 type  2   force =    -0.00048469   -0.00061553   -0.00024068
     atom   49 type  3   force =    -0.00538080   -0.00085696    0.02337679
     atom   50 type  2   force =     0.00203111    0.00023710   -0.04211216
     atom   51 type  4   force =    -0.00003651    0.00004546   -0.00066246
     atom   52 type  4   force =     0.00984791    0.00019959    0.00970884
     atom   53 type  4   force =    -0.00259809    0.00083940    0.00283073
     atom   54 type  4   force =    -0.00235904   -0.00054068    0.00295584

     Total force =     0.366226     Total SCF correction =     0.001751
 !ASE

     Writing output data file calc.save
 
     init_run     :     56.64s CPU     71.41s WALL (       1 calls)
     electrons    :   2427.50s CPU   2993.53s WALL (       1 calls)
     forces       :     39.90s CPU     41.60s WALL (       1 calls)

     Called by init_run:
     wfcinit      :     48.45s CPU     62.28s WALL (       1 calls)
     potinit      :      1.44s CPU      1.77s WALL (       1 calls)

     Called by electrons:
     c_bands      :   2123.90s CPU   2610.71s WALL (      11 calls)
     sum_band     :    254.66s CPU    326.22s WALL (      11 calls)
     v_of_rho     :     12.02s CPU     15.35s WALL (      12 calls)
     newd         :     40.37s CPU     44.84s WALL (      12 calls)
     mix_rho      :      0.49s CPU      0.69s WALL (      11 calls)
     vdW_energy   :      2.10s CPU      2.53s WALL (      13 calls)
     vdW_ffts     :      3.30s CPU      4.39s WALL (      26 calls)
     vdW_v        :      1.28s CPU      1.53s WALL (      13 calls)

     Called by c_bands:
     init_us_2    :      6.44s CPU      7.10s WALL (     960 calls)
     cegterg      :   2085.10s CPU   2569.27s WALL (     440 calls)

     Called by *egterg:
     h_psi        :    826.54s CPU   1217.83s WALL (    2638 calls)
     s_psi        :    100.77s CPU    106.44s WALL (    2638 calls)
     g_psi        :      5.37s CPU      5.57s WALL (    2158 calls)
     cdiaghg      :    776.13s CPU    795.66s WALL (    2598 calls)

     Called by h_psi:
     add_vuspsi   :    101.45s CPU    107.34s WALL (    2638 calls)

     General routines
     calbec       :    153.08s CPU    157.75s WALL (    3118 calls)
     fft          :      6.57s CPU      8.74s WALL (    1029 calls)
     ffts         :      0.05s CPU      0.07s WALL (      46 calls)
     fftw         :    546.58s CPU    983.80s WALL (  795100 calls)
     interpolate  :      0.35s CPU      0.58s WALL (      46 calls)
     davcio       :      0.13s CPU      3.21s WALL (      40 calls)
 
     Parallel routines
     fft_scatter  :    291.20s CPU    517.40s WALL (  796175 calls)
 
     PWSCF        : 42m 5.19s CPU    51m51.91s WALL

 
   This run was terminated on:  18: 4:34  12Feb2018            

=------------------------------------------------------------------------------=
   JOB DONE.
=------------------------------------------------------------------------------=
