  python dir          : /home/vossj/suncat/lib/python2.7/site-packages/espresso
  espresso dir        : /home/vossj/suncat/esdld/espresso-dynpy-beef/bin
  pseudo dir          : /home/alatimer/bin/psp/esp_psp_w_gbrvRu/
  ase-espresso py git : ffa2778-git



     Program PWSCF v.5.1rc2 (svn rev. ) starts on 10Feb2018 at 15: 0:34 

     This program is part of the open-source Quantum ESPRESSO suite
     for quantum simulation of materials; please cite
         "P. Giannozzi et al., J. Phys.:Condens. Matter 21 395502 (2009);
          URL http://www.quantum-espresso.org", 
     in publications or presentations arising from this work. More details at
     http://www.quantum-espresso.org/quote

     Parallel version (MPI), running on    16 processors
     R & G space division:  proc/nbgrp/npool/nimage =      16
     Reading input from pw.inp
     Message from routine read_cards :
     DEPRECATED: no units specified in CELL_PARAMETERS card

     Current dimensions of program PWSCF are:
     Max number of different atomic species (ntypx) = 10
     Max number of k-points (npk) =  40000
     Max angular momentum in pseudopotentials (lmaxx) =  3

     **************************************************************************
     Initializing libbeef V0.1.1 with the BEEF-vdW functional.
     Citation: Wellendorff et al., PRB 85, 235149 (2012).
     **************************************************************************


     IMPORTANT: XC functional enforced from input :
     Exchange-correlation      = BEEF ( 1  4 27 13 2)
     Any further DFT definition will be discarded
     Please, verify this is what you really want


     Subspace diagonalization in iterative solution of the eigenvalue problem:
     a serial algorithm will be used

 
     Parallelization info
     --------------------
     sticks:   dense  smooth     PW     G-vecs:    dense   smooth      PW
     Min         281     112     31                68535    17318    2565
     Max         282     113     32                68545    17369    2582
     Sum        4501    1795    503              1096637   277353   41113
 
     Generating pointlists ...
     new r_m :   0.4125 (alat units)  0.7795 (a.u.) for type    1
     new r_m :   0.4125 (alat units)  0.7795 (a.u.) for type    2


     bravais-lattice index     =            0
     lattice parameter (alat)  =       1.8897  a.u.
     unit-cell volume          =    7990.9933 (a.u.)^3
     number of atoms/cell      =           49
     number of atomic types    =            2
     number of electrons       =       390.00
     number of Kohn-Sham states=          295
     kinetic-energy cutoff     =      40.4243  Ry
     charge density cutoff     =     404.2426  Ry
     convergence threshold     =      7.3E-07
     mixing beta               =       0.1000
     number of iterations used =           10  plain     mixing
     Exchange-correlation      = BEEF ( 1  4 27 13 2)
     nstep                     =           50


     celldm(1)=   1.889726  celldm(2)=   0.000000  celldm(3)=   0.000000
     celldm(4)=   0.000000  celldm(5)=   0.000000  celldm(6)=   0.000000

     crystal axes: (cart. coord. in units of alat)
               a(1) = (   6.590708   0.000000   0.000000 )  
               a(2) = (   0.000000   5.950229   0.000000 )  
               a(3) = (   0.000000   0.000000  30.195235 )  

     reciprocal axes: (cart. coord. in units 2 pi/alat)
               b(1) = (  0.151729  0.000000  0.000000 )  
               b(2) = (  0.000000  0.168061  0.000000 )  
               b(3) = (  0.000000  0.000000  0.033118 )  


     PseudoPot. # 1 for Ti read from file:
     /home/alatimer/bin/psp/esp_psp_w_gbrvRu/Ti.UPF
     MD5 check sum: 8e4df49b7f0d34bbd5052bf3f5ea0213
     Pseudo is Ultrasoft, Zval = 12.0
     Generated by new atomic code, or converted to UPF format
     Using radial grid of  851 points,  6 beta functions with: 
                l(1) =   0
                l(2) =   0
                l(3) =   1
                l(4) =   1
                l(5) =   2
                l(6) =   2
     Q(r) pseudized with  8 coefficients,  rinner =    1.000   1.000   1.000
                                                       1.000   1.000

     PseudoPot. # 2 for  O read from file:
     /home/alatimer/bin/psp/esp_psp_w_gbrvRu/O.UPF
     MD5 check sum: e057bbcf3229fb5d8c36c0c92f9568b4
     Pseudo is Ultrasoft + core correction, Zval =  6.0
     Generated using "atomic" code by A. Dal Corso  v.5.0.2 svn rev. 9415
     Using radial grid of 1095 points,  4 beta functions with: 
                l(1) =   0
                l(2) =   0
                l(3) =   1
                l(4) =   1
     Q(r) pseudized with 0 coefficients 


     vdW kernel table read from file vdW_kernel_table
     MD5 check sum: 095c7af220d748ca6e76c0b4c6cfb241

     atomic species   valence    mass     pseudopotential
        Ti1           12.00    47.88000     Ti( 1.00)
        O1             6.00    15.99940      O( 1.00)

     Starting magnetic structure 
     atomic species   magnetization
        Ti1          0.250
        O1           0.500

     No symmetry found



   Cartesian axes

     site n.     atom                  positions (alat units)
         1           Ti1 tau(   1) = (   1.6476770   0.7437786   2.6545865  )
         2           O1  tau(   2) = (   1.6476770   2.2313359   3.9361215  )
         3           Ti1 tau(   3) = (   1.6476770   2.2313359   5.9499405  )
         4           O1  tau(   4) = (   0.3661420   0.7437786   5.9499405  )
         5           Ti1 tau(   5) = (   1.5277661   0.7316361   9.1979924  )
         6           O1  tau(   6) = (   1.6632133   2.1793878  10.6093433  )
         7           Ti1 tau(   7) = (   1.6165400   2.1742892  12.4450098  )
         8           O1  tau(   8) = (   0.4211133   0.7189415  12.7146628  )
         9           Ti1 tau(   9) = (   1.6476770   3.7188931   2.6545865  )
        10           O1  tau(  10) = (   1.6476770   5.2064503   3.9361215  )
        11           Ti1 tau(  11) = (   1.6476770   5.2064503   5.9499405  )
        12           O1  tau(  12) = (   0.3661420   3.7188931   5.9499405  )
        13           Ti1 tau(  13) = (   1.5318737   3.7073984   9.2114718  )
        14           O1  tau(  14) = (   1.6603548   5.2054729  10.6082275  )
        15           Ti1 tau(  15) = (   1.6160620   5.2125286  12.4458513  )
        16           O1  tau(  16) = (   0.3672395   3.6890226  12.4512313  )
        17           O1  tau(  17) = (   1.6476770   2.2313359   1.3730516  )
        18           Ti1 tau(  18) = (   4.9430310   2.2313359   2.6545865  )
        19           O1  tau(  19) = (   4.9430310   2.2313359   4.6684056  )
        20           O1  tau(  20) = (   6.2245660   0.7437786   2.6545865  )
        21           O1  tau(  21) = (   3.6614961   0.7437786   2.6545865  )
        22           Ti1 tau(  22) = (   4.9430310   0.7437786   5.9499405  )
        23           O1  tau(  23) = (   1.6494130   2.2266810   8.0229920  )
        24           O1  tau(  24) = (   4.9430310   2.2313359   7.2314755  )
        25           O1  tau(  25) = (   2.9292120   0.7437786   5.9499405  )
        26           Ti1 tau(  26) = (   4.8570045   2.2038353   9.3960648  )
        27           O1  tau(  27) = (   4.9365002   2.1563787  11.2526517  )
        28           O1  tau(  28) = (   6.2661622   0.7265345   9.2570196  )
        29           O1  tau(  29) = (   3.6607207   0.7252434   9.2585875  )
        30           Ti1 tau(  30) = (   4.8804456   0.7009689  12.7500804  )
        31           O1  tau(  31) = (   4.9885443   2.2055297  13.8060867  )
        32           O1  tau(  32) = (   2.8787315   0.7196740  12.7638696  )
        33           O1  tau(  33) = (   1.6476770   5.2064503   1.3730516  )
        34           Ti1 tau(  34) = (   4.9430310   5.2064503   2.6545865  )
        35           O1  tau(  35) = (   4.9430310   5.2064503   4.6684056  )
        36           O1  tau(  36) = (   6.2245660   3.7188931   2.6545865  )
        37           O1  tau(  37) = (   3.6614961   3.7188931   2.6545865  )
        38           Ti1 tau(  38) = (   4.9430310   3.7188931   5.9499405  )
        39           O1  tau(  39) = (   1.6492404   5.1840375   8.0235373  )
        40           O1  tau(  40) = (   4.9430310   5.2064503   7.2314755  )
        41           O1  tau(  41) = (   2.9292120   3.7188931   5.9499405  )
        42           Ti1 tau(  42) = (   4.8583452   5.1875290   9.3946917  )
        43           O1  tau(  43) = (   4.9366536   5.2195535  11.2514306  )
        44           O1  tau(  44) = (   6.2660656   3.7009687   9.2894568  )
        45           O1  tau(  45) = (   3.6605616   3.6984666   9.2954459  )
        46           Ti1 tau(  46) = (   5.1078939   3.6751672  12.7268755  )
        47           O1  tau(  47) = (   4.9880347   5.1576104  13.8055399  )
        48           O1  tau(  48) = (   3.0285069   3.6936269  12.4216869  )
        49           O1  tau(  49) = (   2.3858682   3.6994311  13.7464468  )

     number of k points=    40  Fermi-Dirac smearing, width (Ry)=  0.0073
                       cart. coord. in units 2pi/alat
        k(    1) = (   0.0000000   0.0000000   0.0000000), wk =   0.0277778
        k(    2) = (   0.0000000   0.0280101   0.0000000), wk =   0.0555556
        k(    3) = (   0.0000000   0.0560203   0.0000000), wk =   0.0555556
        k(    4) = (   0.0000000  -0.0840304   0.0000000), wk =   0.0277778
        k(    5) = (   0.0252881   0.0000000   0.0000000), wk =   0.0555556
        k(    6) = (   0.0252881   0.0280101   0.0000000), wk =   0.0555556
        k(    7) = (   0.0252881   0.0560203   0.0000000), wk =   0.0555556
        k(    8) = (   0.0252881  -0.0840304   0.0000000), wk =   0.0555556
        k(    9) = (   0.0505763   0.0000000   0.0000000), wk =   0.0555556
        k(   10) = (   0.0505763   0.0280101   0.0000000), wk =   0.0555556
        k(   11) = (   0.0505763   0.0560203   0.0000000), wk =   0.0555556
        k(   12) = (   0.0505763  -0.0840304   0.0000000), wk =   0.0555556
        k(   13) = (  -0.0758644   0.0000000   0.0000000), wk =   0.0277778
        k(   14) = (  -0.0758644   0.0280101   0.0000000), wk =   0.0555556
        k(   15) = (  -0.0758644   0.0560203   0.0000000), wk =   0.0555556
        k(   16) = (  -0.0758644  -0.0840304   0.0000000), wk =   0.0277778
        k(   17) = (  -0.0252881   0.0280101   0.0000000), wk =   0.0555556
        k(   18) = (  -0.0252881   0.0560203   0.0000000), wk =   0.0555556
        k(   19) = (  -0.0505763   0.0280101   0.0000000), wk =   0.0555556
        k(   20) = (  -0.0505763   0.0560203   0.0000000), wk =   0.0555556
        k(   21) = (   0.0000000   0.0000000   0.0000000), wk =   0.0277778
        k(   22) = (   0.0000000   0.0280101   0.0000000), wk =   0.0555556
        k(   23) = (   0.0000000   0.0560203   0.0000000), wk =   0.0555556
        k(   24) = (   0.0000000  -0.0840304   0.0000000), wk =   0.0277778
        k(   25) = (   0.0252881   0.0000000   0.0000000), wk =   0.0555556
        k(   26) = (   0.0252881   0.0280101   0.0000000), wk =   0.0555556
        k(   27) = (   0.0252881   0.0560203   0.0000000), wk =   0.0555556
        k(   28) = (   0.0252881  -0.0840304   0.0000000), wk =   0.0555556
        k(   29) = (   0.0505763   0.0000000   0.0000000), wk =   0.0555556
        k(   30) = (   0.0505763   0.0280101   0.0000000), wk =   0.0555556
        k(   31) = (   0.0505763   0.0560203   0.0000000), wk =   0.0555556
        k(   32) = (   0.0505763  -0.0840304   0.0000000), wk =   0.0555556
        k(   33) = (  -0.0758644   0.0000000   0.0000000), wk =   0.0277778
        k(   34) = (  -0.0758644   0.0280101   0.0000000), wk =   0.0555556
        k(   35) = (  -0.0758644   0.0560203   0.0000000), wk =   0.0555556
        k(   36) = (  -0.0758644  -0.0840304   0.0000000), wk =   0.0277778
        k(   37) = (  -0.0252881   0.0280101   0.0000000), wk =   0.0555556
        k(   38) = (  -0.0252881   0.0560203   0.0000000), wk =   0.0555556
        k(   39) = (  -0.0505763   0.0280101   0.0000000), wk =   0.0555556
        k(   40) = (  -0.0505763   0.0560203   0.0000000), wk =   0.0555556

     Dense  grid:  1096637 G-vectors     FFT dimensions: (  80,  72, 375)

     Smooth grid:   277353 G-vectors     FFT dimensions: (  54,  45, 240)

     Largest allocated arrays     est. size (Mb)     dimensions
        Kohn-Sham Wavefunctions         9.81 Mb     (    2180,  295)
        NL pseudopotentials            18.36 Mb     (    2180,  552)
        Each V/rho on FFT grid          4.22 Mb     (  138240,   2)
        Each G-vector array             0.52 Mb     (   68538)
        G-vector shells                 0.25 Mb     (   33046)
     Largest temporary arrays     est. size (Mb)     dimensions
        Auxiliary wavefunctions        39.25 Mb     (    2180, 1180)
        Each subspace H/S matrix       21.25 Mb     (    1180, 1180)
        Each <psi_i|beta_j> matrix      2.48 Mb     (     552,  295)
        Arrays for rho mixing          21.09 Mb     (  138240,   10)

     Check: negative/imaginary core charge=   -0.000049    0.000000

     Initial potential from superposition of free atoms
     Check: negative starting charge=(component1):   -0.018206
     Check: negative starting charge=(component2):   -0.011117

     starting charge  373.99925, renormalised to  390.00000

     negative rho (up, down):  1.898E-02 1.159E-02


     ************************************************************************
     *
     * You are using vdW-DF for exchange-correlation in this calculation.
     * Please cite the following three references that made this development
     * possible:
     *
     *   M. Dion, H. Rydberg, E. Schroder, D. C. Langreth, and
     *   B. I. Lundqvist, Phys. Rev. Lett. 92, 246401 (2004).
     *
     *   T. Thonhauser, V. R. Cooper, S. Li, A. Puzder, P. Hyldgaard, and
     *   D. C. Langreth, Phys. Rev. B 76, 125112 (2007).
     *
     *   G. Roman-Perez and J. M. Soler, Phys. Rev. Lett. 103, 096102 (2009).
     *
     *
     * If you are using vdW-DF2, please also cite:
     *
     *   K. Lee, E. D. Murray, L. Kong, B. I. Lundqvist, and
     *   D. C. Langreth, Phys. Rev. B 82, 081101(R) (2010).
     *
     *
     * If you are calculating the stress with vdW-DF, please also cite:
     *
     *   R. Sabatini, E. Kucukbenli, B. Kolb, T. Thonhauser, and
     *   S. de Gironcoli, J. Phys.: Condens. Matter 24, 424209 (2012).
     *
     ************************************************************************

     Carrying out vdW-DF run using the following parameters:

     Nqs =      20    Nr_points =    1024   r_max =   100.000
     q_mesh =
               0.00001000     0.04494208     0.09755937     0.15916263
               0.23128650     0.31572767     0.41458969     0.53033537
               0.66584808     0.82450364     1.01025438     1.22772762
               1.48234092     1.78043706     2.12944203     2.53805004
               3.01644009     3.57652955     4.23227104     5.00000000

     Gradients computed in reciprocal space

     ************************************************************************


     Starting wfc are  292 randomized atomic wfcs +    3 random wfc

     total cpu time spent up to now is       64.7 secs

     Self-consistent Calculation

     iteration #  1     ecut=    40.42 Ry     beta=0.10
     Davidson diagonalization with overlap
     ethr =  1.00E-02,  avg # of iterations = 10.1

     negative rho (up, down):  1.859E-02 1.180E-02
 
     Magnetic moment per site:
     atom:    1    charge:    3.2087    magn:    0.7372    constr:    0.0000
     atom:    2    charge:    2.1129    magn:    0.9518    constr:    0.0000
     atom:    3    charge:    3.2140    magn:    0.7472    constr:    0.0000
     atom:    4    charge:    2.1104    magn:    0.9519    constr:    0.0000
     atom:    5    charge:    3.1894    magn:    0.7255    constr:    0.0000
     atom:    6    charge:    2.1062    magn:    0.9540    constr:    0.0000
     atom:    7    charge:    3.1889    magn:    0.7289    constr:    0.0000
     atom:    8    charge:    2.0927    magn:    0.9673    constr:    0.0000
     atom:    9    charge:    3.2087    magn:    0.7372    constr:    0.0000
     atom:   10    charge:    2.1129    magn:    0.9518    constr:    0.0000
     atom:   11    charge:    3.2140    magn:    0.7472    constr:    0.0000
     atom:   12    charge:    2.1104    magn:    0.9519    constr:    0.0000
     atom:   13    charge:    3.1870    magn:    0.7251    constr:    0.0000
     atom:   14    charge:    2.1049    magn:    0.9534    constr:    0.0000
     atom:   15    charge:    3.1847    magn:    0.7280    constr:    0.0000
     atom:   16    charge:    2.1017    magn:    0.9651    constr:    0.0000
     atom:   17    charge:    2.1026    magn:    0.9539    constr:    0.0000
     atom:   18    charge:    3.2422    magn:    0.7756    constr:    0.0000
     atom:   19    charge:    2.1130    magn:    0.9533    constr:    0.0000
     atom:   20    charge:    2.1113    magn:    0.9539    constr:    0.0000
     atom:   21    charge:    2.1113    magn:    0.9539    constr:    0.0000
     atom:   22    charge:    3.2095    magn:    0.7417    constr:    0.0000
     atom:   23    charge:    2.1102    magn:    0.9505    constr:    0.0000
     atom:   24    charge:    2.1063    magn:    0.9523    constr:    0.0000
     atom:   25    charge:    2.1103    magn:    0.9519    constr:    0.0000
     atom:   26    charge:    3.1879    magn:    0.7251    constr:    0.0000
     atom:   27    charge:    2.0901    magn:    0.9653    constr:    0.0000
     atom:   28    charge:    2.1090    magn:    0.9522    constr:    0.0000
     atom:   29    charge:    2.1076    magn:    0.9514    constr:    0.0000
     atom:   30    charge:    3.1863    magn:    0.7288    constr:    0.0000
     atom:   31    charge:    2.0590    magn:    1.0004    constr:    0.0000
     atom:   32    charge:    2.0872    magn:    0.9706    constr:    0.0000
     atom:   33    charge:    2.1026    magn:    0.9539    constr:    0.0000
     atom:   34    charge:    3.2422    magn:    0.7756    constr:    0.0000
     atom:   35    charge:    2.1130    magn:    0.9533    constr:    0.0000
     atom:   36    charge:    2.1113    magn:    0.9539    constr:    0.0000
     atom:   37    charge:    2.1113    magn:    0.9539    constr:    0.0000
     atom:   38    charge:    3.2095    magn:    0.7417    constr:    0.0000
     atom:   39    charge:    2.1108    magn:    0.9507    constr:    0.0000
     atom:   40    charge:    2.1063    magn:    0.9522    constr:    0.0000
     atom:   41    charge:    2.1103    magn:    0.9519    constr:    0.0000
     atom:   42    charge:    3.1876    magn:    0.7250    constr:    0.0000
     atom:   43    charge:    2.0901    magn:    0.9652    constr:    0.0000
     atom:   44    charge:    2.1069    magn:    0.9511    constr:    0.0000
     atom:   45    charge:    2.1072    magn:    0.9518    constr:    0.0000
     atom:   46    charge:    3.1899    magn:    0.7303    constr:    0.0000
     atom:   47    charge:    2.0598    magn:    1.0010    constr:    0.0000
     atom:   48    charge:    2.0602    magn:    0.9814    constr:    0.0000
     atom:   49    charge:    2.0287    magn:    0.9931    constr:    0.0000

     total cpu time spent up to now is      512.4 secs

     total energy              =   -2982.29044785 Ry
     Harris-Foulkes estimate   =   -2995.87295959 Ry
     estimated scf accuracy    <      88.51022740 Ry

     total magnetization       =    18.35 Bohr mag/cell
     absolute magnetization    =    27.46 Bohr mag/cell

     iteration #  2     ecut=    40.42 Ry     beta=0.10
     Davidson diagonalization with overlap
     ethr =  1.00E-02,  avg # of iterations =  5.6

     negative rho (up, down):  1.580E-02 9.997E-03
 
     Magnetic moment per site:
     atom:    1    charge:    3.2023    magn:    0.7285    constr:    0.0000
     atom:    2    charge:    2.0950    magn:    0.9410    constr:    0.0000
     atom:    3    charge:    3.2086    magn:    0.7392    constr:    0.0000
     atom:    4    charge:    2.1022    magn:    0.9503    constr:    0.0000
     atom:    5    charge:    3.1975    magn:    0.7246    constr:    0.0000
     atom:    6    charge:    2.1107    magn:    0.9446    constr:    0.0000
     atom:    7    charge:    3.2151    magn:    0.7215    constr:    0.0000
     atom:    8    charge:    2.0999    magn:    0.9575    constr:    0.0000
     atom:    9    charge:    3.2023    magn:    0.7285    constr:    0.0000
     atom:   10    charge:    2.0950    magn:    0.9410    constr:    0.0000
     atom:   11    charge:    3.2086    magn:    0.7392    constr:    0.0000
     atom:   12    charge:    2.1022    magn:    0.9502    constr:    0.0000
     atom:   13    charge:    3.1955    magn:    0.7244    constr:    0.0000
     atom:   14    charge:    2.1094    magn:    0.9440    constr:    0.0000
     atom:   15    charge:    3.2109    magn:    0.7206    constr:    0.0000
     atom:   16    charge:    2.1087    magn:    0.9552    constr:    0.0000
     atom:   17    charge:    2.0843    magn:    0.9425    constr:    0.0000
     atom:   18    charge:    3.2350    magn:    0.7665    constr:    0.0000
     atom:   19    charge:    2.0972    magn:    0.9445    constr:    0.0000
     atom:   20    charge:    2.0929    magn:    0.9426    constr:    0.0000
     atom:   21    charge:    2.0929    magn:    0.9426    constr:    0.0000
     atom:   22    charge:    3.2043    magn:    0.7335    constr:    0.0000
     atom:   23    charge:    2.1102    magn:    0.9425    constr:    0.0000
     atom:   24    charge:    2.1033    magn:    0.9466    constr:    0.0000
     atom:   25    charge:    2.1021    magn:    0.9503    constr:    0.0000
     atom:   26    charge:    3.2004    magn:    0.7241    constr:    0.0000
     atom:   27    charge:    2.0957    magn:    0.9556    constr:    0.0000
     atom:   28    charge:    2.1114    magn:    0.9435    constr:    0.0000
     atom:   29    charge:    2.1101    magn:    0.9427    constr:    0.0000
     atom:   30    charge:    3.2128    magn:    0.7210    constr:    0.0000
     atom:   31    charge:    2.0678    magn:    0.9900    constr:    0.0000
     atom:   32    charge:    2.0946    magn:    0.9608    constr:    0.0000
     atom:   33    charge:    2.0843    magn:    0.9425    constr:    0.0000
     atom:   34    charge:    3.2350    magn:    0.7665    constr:    0.0000
     atom:   35    charge:    2.0972    magn:    0.9445    constr:    0.0000
     atom:   36    charge:    2.0929    magn:    0.9426    constr:    0.0000
     atom:   37    charge:    2.0929    magn:    0.9426    constr:    0.0000
     atom:   38    charge:    3.2043    magn:    0.7335    constr:    0.0000
     atom:   39    charge:    2.1108    magn:    0.9428    constr:    0.0000
     atom:   40    charge:    2.1033    magn:    0.9466    constr:    0.0000
     atom:   41    charge:    2.1021    magn:    0.9502    constr:    0.0000
     atom:   42    charge:    3.2001    magn:    0.7240    constr:    0.0000
     atom:   43    charge:    2.0957    magn:    0.9555    constr:    0.0000
     atom:   44    charge:    2.1093    magn:    0.9423    constr:    0.0000
     atom:   45    charge:    2.1097    magn:    0.9430    constr:    0.0000
     atom:   46    charge:    3.2165    magn:    0.7226    constr:    0.0000
     atom:   47    charge:    2.0687    magn:    0.9907    constr:    0.0000
     atom:   48    charge:    2.0691    magn:    0.9711    constr:    0.0000
     atom:   49    charge:    2.0388    magn:    0.9827    constr:    0.0000

     total cpu time spent up to now is      830.1 secs

     total energy              =   -2947.38883705 Ry
     Harris-Foulkes estimate   =   -3041.34286864 Ry
     estimated scf accuracy    <    3876.19471573 Ry

     total magnetization       =    30.44 Bohr mag/cell
     absolute magnetization    =    32.89 Bohr mag/cell

     iteration #  3     ecut=    40.42 Ry     beta=0.10
     Davidson diagonalization with overlap
     ethr =  1.00E-02,  avg # of iterations =  6.3

     negative rho (up, down):  1.533E-02 1.011E-02
 
     Magnetic moment per site:
     atom:    1    charge:    3.1988    magn:    0.7005    constr:    0.0000
     atom:    2    charge:    2.1028    magn:    0.9033    constr:    0.0000
     atom:    3    charge:    3.1946    magn:    0.7032    constr:    0.0000
     atom:    4    charge:    2.1076    magn:    0.9131    constr:    0.0000
     atom:    5    charge:    3.1861    magn:    0.6896    constr:    0.0000
     atom:    6    charge:    2.1138    magn:    0.9084    constr:    0.0000
     atom:    7    charge:    3.2035    magn:    0.6860    constr:    0.0000
     atom:    8    charge:    2.1072    magn:    0.9195    constr:    0.0000
     atom:    9    charge:    3.1987    magn:    0.7003    constr:    0.0000
     atom:   10    charge:    2.1028    magn:    0.9033    constr:    0.0000
     atom:   11    charge:    3.1946    magn:    0.7032    constr:    0.0000
     atom:   12    charge:    2.1076    magn:    0.9131    constr:    0.0000
     atom:   13    charge:    3.1840    magn:    0.6894    constr:    0.0000
     atom:   14    charge:    2.1125    magn:    0.9078    constr:    0.0000
     atom:   15    charge:    3.1993    magn:    0.6851    constr:    0.0000
     atom:   16    charge:    2.1150    magn:    0.9179    constr:    0.0000
     atom:   17    charge:    2.0910    magn:    0.9061    constr:    0.0000
     atom:   18    charge:    3.2172    magn:    0.7301    constr:    0.0000
     atom:   19    charge:    2.1037    magn:    0.9069    constr:    0.0000
     atom:   20    charge:    2.0996    magn:    0.9048    constr:    0.0000
     atom:   21    charge:    2.0996    magn:    0.9048    constr:    0.0000
     atom:   22    charge:    3.1914    magn:    0.6974    constr:    0.0000
     atom:   23    charge:    2.1136    magn:    0.9060    constr:    0.0000
     atom:   24    charge:    2.1063    magn:    0.9105    constr:    0.0000
     atom:   25    charge:    2.1075    magn:    0.9131    constr:    0.0000
     atom:   26    charge:    3.1886    magn:    0.6891    constr:    0.0000
     atom:   27    charge:    2.1018    magn:    0.9187    constr:    0.0000
     atom:   28    charge:    2.1134    magn:    0.9086    constr:    0.0000
     atom:   29    charge:    2.1125    magn:    0.9075    constr:    0.0000
     atom:   30    charge:    3.2009    magn:    0.6855    constr:    0.0000
     atom:   31    charge:    2.0828    magn:    0.9504    constr:    0.0000
     atom:   32    charge:    2.1029    magn:    0.9226    constr:    0.0000
     atom:   33    charge:    2.0910    magn:    0.9061    constr:    0.0000
     atom:   34    charge:    3.2172    magn:    0.7301    constr:    0.0000
     atom:   35    charge:    2.1036    magn:    0.9069    constr:    0.0000
     atom:   36    charge:    2.0996    magn:    0.9048    constr:    0.0000
     atom:   37    charge:    2.0996    magn:    0.9048    constr:    0.0000
     atom:   38    charge:    3.1915    magn:    0.6974    constr:    0.0000
     atom:   39    charge:    2.1142    magn:    0.9063    constr:    0.0000
     atom:   40    charge:    2.1063    magn:    0.9105    constr:    0.0000
     atom:   41    charge:    2.1075    magn:    0.9131    constr:    0.0000
     atom:   42    charge:    3.1883    magn:    0.6891    constr:    0.0000
     atom:   43    charge:    2.1018    magn:    0.9186    constr:    0.0000
     atom:   44    charge:    2.1119    magn:    0.9068    constr:    0.0000
     atom:   45    charge:    2.1125    magn:    0.9075    constr:    0.0000
     atom:   46    charge:    3.2051    magn:    0.6869    constr:    0.0000
     atom:   47    charge:    2.0837    magn:    0.9510    constr:    0.0000
     atom:   48    charge:    2.0702    magn:    0.9320    constr:    0.0000
     atom:   49    charge:    2.0422    magn:    0.9449    constr:    0.0000

     total cpu time spent up to now is     1125.9 secs

     total energy              =   -2996.76957587 Ry
     Harris-Foulkes estimate   =   -2996.56552672 Ry
     estimated scf accuracy    <      16.18061340 Ry

     total magnetization       =     3.63 Bohr mag/cell
     absolute magnetization    =    18.22 Bohr mag/cell

     iteration #  4     ecut=    40.42 Ry     beta=0.10
     Davidson diagonalization with overlap
     ethr =  4.15E-03,  avg # of iterations =  5.8

     negative rho (up, down):  1.494E-02 1.020E-02
 
     Magnetic moment per site:
     atom:    1    charge:    3.1765    magn:    0.6331    constr:    0.0000
     atom:    2    charge:    2.1130    magn:    0.8340    constr:    0.0000
     atom:    3    charge:    3.1762    magn:    0.6406    constr:    0.0000
     atom:    4    charge:    2.1154    magn:    0.8451    constr:    0.0000
     atom:    5    charge:    3.1685    magn:    0.6259    constr:    0.0000
     atom:    6    charge:    2.1188    magn:    0.8414    constr:    0.0000
     atom:    7    charge:    3.1844    magn:    0.6217    constr:    0.0000
     atom:    8    charge:    2.1154    magn:    0.8510    constr:    0.0000
     atom:    9    charge:    3.1766    magn:    0.6332    constr:    0.0000
     atom:   10    charge:    2.1130    magn:    0.8340    constr:    0.0000
     atom:   11    charge:    3.1762    magn:    0.6407    constr:    0.0000
     atom:   12    charge:    2.1154    magn:    0.8451    constr:    0.0000
     atom:   13    charge:    3.1663    magn:    0.6257    constr:    0.0000
     atom:   14    charge:    2.1175    magn:    0.8408    constr:    0.0000
     atom:   15    charge:    3.1801    magn:    0.6209    constr:    0.0000
     atom:   16    charge:    2.1207    magn:    0.8527    constr:    0.0000
     atom:   17    charge:    2.0984    magn:    0.8388    constr:    0.0000
     atom:   18    charge:    3.1929    magn:    0.6676    constr:    0.0000
     atom:   19    charge:    2.1133    magn:    0.8382    constr:    0.0000
     atom:   20    charge:    2.1101    magn:    0.8361    constr:    0.0000
     atom:   21    charge:    2.1101    magn:    0.8361    constr:    0.0000
     atom:   22    charge:    3.1748    magn:    0.6346    constr:    0.0000
     atom:   23    charge:    2.1201    magn:    0.8378    constr:    0.0000
     atom:   24    charge:    2.1115    magn:    0.8433    constr:    0.0000
     atom:   25    charge:    2.1152    magn:    0.8452    constr:    0.0000
     atom:   26    charge:    3.1705    magn:    0.6253    constr:    0.0000
     atom:   27    charge:    2.1098    magn:    0.8513    constr:    0.0000
     atom:   28    charge:    2.1196    magn:    0.8410    constr:    0.0000
     atom:   29    charge:    2.1189    magn:    0.8395    constr:    0.0000
     atom:   30    charge:    3.1818    magn:    0.6212    constr:    0.0000
     atom:   31    charge:    2.1017    magn:    0.8794    constr:    0.0000
     atom:   32    charge:    2.1128    magn:    0.8537    constr:    0.0000
     atom:   33    charge:    2.0984    magn:    0.8388    constr:    0.0000
     atom:   34    charge:    3.1930    magn:    0.6677    constr:    0.0000
     atom:   35    charge:    2.1133    magn:    0.8382    constr:    0.0000
     atom:   36    charge:    2.1101    magn:    0.8361    constr:    0.0000
     atom:   37    charge:    2.1101    magn:    0.8361    constr:    0.0000
     atom:   38    charge:    3.1749    magn:    0.6346    constr:    0.0000
     atom:   39    charge:    2.1207    magn:    0.8380    constr:    0.0000
     atom:   40    charge:    2.1116    magn:    0.8432    constr:    0.0000
     atom:   41    charge:    2.1152    magn:    0.8452    constr:    0.0000
     atom:   42    charge:    3.1702    magn:    0.6253    constr:    0.0000
     atom:   43    charge:    2.1097    magn:    0.8513    constr:    0.0000
     atom:   44    charge:    2.1180    magn:    0.8388    constr:    0.0000
     atom:   45    charge:    2.1191    magn:    0.8393    constr:    0.0000
     atom:   46    charge:    3.1869    magn:    0.6224    constr:    0.0000
     atom:   47    charge:    2.1026    magn:    0.8799    constr:    0.0000
     atom:   48    charge:    2.0703    magn:    0.8632    constr:    0.0000
     atom:   49    charge:    2.0385    magn:    0.8831    constr:    0.0000

     total cpu time spent up to now is     1393.9 secs

     total energy              =   -2997.65582707 Ry
     Harris-Foulkes estimate   =   -2996.87890098 Ry
     estimated scf accuracy    <      11.96062787 Ry

     total magnetization       =     2.62 Bohr mag/cell
     absolute magnetization    =    16.87 Bohr mag/cell

     iteration #  5     ecut=    40.42 Ry     beta=0.10
     Davidson diagonalization with overlap
     ethr =  3.07E-03,  avg # of iterations =  2.3

     negative rho (up, down):  1.445E-02 1.009E-02
 
     Magnetic moment per site:
     atom:    1    charge:    3.1348    magn:    0.4671    constr:    0.0000
     atom:    2    charge:    2.1279    magn:    0.6573    constr:    0.0000
     atom:    3    charge:    3.1337    magn:    0.4790    constr:    0.0000
     atom:    4    charge:    2.1257    magn:    0.6733    constr:    0.0000
     atom:    5    charge:    3.1319    magn:    0.4649    constr:    0.0000
     atom:    6    charge:    2.1234    magn:    0.6731    constr:    0.0000
     atom:    7    charge:    3.1473    magn:    0.4582    constr:    0.0000
     atom:    8    charge:    2.1273    magn:    0.6776    constr:    0.0000
     atom:    9    charge:    3.1352    magn:    0.4674    constr:    0.0000
     atom:   10    charge:    2.1280    magn:    0.6573    constr:    0.0000
     atom:   11    charge:    3.1337    magn:    0.4790    constr:    0.0000
     atom:   12    charge:    2.1256    magn:    0.6733    constr:    0.0000
     atom:   13    charge:    3.1299    magn:    0.4648    constr:    0.0000
     atom:   14    charge:    2.1222    magn:    0.6725    constr:    0.0000
     atom:   15    charge:    3.1431    magn:    0.4576    constr:    0.0000
     atom:   16    charge:    2.1293    magn:    0.6877    constr:    0.0000
     atom:   17    charge:    2.1050    magn:    0.6671    constr:    0.0000
     atom:   18    charge:    3.1609    magn:    0.5285    constr:    0.0000
     atom:   19    charge:    2.1269    magn:    0.6638    constr:    0.0000
     atom:   20    charge:    2.1261    magn:    0.6610    constr:    0.0000
     atom:   21    charge:    2.1261    magn:    0.6611    constr:    0.0000
     atom:   22    charge:    3.1364    magn:    0.4731    constr:    0.0000
     atom:   23    charge:    2.1270    magn:    0.6661    constr:    0.0000
     atom:   24    charge:    2.1139    magn:    0.6757    constr:    0.0000
     atom:   25    charge:    2.1255    magn:    0.6733    constr:    0.0000
     atom:   26    charge:    3.1335    magn:    0.4642    constr:    0.0000
     atom:   27    charge:    2.1174    magn:    0.6855    constr:    0.0000
     atom:   28    charge:    2.1228    magn:    0.6744    constr:    0.0000
     atom:   29    charge:    2.1218    magn:    0.6729    constr:    0.0000
     atom:   30    charge:    3.1446    magn:    0.4576    constr:    0.0000
     atom:   31    charge:    2.1349    magn:    0.6999    constr:    0.0000
     atom:   32    charge:    2.1286    magn:    0.6794    constr:    0.0000
     atom:   33    charge:    2.1050    magn:    0.6672    constr:    0.0000
     atom:   34    charge:    3.1609    magn:    0.5285    constr:    0.0000
     atom:   35    charge:    2.1270    magn:    0.6638    constr:    0.0000
     atom:   36    charge:    2.1261    magn:    0.6611    constr:    0.0000
     atom:   37    charge:    2.1261    magn:    0.6611    constr:    0.0000
     atom:   38    charge:    3.1364    magn:    0.4731    constr:    0.0000
     atom:   39    charge:    2.1276    magn:    0.6663    constr:    0.0000
     atom:   40    charge:    2.1140    magn:    0.6756    constr:    0.0000
     atom:   41    charge:    2.1255    magn:    0.6734    constr:    0.0000
     atom:   42    charge:    3.1332    magn:    0.4642    constr:    0.0000
     atom:   43    charge:    2.1174    magn:    0.6855    constr:    0.0000
     atom:   44    charge:    2.1219    magn:    0.6703    constr:    0.0000
     atom:   45    charge:    2.1228    magn:    0.6714    constr:    0.0000
     atom:   46    charge:    3.1522    magn:    0.4583    constr:    0.0000
     atom:   47    charge:    2.1361    magn:    0.7003    constr:    0.0000
     atom:   48    charge:    2.0720    magn:    0.6865    constr:    0.0000
     atom:   49    charge:    2.0356    magn:    0.7220    constr:    0.0000

     total cpu time spent up to now is     1587.9 secs

     total energy              =   -2999.72850558 Ry
     Harris-Foulkes estimate   =   -2997.76533630 Ry
     estimated scf accuracy    <      11.12396667 Ry

     total magnetization       =     4.70 Bohr mag/cell
     absolute magnetization    =    17.48 Bohr mag/cell

     iteration #  6     ecut=    40.42 Ry     beta=0.10
     Davidson diagonalization with overlap
     ethr =  2.85E-03,  avg # of iterations =  2.0

     negative rho (up, down):  1.412E-02 1.017E-02
 
     Magnetic moment per site:
     atom:    1    charge:    3.1313    magn:    0.4178    constr:    0.0000
     atom:    2    charge:    2.1284    magn:    0.6019    constr:    0.0000
     atom:    3    charge:    3.1342    magn:    0.4361    constr:    0.0000
     atom:    4    charge:    2.1251    magn:    0.6191    constr:    0.0000
     atom:    5    charge:    3.1278    magn:    0.4169    constr:    0.0000
     atom:    6    charge:    2.1226    magn:    0.6192    constr:    0.0000
     atom:    7    charge:    3.1397    magn:    0.4067    constr:    0.0000
     atom:    8    charge:    2.1256    magn:    0.6233    constr:    0.0000
     atom:    9    charge:    3.1314    magn:    0.4180    constr:    0.0000
     atom:   10    charge:    2.1284    magn:    0.6020    constr:    0.0000
     atom:   11    charge:    3.1343    magn:    0.4362    constr:    0.0000
     atom:   12    charge:    2.1251    magn:    0.6191    constr:    0.0000
     atom:   13    charge:    3.1265    magn:    0.4173    constr:    0.0000
     atom:   14    charge:    2.1214    magn:    0.6186    constr:    0.0000
     atom:   15    charge:    3.1356    magn:    0.4061    constr:    0.0000
     atom:   16    charge:    2.1301    magn:    0.6348    constr:    0.0000
     atom:   17    charge:    2.0973    magn:    0.6176    constr:    0.0000
     atom:   18    charge:    3.1486    magn:    0.4797    constr:    0.0000
     atom:   19    charge:    2.1263    magn:    0.6086    constr:    0.0000
     atom:   20    charge:    2.1254    magn:    0.6059    constr:    0.0000
     atom:   21    charge:    2.1253    magn:    0.6059    constr:    0.0000
     atom:   22    charge:    3.1303    magn:    0.4240    constr:    0.0000
     atom:   23    charge:    2.1260    magn:    0.6117    constr:    0.0000
     atom:   24    charge:    2.1125    magn:    0.6223    constr:    0.0000
     atom:   25    charge:    2.1249    magn:    0.6190    constr:    0.0000
     atom:   26    charge:    3.1269    magn:    0.4136    constr:    0.0000
     atom:   27    charge:    2.1164    magn:    0.6328    constr:    0.0000
     atom:   28    charge:    2.1208    magn:    0.6214    constr:    0.0000
     atom:   29    charge:    2.1198    magn:    0.6199    constr:    0.0000
     atom:   30    charge:    3.1366    magn:    0.4069    constr:    0.0000
     atom:   31    charge:    2.1282    magn:    0.6513    constr:    0.0000
     atom:   32    charge:    2.1273    magn:    0.6253    constr:    0.0000
     atom:   33    charge:    2.0973    magn:    0.6176    constr:    0.0000
     atom:   34    charge:    3.1485    magn:    0.4797    constr:    0.0000
     atom:   35    charge:    2.1263    magn:    0.6086    constr:    0.0000
     atom:   36    charge:    2.1254    magn:    0.6059    constr:    0.0000
     atom:   37    charge:    2.1254    magn:    0.6059    constr:    0.0000
     atom:   38    charge:    3.1303    magn:    0.4239    constr:    0.0000
     atom:   39    charge:    2.1266    magn:    0.6119    constr:    0.0000
     atom:   40    charge:    2.1126    magn:    0.6222    constr:    0.0000
     atom:   41    charge:    2.1249    magn:    0.6192    constr:    0.0000
     atom:   42    charge:    3.1265    magn:    0.4136    constr:    0.0000
     atom:   43    charge:    2.1164    magn:    0.6328    constr:    0.0000
     atom:   44    charge:    2.1197    magn:    0.6170    constr:    0.0000
     atom:   45    charge:    2.1210    magn:    0.6179    constr:    0.0000
     atom:   46    charge:    3.1451    magn:    0.4071    constr:    0.0000
     atom:   47    charge:    2.1295    magn:    0.6516    constr:    0.0000
     atom:   48    charge:    2.0744    magn:    0.6283    constr:    0.0000
     atom:   49    charge:    2.0399    magn:    0.6661    constr:    0.0000

     total cpu time spent up to now is     1777.0 secs

     total energy              =   -3000.65390360 Ry
     Harris-Foulkes estimate   =   -3000.27819945 Ry
     estimated scf accuracy    <       9.83043255 Ry

     total magnetization       =     7.40 Bohr mag/cell
     absolute magnetization    =    16.48 Bohr mag/cell

     iteration #  7     ecut=    40.42 Ry     beta=0.10
     Davidson diagonalization with overlap
     ethr =  2.52E-03,  avg # of iterations =  1.4

     negative rho (up, down):  1.423E-02 1.036E-02
 
     Magnetic moment per site:
     atom:    1    charge:    3.1066    magn:    0.2397    constr:    0.0000
     atom:    2    charge:    2.1302    magn:    0.4145    constr:    0.0000
     atom:    3    charge:    3.1034    magn:    0.2622    constr:    0.0000
     atom:    4    charge:    2.1218    magn:    0.4331    constr:    0.0000
     atom:    5    charge:    3.1031    magn:    0.2448    constr:    0.0000
     atom:    6    charge:    2.1190    magn:    0.4345    constr:    0.0000
     atom:    7    charge:    3.1107    magn:    0.2331    constr:    0.0000
     atom:    8    charge:    2.1199    magn:    0.4362    constr:    0.0000
     atom:    9    charge:    3.1068    magn:    0.2402    constr:    0.0000
     atom:   10    charge:    2.1302    magn:    0.4145    constr:    0.0000
     atom:   11    charge:    3.1034    magn:    0.2622    constr:    0.0000
     atom:   12    charge:    2.1217    magn:    0.4333    constr:    0.0000
     atom:   13    charge:    3.1017    magn:    0.2452    constr:    0.0000
     atom:   14    charge:    2.1177    magn:    0.4339    constr:    0.0000
     atom:   15    charge:    3.1066    magn:    0.2328    constr:    0.0000
     atom:   16    charge:    2.1338    magn:    0.4505    constr:    0.0000
     atom:   17    charge:    2.0955    magn:    0.4363    constr:    0.0000
     atom:   18    charge:    3.1126    magn:    0.3118    constr:    0.0000
     atom:   19    charge:    2.1255    magn:    0.4219    constr:    0.0000
     atom:   20    charge:    2.1275    magn:    0.4185    constr:    0.0000
     atom:   21    charge:    2.1275    magn:    0.4186    constr:    0.0000
     atom:   22    charge:    3.1061    magn:    0.2515    constr:    0.0000
     atom:   23    charge:    2.1205    magn:    0.4259    constr:    0.0000
     atom:   24    charge:    2.1077    magn:    0.4394    constr:    0.0000
     atom:   25    charge:    2.1216    magn:    0.4331    constr:    0.0000
     atom:   26    charge:    3.1018    magn:    0.2405    constr:    0.0000
     atom:   27    charge:    2.1166    magn:    0.4488    constr:    0.0000
     atom:   28    charge:    2.1179    magn:    0.4373    constr:    0.0000
     atom:   29    charge:    2.1167    magn:    0.4356    constr:    0.0000
     atom:   30    charge:    3.1079    magn:    0.2333    constr:    0.0000
     atom:   31    charge:    2.1320    magn:    0.4599    constr:    0.0000
     atom:   32    charge:    2.1232    magn:    0.4383    constr:    0.0000
     atom:   33    charge:    2.0955    magn:    0.4363    constr:    0.0000
     atom:   34    charge:    3.1127    magn:    0.3119    constr:    0.0000
     atom:   35    charge:    2.1256    magn:    0.4219    constr:    0.0000
     atom:   36    charge:    2.1275    magn:    0.4185    constr:    0.0000
     atom:   37    charge:    2.1275    magn:    0.4186    constr:    0.0000
     atom:   38    charge:    3.1060    magn:    0.2515    constr:    0.0000
     atom:   39    charge:    2.1211    magn:    0.4261    constr:    0.0000
     atom:   40    charge:    2.1078    magn:    0.4393    constr:    0.0000
     atom:   41    charge:    2.1215    magn:    0.4333    constr:    0.0000
     atom:   42    charge:    3.1015    magn:    0.2405    constr:    0.0000
     atom:   43    charge:    2.1166    magn:    0.4487    constr:    0.0000
     atom:   44    charge:    2.1149    magn:    0.4327    constr:    0.0000
     atom:   45    charge:    2.1175    magn:    0.4329    constr:    0.0000
     atom:   46    charge:    3.1185    magn:    0.2326    constr:    0.0000
     atom:   47    charge:    2.1332    magn:    0.4600    constr:    0.0000
     atom:   48    charge:    2.0797    magn:    0.4316    constr:    0.0000
     atom:   49    charge:    2.0496    magn:    0.4769    constr:    0.0000

     total cpu time spent up to now is     1957.2 secs

     total energy              =   -3002.75901574 Ry
     Harris-Foulkes estimate   =   -3000.86126623 Ry
     estimated scf accuracy    <       2.74258142 Ry

     total magnetization       =     1.52 Bohr mag/cell
     absolute magnetization    =    14.05 Bohr mag/cell

     iteration #  8     ecut=    40.42 Ry     beta=0.10
     Davidson diagonalization with overlap
     ethr =  7.03E-04,  avg # of iterations =  3.0

     negative rho (up, down):  1.545E-02 1.124E-02
 
     Magnetic moment per site:
     atom:    1    charge:    3.1180    magn:    0.0568    constr:    0.0000
     atom:    2    charge:    2.1046    magn:    0.2163    constr:    0.0000
     atom:    3    charge:    3.0978    magn:    0.0660    constr:    0.0000
     atom:    4    charge:    2.0954    magn:    0.2272    constr:    0.0000
     atom:    5    charge:    3.1033    magn:    0.0601    constr:    0.0000
     atom:    6    charge:    2.0981    magn:    0.2285    constr:    0.0000
     atom:    7    charge:    3.1052    magn:    0.0506    constr:    0.0000
     atom:    8    charge:    2.0915    magn:    0.2289    constr:    0.0000
     atom:    9    charge:    3.1179    magn:    0.0574    constr:    0.0000
     atom:   10    charge:    2.1045    magn:    0.2164    constr:    0.0000
     atom:   11    charge:    3.0977    magn:    0.0660    constr:    0.0000
     atom:   12    charge:    2.0953    magn:    0.2275    constr:    0.0000
     atom:   13    charge:    3.1011    magn:    0.0604    constr:    0.0000
     atom:   14    charge:    2.0967    magn:    0.2280    constr:    0.0000
     atom:   15    charge:    3.1012    magn:    0.0505    constr:    0.0000
     atom:   16    charge:    2.1226    magn:    0.2389    constr:    0.0000
     atom:   17    charge:    2.0621    magn:    0.2560    constr:    0.0000
     atom:   18    charge:    3.1066    magn:    0.1180    constr:    0.0000
     atom:   19    charge:    2.0991    magn:    0.2198    constr:    0.0000
     atom:   20    charge:    2.0998    magn:    0.2167    constr:    0.0000
     atom:   21    charge:    2.0998    magn:    0.2167    constr:    0.0000
     atom:   22    charge:    3.1057    magn:    0.0650    constr:    0.0000
     atom:   23    charge:    2.0962    magn:    0.2216    constr:    0.0000
     atom:   24    charge:    2.0890    magn:    0.2361    constr:    0.0000
     atom:   25    charge:    2.0953    magn:    0.2273    constr:    0.0000
     atom:   26    charge:    3.1007    magn:    0.0540    constr:    0.0000
     atom:   27    charge:    2.0985    magn:    0.2400    constr:    0.0000
     atom:   28    charge:    2.0990    magn:    0.2315    constr:    0.0000
     atom:   29    charge:    2.0993    magn:    0.2292    constr:    0.0000
     atom:   30    charge:    3.1017    magn:    0.0483    constr:    0.0000
     atom:   31    charge:    2.1003    magn:    0.2420    constr:    0.0000
     atom:   32    charge:    2.0925    magn:    0.2315    constr:    0.0000
     atom:   33    charge:    2.0620    magn:    0.2560    constr:    0.0000
     atom:   34    charge:    3.1068    magn:    0.1183    constr:    0.0000
     atom:   35    charge:    2.0991    magn:    0.2198    constr:    0.0000
     atom:   36    charge:    2.0997    magn:    0.2167    constr:    0.0000
     atom:   37    charge:    2.0997    magn:    0.2167    constr:    0.0000
     atom:   38    charge:    3.1058    magn:    0.0649    constr:    0.0000
     atom:   39    charge:    2.0969    magn:    0.2218    constr:    0.0000
     atom:   40    charge:    2.0890    magn:    0.2360    constr:    0.0000
     atom:   41    charge:    2.0952    magn:    0.2276    constr:    0.0000
     atom:   42    charge:    3.1004    magn:    0.0540    constr:    0.0000
     atom:   43    charge:    2.0983    magn:    0.2400    constr:    0.0000
     atom:   44    charge:    2.0933    magn:    0.2284    constr:    0.0000
     atom:   45    charge:    2.0981    magn:    0.2266    constr:    0.0000
     atom:   46    charge:    3.1095    magn:    0.0474    constr:    0.0000
     atom:   47    charge:    2.1011    magn:    0.2420    constr:    0.0000
     atom:   48    charge:    2.0812    magn:    0.2114    constr:    0.0000
     atom:   49    charge:    2.0639    magn:    0.2539    constr:    0.0000

     total cpu time spent up to now is     2162.3 secs

     total energy              =   -3003.73513484 Ry
     Harris-Foulkes estimate   =   -3002.95242938 Ry
     estimated scf accuracy    <       2.76747712 Ry

     total magnetization       =     2.27 Bohr mag/cell
     absolute magnetization    =    12.04 Bohr mag/cell

     iteration #  9     ecut=    40.42 Ry     beta=0.10
     Davidson diagonalization with overlap
     ethr =  7.03E-04,  avg # of iterations =  3.8

     negative rho (up, down):  1.601E-02 1.184E-02
 
     Magnetic moment per site:
     atom:    1    charge:    3.1198    magn:   -0.0093    constr:    0.0000
     atom:    2    charge:    2.0927    magn:    0.1394    constr:    0.0000
     atom:    3    charge:    3.1033    magn:   -0.0054    constr:    0.0000
     atom:    4    charge:    2.0846    magn:    0.1472    constr:    0.0000
     atom:    5    charge:    3.1059    magn:   -0.0072    constr:    0.0000
     atom:    6    charge:    2.0883    magn:    0.1483    constr:    0.0000
     atom:    7    charge:    3.1082    magn:   -0.0164    constr:    0.0000
     atom:    8    charge:    2.0824    magn:    0.1482    constr:    0.0000
     atom:    9    charge:    3.1196    magn:   -0.0088    constr:    0.0000
     atom:   10    charge:    2.0926    magn:    0.1395    constr:    0.0000
     atom:   11    charge:    3.1033    magn:   -0.0054    constr:    0.0000
     atom:   12    charge:    2.0845    magn:    0.1475    constr:    0.0000
     atom:   13    charge:    3.1036    magn:   -0.0069    constr:    0.0000
     atom:   14    charge:    2.0869    magn:    0.1478    constr:    0.0000
     atom:   15    charge:    3.1042    magn:   -0.0163    constr:    0.0000
     atom:   16    charge:    2.1126    magn:    0.1564    constr:    0.0000
     atom:   17    charge:    2.0591    magn:    0.1824    constr:    0.0000
     atom:   18    charge:    3.1079    magn:    0.0414    constr:    0.0000
     atom:   19    charge:    2.0873    magn:    0.1412    constr:    0.0000
     atom:   20    charge:    2.0863    magn:    0.1380    constr:    0.0000
     atom:   21    charge:    2.0863    magn:    0.1380    constr:    0.0000
     atom:   22    charge:    3.1080    magn:   -0.0032    constr:    0.0000
     atom:   23    charge:    2.0877    magn:    0.1421    constr:    0.0000
     atom:   24    charge:    2.0800    magn:    0.1568    constr:    0.0000
     atom:   25    charge:    2.0844    magn:    0.1473    constr:    0.0000
     atom:   26    charge:    3.1030    magn:   -0.0136    constr:    0.0000
     atom:   27    charge:    2.0877    magn:    0.1588    constr:    0.0000
     atom:   28    charge:    2.0901    magn:    0.1514    constr:    0.0000
     atom:   29    charge:    2.0909    magn:    0.1490    constr:    0.0000
     atom:   30    charge:    3.1041    magn:   -0.0189    constr:    0.0000
     atom:   31    charge:    2.0852    magn:    0.1587    constr:    0.0000
     atom:   32    charge:    2.0818    magn:    0.1509    constr:    0.0000
     atom:   33    charge:    2.0590    magn:    0.1824    constr:    0.0000
     atom:   34    charge:    3.1080    magn:    0.0417    constr:    0.0000
     atom:   35    charge:    2.0873    magn:    0.1412    constr:    0.0000
     atom:   36    charge:    2.0863    magn:    0.1380    constr:    0.0000
     atom:   37    charge:    2.0863    magn:    0.1380    constr:    0.0000
     atom:   38    charge:    3.1081    magn:   -0.0033    constr:    0.0000
     atom:   39    charge:    2.0883    magn:    0.1423    constr:    0.0000
     atom:   40    charge:    2.0800    magn:    0.1567    constr:    0.0000
     atom:   41    charge:    2.0844    magn:    0.1476    constr:    0.0000
     atom:   42    charge:    3.1027    magn:   -0.0136    constr:    0.0000
     atom:   43    charge:    2.0875    magn:    0.1587    constr:    0.0000
     atom:   44    charge:    2.0844    magn:    0.1490    constr:    0.0000
     atom:   45    charge:    2.0893    magn:    0.1465    constr:    0.0000
     atom:   46    charge:    3.1097    magn:   -0.0197    constr:    0.0000
     atom:   47    charge:    2.0860    magn:    0.1586    constr:    0.0000
     atom:   48    charge:    2.0794    magn:    0.1260    constr:    0.0000
     atom:   49    charge:    2.0663    magn:    0.1653    constr:    0.0000

     total cpu time spent up to now is     2378.9 secs

     total energy              =   -3004.07150805 Ry
     Harris-Foulkes estimate   =   -3003.95206203 Ry
     estimated scf accuracy    <       0.58232760 Ry

     total magnetization       =     0.04 Bohr mag/cell
     absolute magnetization    =     8.18 Bohr mag/cell

     iteration # 10     ecut=    40.42 Ry     beta=0.10
     Davidson diagonalization with overlap
     ethr =  1.49E-04,  avg # of iterations =  6.2

     negative rho (up, down):  1.615E-02 1.221E-02
 
     Magnetic moment per site:
     atom:    1    charge:    3.1131    magn:   -0.0519    constr:    0.0000
     atom:    2    charge:    2.0897    magn:    0.0805    constr:    0.0000
     atom:    3    charge:    3.1082    magn:   -0.0464    constr:    0.0000
     atom:    4    charge:    2.0838    magn:    0.0873    constr:    0.0000
     atom:    5    charge:    3.1060    magn:   -0.0485    constr:    0.0000
     atom:    6    charge:    2.0852    magn:    0.0884    constr:    0.0000
     atom:    7    charge:    3.1098    magn:   -0.0584    constr:    0.0000
     atom:    8    charge:    2.0845    magn:    0.0879    constr:    0.0000
     atom:    9    charge:    3.1130    magn:   -0.0514    constr:    0.0000
     atom:   10    charge:    2.0896    magn:    0.0805    constr:    0.0000
     atom:   11    charge:    3.1082    magn:   -0.0464    constr:    0.0000
     atom:   12    charge:    2.0839    magn:    0.0876    constr:    0.0000
     atom:   13    charge:    3.1040    magn:   -0.0482    constr:    0.0000
     atom:   14    charge:    2.0838    magn:    0.0879    constr:    0.0000
     atom:   15    charge:    3.1057    magn:   -0.0583    constr:    0.0000
     atom:   16    charge:    2.1033    magn:    0.0951    constr:    0.0000
     atom:   17    charge:    2.0646    magn:    0.1233    constr:    0.0000
     atom:   18    charge:    3.1092    magn:   -0.0094    constr:    0.0000
     atom:   19    charge:    2.0848    magn:    0.0815    constr:    0.0000
     atom:   20    charge:    2.0816    magn:    0.0782    constr:    0.0000
     atom:   21    charge:    2.0816    magn:    0.0782    constr:    0.0000
     atom:   22    charge:    3.1071    magn:   -0.0458    constr:    0.0000
     atom:   23    charge:    2.0870    magn:    0.0828    constr:    0.0000
     atom:   24    charge:    2.0760    magn:    0.0969    constr:    0.0000
     atom:   25    charge:    2.0837    magn:    0.0874    constr:    0.0000
     atom:   26    charge:    3.1021    magn:   -0.0552    constr:    0.0000
     atom:   27    charge:    2.0809    magn:    0.0985    constr:    0.0000
     atom:   28    charge:    2.0864    magn:    0.0916    constr:    0.0000
     atom:   29    charge:    2.0862    magn:    0.0894    constr:    0.0000
     atom:   30    charge:    3.1043    magn:   -0.0601    constr:    0.0000
     atom:   31    charge:    2.0820    magn:    0.0991    constr:    0.0000
     atom:   32    charge:    2.0830    magn:    0.0906    constr:    0.0000
     atom:   33    charge:    2.0646    magn:    0.1234    constr:    0.0000
     atom:   34    charge:    3.1092    magn:   -0.0091    constr:    0.0000
     atom:   35    charge:    2.0848    magn:    0.0815    constr:    0.0000
     atom:   36    charge:    2.0816    magn:    0.0782    constr:    0.0000
     atom:   37    charge:    2.0816    magn:    0.0782    constr:    0.0000
     atom:   38    charge:    3.1072    magn:   -0.0459    constr:    0.0000
     atom:   39    charge:    2.0877    magn:    0.0829    constr:    0.0000
     atom:   40    charge:    2.0761    magn:    0.0968    constr:    0.0000
     atom:   41    charge:    2.0837    magn:    0.0877    constr:    0.0000
     atom:   42    charge:    3.1018    magn:   -0.0551    constr:    0.0000
     atom:   43    charge:    2.0807    magn:    0.0985    constr:    0.0000
     atom:   44    charge:    2.0822    magn:    0.0897    constr:    0.0000
     atom:   45    charge:    2.0854    magn:    0.0871    constr:    0.0000
     atom:   46    charge:    3.1096    magn:   -0.0605    constr:    0.0000
     atom:   47    charge:    2.0829    magn:    0.0991    constr:    0.0000
     atom:   48    charge:    2.0757    magn:    0.0636    constr:    0.0000
     atom:   49    charge:    2.0609    magn:    0.0994    constr:    0.0000

     total cpu time spent up to now is     2628.2 secs

     total energy              =   -3004.11234131 Ry
     Harris-Foulkes estimate   =   -3004.09947459 Ry
     estimated scf accuracy    <       0.23059259 Ry

     total magnetization       =     0.01 Bohr mag/cell
     absolute magnetization    =     6.42 Bohr mag/cell

     iteration # 11     ecut=    40.42 Ry     beta=0.10
     Davidson diagonalization with overlap
     ethr =  5.91E-05,  avg # of iterations =  4.9

     negative rho (up, down):  1.590E-02 1.245E-02
 
     Magnetic moment per site:
     atom:    1    charge:    3.1149    magn:   -0.0480    constr:    0.0000
     atom:    2    charge:    2.0893    magn:    0.0698    constr:    0.0000
     atom:    3    charge:    3.1141    magn:   -0.0409    constr:    0.0000
     atom:    4    charge:    2.0858    magn:    0.0757    constr:    0.0000
     atom:    5    charge:    3.1098    magn:   -0.0438    constr:    0.0000
     atom:    6    charge:    2.0863    magn:    0.0766    constr:    0.0000
     atom:    7    charge:    3.1151    magn:   -0.0532    constr:    0.0000
     atom:    8    charge:    2.0878    magn:    0.0761    constr:    0.0000
     atom:    9    charge:    3.1149    magn:   -0.0476    constr:    0.0000
     atom:   10    charge:    2.0893    magn:    0.0699    constr:    0.0000
     atom:   11    charge:    3.1141    magn:   -0.0409    constr:    0.0000
     atom:   12    charge:    2.0859    magn:    0.0759    constr:    0.0000
     atom:   13    charge:    3.1080    magn:   -0.0435    constr:    0.0000
     atom:   14    charge:    2.0849    magn:    0.0762    constr:    0.0000
     atom:   15    charge:    3.1110    magn:   -0.0532    constr:    0.0000
     atom:   16    charge:    2.0984    magn:    0.0823    constr:    0.0000
     atom:   17    charge:    2.0667    magn:    0.1087    constr:    0.0000
     atom:   18    charge:    3.1151    magn:   -0.0148    constr:    0.0000
     atom:   19    charge:    2.0854    magn:    0.0703    constr:    0.0000
     atom:   20    charge:    2.0810    magn:    0.0669    constr:    0.0000
     atom:   21    charge:    2.0810    magn:    0.0670    constr:    0.0000
     atom:   22    charge:    3.1112    magn:   -0.0417    constr:    0.0000
     atom:   23    charge:    2.0883    magn:    0.0717    constr:    0.0000
     atom:   24    charge:    2.0764    magn:    0.0845    constr:    0.0000
     atom:   25    charge:    2.0856    magn:    0.0758    constr:    0.0000
     atom:   26    charge:    3.1064    magn:   -0.0498    constr:    0.0000
     atom:   27    charge:    2.0791    magn:    0.0860    constr:    0.0000
     atom:   28    charge:    2.0863    magn:    0.0797    constr:    0.0000
     atom:   29    charge:    2.0852    magn:    0.0778    constr:    0.0000
     atom:   30    charge:    3.1096    magn:   -0.0542    constr:    0.0000
     atom:   31    charge:    2.0821    magn:    0.0885    constr:    0.0000
     atom:   32    charge:    2.0857    magn:    0.0787    constr:    0.0000
     atom:   33    charge:    2.0667    magn:    0.1088    constr:    0.0000
     atom:   34    charge:    3.1151    magn:   -0.0145    constr:    0.0000
     atom:   35    charge:    2.0854    magn:    0.0703    constr:    0.0000
     atom:   36    charge:    2.0810    magn:    0.0670    constr:    0.0000
     atom:   37    charge:    2.0810    magn:    0.0670    constr:    0.0000
     atom:   38    charge:    3.1112    magn:   -0.0418    constr:    0.0000
     atom:   39    charge:    2.0890    magn:    0.0718    constr:    0.0000
     atom:   40    charge:    2.0765    magn:    0.0844    constr:    0.0000
     atom:   41    charge:    2.0857    magn:    0.0760    constr:    0.0000
     atom:   42    charge:    3.1061    magn:   -0.0497    constr:    0.0000
     atom:   43    charge:    2.0790    magn:    0.0860    constr:    0.0000
     atom:   44    charge:    2.0835    magn:    0.0781    constr:    0.0000
     atom:   45    charge:    2.0849    magn:    0.0759    constr:    0.0000
     atom:   46    charge:    3.1149    magn:   -0.0544    constr:    0.0000
     atom:   47    charge:    2.0831    magn:    0.0884    constr:    0.0000
     atom:   48    charge:    2.0721    magn:    0.0536    constr:    0.0000
     atom:   49    charge:    2.0519    magn:    0.0847    constr:    0.0000

     total cpu time spent up to now is     2859.0 secs

     total energy              =   -3004.13130393 Ry
     Harris-Foulkes estimate   =   -3004.12873148 Ry
     estimated scf accuracy    <       0.06051069 Ry

     total magnetization       =     0.00 Bohr mag/cell
     absolute magnetization    =     5.11 Bohr mag/cell

     iteration # 12     ecut=    40.42 Ry     beta=0.10
     Davidson diagonalization with overlap
     ethr =  1.55E-05,  avg # of iterations =  7.5

     negative rho (up, down):  1.601E-02 1.298E-02
 
     Magnetic moment per site:
     atom:    1    charge:    3.1221    magn:   -0.0464    constr:    0.0000
     atom:    2    charge:    2.0888    magn:    0.0500    constr:    0.0000
     atom:    3    charge:    3.1166    magn:   -0.0391    constr:    0.0000
     atom:    4    charge:    2.0867    magn:    0.0538    constr:    0.0000
     atom:    5    charge:    3.1138    magn:   -0.0413    constr:    0.0000
     atom:    6    charge:    2.0883    magn:    0.0547    constr:    0.0000
     atom:    7    charge:    3.1189    magn:   -0.0488    constr:    0.0000
     atom:    8    charge:    2.0876    magn:    0.0540    constr:    0.0000
     atom:    9    charge:    3.1221    magn:   -0.0461    constr:    0.0000
     atom:   10    charge:    2.0888    magn:    0.0500    constr:    0.0000
     atom:   11    charge:    3.1166    magn:   -0.0391    constr:    0.0000
     atom:   12    charge:    2.0867    magn:    0.0541    constr:    0.0000
     atom:   13    charge:    3.1119    magn:   -0.0411    constr:    0.0000
     atom:   14    charge:    2.0870    magn:    0.0544    constr:    0.0000
     atom:   15    charge:    3.1148    magn:   -0.0487    constr:    0.0000
     atom:   16    charge:    2.0980    magn:    0.0585    constr:    0.0000
     atom:   17    charge:    2.0618    magn:    0.0833    constr:    0.0000
     atom:   18    charge:    3.1198    magn:   -0.0253    constr:    0.0000
     atom:   19    charge:    2.0863    magn:    0.0495    constr:    0.0000
     atom:   20    charge:    2.0823    magn:    0.0463    constr:    0.0000
     atom:   21    charge:    2.0823    magn:    0.0464    constr:    0.0000
     atom:   22    charge:    3.1164    magn:   -0.0397    constr:    0.0000
     atom:   23    charge:    2.0884    magn:    0.0508    constr:    0.0000
     atom:   24    charge:    2.0780    magn:    0.0614    constr:    0.0000
     atom:   25    charge:    2.0865    magn:    0.0539    constr:    0.0000
     atom:   26    charge:    3.1116    magn:   -0.0457    constr:    0.0000
     atom:   27    charge:    2.0804    magn:    0.0624    constr:    0.0000
     atom:   28    charge:    2.0872    magn:    0.0573    constr:    0.0000
     atom:   29    charge:    2.0857    magn:    0.0556    constr:    0.0000
     atom:   30    charge:    3.1148    magn:   -0.0493    constr:    0.0000
     atom:   31    charge:    2.0825    magn:    0.0653    constr:    0.0000
     atom:   32    charge:    2.0857    magn:    0.0564    constr:    0.0000
     atom:   33    charge:    2.0618    magn:    0.0833    constr:    0.0000
     atom:   34    charge:    3.1198    magn:   -0.0251    constr:    0.0000
     atom:   35    charge:    2.0863    magn:    0.0494    constr:    0.0000
     atom:   36    charge:    2.0823    magn:    0.0464    constr:    0.0000
     atom:   37    charge:    2.0823    magn:    0.0464    constr:    0.0000
     atom:   38    charge:    3.1163    magn:   -0.0398    constr:    0.0000
     atom:   39    charge:    2.0890    magn:    0.0509    constr:    0.0000
     atom:   40    charge:    2.0781    magn:    0.0614    constr:    0.0000
     atom:   41    charge:    2.0865    magn:    0.0541    constr:    0.0000
     atom:   42    charge:    3.1113    magn:   -0.0457    constr:    0.0000
     atom:   43    charge:    2.0803    magn:    0.0624    constr:    0.0000
     atom:   44    charge:    2.0848    magn:    0.0562    constr:    0.0000
     atom:   45    charge:    2.0854    magn:    0.0542    constr:    0.0000
     atom:   46    charge:    3.1204    magn:   -0.0493    constr:    0.0000
     atom:   47    charge:    2.0835    magn:    0.0653    constr:    0.0000
     atom:   48    charge:    2.0698    magn:    0.0346    constr:    0.0000
     atom:   49    charge:    2.0444    magn:    0.0589    constr:    0.0000

     total cpu time spent up to now is     3130.4 secs

     total energy              =   -3004.14623220 Ry
     Harris-Foulkes estimate   =   -3004.13723296 Ry
     estimated scf accuracy    <       0.03192479 Ry

     total magnetization       =     0.00 Bohr mag/cell
     absolute magnetization    =     4.39 Bohr mag/cell

     iteration # 13     ecut=    40.42 Ry     beta=0.10
     Davidson diagonalization with overlap
     ethr =  8.19E-06,  avg # of iterations =  2.7

     negative rho (up, down):  1.611E-02 1.358E-02
 
     Magnetic moment per site:
     atom:    1    charge:    3.1271    magn:   -0.0334    constr:    0.0000
     atom:    2    charge:    2.0885    magn:    0.0368    constr:    0.0000
     atom:    3    charge:    3.1213    magn:   -0.0266    constr:    0.0000
     atom:    4    charge:    2.0869    magn:    0.0385    constr:    0.0000
     atom:    5    charge:    3.1185    magn:   -0.0279    constr:    0.0000
     atom:    6    charge:    2.0895    magn:    0.0392    constr:    0.0000
     atom:    7    charge:    3.1231    magn:   -0.0331    constr:    0.0000
     atom:    8    charge:    2.0867    magn:    0.0386    constr:    0.0000
     atom:    9    charge:    3.1270    magn:   -0.0332    constr:    0.0000
     atom:   10    charge:    2.0885    magn:    0.0369    constr:    0.0000
     atom:   11    charge:    3.1213    magn:   -0.0266    constr:    0.0000
     atom:   12    charge:    2.0868    magn:    0.0387    constr:    0.0000
     atom:   13    charge:    3.1166    magn:   -0.0279    constr:    0.0000
     atom:   14    charge:    2.0881    magn:    0.0390    constr:    0.0000
     atom:   15    charge:    3.1190    magn:   -0.0331    constr:    0.0000
     atom:   16    charge:    2.0993    magn:    0.0410    constr:    0.0000
     atom:   17    charge:    2.0606    magn:    0.0630    constr:    0.0000
     atom:   18    charge:    3.1258    magn:   -0.0240    constr:    0.0000
     atom:   19    charge:    2.0874    magn:    0.0354    constr:    0.0000
     atom:   20    charge:    2.0838    magn:    0.0329    constr:    0.0000
     atom:   21    charge:    2.0838    magn:    0.0329    constr:    0.0000
     atom:   22    charge:    3.1213    magn:   -0.0271    constr:    0.0000
     atom:   23    charge:    2.0897    magn:    0.0366    constr:    0.0000
     atom:   24    charge:    2.0792    magn:    0.0445    constr:    0.0000
     atom:   25    charge:    2.0867    magn:    0.0386    constr:    0.0000
     atom:   26    charge:    3.1168    magn:   -0.0307    constr:    0.0000
     atom:   27    charge:    2.0815    magn:    0.0451    constr:    0.0000
     atom:   28    charge:    2.0879    magn:    0.0413    constr:    0.0000
     atom:   29    charge:    2.0868    magn:    0.0400    constr:    0.0000
     atom:   30    charge:    3.1199    magn:   -0.0332    constr:    0.0000
     atom:   31    charge:    2.0818    magn:    0.0485    constr:    0.0000
     atom:   32    charge:    2.0855    magn:    0.0406    constr:    0.0000
     atom:   33    charge:    2.0606    magn:    0.0630    constr:    0.0000
     atom:   34    charge:    3.1258    magn:   -0.0238    constr:    0.0000
     atom:   35    charge:    2.0874    magn:    0.0354    constr:    0.0000
     atom:   36    charge:    2.0838    magn:    0.0329    constr:    0.0000
     atom:   37    charge:    2.0838    magn:    0.0329    constr:    0.0000
     atom:   38    charge:    3.1213    magn:   -0.0272    constr:    0.0000
     atom:   39    charge:    2.0904    magn:    0.0367    constr:    0.0000
     atom:   40    charge:    2.0792    magn:    0.0444    constr:    0.0000
     atom:   41    charge:    2.0867    magn:    0.0388    constr:    0.0000
     atom:   42    charge:    3.1165    magn:   -0.0307    constr:    0.0000
     atom:   43    charge:    2.0814    magn:    0.0452    constr:    0.0000
     atom:   44    charge:    2.0854    magn:    0.0408    constr:    0.0000
     atom:   45    charge:    2.0866    magn:    0.0393    constr:    0.0000
     atom:   46    charge:    3.1259    magn:   -0.0330    constr:    0.0000
     atom:   47    charge:    2.0829    magn:    0.0485    constr:    0.0000
     atom:   48    charge:    2.0688    magn:    0.0234    constr:    0.0000
     atom:   49    charge:    2.0421    magn:    0.0393    constr:    0.0000

     total cpu time spent up to now is     3331.6 secs

     total energy              =   -3004.16209216 Ry
     Harris-Foulkes estimate   =   -3004.15011706 Ry
     estimated scf accuracy    <       0.01145458 Ry

     total magnetization       =     0.00 Bohr mag/cell
     absolute magnetization    =     3.40 Bohr mag/cell

     iteration # 14     ecut=    40.42 Ry     beta=0.10
     Davidson diagonalization with overlap
     ethr =  2.94E-06,  avg # of iterations =  6.3

     negative rho (up, down):  1.594E-02 1.374E-02
 
     Magnetic moment per site:
     atom:    1    charge:    3.1261    magn:   -0.0312    constr:    0.0000
     atom:    2    charge:    2.0897    magn:    0.0272    constr:    0.0000
     atom:    3    charge:    3.1204    magn:   -0.0247    constr:    0.0000
     atom:    4    charge:    2.0874    magn:    0.0283    constr:    0.0000
     atom:    5    charge:    3.1178    magn:   -0.0256    constr:    0.0000
     atom:    6    charge:    2.0899    magn:    0.0290    constr:    0.0000
     atom:    7    charge:    3.1222    magn:   -0.0298    constr:    0.0000
     atom:    8    charge:    2.0870    magn:    0.0283    constr:    0.0000
     atom:    9    charge:    3.1261    magn:   -0.0311    constr:    0.0000
     atom:   10    charge:    2.0897    magn:    0.0272    constr:    0.0000
     atom:   11    charge:    3.1204    magn:   -0.0247    constr:    0.0000
     atom:   12    charge:    2.0874    magn:    0.0284    constr:    0.0000
     atom:   13    charge:    3.1158    magn:   -0.0257    constr:    0.0000
     atom:   14    charge:    2.0886    magn:    0.0288    constr:    0.0000
     atom:   15    charge:    3.1181    magn:   -0.0298    constr:    0.0000
     atom:   16    charge:    2.1010    magn:    0.0303    constr:    0.0000
     atom:   17    charge:    2.0613    magn:    0.0503    constr:    0.0000
     atom:   18    charge:    3.1250    magn:   -0.0238    constr:    0.0000
     atom:   19    charge:    2.0887    magn:    0.0257    constr:    0.0000
     atom:   20    charge:    2.0856    magn:    0.0236    constr:    0.0000
     atom:   21    charge:    2.0856    magn:    0.0236    constr:    0.0000
     atom:   22    charge:    3.1207    magn:   -0.0252    constr:    0.0000
     atom:   23    charge:    2.0908    magn:    0.0268    constr:    0.0000
     atom:   24    charge:    2.0798    magn:    0.0336    constr:    0.0000
     atom:   25    charge:    2.0872    magn:    0.0284    constr:    0.0000
     atom:   26    charge:    3.1162    magn:   -0.0277    constr:    0.0000
     atom:   27    charge:    2.0826    magn:    0.0343    constr:    0.0000
     atom:   28    charge:    2.0887    magn:    0.0309    constr:    0.0000
     atom:   29    charge:    2.0878    magn:    0.0299    constr:    0.0000
     atom:   30    charge:    3.1191    magn:   -0.0299    constr:    0.0000
     atom:   31    charge:    2.0832    magn:    0.0371    constr:    0.0000
     atom:   32    charge:    2.0862    magn:    0.0301    constr:    0.0000
     atom:   33    charge:    2.0613    magn:    0.0503    constr:    0.0000
     atom:   34    charge:    3.1250    magn:   -0.0237    constr:    0.0000
     atom:   35    charge:    2.0887    magn:    0.0257    constr:    0.0000
     atom:   36    charge:    2.0856    magn:    0.0236    constr:    0.0000
     atom:   37    charge:    2.0856    magn:    0.0236    constr:    0.0000
     atom:   38    charge:    3.1207    magn:   -0.0252    constr:    0.0000
     atom:   39    charge:    2.0915    magn:    0.0268    constr:    0.0000
     atom:   40    charge:    2.0798    magn:    0.0336    constr:    0.0000
     atom:   41    charge:    2.0872    magn:    0.0285    constr:    0.0000
     atom:   42    charge:    3.1159    magn:   -0.0277    constr:    0.0000
     atom:   43    charge:    2.0825    magn:    0.0344    constr:    0.0000
     atom:   44    charge:    2.0859    magn:    0.0305    constr:    0.0000
     atom:   45    charge:    2.0877    magn:    0.0293    constr:    0.0000
     atom:   46    charge:    3.1251    magn:   -0.0297    constr:    0.0000
     atom:   47    charge:    2.0842    magn:    0.0371    constr:    0.0000
     atom:   48    charge:    2.0693    magn:    0.0153    constr:    0.0000
     atom:   49    charge:    2.0431    magn:    0.0282    constr:    0.0000

     total cpu time spent up to now is     3636.1 secs

     total energy              =   -3004.16704626 Ry
     Harris-Foulkes estimate   =   -3004.16534416 Ry
     estimated scf accuracy    <       0.01286442 Ry

     total magnetization       =     0.00 Bohr mag/cell
     absolute magnetization    =     2.33 Bohr mag/cell

     iteration # 15     ecut=    40.42 Ry     beta=0.10
     Davidson diagonalization with overlap
     ethr =  2.94E-06,  avg # of iterations =  1.5

     negative rho (up, down):  1.591E-02 1.405E-02
 
     Magnetic moment per site:
     atom:    1    charge:    3.1270    magn:   -0.0232    constr:    0.0000
     atom:    2    charge:    2.0895    magn:    0.0162    constr:    0.0000
     atom:    3    charge:    3.1204    magn:   -0.0188    constr:    0.0000
     atom:    4    charge:    2.0871    magn:    0.0161    constr:    0.0000
     atom:    5    charge:    3.1178    magn:   -0.0183    constr:    0.0000
     atom:    6    charge:    2.0893    magn:    0.0167    constr:    0.0000
     atom:    7    charge:    3.1227    magn:   -0.0207    constr:    0.0000
     atom:    8    charge:    2.0872    magn:    0.0160    constr:    0.0000
     atom:    9    charge:    3.1270    magn:   -0.0231    constr:    0.0000
     atom:   10    charge:    2.0895    magn:    0.0162    constr:    0.0000
     atom:   11    charge:    3.1204    magn:   -0.0188    constr:    0.0000
     atom:   12    charge:    2.0871    magn:    0.0162    constr:    0.0000
     atom:   13    charge:    3.1156    magn:   -0.0185    constr:    0.0000
     atom:   14    charge:    2.0880    magn:    0.0166    constr:    0.0000
     atom:   15    charge:    3.1186    magn:   -0.0207    constr:    0.0000
     atom:   16    charge:    2.1009    magn:    0.0169    constr:    0.0000
     atom:   17    charge:    2.0615    magn:    0.0338    constr:    0.0000
     atom:   18    charge:    3.1248    magn:   -0.0202    constr:    0.0000
     atom:   19    charge:    2.0884    magn:    0.0146    constr:    0.0000
     atom:   20    charge:    2.0856    magn:    0.0132    constr:    0.0000
     atom:   21    charge:    2.0856    magn:    0.0132    constr:    0.0000
     atom:   22    charge:    3.1211    magn:   -0.0183    constr:    0.0000
     atom:   23    charge:    2.0908    magn:    0.0153    constr:    0.0000
     atom:   24    charge:    2.0795    magn:    0.0202    constr:    0.0000
     atom:   25    charge:    2.0869    magn:    0.0162    constr:    0.0000
     atom:   26    charge:    3.1165    magn:   -0.0193    constr:    0.0000
     atom:   27    charge:    2.0824    magn:    0.0206    constr:    0.0000
     atom:   28    charge:    2.0890    magn:    0.0183    constr:    0.0000
     atom:   29    charge:    2.0881    magn:    0.0175    constr:    0.0000
     atom:   30    charge:    3.1197    magn:   -0.0208    constr:    0.0000
     atom:   31    charge:    2.0834    magn:    0.0223    constr:    0.0000
     atom:   32    charge:    2.0862    magn:    0.0174    constr:    0.0000
     atom:   33    charge:    2.0615    magn:    0.0339    constr:    0.0000
     atom:   34    charge:    3.1248    magn:   -0.0202    constr:    0.0000
     atom:   35    charge:    2.0884    magn:    0.0145    constr:    0.0000
     atom:   36    charge:    2.0856    magn:    0.0132    constr:    0.0000
     atom:   37    charge:    2.0856    magn:    0.0132    constr:    0.0000
     atom:   38    charge:    3.1211    magn:   -0.0183    constr:    0.0000
     atom:   39    charge:    2.0915    magn:    0.0153    constr:    0.0000
     atom:   40    charge:    2.0795    magn:    0.0202    constr:    0.0000
     atom:   41    charge:    2.0869    magn:    0.0163    constr:    0.0000
     atom:   42    charge:    3.1161    magn:   -0.0193    constr:    0.0000
     atom:   43    charge:    2.0824    magn:    0.0207    constr:    0.0000
     atom:   44    charge:    2.0861    magn:    0.0181    constr:    0.0000
     atom:   45    charge:    2.0879    magn:    0.0173    constr:    0.0000
     atom:   46    charge:    3.1253    magn:   -0.0205    constr:    0.0000
     atom:   47    charge:    2.0844    magn:    0.0223    constr:    0.0000
[...]
    -4.7304  -4.7157  -4.7113  -4.6636  -4.6542  -4.5859  -4.5853  -4.5839
    -4.5426  -4.5258  -4.4987  -4.4795  -4.4493  -4.4394  -4.4278  -4.3491
    -4.2637  -4.1871  -4.0670  -4.0520  -4.0382  -3.9800  -3.9549  -3.9418
    -3.9029  -3.9021  -3.6743  -3.6717  -3.5972  -3.5303  -3.4303  -3.4190
    -3.3756  -3.3489  -3.3093  -3.2238  -3.1847  -3.1179  -3.0990  -3.0687
    -3.0362  -2.9636  -2.9507  -2.9328  -2.9290  -2.9117  -2.8728  -2.8372
    -2.8035  -2.7008  -2.6979  -2.6008  -2.5928  -2.5754  -2.4936  -2.4752
    -2.3938  -2.2969  -2.2175  -2.0811  -2.0714  -1.9042  -1.8993  -1.8158
    -1.7636  -1.7468  -1.7411  -1.6830  -1.6143  -1.5818  -1.5645  -1.5012
    -1.4920  -1.3616  -1.1803  -1.1768  -1.1713  -1.1276  -0.9923  -0.4798
    -0.4798  -0.3383  -0.3379   1.5038   1.5368   1.5650   1.6000   1.6066
     1.6440   1.6467   1.7240   1.8420   1.8747   1.9304   1.9436   1.9993
     2.0106   2.0504   2.0698   2.1167   2.1251   2.1310   2.2213   2.2776
     2.3744   2.3838   2.4067   2.4441   2.4469   2.6057   2.6322   2.7007
     2.7041   2.8071   2.8109   2.8524   2.8601   2.9092   2.9219   2.9416
     2.9466   3.0658   3.0802   3.2143   3.2456   3.3337   3.3982   3.3984
     3.3992   3.5176   3.5285   3.5503   3.5505   3.7643   3.8407   3.9381
     4.0848   4.1552   4.2307   4.2308   4.2824   4.3187   4.3373   4.3401
     4.6629   4.6714   4.7899   4.8228   5.1993   5.2178   5.3592   5.3618
     5.4569   5.5885   5.7409   5.7426   5.7682   5.7866   6.0156   6.0775
     6.1161   6.1163   6.2896   6.2904   6.3920   6.3938   6.7685   7.2628
     7.5007   7.5751   7.6922   7.7250   7.8828   7.9044   7.9952   8.0884
     8.4245   8.4510   8.5704   8.6967   9.1808   9.2191   9.3250

          k =-0.0253 0.0280 0.0000 ( 34687 PWs)   bands (ev):

   -58.2549 -58.2246 -58.0917 -58.0573 -57.9269 -57.8819 -57.7062 -57.6755
   -57.6500 -57.6195 -57.5747 -57.5430 -57.3917 -57.2313 -56.7021 -56.6716
   -34.6675 -34.6369 -34.5377 -34.5130 -34.4512 -34.4499 -34.3954 -34.3702
   -34.3542 -34.3299 -34.3164 -34.2983 -34.2438 -34.1941 -34.1798 -34.1403
   -34.1208 -34.1144 -34.1068 -34.0914 -34.0583 -33.9808 -33.8977 -33.8850
   -33.8805 -33.8626 -33.8409 -33.8394 -33.8327 -33.8252 -33.8203 -33.8151
   -33.7823 -33.7710 -33.7703 -33.7374 -33.7328 -33.6968 -33.6309 -33.6108
   -33.4649 -33.4189 -33.0973 -33.0560 -33.0320 -32.9211 -32.8417 -32.7545
   -22.5319 -18.5197 -18.3253 -18.2474 -17.9967 -17.8990 -17.8869 -17.8374
   -17.6818 -17.6531 -17.6375 -17.5849 -17.5326 -17.4761 -17.4339 -17.3890
   -17.3645 -17.3268 -17.2679 -17.2017 -17.1003 -17.0767 -16.9897 -16.9455
   -16.9120 -16.7813 -16.7604 -16.7321 -16.6225 -16.6138 -15.7145 -15.2896
   -15.2187  -6.8380  -6.4937  -6.2878  -5.8404  -5.7377  -5.6070  -5.5539
    -5.3708  -5.3367  -5.3353  -5.1693  -5.0795  -5.0007  -4.9663  -4.9117
    -4.8318  -4.7875  -4.7627  -4.7174  -4.6894  -4.6544  -4.6413  -4.5853
    -4.5447  -4.5337  -4.4632  -4.4152  -4.4018  -4.3752  -4.2936  -4.2374
    -4.1915  -4.1290  -4.1206  -4.0904  -3.9698  -3.9257  -3.8611  -3.8038
    -3.7470  -3.6384  -3.5607  -3.5320  -3.4868  -3.4132  -3.3345  -3.2365
    -3.2192  -3.1639  -3.1229  -3.0719  -3.0304  -3.0139  -3.0062  -2.9458
    -2.9195  -2.8679  -2.8314  -2.7801  -2.7529  -2.7218  -2.6477  -2.5733
    -2.5288  -2.4433  -2.4373  -2.3631  -2.3187  -2.2574  -2.1962  -2.1648
    -2.1578  -2.1240  -2.0828  -2.0301  -1.9679  -1.9423  -1.9244  -1.8608
    -1.8369  -1.7324  -1.6931  -1.6690  -1.6463  -1.5850  -1.4662  -1.4425
    -1.3562  -1.3246  -1.3164  -1.2417  -1.0684  -0.8409  -0.7458  -0.6307
    -0.4083  -0.3686  -0.3583   1.1599   1.2871   1.3195   1.4575   1.4841
     1.5347   1.6885   1.7001   1.7737   1.7954   1.8164   1.8605   1.8873
     1.9167   1.9499   1.9749   2.0132   2.0625   2.1069   2.1411   2.1638
     2.1933   2.2949   2.3911   2.4351   2.4475   2.4573   2.5139   2.5488
     2.5642   2.6399   2.6712   2.7358   2.7992   2.8090   2.8484   2.8875
     2.8991   2.9716   3.0094   3.0819   3.1010   3.1078   3.1701   3.2948
     3.3912   3.5718   3.6091   3.6203   3.7462   3.7499   3.8961   3.9369
     4.2117   4.2982   4.3563   4.4386   4.5139   4.5641   4.5881   4.7670
     4.9702   5.0838   5.1424   5.1931   5.2358   5.2522   5.3270   5.3344
     5.4780   5.5174   5.5361   5.5526   5.6072   5.6145   5.6674   5.8728
     5.9589   6.0389   6.1068   6.2025   6.3861   6.3986   6.6392   6.7237
     7.3605   7.6425   7.8780   7.9841   8.1888   8.2404   8.3711   8.5684
     8.9165   9.0442   9.2242   9.3372   9.4088   9.7832   9.8176

          k =-0.0253 0.0560 0.0000 ( 34699 PWs)   bands (ev):

   -58.2485 -58.2311 -58.0856 -58.0635 -57.9230 -57.8858 -57.6997 -57.6820
   -57.6437 -57.6259 -57.5686 -57.5491 -57.3906 -57.2324 -56.6957 -56.6781
   -34.5977 -34.5632 -34.5323 -34.5181 -34.4343 -34.4029 -34.3875 -34.3852
   -34.3780 -34.3518 -34.3361 -34.3234 -34.2921 -34.1954 -34.1523 -34.1342
   -34.1278 -34.1059 -34.1034 -34.0510 -34.0011 -33.9624 -33.9121 -33.9046
   -33.8834 -33.8774 -33.8674 -33.8551 -33.8344 -33.8328 -33.8233 -33.8184
   -33.7985 -33.7840 -33.7735 -33.7642 -33.7356 -33.6959 -33.6296 -33.6103
   -33.4947 -33.4623 -33.0510 -33.0371 -33.0265 -32.9045 -32.8586 -32.8286
   -22.5210 -18.3638 -18.1899 -18.1236 -17.9413 -17.8597 -17.8356 -17.7773
   -17.7586 -17.7256 -17.6441 -17.6070 -17.5590 -17.4668 -17.4415 -17.4325
   -17.3373 -17.3283 -17.2644 -17.2155 -17.1736 -17.1348 -17.0170 -16.9702
   -16.8635 -16.8179 -16.7837 -16.7486 -16.7353 -16.6687 -15.7164 -15.3073
   -15.2691  -6.7744  -6.4548  -6.2357  -5.6133  -5.5039  -5.4374  -5.3972
    -5.3405  -5.1451  -5.1384  -5.0946  -5.0413  -4.9866  -4.9573  -4.9285
    -4.8915  -4.8496  -4.8337  -4.7819  -4.7765  -4.7270  -4.7109  -4.6471
    -4.6393  -4.5994  -4.5132  -4.5001  -4.4521  -4.3849  -4.3729  -4.3045
    -4.1924  -4.1717  -4.0569  -4.0207  -3.9164  -3.8837  -3.8458  -3.7677
    -3.6789  -3.6294  -3.5516  -3.4653  -3.4234  -3.4061  -3.3518  -3.2547
    -3.2153  -3.1445  -3.1024  -3.0716  -2.9969  -2.9832  -2.9264  -2.9146
    -2.8984  -2.8616  -2.7914  -2.7317  -2.7120  -2.7051  -2.6615  -2.6105
    -2.5441  -2.5211  -2.4834  -2.4563  -2.3935  -2.3844  -2.3004  -2.2748
    -2.2103  -2.2001  -2.1706  -2.1278  -2.0407  -2.0096  -1.9663  -1.9293
    -1.8582  -1.8180  -1.7810  -1.6991  -1.6866  -1.6210  -1.5989  -1.5312
    -1.4206  -1.3759  -1.3143  -1.2390  -1.2008  -1.0990  -0.8733  -0.4553
    -0.4195  -0.3916  -0.3653   1.3001   1.3805   1.4905   1.5266   1.5723
     1.6179   1.6591   1.7190   1.7401   1.8100   1.8271   1.8577   1.9015
     1.9490   1.9619   1.9788   2.0766   2.1093   2.1563   2.2057   2.2208
     2.2446   2.2600   2.3445   2.3619   2.3896   2.4376   2.4618   2.5107
     2.6400   2.6599   2.7119   2.7575   2.7847   2.8165   2.8717   2.9178
     2.9709   3.0141   3.0408   3.1681   3.2022   3.2219   3.2872   3.3112
     3.3327   3.4472   3.5542   3.5875   3.6577   3.7842   3.8334   3.9563
     4.3139   4.3774   4.4382   4.5784   4.5998   4.6454   4.6838   4.7706
     4.8213   4.9207   5.0036   5.0922   5.1583   5.2440   5.2660   5.3022
     5.3529   5.4368   5.4789   5.4993   5.5731   5.6199   5.7503   5.8283
     5.9213   6.0327   6.0471   6.2441   6.2767   6.4522   6.5767   6.9193
     7.0212   7.3638   7.7193   7.8943   8.2246   8.3675   8.4284   8.5974
     8.7355   8.9177   9.0470   9.3746   9.5247   9.5851   9.7583

          k =-0.0506 0.0280 0.0000 ( 34685 PWs)   bands (ev):

   -58.2549 -58.2246 -58.0916 -58.0573 -57.9269 -57.8819 -57.7061 -57.6755
   -57.6501 -57.6195 -57.5747 -57.5430 -57.3917 -57.2313 -56.7021 -56.6716
   -34.6682 -34.6381 -34.5376 -34.5130 -34.4501 -34.4498 -34.3930 -34.3702
   -34.3537 -34.3299 -34.3164 -34.2983 -34.2439 -34.1941 -34.1829 -34.1403
   -34.1215 -34.1213 -34.1096 -34.0914 -34.0414 -33.9660 -33.8971 -33.8856
   -33.8771 -33.8626 -33.8522 -33.8466 -33.8324 -33.8285 -33.8196 -33.8151
   -33.7826 -33.7710 -33.7705 -33.7374 -33.7327 -33.6984 -33.6310 -33.6109
   -33.4649 -33.4189 -33.0972 -33.0578 -33.0311 -32.9211 -32.8417 -32.7545
   -22.5271 -18.4604 -18.2421 -18.1908 -17.9389 -17.8978 -17.8714 -17.8447
   -17.7681 -17.7125 -17.6690 -17.6271 -17.5384 -17.4988 -17.4786 -17.4461
   -17.4092 -17.2995 -17.2880 -17.1668 -17.1276 -17.0283 -17.0091 -16.9770
   -16.8863 -16.7703 -16.7615 -16.7312 -16.6229 -16.6124 -15.7006 -15.2876
   -15.2188  -6.7009  -6.4232  -6.3319  -5.8115  -5.4492  -5.4095  -5.3422
    -5.2903  -5.2700  -5.2343  -5.2114  -5.1314  -5.0735  -5.0051  -4.9496
    -4.9047  -4.7723  -4.7225  -4.6725  -4.6268  -4.5990  -4.5775  -4.5645
    -4.5459  -4.4957  -4.4382  -4.3944  -4.3503  -4.3202  -4.2734  -4.2591
    -4.1888  -4.1699  -4.0416  -3.9935  -3.9263  -3.8568  -3.8335  -3.7936
    -3.7424  -3.6861  -3.5859  -3.5536  -3.5046  -3.4537  -3.3738  -3.3213
    -3.3094  -3.2545  -3.2330  -3.1626  -3.0988  -3.0861  -3.0371  -2.9879
    -2.9600  -2.9275  -2.9037  -2.8568  -2.8139  -2.7748  -2.6842  -2.6089
    -2.5658  -2.5423  -2.4926  -2.4341  -2.3917  -2.3653  -2.3228  -2.2911
    -2.2010  -2.1490  -2.1031  -2.0765  -2.0539  -1.9951  -1.9685  -1.9000
    -1.8404  -1.8096  -1.7073  -1.6715  -1.6385  -1.5437  -1.4703  -1.4378
    -1.3826  -1.3292  -1.2774  -1.2480  -1.0783  -0.8842  -0.8350  -0.6179
    -0.4381  -0.4079  -0.3946   1.1440   1.3466   1.3958   1.5000   1.5074
     1.5353   1.6011   1.6612   1.7441   1.7722   1.8268   1.9040   1.9342
     1.9711   1.9966   2.0210   2.0388   2.0716   2.1285   2.1830   2.2219
     2.2991   2.3452   2.3875   2.4680   2.4777   2.5391   2.5516   2.5755
     2.6130   2.6802   2.7343   2.7773   2.8212   2.8786   2.9007   2.9265
     2.9767   3.0575   3.0726   3.1080   3.1178   3.1845   3.2533   3.2805
     3.3257   3.4853   3.6087   3.6891   3.7248   3.7858   3.8518   3.8665
     4.0552   4.1158   4.2040   4.2291   4.3969   4.4649   4.5668   4.8079
     4.9140   5.0217   5.0555   5.1981   5.2560   5.2679   5.3018   5.4471
     5.4908   5.5454   5.5781   5.6809   5.8600   5.8985   5.9425   5.9813
     6.0830   6.1209   6.2616   6.2731   6.4084   6.4501   6.6112   6.8841
     7.1641   7.3407   7.6820   7.7048   7.7591   8.3162   8.4052   8.5685
     8.6591   9.0948   9.1777   9.4107   9.5120   9.6289   9.7650

          k =-0.0506 0.0560 0.0000 ( 34596 PWs)   bands (ev):

   -58.2485 -58.2311 -58.0856 -58.0635 -57.9230 -57.8858 -57.6997 -57.6820
   -57.6437 -57.6259 -57.5686 -57.5491 -57.3907 -57.2324 -56.6957 -56.6781
   -34.5982 -34.5643 -34.5323 -34.5180 -34.4331 -34.4030 -34.3872 -34.3853
   -34.3763 -34.3517 -34.3359 -34.3230 -34.2920 -34.1953 -34.1524 -34.1330
   -34.1279 -34.1092 -34.1065 -34.0518 -33.9925 -33.9500 -33.9157 -33.8965
   -33.8822 -33.8786 -33.8673 -33.8550 -33.8387 -33.8329 -33.8320 -33.8222
   -33.7987 -33.7855 -33.7734 -33.7642 -33.7356 -33.6967 -33.6298 -33.6105
   -33.4945 -33.4623 -33.0521 -33.0366 -33.0264 -32.9045 -32.8586 -32.8285
   -22.5166 -18.3128 -18.1223 -18.0513 -17.9438 -17.8291 -17.8184 -17.7810
   -17.7443 -17.7292 -17.6959 -17.6188 -17.6051 -17.5031 -17.4471 -17.4193
   -17.4177 -17.3575 -17.2642 -17.2361 -17.1786 -17.1448 -17.1032 -16.9550
   -16.8411 -16.8117 -16.7826 -16.7479 -16.7352 -16.6678 -15.7036 -15.3061
   -15.2695  -6.6659  -6.3664  -6.2372  -5.5947  -5.2607  -5.2179  -5.1854
    -5.1340  -5.1101  -5.0874  -5.0508  -5.0316  -4.9639  -4.8988  -4.8713
    -4.8635  -4.7874  -4.7699  -4.7141  -4.7066  -4.6698  -4.6515  -4.6231
    -4.5988  -4.5893  -4.5315  -4.4811  -4.4638  -4.4116  -4.3412  -4.2704
    -4.2174  -4.1871  -4.0991  -4.0153  -3.9523  -3.9139  -3.8467  -3.8145
    -3.6824  -3.6222  -3.5641  -3.5063  -3.4867  -3.4478  -3.3831  -3.3583
    -3.2979  -3.2648  -3.2316  -3.1908  -3.1159  -3.0902  -3.0505  -3.0015
    -2.9459  -2.9192  -2.8987  -2.8654  -2.8431  -2.7856  -2.7482  -2.7379
    -2.6965  -2.6772  -2.5733  -2.5345  -2.5154  -2.4718  -2.4409  -2.3758
    -2.3157  -2.2510  -2.1838  -2.1025  -2.0411  -1.9954  -1.9588  -1.8918
    -1.8782  -1.8200  -1.7460  -1.6658  -1.6271  -1.5607  -1.5304  -1.4710
    -1.3776  -1.3513  -1.2864  -1.2369  -1.2233  -1.0579  -0.9115  -0.4696
    -0.4334  -0.4174  -0.3599   1.3019   1.4297   1.5191   1.5225   1.6303
     1.6549   1.6917   1.7027   1.7574   1.8303   1.8506   1.9409   1.9795
     1.9984   2.0272   2.0417   2.0728   2.1398   2.1623   2.2123   2.2452
     2.2642   2.3460   2.4093   2.4371   2.4446   2.4791   2.5445   2.5640
     2.6969   2.7232   2.7698   2.7815   2.8483   2.8624   2.8988   2.9280
     2.9907   3.0598   3.0824   3.1793   3.2128   3.2648   3.3181   3.3513
     3.3663   3.3852   3.5515   3.5984   3.7162   3.7338   3.8378   3.9113
     4.1134   4.2417   4.2535   4.3063   4.4521   4.4783   4.5727   4.6764
     4.7145   4.7719   4.8756   5.0106   5.1486   5.2185   5.2794   5.3555
     5.4828   5.5270   5.6287   5.7599   5.7885   5.7958   5.8486   5.9956
     6.0737   6.0960   6.1715   6.2694   6.3474   6.4331   6.7625   6.9573
     7.1752   7.4508   7.6229   7.7325   8.0444   8.1055   8.1892   8.5322
     8.7120   8.7930   8.9094   9.0777   9.0940   9.4040   9.4771

     the Fermi energy is     0.4337 ev

!    total energy              =   -3004.17618896 Ry
     Harris-Foulkes estimate   =   -3004.17612269 Ry
     estimated scf accuracy    <       0.00000048 Ry

     The total energy is the sum of the following terms:

     one-electron contribution =  -42058.94255941 Ry
     hartree contribution      =   21091.83900406 Ry
     xc contribution           =    -546.24140629 Ry
     ewald contribution        =   18509.16901178 Ry
     smearing contrib. (-TS)   =      -0.00023909 Ry

     total magnetization       =     0.00 Bohr mag/cell
     absolute magnetization    =     0.01 Bohr mag/cell

     convergence has been achieved in  25 iterations

     Forces acting on atoms (Ry/au):


     negative rho (up, down):  1.430E-02 1.430E-02
     atom    1 type  1   force =    -0.00016301    0.00027637   -0.13691308
     atom    2 type  2   force =     0.00006598   -0.00012217    0.07534548
     atom    3 type  1   force =     0.00070995    0.00082457   -0.05917758
     atom    4 type  2   force =     0.00464305   -0.00036089    0.00932621
     atom    5 type  1   force =     0.00007745    0.00012974    0.00014971
     atom    6 type  2   force =    -0.00004932    0.00032213   -0.00172391
     atom    7 type  1   force =     0.00065199    0.00000663    0.00076009
     atom    8 type  2   force =    -0.00058911   -0.00016666   -0.00013598
     atom    9 type  1   force =    -0.00004706    0.00036966   -0.13693279
     atom   10 type  2   force =     0.00013999   -0.00026608    0.07534915
     atom   11 type  1   force =     0.00076607   -0.00091162   -0.05936849
     atom   12 type  2   force =     0.00429671   -0.00012784    0.00813634
     atom   13 type  1   force =    -0.00052127   -0.00062084    0.00013629
     atom   14 type  2   force =    -0.00013674   -0.00016415   -0.00018498
     atom   15 type  1   force =    -0.00004544    0.00050151    0.00031989
     atom   16 type  2   force =    -0.00014374    0.00074068   -0.00053386
     atom   17 type  2   force =     0.00024039   -0.00010599    0.08099755
     atom   18 type  1   force =    -0.00016216    0.00029646    0.11716052
     atom   19 type  2   force =     0.00027292    0.00011524   -0.06543579
     atom   20 type  2   force =    -0.06319845   -0.00004892   -0.03165141
     atom   21 type  2   force =     0.06297959    0.00013637   -0.03162594
     atom   22 type  1   force =    -0.00062484    0.00001376    0.05923630
     atom   23 type  2   force =    -0.00013135    0.00025405   -0.00027597
     atom   24 type  2   force =     0.00058527   -0.00020010   -0.02269402
     atom   25 type  2   force =    -0.00450822   -0.00031982    0.00819188
     atom   26 type  1   force =     0.00000741    0.00045738    0.00010584
     atom   27 type  2   force =     0.00007213   -0.00007510   -0.00047915
     atom   28 type  2   force =    -0.00122819   -0.00008935   -0.00021148
     atom   29 type  2   force =     0.00030797   -0.00020756   -0.00006412
     atom   30 type  1   force =     0.00002710    0.00067249    0.00107757
     atom   31 type  2   force =    -0.00008870   -0.00033952   -0.00020474
     atom   32 type  2   force =     0.00009669   -0.00017538   -0.00018373
     atom   33 type  2   force =     0.00021257    0.00002350    0.08095548
     atom   34 type  1   force =    -0.00022537    0.00025018    0.11711369
     atom   35 type  2   force =     0.00029521    0.00016692   -0.06549008
     atom   36 type  2   force =    -0.06309160    0.00012990   -0.03188135
     atom   37 type  2   force =     0.06314861    0.00016834   -0.03157106
     atom   38 type  1   force =    -0.00048733   -0.00023959    0.05894139
     atom   39 type  2   force =     0.00010497   -0.00052109   -0.00074318
     atom   40 type  2   force =     0.00043225   -0.00226043   -0.02225012
     atom   41 type  2   force =    -0.00416309   -0.00029422    0.00762020
     atom   42 type  1   force =    -0.00027174   -0.00047293    0.00007834
     atom   43 type  2   force =     0.00007757    0.00007475   -0.00029493
     atom   44 type  2   force =     0.00027817    0.00018156   -0.00005034
     atom   45 type  2   force =    -0.00015699   -0.00014394   -0.00021442
     atom   46 type  1   force =    -0.00144029    0.00021973    0.00061431
     atom   47 type  2   force =    -0.00011681    0.00044960   -0.00043364
     atom   48 type  2   force =     0.00096280    0.00079656    0.00026352
     atom   49 type  2   force =     0.00013803    0.00065609   -0.00115362

     Total force =     0.365138     Total SCF correction =     0.001138
 !ASE

     Writing output data file calc.save
 
     init_run     :     48.90s CPU     64.05s WALL (       1 calls)
     electrons    :   4769.19s CPU   5853.70s WALL (       1 calls)
     forces       :     39.19s CPU     40.88s WALL (       1 calls)

     Called by init_run:
     wfcinit      :     41.56s CPU     55.79s WALL (       1 calls)
     potinit      :      1.58s CPU      1.94s WALL (       1 calls)

     Called by electrons:
     c_bands      :   4060.04s CPU   4958.89s WALL (      25 calls)
     sum_band     :    596.66s CPU    766.37s WALL (      25 calls)
     v_of_rho     :     26.67s CPU     33.91s WALL (      26 calls)
     newd         :     88.01s CPU     96.37s WALL (      26 calls)
     mix_rho      :      1.25s CPU      1.70s WALL (      25 calls)
     vdW_energy   :      4.60s CPU      5.73s WALL (      27 calls)
     vdW_ffts     :      6.96s CPU      9.27s WALL (      54 calls)
     vdW_v        :      2.63s CPU      3.11s WALL (      27 calls)

     Called by c_bands:
     init_us_2    :     13.49s CPU     14.80s WALL (    2080 calls)
     cegterg      :   3966.59s CPU   4859.28s WALL (    1000 calls)

     Called by *egterg:
     h_psi        :   1653.49s CPU   2327.73s WALL (    4792 calls)
     s_psi        :    202.95s CPU    213.46s WALL (    4792 calls)
     g_psi        :     10.85s CPU     11.18s WALL (    3752 calls)
     cdiaghg      :   1363.07s CPU   1401.65s WALL (    4752 calls)

     Called by h_psi:
     add_vuspsi   :    204.10s CPU    214.61s WALL (    4792 calls)

     General routines
     calbec       :    316.83s CPU    326.14s WALL (    5832 calls)
     fft          :     18.33s CPU     23.12s WALL (    2165 calls)
     ffts         :      0.13s CPU      0.17s WALL (     102 calls)
     fftw         :   1124.76s CPU   1919.63s WALL ( 1614330 calls)
     interpolate  :      0.81s CPU      1.32s WALL (     102 calls)
     davcio       :      0.01s CPU      0.83s WALL (      40 calls)
 
     Parallel routines
     fft_scatter  :    620.76s CPU   1060.40s WALL ( 1616597 calls)
 
     PWSCF        :     1h21m CPU        1h39m WALL

 
   This run was terminated on:  16:39:57  10Feb2018            

=------------------------------------------------------------------------------=
   JOB DONE.
=------------------------------------------------------------------------------=
