  python dir          : /home/vossj/suncat/lib/python2.7/site-packages/espresso
  espresso dir        : /home/vossj/suncat/esdld/espresso-dynpy-beef/bin
  pseudo dir          : /home/alatimer/bin/psp/esp_psp_w_gbrvRu/
  ase-espresso py git : ffa2778-git



     Program PWSCF v.5.1rc2 (svn rev. ) starts on 26Feb2018 at 14:56: 6 

     This program is part of the open-source Quantum ESPRESSO suite
     for quantum simulation of materials; please cite
         "P. Giannozzi et al., J. Phys.:Condens. Matter 21 395502 (2009);
          URL http://www.quantum-espresso.org", 
     in publications or presentations arising from this work. More details at
     http://www.quantum-espresso.org/quote

     Parallel version (MPI), running on    16 processors
     R & G space division:  proc/nbgrp/npool/nimage =      16
     Reading input from pw.inp
     Message from routine read_cards :
     DEPRECATED: no units specified in CELL_PARAMETERS card

     Current dimensions of program PWSCF are:
     Max number of different atomic species (ntypx) = 10
     Max number of k-points (npk) =  40000
     Max angular momentum in pseudopotentials (lmaxx) =  3

     **************************************************************************
     Initializing libbeef V0.1.1 with the BEEF-vdW functional.
     Citation: Wellendorff et al., PRB 85, 235149 (2012).
     **************************************************************************


     IMPORTANT: XC functional enforced from input :
     Exchange-correlation      = BEEF ( 1  4 27 13 2)
     Any further DFT definition will be discarded
     Please, verify this is what you really want


     Subspace diagonalization in iterative solution of the eigenvalue problem:
     a serial algorithm will be used

 
     Parallelization info
     --------------------
     sticks:   dense  smooth     PW     G-vecs:    dense   smooth      PW
     Min         281     112     31                68535    17318    2565
     Max         282     113     32                68545    17369    2582
     Sum        4501    1795    503              1096637   277353   41113
 
     Generating pointlists ...
     new r_m :   0.4125 (alat units)  0.7795 (a.u.) for type    1
     new r_m :   0.4125 (alat units)  0.7795 (a.u.) for type    2
     new r_m :   0.4125 (alat units)  0.7795 (a.u.) for type    3
     new r_m :   0.4125 (alat units)  0.7795 (a.u.) for type    4


     bravais-lattice index     =            0
     lattice parameter (alat)  =       1.8897  a.u.
     unit-cell volume          =    7990.9933 (a.u.)^3
     number of atoms/cell      =           54
     number of atomic types    =            4
     number of electrons       =       398.00
     number of Kohn-Sham states=          299
     kinetic-energy cutoff     =      40.4243  Ry
     charge density cutoff     =     404.2426  Ry
     convergence threshold     =      7.3E-07
     mixing beta               =       0.1000
     number of iterations used =           10  plain     mixing
     Exchange-correlation      = BEEF ( 1  4 27 13 2)
     nstep                     =           50


     celldm(1)=   1.889726  celldm(2)=   0.000000  celldm(3)=   0.000000
     celldm(4)=   0.000000  celldm(5)=   0.000000  celldm(6)=   0.000000

     crystal axes: (cart. coord. in units of alat)
               a(1) = (   6.590708   0.000000   0.000000 )  
               a(2) = (   0.000000   5.950229   0.000000 )  
               a(3) = (   0.000000   0.000000  30.195235 )  

     reciprocal axes: (cart. coord. in units 2 pi/alat)
               b(1) = (  0.151729  0.000000  0.000000 )  
               b(2) = (  0.000000  0.168061  0.000000 )  
               b(3) = (  0.000000  0.000000  0.033118 )  


     PseudoPot. # 1 for Ti read from file:
     /home/alatimer/bin/psp/esp_psp_w_gbrvRu/Ti.UPF
     MD5 check sum: 8e4df49b7f0d34bbd5052bf3f5ea0213
     Pseudo is Ultrasoft, Zval = 12.0
     Generated by new atomic code, or converted to UPF format
     Using radial grid of  851 points,  6 beta functions with: 
                l(1) =   0
                l(2) =   0
                l(3) =   1
                l(4) =   1
                l(5) =   2
                l(6) =   2
     Q(r) pseudized with  8 coefficients,  rinner =    1.000   1.000   1.000
                                                       1.000   1.000

     PseudoPot. # 2 for  O read from file:
     /home/alatimer/bin/psp/esp_psp_w_gbrvRu/O.UPF
     MD5 check sum: e057bbcf3229fb5d8c36c0c92f9568b4
     Pseudo is Ultrasoft + core correction, Zval =  6.0
     Generated using "atomic" code by A. Dal Corso  v.5.0.2 svn rev. 9415
     Using radial grid of 1095 points,  4 beta functions with: 
                l(1) =   0
                l(2) =   0
                l(3) =   1
                l(4) =   1
     Q(r) pseudized with 0 coefficients 


     PseudoPot. # 3 for  C read from file:
     /home/alatimer/bin/psp/esp_psp_w_gbrvRu/C.UPF
     MD5 check sum: ab446d787031eba755f1d5ee46644bb0
     Pseudo is Ultrasoft + core correction, Zval =  4.0
     Generated using "atomic" code by A. Dal Corso  v.5.0.2 svn rev. 9415
     Using radial grid of 1073 points,  4 beta functions with: 
                l(1) =   0
                l(2) =   0
                l(3) =   1
                l(4) =   1
     Q(r) pseudized with 0 coefficients 


     PseudoPot. # 4 for  H read from file:
     /home/alatimer/bin/psp/esp_psp_w_gbrvRu/H.UPF
     MD5 check sum: bd57da0722753ddfd9833a65b40bb853
     Pseudo is Ultrasoft, Zval =  1.0
     Generated using "atomic" code by A. Dal Corso  v.5.0.2 svn rev. 9415
     Using radial grid of  929 points,  2 beta functions with: 
                l(1) =   0
                l(2) =   0
     Q(r) pseudized with 0 coefficients 


     vdW kernel table read from file vdW_kernel_table
     MD5 check sum: 095c7af220d748ca6e76c0b4c6cfb241

     atomic species   valence    mass     pseudopotential
        Ti1           12.00    47.88000     Ti( 1.00)
        O1             6.00    15.99940      O( 1.00)
        C1             4.00    12.01100      C( 1.00)
        H1             1.00     1.00794      H( 1.00)

     Starting magnetic structure 
     atomic species   magnetization
        Ti1          0.250
        O1           0.500
        C1           0.750
        H1           0.000

     No symmetry found



   Cartesian axes

     site n.     atom                  positions (alat units)
         1           Ti1 tau(   1) = (   1.6476770   0.7437786   2.6545865  )
         2           O1  tau(   2) = (   1.6476770   2.2313359   3.9361215  )
         3           Ti1 tau(   3) = (   1.6476770   2.2313359   5.9499405  )
         4           O1  tau(   4) = (   0.3661420   0.7437786   5.9499405  )
         5           Ti1 tau(   5) = (   1.6407309   0.9134410   9.3139491  )
         6           O1  tau(   6) = (   1.6648823   2.2608486  10.4895904  )
         7           Ti1 tau(   7) = (   1.7578240   2.2899216  13.0472362  )
         8           O1  tau(   8) = (   0.4801583   0.7600008  12.7739736  )
         9           Ti1 tau(   9) = (   1.6476770   3.7188931   2.6545865  )
        10           O1  tau(  10) = (   1.6476770   5.2064503   3.9361215  )
        11           Ti1 tau(  11) = (   1.6476770   5.2064503   5.9499405  )
        12           O1  tau(  12) = (   0.3661420   3.7188931   5.9499405  )
        13           Ti1 tau(  13) = (   1.6336050   3.7786827   9.1566831  )
        14           O1  tau(  14) = (   1.6678212   5.2513959  10.5409436  )
        15           Ti1 tau(  15) = (   1.7144009   5.2558216  12.3462911  )
        16           O1  tau(  16) = (   0.4635505   3.7986228  12.7318280  )
        17           O1  tau(  17) = (   1.6476770   2.2313359   1.3730516  )
        18           Ti1 tau(  18) = (   4.9430310   2.2313359   2.6545865  )
        19           O1  tau(  19) = (   4.9430310   2.2313359   4.6684056  )
        20           O1  tau(  20) = (   6.2245660   0.7437786   2.6545865  )
        21           O1  tau(  21) = (   3.6614961   0.7437786   2.6545865  )
        22           Ti1 tau(  22) = (   4.9430310   0.7437786   5.9499405  )
        23           O1  tau(  23) = (   1.6683653   2.2752577   7.9427336  )
        24           O1  tau(  24) = (   4.9430310   2.2313359   7.2314755  )
        25           O1  tau(  25) = (   2.9292120   0.7437786   5.9499405  )
        26           Ti1 tau(  26) = (   4.9404121   2.2664794   9.4552217  )
        27           O1  tau(  27) = (   5.0099888   2.2616732  11.2946145  )
        28           O1  tau(  28) = (   6.2612001   0.7714827   9.2659748  )
        29           O1  tau(  29) = (   3.6791272   0.7744986   9.2965846  )
        30           Ti1 tau(  30) = (   5.0117873   0.7976728  12.8161605  )
        31           O1  tau(  31) = (   4.9963122   2.2836652  13.8750618  )
        32           O1  tau(  32) = (   2.9819382   0.7448324  12.7109220  )
        33           O1  tau(  33) = (   1.6476770   5.2064503   1.3730516  )
        34           Ti1 tau(  34) = (   4.9430310   5.2064503   2.6545865  )
        35           O1  tau(  35) = (   4.9430310   5.2064503   4.6684056  )
        36           O1  tau(  36) = (   6.2245660   3.7188931   2.6545865  )
        37           O1  tau(  37) = (   3.6614961   3.7188931   2.6545865  )
        38           Ti1 tau(  38) = (   4.9430310   3.7188931   5.9499405  )
        39           O1  tau(  39) = (   1.6664207   5.2035600   7.9365221  )
        40           O1  tau(  40) = (   4.9430310   5.2064503   7.2314755  )
        41           O1  tau(  41) = (   2.9292120   3.7188931   5.9499405  )
        42           Ti1 tau(  42) = (   4.9524353   5.2460635   9.4426343  )
        43           O1  tau(  43) = (   5.0107556   5.2394944  11.2927493  )
        44           O1  tau(  44) = (   6.2663940   3.7551737   9.2646230  )
        45           O1  tau(  45) = (   3.6780957   3.7542261   9.2971476  )
        46           Ti1 tau(  46) = (   5.0587989   3.7766986  12.8010349  )
        47           O1  tau(  47) = (   5.0196089   5.2502198  13.8813978  )
        48           O1  tau(  48) = (   2.9624133   3.7943242  12.7299881  )
        49           O1  tau(  49) = (   1.7427453   2.2533568  14.8370015  )
        50           C1  tau(  50) = (   2.7196098   4.2826273  16.2318421  )
        51           H1  tau(  51) = (   3.3037454   4.9255546  15.5827400  )
        52           H1  tau(  52) = (   3.3286606   3.8170117  16.9822022  )
        53           H1  tau(  53) = (   2.3125587   3.4026405  15.5729816  )
        54           H1  tau(  54) = (   1.8391288   4.7650601  16.6448379  )

     number of k points=    40  Fermi-Dirac smearing, width (Ry)=  0.0073
                       cart. coord. in units 2pi/alat
        k(    1) = (   0.0000000   0.0000000   0.0000000), wk =   0.0277778
        k(    2) = (   0.0000000   0.0280101   0.0000000), wk =   0.0555556
        k(    3) = (   0.0000000   0.0560203   0.0000000), wk =   0.0555556
        k(    4) = (   0.0000000  -0.0840304   0.0000000), wk =   0.0277778
        k(    5) = (   0.0252881   0.0000000   0.0000000), wk =   0.0555556
        k(    6) = (   0.0252881   0.0280101   0.0000000), wk =   0.0555556
        k(    7) = (   0.0252881   0.0560203   0.0000000), wk =   0.0555556
        k(    8) = (   0.0252881  -0.0840304   0.0000000), wk =   0.0555556
        k(    9) = (   0.0505763   0.0000000   0.0000000), wk =   0.0555556
        k(   10) = (   0.0505763   0.0280101   0.0000000), wk =   0.0555556
        k(   11) = (   0.0505763   0.0560203   0.0000000), wk =   0.0555556
        k(   12) = (   0.0505763  -0.0840304   0.0000000), wk =   0.0555556
        k(   13) = (  -0.0758644   0.0000000   0.0000000), wk =   0.0277778
        k(   14) = (  -0.0758644   0.0280101   0.0000000), wk =   0.0555556
        k(   15) = (  -0.0758644   0.0560203   0.0000000), wk =   0.0555556
        k(   16) = (  -0.0758644  -0.0840304   0.0000000), wk =   0.0277778
        k(   17) = (  -0.0252881   0.0280101   0.0000000), wk =   0.0555556
        k(   18) = (  -0.0252881   0.0560203   0.0000000), wk =   0.0555556
        k(   19) = (  -0.0505763   0.0280101   0.0000000), wk =   0.0555556
        k(   20) = (  -0.0505763   0.0560203   0.0000000), wk =   0.0555556
        k(   21) = (   0.0000000   0.0000000   0.0000000), wk =   0.0277778
        k(   22) = (   0.0000000   0.0280101   0.0000000), wk =   0.0555556
        k(   23) = (   0.0000000   0.0560203   0.0000000), wk =   0.0555556
        k(   24) = (   0.0000000  -0.0840304   0.0000000), wk =   0.0277778
        k(   25) = (   0.0252881   0.0000000   0.0000000), wk =   0.0555556
        k(   26) = (   0.0252881   0.0280101   0.0000000), wk =   0.0555556
        k(   27) = (   0.0252881   0.0560203   0.0000000), wk =   0.0555556
        k(   28) = (   0.0252881  -0.0840304   0.0000000), wk =   0.0555556
        k(   29) = (   0.0505763   0.0000000   0.0000000), wk =   0.0555556
        k(   30) = (   0.0505763   0.0280101   0.0000000), wk =   0.0555556
        k(   31) = (   0.0505763   0.0560203   0.0000000), wk =   0.0555556
        k(   32) = (   0.0505763  -0.0840304   0.0000000), wk =   0.0555556
        k(   33) = (  -0.0758644   0.0000000   0.0000000), wk =   0.0277778
        k(   34) = (  -0.0758644   0.0280101   0.0000000), wk =   0.0555556
        k(   35) = (  -0.0758644   0.0560203   0.0000000), wk =   0.0555556
        k(   36) = (  -0.0758644  -0.0840304   0.0000000), wk =   0.0277778
        k(   37) = (  -0.0252881   0.0280101   0.0000000), wk =   0.0555556
        k(   38) = (  -0.0252881   0.0560203   0.0000000), wk =   0.0555556
        k(   39) = (  -0.0505763   0.0280101   0.0000000), wk =   0.0555556
        k(   40) = (  -0.0505763   0.0560203   0.0000000), wk =   0.0555556

     Dense  grid:  1096637 G-vectors     FFT dimensions: (  80,  72, 375)

     Smooth grid:   277353 G-vectors     FFT dimensions: (  54,  45, 240)

     Largest allocated arrays     est. size (Mb)     dimensions
        Kohn-Sham Wavefunctions         9.95 Mb     (    2180,  299)
        NL pseudopotentials            18.89 Mb     (    2180,  568)
        Each V/rho on FFT grid          4.22 Mb     (  138240,   2)
        Each G-vector array             0.52 Mb     (   68538)
        G-vector shells                 0.25 Mb     (   33046)
     Largest temporary arrays     est. size (Mb)     dimensions
        Auxiliary wavefunctions        39.78 Mb     (    2180, 1196)
        Each subspace H/S matrix       21.83 Mb     (    1196, 1196)
        Each <psi_i|beta_j> matrix      2.59 Mb     (     568,  299)
        Arrays for rho mixing          21.09 Mb     (  138240,   10)

     Check: negative/imaginary core charge=   -0.000049    0.000000

     The initial density is read from file :
     ./calc.save/charge-density.dat


     negative rho (up, down):  1.189E-02 1.196E-02


     ************************************************************************
     *
     * You are using vdW-DF for exchange-correlation in this calculation.
     * Please cite the following three references that made this development
     * possible:
     *
     *   M. Dion, H. Rydberg, E. Schroder, D. C. Langreth, and
     *   B. I. Lundqvist, Phys. Rev. Lett. 92, 246401 (2004).
     *
     *   T. Thonhauser, V. R. Cooper, S. Li, A. Puzder, P. Hyldgaard, and
     *   D. C. Langreth, Phys. Rev. B 76, 125112 (2007).
     *
     *   G. Roman-Perez and J. M. Soler, Phys. Rev. Lett. 103, 096102 (2009).
     *
     *
     * If you are using vdW-DF2, please also cite:
     *
     *   K. Lee, E. D. Murray, L. Kong, B. I. Lundqvist, and
     *   D. C. Langreth, Phys. Rev. B 82, 081101(R) (2010).
     *
     *
     * If you are calculating the stress with vdW-DF, please also cite:
     *
     *   R. Sabatini, E. Kucukbenli, B. Kolb, T. Thonhauser, and
     *   S. de Gironcoli, J. Phys.: Condens. Matter 24, 424209 (2012).
     *
     ************************************************************************

     Carrying out vdW-DF run using the following parameters:

     Nqs =      20    Nr_points =    1024   r_max =   100.000
     q_mesh =
               0.00001000     0.04494208     0.09755937     0.15916263
               0.23128650     0.31572767     0.41458969     0.53033537
               0.66584808     0.82450364     1.01025438     1.22772762
               1.48234092     1.78043706     2.12944203     2.53805004
               3.01644009     3.57652955     4.23227104     5.00000000

     Gradients computed in reciprocal space

     ************************************************************************


     Starting wfc are  300 randomized atomic wfcs

     total cpu time spent up to now is       80.6 secs

     Self-consistent Calculation

     iteration #  1     ecut=    40.42 Ry     beta=0.10
     Davidson diagonalization with overlap
     ethr =  1.00E-05,  avg # of iterations = 15.0

     Threshold (ethr) on eigenvalues was too large:
     Diagonalizing with lowered threshold

     Davidson diagonalization with overlap
     ethr =  4.75E-07,  avg # of iterations =  1.0

     negative rho (up, down):  1.189E-02 1.196E-02
 
     Magnetic moment per site:
     atom:    1    charge:    3.1244    magn:   -0.0003    constr:    0.0000
     atom:    2    charge:    2.0897    magn:    0.0003    constr:    0.0000
     atom:    3    charge:    3.1198    magn:   -0.0000    constr:    0.0000
     atom:    4    charge:    2.0867    magn:   -0.0001    constr:    0.0000
     atom:    5    charge:    3.1161    magn:   -0.0002    constr:    0.0000
     atom:    6    charge:    2.0795    magn:    0.0021    constr:    0.0000
     atom:    7    charge:    3.1167    magn:   -0.0053    constr:    0.0000
     atom:    8    charge:    2.0792    magn:    0.0250    constr:    0.0000
     atom:    9    charge:    3.1244    magn:   -0.0003    constr:    0.0000
     atom:   10    charge:    2.0898    magn:    0.0003    constr:    0.0000
     atom:   11    charge:    3.1198    magn:   -0.0000    constr:    0.0000
     atom:   12    charge:    2.0870    magn:   -0.0000    constr:    0.0000
     atom:   13    charge:    3.1150    magn:   -0.0002    constr:    0.0000
     atom:   14    charge:    2.0939    magn:    0.0023    constr:    0.0000
     atom:   15    charge:    3.1184    magn:   -0.0008    constr:    0.0000
     atom:   16    charge:    2.0828    magn:    0.0046    constr:    0.0000
     atom:   17    charge:    2.0624    magn:    0.0018    constr:    0.0000
     atom:   18    charge:    3.1239    magn:   -0.0001    constr:    0.0000
     atom:   19    charge:    2.0875    magn:    0.0001    constr:    0.0000
     atom:   20    charge:    2.0847    magn:    0.0002    constr:    0.0000
     atom:   21    charge:    2.0847    magn:    0.0002    constr:    0.0000
     atom:   22    charge:    3.1199    magn:    0.0000    constr:    0.0000
     atom:   23    charge:    2.0908    magn:    0.0002    constr:    0.0000
     atom:   24    charge:    2.0754    magn:   -0.0002    constr:    0.0000
     atom:   25    charge:    2.0867    magn:    0.0000    constr:    0.0000
     atom:   26    charge:    3.1127    magn:   -0.0002    constr:    0.0000
     atom:   27    charge:    2.0803    magn:    0.0025    constr:    0.0000
     atom:   28    charge:    2.0839    magn:    0.0006    constr:    0.0000
     atom:   29    charge:    2.0860    magn:    0.0008    constr:    0.0000
     atom:   30    charge:    3.1171    magn:   -0.0008    constr:    0.0000
     atom:   31    charge:    2.0825    magn:    0.0006    constr:    0.0000
     atom:   32    charge:    2.0829    magn:    0.0064    constr:    0.0000
     atom:   33    charge:    2.0624    magn:    0.0018    constr:    0.0000
     atom:   34    charge:    3.1239    magn:   -0.0001    constr:    0.0000
     atom:   35    charge:    2.0876    magn:    0.0001    constr:    0.0000
     atom:   36    charge:    2.0847    magn:    0.0002    constr:    0.0000
     atom:   37    charge:    2.0847    magn:    0.0002    constr:    0.0000
     atom:   38    charge:    3.1200    magn:    0.0000    constr:    0.0000
     atom:   39    charge:    2.0839    magn:    0.0002    constr:    0.0000
     atom:   40    charge:    2.0756    magn:   -0.0003    constr:    0.0000
     atom:   41    charge:    2.0870    magn:   -0.0000    constr:    0.0000
     atom:   42    charge:    3.1151    magn:   -0.0002    constr:    0.0000
     atom:   43    charge:    2.0803    magn:    0.0030    constr:    0.0000
     atom:   44    charge:    2.0851    magn:    0.0008    constr:    0.0000
     atom:   45    charge:    2.0858    magn:    0.0004    constr:    0.0000
     atom:   46    charge:    3.1147    magn:   -0.0007    constr:    0.0000
     atom:   47    charge:    2.0807    magn:    0.0046    constr:    0.0000
     atom:   48    charge:    2.0837    magn:    0.0137    constr:    0.0000
     atom:   49    charge:    2.0514    magn:    0.2400    constr:    0.0000
     atom:   50    charge:    0.6721    magn:    0.0546    constr:    0.0000
     atom:   51    charge:    0.4220    magn:    0.0009    constr:    0.0000
     atom:   52    charge:    0.4291    magn:    0.0011    constr:    0.0000
     atom:   53    charge:    0.3675    magn:    0.0231    constr:    0.0000
     atom:   54    charge:    0.4231    magn:    0.0006    constr:    0.0000

     total cpu time spent up to now is     1241.2 secs

     total energy              =   -3021.14988116 Ry
     Harris-Foulkes estimate   =   -3021.15006815 Ry
     estimated scf accuracy    <       0.00189318 Ry

     total magnetization       =     1.06 Bohr mag/cell
     absolute magnetization    =     1.23 Bohr mag/cell

     iteration #  2     ecut=    40.42 Ry     beta=0.10
     Davidson diagonalization with overlap
     ethr =  4.76E-07,  avg # of iterations =  1.6

     negative rho (up, down):  1.190E-02 1.196E-02
 
     Magnetic moment per site:
     atom:    1    charge:    3.1244    magn:   -0.0003    constr:    0.0000
     atom:    2    charge:    2.0897    magn:    0.0003    constr:    0.0000
     atom:    3    charge:    3.1198    magn:   -0.0000    constr:    0.0000
     atom:    4    charge:    2.0867    magn:   -0.0001    constr:    0.0000
     atom:    5    charge:    3.1161    magn:   -0.0002    constr:    0.0000
     atom:    6    charge:    2.0795    magn:    0.0021    constr:    0.0000
     atom:    7    charge:    3.1167    magn:   -0.0053    constr:    0.0000
     atom:    8    charge:    2.0792    magn:    0.0250    constr:    0.0000
     atom:    9    charge:    3.1244    magn:   -0.0003    constr:    0.0000
     atom:   10    charge:    2.0899    magn:    0.0003    constr:    0.0000
     atom:   11    charge:    3.1198    magn:   -0.0000    constr:    0.0000
     atom:   12    charge:    2.0870    magn:   -0.0000    constr:    0.0000
     atom:   13    charge:    3.1150    magn:   -0.0002    constr:    0.0000
     atom:   14    charge:    2.0939    magn:    0.0023    constr:    0.0000
     atom:   15    charge:    3.1184    magn:   -0.0008    constr:    0.0000
     atom:   16    charge:    2.0828    magn:    0.0046    constr:    0.0000
     atom:   17    charge:    2.0625    magn:    0.0017    constr:    0.0000
     atom:   18    charge:    3.1239    magn:   -0.0001    constr:    0.0000
     atom:   19    charge:    2.0875    magn:    0.0001    constr:    0.0000
     atom:   20    charge:    2.0847    magn:    0.0002    constr:    0.0000
     atom:   21    charge:    2.0847    magn:    0.0002    constr:    0.0000
     atom:   22    charge:    3.1199    magn:    0.0000    constr:    0.0000
     atom:   23    charge:    2.0908    magn:    0.0002    constr:    0.0000
     atom:   24    charge:    2.0754    magn:   -0.0002    constr:    0.0000
     atom:   25    charge:    2.0867    magn:    0.0000    constr:    0.0000
     atom:   26    charge:    3.1127    magn:   -0.0002    constr:    0.0000
     atom:   27    charge:    2.0802    magn:    0.0025    constr:    0.0000
     atom:   28    charge:    2.0839    magn:    0.0006    constr:    0.0000
     atom:   29    charge:    2.0860    magn:    0.0008    constr:    0.0000
     atom:   30    charge:    3.1171    magn:   -0.0008    constr:    0.0000
     atom:   31    charge:    2.0825    magn:    0.0006    constr:    0.0000
     atom:   32    charge:    2.0829    magn:    0.0065    constr:    0.0000
     atom:   33    charge:    2.0625    magn:    0.0017    constr:    0.0000
     atom:   34    charge:    3.1239    magn:   -0.0001    constr:    0.0000
     atom:   35    charge:    2.0876    magn:    0.0001    constr:    0.0000
     atom:   36    charge:    2.0847    magn:    0.0002    constr:    0.0000
     atom:   37    charge:    2.0847    magn:    0.0002    constr:    0.0000
     atom:   38    charge:    3.1200    magn:    0.0000    constr:    0.0000
     atom:   39    charge:    2.0839    magn:    0.0002    constr:    0.0000
     atom:   40    charge:    2.0756    magn:   -0.0003    constr:    0.0000
     atom:   41    charge:    2.0870    magn:   -0.0000    constr:    0.0000
     atom:   42    charge:    3.1151    magn:   -0.0002    constr:    0.0000
     atom:   43    charge:    2.0802    magn:    0.0030    constr:    0.0000
     atom:   44    charge:    2.0851    magn:    0.0008    constr:    0.0000
     atom:   45    charge:    2.0858    magn:    0.0004    constr:    0.0000
     atom:   46    charge:    3.1148    magn:   -0.0007    constr:    0.0000
     atom:   47    charge:    2.0807    magn:    0.0047    constr:    0.0000
     atom:   48    charge:    2.0836    magn:    0.0137    constr:    0.0000
     atom:   49    charge:    2.0513    magn:    0.2401    constr:    0.0000
     atom:   50    charge:    0.6725    magn:    0.0546    constr:    0.0000
     atom:   51    charge:    0.4220    magn:    0.0009    constr:    0.0000
     atom:   52    charge:    0.4292    magn:    0.0011    constr:    0.0000
     atom:   53    charge:    0.3674    magn:    0.0230    constr:    0.0000
     atom:   54    charge:    0.4231    magn:    0.0006    constr:    0.0000

     total cpu time spent up to now is     1450.2 secs

     total energy              =   -3021.14979251 Ry
     Harris-Foulkes estimate   =   -3021.14991441 Ry
     estimated scf accuracy    <       0.00156237 Ry

     total magnetization       =     1.06 Bohr mag/cell
     absolute magnetization    =     1.23 Bohr mag/cell

     iteration #  3     ecut=    40.42 Ry     beta=0.10
     Davidson diagonalization with overlap
     ethr =  3.93E-07,  avg # of iterations =  1.2

     negative rho (up, down):  1.190E-02 1.197E-02
 
     Magnetic moment per site:
     atom:    1    charge:    3.1244    magn:   -0.0003    constr:    0.0000
     atom:    2    charge:    2.0897    magn:    0.0003    constr:    0.0000
     atom:    3    charge:    3.1198    magn:   -0.0000    constr:    0.0000
     atom:    4    charge:    2.0867    magn:   -0.0001    constr:    0.0000
     atom:    5    charge:    3.1161    magn:   -0.0002    constr:    0.0000
     atom:    6    charge:    2.0795    magn:    0.0021    constr:    0.0000
     atom:    7    charge:    3.1167    magn:   -0.0054    constr:    0.0000
     atom:    8    charge:    2.0792    magn:    0.0251    constr:    0.0000
     atom:    9    charge:    3.1244    magn:   -0.0003    constr:    0.0000
     atom:   10    charge:    2.0898    magn:    0.0003    constr:    0.0000
     atom:   11    charge:    3.1198    magn:   -0.0000    constr:    0.0000
     atom:   12    charge:    2.0871    magn:   -0.0000    constr:    0.0000
     atom:   13    charge:    3.1150    magn:   -0.0002    constr:    0.0000
     atom:   14    charge:    2.0939    magn:    0.0023    constr:    0.0000
     atom:   15    charge:    3.1184    magn:   -0.0008    constr:    0.0000
     atom:   16    charge:    2.0828    magn:    0.0047    constr:    0.0000
     atom:   17    charge:    2.0624    magn:    0.0016    constr:    0.0000
     atom:   18    charge:    3.1239    magn:   -0.0001    constr:    0.0000
     atom:   19    charge:    2.0875    magn:    0.0001    constr:    0.0000
     atom:   20    charge:    2.0847    magn:    0.0001    constr:    0.0000
     atom:   21    charge:    2.0847    magn:    0.0001    constr:    0.0000
     atom:   22    charge:    3.1199    magn:    0.0000    constr:    0.0000
     atom:   23    charge:    2.0908    magn:    0.0002    constr:    0.0000
     atom:   24    charge:    2.0754    magn:   -0.0001    constr:    0.0000
     atom:   25    charge:    2.0867    magn:    0.0000    constr:    0.0000
     atom:   26    charge:    3.1127    magn:   -0.0002    constr:    0.0000
     atom:   27    charge:    2.0802    magn:    0.0025    constr:    0.0000
     atom:   28    charge:    2.0839    magn:    0.0006    constr:    0.0000
     atom:   29    charge:    2.0860    magn:    0.0008    constr:    0.0000
     atom:   30    charge:    3.1171    magn:   -0.0008    constr:    0.0000
     atom:   31    charge:    2.0824    magn:    0.0006    constr:    0.0000
     atom:   32    charge:    2.0829    magn:    0.0065    constr:    0.0000
     atom:   33    charge:    2.0624    magn:    0.0016    constr:    0.0000
     atom:   34    charge:    3.1239    magn:   -0.0001    constr:    0.0000
     atom:   35    charge:    2.0876    magn:    0.0001    constr:    0.0000
     atom:   36    charge:    2.0847    magn:    0.0001    constr:    0.0000
     atom:   37    charge:    2.0847    magn:    0.0001    constr:    0.0000
     atom:   38    charge:    3.1200    magn:    0.0000    constr:    0.0000
     atom:   39    charge:    2.0839    magn:    0.0002    constr:    0.0000
     atom:   40    charge:    2.0756    magn:   -0.0002    constr:    0.0000
     atom:   41    charge:    2.0870    magn:   -0.0000    constr:    0.0000
     atom:   42    charge:    3.1151    magn:   -0.0002    constr:    0.0000
     atom:   43    charge:    2.0803    magn:    0.0031    constr:    0.0000
     atom:   44    charge:    2.0851    magn:    0.0009    constr:    0.0000
     atom:   45    charge:    2.0858    magn:    0.0004    constr:    0.0000
     atom:   46    charge:    3.1148    magn:   -0.0007    constr:    0.0000
     atom:   47    charge:    2.0806    magn:    0.0047    constr:    0.0000
     atom:   48    charge:    2.0836    magn:    0.0138    constr:    0.0000
     atom:   49    charge:    2.0512    magn:    0.2404    constr:    0.0000
     atom:   50    charge:    0.6743    magn:    0.0544    constr:    0.0000
     atom:   51    charge:    0.4221    magn:    0.0009    constr:    0.0000
     atom:   52    charge:    0.4297    magn:    0.0009    constr:    0.0000
     atom:   53    charge:    0.3672    magn:    0.0227    constr:    0.0000
     atom:   54    charge:    0.4230    magn:    0.0006    constr:    0.0000

     total cpu time spent up to now is     1653.8 secs

     total energy              =   -3021.14957784 Ry
     Harris-Foulkes estimate   =   -3021.14986155 Ry
     estimated scf accuracy    <       0.00187510 Ry

     total magnetization       =     1.06 Bohr mag/cell
     absolute magnetization    =     1.23 Bohr mag/cell

     iteration #  4     ecut=    40.42 Ry     beta=0.10
     Davidson diagonalization with overlap
     ethr =  3.93E-07,  avg # of iterations =  3.0

     negative rho (up, down):  1.190E-02 1.197E-02
 
     Magnetic moment per site:
     atom:    1    charge:    3.1244    magn:   -0.0003    constr:    0.0000
     atom:    2    charge:    2.0897    magn:    0.0003    constr:    0.0000
     atom:    3    charge:    3.1198    magn:   -0.0000    constr:    0.0000
     atom:    4    charge:    2.0867    magn:   -0.0001    constr:    0.0000
     atom:    5    charge:    3.1161    magn:   -0.0002    constr:    0.0000
     atom:    6    charge:    2.0795    magn:    0.0021    constr:    0.0000
     atom:    7    charge:    3.1166    magn:   -0.0054    constr:    0.0000
     atom:    8    charge:    2.0793    magn:    0.0251    constr:    0.0000
     atom:    9    charge:    3.1244    magn:   -0.0003    constr:    0.0000
     atom:   10    charge:    2.0898    magn:    0.0003    constr:    0.0000
     atom:   11    charge:    3.1198    magn:   -0.0000    constr:    0.0000
     atom:   12    charge:    2.0870    magn:   -0.0000    constr:    0.0000
     atom:   13    charge:    3.1150    magn:   -0.0002    constr:    0.0000
     atom:   14    charge:    2.0939    magn:    0.0023    constr:    0.0000
     atom:   15    charge:    3.1184    magn:   -0.0008    constr:    0.0000
     atom:   16    charge:    2.0828    magn:    0.0047    constr:    0.0000
     atom:   17    charge:    2.0625    magn:    0.0015    constr:    0.0000
     atom:   18    charge:    3.1239    magn:   -0.0001    constr:    0.0000
     atom:   19    charge:    2.0875    magn:    0.0001    constr:    0.0000
     atom:   20    charge:    2.0847    magn:    0.0001    constr:    0.0000
     atom:   21    charge:    2.0847    magn:    0.0001    constr:    0.0000
     atom:   22    charge:    3.1199    magn:    0.0000    constr:    0.0000
     atom:   23    charge:    2.0908    magn:    0.0002    constr:    0.0000
     atom:   24    charge:    2.0754    magn:   -0.0001    constr:    0.0000
     atom:   25    charge:    2.0867    magn:    0.0000    constr:    0.0000
     atom:   26    charge:    3.1127    magn:   -0.0002    constr:    0.0000
     atom:   27    charge:    2.0803    magn:    0.0026    constr:    0.0000
     atom:   28    charge:    2.0839    magn:    0.0007    constr:    0.0000
     atom:   29    charge:    2.0860    magn:    0.0008    constr:    0.0000
     atom:   30    charge:    3.1171    magn:   -0.0008    constr:    0.0000
     atom:   31    charge:    2.0825    magn:    0.0006    constr:    0.0000
     atom:   32    charge:    2.0829    magn:    0.0065    constr:    0.0000
     atom:   33    charge:    2.0624    magn:    0.0015    constr:    0.0000
     atom:   34    charge:    3.1239    magn:   -0.0001    constr:    0.0000
     atom:   35    charge:    2.0876    magn:    0.0001    constr:    0.0000
     atom:   36    charge:    2.0847    magn:    0.0001    constr:    0.0000
     atom:   37    charge:    2.0847    magn:    0.0001    constr:    0.0000
     atom:   38    charge:    3.1200    magn:    0.0000    constr:    0.0000
     atom:   39    charge:    2.0839    magn:    0.0002    constr:    0.0000
     atom:   40    charge:    2.0756    magn:   -0.0002    constr:    0.0000
     atom:   41    charge:    2.0870    magn:   -0.0000    constr:    0.0000
     atom:   42    charge:    3.1151    magn:   -0.0002    constr:    0.0000
     atom:   43    charge:    2.0803    magn:    0.0031    constr:    0.0000
     atom:   44    charge:    2.0851    magn:    0.0009    constr:    0.0000
     atom:   45    charge:    2.0858    magn:    0.0004    constr:    0.0000
     atom:   46    charge:    3.1148    magn:   -0.0007    constr:    0.0000
     atom:   47    charge:    2.0805    magn:    0.0047    constr:    0.0000
     atom:   48    charge:    2.0837    magn:    0.0138    constr:    0.0000
     atom:   49    charge:    2.0518    magn:    0.2404    constr:    0.0000
     atom:   50    charge:    0.6740    magn:    0.0544    constr:    0.0000
     atom:   51    charge:    0.4221    magn:    0.0010    constr:    0.0000
     atom:   52    charge:    0.4301    magn:    0.0008    constr:    0.0000
     atom:   53    charge:    0.3671    magn:    0.0228    constr:    0.0000
     atom:   54    charge:    0.4230    magn:    0.0007    constr:    0.0000

     total cpu time spent up to now is     1891.0 secs

     total energy              =   -3021.14965395 Ry
     Harris-Foulkes estimate   =   -3021.14968515 Ry
     estimated scf accuracy    <       0.00025972 Ry

     total magnetization       =     1.06 Bohr mag/cell
     absolute magnetization    =     1.23 Bohr mag/cell

     iteration #  5     ecut=    40.42 Ry     beta=0.10
     Davidson diagonalization with overlap
     ethr =  6.53E-08,  avg # of iterations =  2.6

     negative rho (up, down):  1.191E-02 1.197E-02
 
     Magnetic moment per site:
     atom:    1    charge:    3.1244    magn:   -0.0002    constr:    0.0000
     atom:    2    charge:    2.0897    magn:    0.0002    constr:    0.0000
     atom:    3    charge:    3.1198    magn:   -0.0000    constr:    0.0000
     atom:    4    charge:    2.0867    magn:   -0.0001    constr:    0.0000
     atom:    5    charge:    3.1161    magn:   -0.0002    constr:    0.0000
     atom:    6    charge:    2.0795    magn:    0.0021    constr:    0.0000
     atom:    7    charge:    3.1167    magn:   -0.0054    constr:    0.0000
     atom:    8    charge:    2.0793    magn:    0.0251    constr:    0.0000
     atom:    9    charge:    3.1244    magn:   -0.0002    constr:    0.0000
     atom:   10    charge:    2.0898    magn:    0.0002    constr:    0.0000
     atom:   11    charge:    3.1198    magn:   -0.0000    constr:    0.0000
     atom:   12    charge:    2.0871    magn:   -0.0000    constr:    0.0000
     atom:   13    charge:    3.1150    magn:   -0.0002    constr:    0.0000
     atom:   14    charge:    2.0939    magn:    0.0023    constr:    0.0000
     atom:   15    charge:    3.1184    magn:   -0.0008    constr:    0.0000
     atom:   16    charge:    2.0828    magn:    0.0047    constr:    0.0000
     atom:   17    charge:    2.0624    magn:    0.0013    constr:    0.0000
     atom:   18    charge:    3.1239    magn:   -0.0001    constr:    0.0000
     atom:   19    charge:    2.0875    magn:    0.0001    constr:    0.0000
     atom:   20    charge:    2.0847    magn:    0.0001    constr:    0.0000
     atom:   21    charge:    2.0847    magn:    0.0001    constr:    0.0000
     atom:   22    charge:    3.1199    magn:    0.0000    constr:    0.0000
     atom:   23    charge:    2.0908    magn:    0.0002    constr:    0.0000
     atom:   24    charge:    2.0754    magn:   -0.0001    constr:    0.0000
     atom:   25    charge:    2.0867    magn:    0.0000    constr:    0.0000
     atom:   26    charge:    3.1127    magn:   -0.0002    constr:    0.0000
     atom:   27    charge:    2.0803    magn:    0.0026    constr:    0.0000
     atom:   28    charge:    2.0839    magn:    0.0007    constr:    0.0000
     atom:   29    charge:    2.0860    magn:    0.0008    constr:    0.0000
     atom:   30    charge:    3.1171    magn:   -0.0008    constr:    0.0000
     atom:   31    charge:    2.0825    magn:    0.0006    constr:    0.0000
     atom:   32    charge:    2.0829    magn:    0.0065    constr:    0.0000
     atom:   33    charge:    2.0624    magn:    0.0014    constr:    0.0000
     atom:   34    charge:    3.1239    magn:   -0.0001    constr:    0.0000
     atom:   35    charge:    2.0876    magn:    0.0000    constr:    0.0000
     atom:   36    charge:    2.0847    magn:    0.0001    constr:    0.0000
     atom:   37    charge:    2.0847    magn:    0.0001    constr:    0.0000
     atom:   38    charge:    3.1200    magn:    0.0000    constr:    0.0000
     atom:   39    charge:    2.0839    magn:    0.0002    constr:    0.0000
     atom:   40    charge:    2.0756    magn:   -0.0002    constr:    0.0000
     atom:   41    charge:    2.0870    magn:   -0.0000    constr:    0.0000
     atom:   42    charge:    3.1151    magn:   -0.0002    constr:    0.0000
     atom:   43    charge:    2.0803    magn:    0.0031    constr:    0.0000
     atom:   44    charge:    2.0851    magn:    0.0009    constr:    0.0000
     atom:   45    charge:    2.0858    magn:    0.0005    constr:    0.0000
     atom:   46    charge:    3.1148    magn:   -0.0007    constr:    0.0000
     atom:   47    charge:    2.0806    magn:    0.0047    constr:    0.0000
     atom:   48    charge:    2.0837    magn:    0.0138    constr:    0.0000
     atom:   49    charge:    2.0519    magn:    0.2404    constr:    0.0000
     atom:   50    charge:    0.6740    magn:    0.0544    constr:    0.0000
     atom:   51    charge:    0.4222    magn:    0.0010    constr:    0.0000
     atom:   52    charge:    0.4304    magn:    0.0007    constr:    0.0000
     atom:   53    charge:    0.3672    magn:    0.0229    constr:    0.0000
     atom:   54    charge:    0.4231    magn:    0.0007    constr:    0.0000

     total cpu time spent up to now is     2119.3 secs

     total energy              =   -3021.14965649 Ry
     Harris-Foulkes estimate   =   -3021.14966230 Ry
     estimated scf accuracy    <       0.00009842 Ry

     total magnetization       =     1.06 Bohr mag/cell
     absolute magnetization    =     1.23 Bohr mag/cell

     iteration #  6     ecut=    40.42 Ry     beta=0.10
     Davidson diagonalization with overlap
     ethr =  2.47E-08,  avg # of iterations =  3.0

     negative rho (up, down):  1.191E-02 1.197E-02
 
     Magnetic moment per site:
     atom:    1    charge:    3.1244    magn:   -0.0002    constr:    0.0000
     atom:    2    charge:    2.0897    magn:    0.0002    constr:    0.0000
     atom:    3    charge:    3.1198    magn:   -0.0000    constr:    0.0000
     atom:    4    charge:    2.0867    magn:   -0.0001    constr:    0.0000
     atom:    5    charge:    3.1161    magn:   -0.0003    constr:    0.0000
     atom:    6    charge:    2.0795    magn:    0.0021    constr:    0.0000
     atom:    7    charge:    3.1167    magn:   -0.0054    constr:    0.0000
     atom:    8    charge:    2.0793    magn:    0.0251    constr:    0.0000
     atom:    9    charge:    3.1244    magn:   -0.0002    constr:    0.0000
     atom:   10    charge:    2.0898    magn:    0.0002    constr:    0.0000
     atom:   11    charge:    3.1198    magn:   -0.0000    constr:    0.0000
     atom:   12    charge:    2.0870    magn:   -0.0000    constr:    0.0000
     atom:   13    charge:    3.1150    magn:   -0.0002    constr:    0.0000
     atom:   14    charge:    2.0939    magn:    0.0023    constr:    0.0000
     atom:   15    charge:    3.1184    magn:   -0.0008    constr:    0.0000
     atom:   16    charge:    2.0828    magn:    0.0047    constr:    0.0000
     atom:   17    charge:    2.0624    magn:    0.0013    constr:    0.0000
     atom:   18    charge:    3.1240    magn:   -0.0001    constr:    0.0000
     atom:   19    charge:    2.0875    magn:    0.0000    constr:    0.0000
     atom:   20    charge:    2.0847    magn:    0.0001    constr:    0.0000
     atom:   21    charge:    2.0847    magn:    0.0001    constr:    0.0000
     atom:   22    charge:    3.1199    magn:    0.0000    constr:    0.0000
     atom:   23    charge:    2.0908    magn:    0.0002    constr:    0.0000
     atom:   24    charge:    2.0754    magn:   -0.0001    constr:    0.0000
     atom:   25    charge:    2.0867    magn:    0.0000    constr:    0.0000
     atom:   26    charge:    3.1127    magn:   -0.0002    constr:    0.0000
     atom:   27    charge:    2.0802    magn:    0.0026    constr:    0.0000
     atom:   28    charge:    2.0839    magn:    0.0007    constr:    0.0000
     atom:   29    charge:    2.0860    magn:    0.0008    constr:    0.0000
     atom:   30    charge:    3.1171    magn:   -0.0008    constr:    0.0000
     atom:   31    charge:    2.0826    magn:    0.0006    constr:    0.0000
     atom:   32    charge:    2.0829    magn:    0.0065    constr:    0.0000
     atom:   33    charge:    2.0624    magn:    0.0013    constr:    0.0000
     atom:   34    charge:    3.1239    magn:   -0.0001    constr:    0.0000
     atom:   35    charge:    2.0876    magn:    0.0000    constr:    0.0000
     atom:   36    charge:    2.0847    magn:    0.0001    constr:    0.0000
     atom:   37    charge:    2.0847    magn:    0.0001    constr:    0.0000
     atom:   38    charge:    3.1200    magn:    0.0000    constr:    0.0000
     atom:   39    charge:    2.0839    magn:    0.0002    constr:    0.0000
     atom:   40    charge:    2.0756    magn:   -0.0002    constr:    0.0000
     atom:   41    charge:    2.0870    magn:   -0.0000    constr:    0.0000
     atom:   42    charge:    3.1151    magn:   -0.0002    constr:    0.0000
     atom:   43    charge:    2.0803    magn:    0.0031    constr:    0.0000
     atom:   44    charge:    2.0851    magn:    0.0009    constr:    0.0000
     atom:   45    charge:    2.0858    magn:    0.0005    constr:    0.0000
     atom:   46    charge:    3.1148    magn:   -0.0007    constr:    0.0000
     atom:   47    charge:    2.0806    magn:    0.0047    constr:    0.0000
     atom:   48    charge:    2.0837    magn:    0.0138    constr:    0.0000
     atom:   49    charge:    2.0519    magn:    0.2404    constr:    0.0000
     atom:   50    charge:    0.6737    magn:    0.0543    constr:    0.0000
     atom:   51    charge:    0.4222    magn:    0.0010    constr:    0.0000
     atom:   52    charge:    0.4306    magn:    0.0007    constr:    0.0000
     atom:   53    charge:    0.3673    magn:    0.0229    constr:    0.0000
     atom:   54    charge:    0.4231    magn:    0.0007    constr:    0.0000

     total cpu time spent up to now is     2356.1 secs

     total energy              =   -3021.14966178 Ry
     Harris-Foulkes estimate   =   -3021.14966199 Ry
     estimated scf accuracy    <       0.00003480 Ry

     total magnetization       =     1.06 Bohr mag/cell
     absolute magnetization    =     1.23 Bohr mag/cell

     iteration #  7     ecut=    40.42 Ry     beta=0.10
     Davidson diagonalization with overlap
     ethr =  8.74E-09,  avg # of iterations =  3.0

     negative rho (up, down):  1.191E-02 1.197E-02
 
     Magnetic moment per site:
     atom:    1    charge:    3.1244    magn:   -0.0002    constr:    0.0000
     atom:    2    charge:    2.0897    magn:    0.0002    constr:    0.0000
     atom:    3    charge:    3.1198    magn:   -0.0000    constr:    0.0000
     atom:    4    charge:    2.0867    magn:   -0.0001    constr:    0.0000
     atom:    5    charge:    3.1161    magn:   -0.0003    constr:    0.0000
     atom:    6    charge:    2.0795    magn:    0.0021    constr:    0.0000
     atom:    7    charge:    3.1167    magn:   -0.0054    constr:    0.0000
     atom:    8    charge:    2.0793    magn:    0.0251    constr:    0.0000
     atom:    9    charge:    3.1244    magn:   -0.0002    constr:    0.0000
     atom:   10    charge:    2.0898    magn:    0.0002    constr:    0.0000
     atom:   11    charge:    3.1198    magn:   -0.0000    constr:    0.0000
     atom:   12    charge:    2.0870    magn:   -0.0000    constr:    0.0000
     atom:   13    charge:    3.1150    magn:   -0.0002    constr:    0.0000
     atom:   14    charge:    2.0939    magn:    0.0023    constr:    0.0000
     atom:   15    charge:    3.1184    magn:   -0.0008    constr:    0.0000
     atom:   16    charge:    2.0828    magn:    0.0047    constr:    0.0000
     atom:   17    charge:    2.0624    magn:    0.0012    constr:    0.0000
     atom:   18    charge:    3.1240    magn:   -0.0000    constr:    0.0000
     atom:   19    charge:    2.0875    magn:    0.0000    constr:    0.0000
     atom:   20    charge:    2.0847    magn:    0.0001    constr:    0.0000
     atom:   21    charge:    2.0847    magn:    0.0001    constr:    0.0000
     atom:   22    charge:    3.1199    magn:    0.0000    constr:    0.0000
     atom:   23    charge:    2.0908    magn:    0.0003    constr:    0.0000
     atom:   24    charge:    2.0754    magn:   -0.0001    constr:    0.0000
     atom:   25    charge:    2.0867    magn:    0.0000    constr:    0.0000
     atom:   26    charge:    3.1127    magn:   -0.0003    constr:    0.0000
     atom:   27    charge:    2.0802    magn:    0.0026    constr:    0.0000
     atom:   28    charge:    2.0839    magn:    0.0007    constr:    0.0000
     atom:   29    charge:    2.0860    magn:    0.0009    constr:    0.0000
     atom:   30    charge:    3.1171    magn:   -0.0008    constr:    0.0000
     atom:   31    charge:    2.0826    magn:    0.0006    constr:    0.0000
     atom:   32    charge:    2.0829    magn:    0.0065    constr:    0.0000
     atom:   33    charge:    2.0624    magn:    0.0012    constr:    0.0000
     atom:   34    charge:    3.1239    magn:   -0.0000    constr:    0.0000
     atom:   35    charge:    2.0876    magn:    0.0000    constr:    0.0000
     atom:   36    charge:    2.0847    magn:    0.0001    constr:    0.0000
     atom:   37    charge:    2.0847    magn:    0.0001    constr:    0.0000
     atom:   38    charge:    3.1200    magn:    0.0000    constr:    0.0000
     atom:   39    charge:    2.0839    magn:    0.0002    constr:    0.0000
     atom:   40    charge:    2.0756    magn:   -0.0001    constr:    0.0000
     atom:   41    charge:    2.0870    magn:   -0.0000    constr:    0.0000
     atom:   42    charge:    3.1151    magn:   -0.0002    constr:    0.0000
     atom:   43    charge:    2.0803    magn:    0.0032    constr:    0.0000
     atom:   44    charge:    2.0851    magn:    0.0010    constr:    0.0000
     atom:   45    charge:    2.0858    magn:    0.0005    constr:    0.0000
     atom:   46    charge:    3.1148    magn:   -0.0007    constr:    0.0000
     atom:   47    charge:    2.0807    magn:    0.0047    constr:    0.0000
     atom:   48    charge:    2.0837    magn:    0.0138    constr:    0.0000
     atom:   49    charge:    2.0518    magn:    0.2404    constr:    0.0000
     atom:   50    charge:    0.6733    magn:    0.0543    constr:    0.0000
     atom:   51    charge:    0.4222    magn:    0.0010    constr:    0.0000
     atom:   52    charge:    0.4306    magn:    0.0007    constr:    0.0000
     atom:   53    charge:    0.3675    magn:    0.0230    constr:    0.0000
     atom:   54    charge:    0.4231    magn:    0.0008    constr:    0.0000

     total cpu time spent up to now is     2588.0 secs

     total energy              =   -3021.14965940 Ry
     Harris-Foulkes estimate   =   -3021.14966268 Ry
     estimated scf accuracy    <       0.00001436 Ry

     total magnetization       =     1.06 Bohr mag/cell
     absolute magnetization    =     1.23 Bohr mag/cell

     iteration #  8     ecut=    40.42 Ry     beta=0.10
     Davidson diagonalization with overlap
     ethr =  3.61E-09,  avg # of iterations =  3.0

     negative rho (up, down):  1.191E-02 1.197E-02
 
     Magnetic moment per site:
     atom:    1    charge:    3.1244    magn:   -0.0002    constr:    0.0000
     atom:    2    charge:    2.0897    magn:    0.0002    constr:    0.0000
     atom:    3    charge:    3.1198    magn:   -0.0000    constr:    0.0000
     atom:    4    charge:    2.0867    magn:   -0.0001    constr:    0.0000
     atom:    5    charge:    3.1161    magn:   -0.0003    constr:    0.0000
     atom:    6    charge:    2.0795    magn:    0.0022    constr:    0.0000
     atom:    7    charge:    3.1167    magn:   -0.0054    constr:    0.0000
     atom:    8    charge:    2.0793    magn:    0.0251    constr:    0.0000
     atom:    9    charge:    3.1244    magn:   -0.0002    constr:    0.0000
     atom:   10    charge:    2.0898    magn:    0.0002    constr:    0.0000
     atom:   11    charge:    3.1198    magn:   -0.0000    constr:    0.0000
     atom:   12    charge:    2.0870    magn:   -0.0000    constr:    0.0000
     atom:   13    charge:    3.1150    magn:   -0.0002    constr:    0.0000
     atom:   14    charge:    2.0939    magn:    0.0023    constr:    0.0000
     atom:   15    charge:    3.1184    magn:   -0.0008    constr:    0.0000
     atom:   16    charge:    2.0828    magn:    0.0047    constr:    0.0000
     atom:   17    charge:    2.0624    magn:    0.0011    constr:    0.0000
     atom:   18    charge:    3.1239    magn:   -0.0000    constr:    0.0000
     atom:   19    charge:    2.0875    magn:    0.0000    constr:    0.0000
     atom:   20    charge:    2.0847    magn:    0.0001    constr:    0.0000
     atom:   21    charge:    2.0847    magn:    0.0001    constr:    0.0000
     atom:   22    charge:    3.1199    magn:    0.0000    constr:    0.0000
     atom:   23    charge:    2.0908    magn:    0.0003    constr:    0.0000
     atom:   24    charge:    2.0754    magn:   -0.0000    constr:    0.0000
     atom:   25    charge:    2.0867    magn:    0.0000    constr:    0.0000
     atom:   26    charge:    3.1127    magn:   -0.0003    constr:    0.0000
     atom:   27    charge:    2.0803    magn:    0.0027    constr:    0.0000
     atom:   28    charge:    2.0839    magn:    0.0007    constr:    0.0000
     atom:   29    charge:    2.0860    magn:    0.0009    constr:    0.0000
     atom:   30    charge:    3.1171    magn:   -0.0008    constr:    0.0000
     atom:   31    charge:    2.0825    magn:    0.0006    constr:    0.0000
     atom:   32    charge:    2.0829    magn:    0.0065    constr:    0.0000
     atom:   33    charge:    2.0624    magn:    0.0011    constr:    0.0000
     atom:   34    charge:    3.1239    magn:   -0.0000    constr:    0.0000
     atom:   35    charge:    2.0876    magn:    0.0000    constr:    0.0000
     atom:   36    charge:    2.0847    magn:    0.0001    constr:    0.0000
     atom:   37    charge:    2.0847    magn:    0.0001    constr:    0.0000
     atom:   38    charge:    3.1200    magn:    0.0000    constr:    0.0000
     atom:   39    charge:    2.0839    magn:    0.0002    constr:    0.0000
     atom:   40    charge:    2.0756    magn:   -0.0001    constr:    0.0000
     atom:   41    charge:    2.0870    magn:   -0.0000    constr:    0.0000
     atom:   42    charge:    3.1151    magn:   -0.0002    constr:    0.0000
     atom:   43    charge:    2.0803    magn:    0.0032    constr:    0.0000
     atom:   44    charge:    2.0851    magn:    0.0010    constr:    0.0000
     atom:   45    charge:    2.0858    magn:    0.0005    constr:    0.0000
     atom:   46    charge:    3.1148    magn:   -0.0007    constr:    0.0000
     atom:   47    charge:    2.0806    magn:    0.0047    constr:    0.0000
     atom:   48    charge:    2.0837    magn:    0.0139    constr:    0.0000
     atom:   49    charge:    2.0517    magn:    0.2405    constr:    0.0000
     atom:   50    charge:    0.6733    magn:    0.0543    constr:    0.0000
     atom:   51    charge:    0.4222    magn:    0.0011    constr:    0.0000
     atom:   52    charge:    0.4307    magn:    0.0007    constr:    0.0000
     atom:   53    charge:    0.3676    magn:    0.0229    constr:    0.0000
     atom:   54    charge:    0.4231    magn:    0.0008    constr:    0.0000

     total cpu time spent up to now is     2828.3 secs

     total energy              =   -3021.14966041 Ry
     Harris-Foulkes estimate   =   -3021.14966073 Ry
     estimated scf accuracy    <       0.00000470 Ry

     total magnetization       =     1.06 Bohr mag/cell
     absolute magnetization    =     1.23 Bohr mag/cell

     iteration #  9     ecut=    40.42 Ry     beta=0.10
     Davidson diagonalization with overlap
     ethr =  1.18E-09,  avg # of iterations =  2.8

     negative rho (up, down):  1.190E-02 1.197E-02
 
     Magnetic moment per site:
     atom:    1    charge:    3.1244    magn:   -0.0002    constr:    0.0000
     atom:    2    charge:    2.0897    magn:    0.0001    constr:    0.0000
     atom:    3    charge:    3.1198    magn:   -0.0000    constr:    0.0000
     atom:    4    charge:    2.0867    magn:   -0.0001    constr:    0.0000
     atom:    5    charge:    3.1161    magn:   -0.0003    constr:    0.0000
     atom:    6    charge:    2.0795    magn:    0.0022    constr:    0.0000
     atom:    7    charge:    3.1167    magn:   -0.0054    constr:    0.0000
     atom:    8    charge:    2.0793    magn:    0.0251    constr:    0.0000
     atom:    9    charge:    3.1244    magn:   -0.0002    constr:    0.0000
     atom:   10    charge:    2.0898    magn:    0.0002    constr:    0.0000
     atom:   11    charge:    3.1198    magn:   -0.0000    constr:    0.0000
     atom:   12    charge:    2.0870    magn:   -0.0000    constr:    0.0000
     atom:   13    charge:    3.1150    magn:   -0.0002    constr:    0.0000
     atom:   14    charge:    2.0939    magn:    0.0023    constr:    0.0000
     atom:   15    charge:    3.1184    magn:   -0.0008    constr:    0.0000
     atom:   16    charge:    2.0828    magn:    0.0047    constr:    0.0000
     atom:   17    charge:    2.0624    magn:    0.0010    constr:    0.0000
     atom:   18    charge:    3.1239    magn:   -0.0000    constr:    0.0000
     atom:   19    charge:    2.0875    magn:    0.0000    constr:    0.0000
     atom:   20    charge:    2.0847    magn:    0.0001    constr:    0.0000
     atom:   21    charge:    2.0847    magn:    0.0001    constr:    0.0000
     atom:   22    charge:    3.1199    magn:    0.0000    constr:    0.0000
     atom:   23    charge:    2.0908    magn:    0.0003    constr:    0.0000
     atom:   24    charge:    2.0754    magn:   -0.0000    constr:    0.0000
     atom:   25    charge:    2.0867    magn:    0.0000    constr:    0.0000
     atom:   26    charge:    3.1127    magn:   -0.0003    constr:    0.0000
     atom:   27    charge:    2.0803    magn:    0.0027    constr:    0.0000
     atom:   28    charge:    2.0839    magn:    0.0008    constr:    0.0000
     atom:   29    charge:    2.0860    magn:    0.0009    constr:    0.0000
     atom:   30    charge:    3.1171    magn:   -0.0008    constr:    0.0000
     atom:   31    charge:    2.0825    magn:    0.0006    constr:    0.0000
     atom:   32    charge:    2.0829    magn:    0.0065    constr:    0.0000
     atom:   33    charge:    2.0624    magn:    0.0010    constr:    0.0000
     atom:   34    charge:    3.1239    magn:   -0.0000    constr:    0.0000
     atom:   35    charge:    2.0876    magn:    0.0000    constr:    0.0000
     atom:   36    charge:    2.0847    magn:    0.0001    constr:    0.0000
     atom:   37    charge:    2.0847    magn:    0.0001    constr:    0.0000
     atom:   38    charge:    3.1200    magn:    0.0000    constr:    0.0000
     atom:   39    charge:    2.0839    magn:    0.0002    constr:    0.0000
     atom:   40    charge:    2.0756    magn:   -0.0001    constr:    0.0000
     atom:   41    charge:    2.0870    magn:   -0.0000    constr:    0.0000
     atom:   42    charge:    3.1151    magn:   -0.0003    constr:    0.0000
     atom:   43    charge:    2.0803    magn:    0.0032    constr:    0.0000
     atom:   44    charge:    2.0851    magn:    0.0010    constr:    0.0000
     atom:   45    charge:    2.0858    magn:    0.0005    constr:    0.0000
     atom:   46    charge:    3.1148    magn:   -0.0007    constr:    0.0000
     atom:   47    charge:    2.0806    magn:    0.0047    constr:    0.0000
     atom:   48    charge:    2.0837    magn:    0.0139    constr:    0.0000
     atom:   49    charge:    2.0517    magn:    0.2405    constr:    0.0000
     atom:   50    charge:    0.6731    magn:    0.0542    constr:    0.0000
     atom:   51    charge:    0.4222    magn:    0.0011    constr:    0.0000
     atom:   52    charge:    0.4307    magn:    0.0007    constr:    0.0000
     atom:   53    charge:    0.3677    magn:    0.0230    constr:    0.0000
     atom:   54    charge:    0.4231    magn:    0.0008    constr:    0.0000

     total cpu time spent up to now is     3061.5 secs

     total energy              =   -3021.14966066 Ry
     Harris-Foulkes estimate   =   -3021.14966075 Ry
     estimated scf accuracy    <       0.00000127 Ry

     total magnetization       =     1.06 Bohr mag/cell
     absolute magnetization    =     1.23 Bohr mag/cell

     iteration # 10     ecut=    40.42 Ry     beta=0.10
     Davidson diagonalization with overlap
     ethr =  3.20E-10,  avg # of iterations =  3.9

     negative rho (up, down):  1.190E-02 1.197E-02
 
     Magnetic moment per site:
     atom:    1    charge:    3.1244    magn:   -0.0001    constr:    0.0000
     atom:    2    charge:    2.0897    magn:    0.0001    constr:    0.0000
     atom:    3    charge:    3.1198    magn:   -0.0000    constr:    0.0000
     atom:    4    charge:    2.0867    magn:   -0.0001    constr:    0.0000
     atom:    5    charge:    3.1161    magn:   -0.0003    constr:    0.0000
     atom:    6    charge:    2.0795    magn:    0.0022    constr:    0.0000
     atom:    7    charge:    3.1167    magn:   -0.0054    constr:    0.0000
     atom:    8    charge:    2.0793    magn:    0.0252    constr:    0.0000
     atom:    9    charge:    3.1244    magn:   -0.0001    constr:    0.0000
     atom:   10    charge:    2.0898    magn:    0.0001    constr:    0.0000
     atom:   11    charge:    3.1198    magn:   -0.0000    constr:    0.0000
     atom:   12    charge:    2.0871    magn:   -0.0000    constr:    0.0000
     atom:   13    charge:    3.1150    magn:   -0.0002    constr:    0.0000
     atom:   14    charge:    2.0939    magn:    0.0023    constr:    0.0000
     atom:   15    charge:    3.1184    magn:   -0.0008    constr:    0.0000
     atom:   16    charge:    2.0828    magn:    0.0047    constr:    0.0000
     atom:   17    charge:    2.0624    magn:    0.0007    constr:    0.0000
     atom:   18    charge:    3.1239    magn:   -0.0000    constr:    0.0000
     atom:   19    charge:    2.0875    magn:    0.0000    constr:    0.0000
     atom:   20    charge:    2.0847    magn:    0.0001    constr:    0.0000
     atom:   21    charge:    2.0847    magn:    0.0001    constr:    0.0000
     atom:   22    charge:    3.1199    magn:    0.0000    constr:    0.0000
     atom:   23    charge:    2.0908    magn:    0.0003    constr:    0.0000
     atom:   24    charge:    2.0754    magn:   -0.0000    constr:    0.0000
     atom:   25    charge:    2.0867    magn:    0.0000    constr:    0.0000
     atom:   26    charge:    3.1127    magn:   -0.0003    constr:    0.0000
     atom:   27    charge:    2.0802    magn:    0.0027    constr:    0.0000
     atom:   28    charge:    2.0839    magn:    0.0008    constr:    0.0000
     atom:   29    charge:    2.0860    magn:    0.0009    constr:    0.0000
     atom:   30    charge:    3.1171    magn:   -0.0008    constr:    0.0000
     atom:   31    charge:    2.0825    magn:    0.0006    constr:    0.0000
     atom:   32    charge:    2.0829    magn:    0.0065    constr:    0.0000
     atom:   33    charge:    2.0624    magn:    0.0007    constr:    0.0000
     atom:   34    charge:    3.1239    magn:   -0.0000    constr:    0.0000
     atom:   35    charge:    2.0876    magn:    0.0000    constr:    0.0000
     atom:   36    charge:    2.0847    magn:    0.0001    constr:    0.0000
     atom:   37    charge:    2.0847    magn:    0.0000    constr:    0.0000
     atom:   38    charge:    3.1200    magn:    0.0000    constr:    0.0000
     atom:   39    charge:    2.0839    magn:    0.0002    constr:    0.0000
     atom:   40    charge:    2.0756    magn:   -0.0001    constr:    0.0000
     atom:   41    charge:    2.0870    magn:   -0.0000    constr:    0.0000
     atom:   42    charge:    3.1151    magn:   -0.0003    constr:    0.0000
     atom:   43    charge:    2.0803    magn:    0.0033    constr:    0.0000
     atom:   44    charge:    2.0851    magn:    0.0010    constr:    0.0000
     atom:   45    charge:    2.0858    magn:    0.0006    constr:    0.0000
     atom:   46    charge:    3.1147    magn:   -0.0007    constr:    0.0000
     atom:   47    charge:    2.0806    magn:    0.0047    constr:    0.0000
     atom:   48    charge:    2.0837    magn:    0.0139    constr:    0.0000
     atom:   49    charge:    2.0517    magn:    0.2406    constr:    0.0000
     atom:   50    charge:    0.6734    magn:    0.0542    constr:    0.0000
     atom:   51    charge:    0.4221    magn:    0.0011    constr:    0.0000
     atom:   52    charge:    0.4307    magn:    0.0007    constr:    0.0000
     atom:   53    charge:    0.3676    magn:    0.0229    constr:    0.0000
     atom:   54    charge:    0.4231    magn:    0.0008    constr:    0.0000

     total cpu time spent up to now is     3328.0 secs

     End of self-consistent calculation

 ------ SPIN UP ------------


          k = 0.0000 0.0000 0.0000 ( 34665 PWs)   bands (ev):

   -58.3093 -58.2743 -57.3914 -57.3857 -57.3526 -57.3150 -57.2637 -57.0949
   -57.0682 -57.0625 -57.0240 -56.9255 -56.9008 -56.8902 -56.8035 -56.7650
   -34.7545 -34.5779 -34.5491 -34.5159 -34.4209 -34.3640 -33.8864 -33.8741
   -33.7561 -33.6830 -33.6409 -33.5981 -33.5657 -33.5589 -33.5530 -33.5464
   -33.5349 -33.5200 -33.4946 -33.4932 -33.4787 -33.4771 -33.4744 -33.4555
   -33.3449 -33.3384 -33.3353 -33.3329 -33.3200 -33.2919 -33.2860 -33.2662
   -33.2460 -33.2406 -33.2401 -33.2308 -33.2024 -33.1802 -33.1457 -33.1441
   -33.1059 -33.0815 -33.0542 -33.0317 -33.0181 -32.9923 -32.9525 -32.8846
   -18.4745 -18.0419 -17.8177 -17.7169 -17.5568 -17.5350 -17.4914 -17.3894
   -17.3628 -17.2625 -17.0507 -17.0299 -17.0222 -16.9919 -16.9312 -16.8600
   -16.8405 -16.8034 -16.7455 -16.7138 -16.6948 -16.6625 -16.5979 -16.5941
   -16.4712 -16.4236 -16.4043 -16.3674 -16.3311 -16.1504 -16.0892 -15.6047
   -15.5439 -11.2026  -6.0531  -5.5021  -5.2880  -5.2081  -5.0993  -4.9984
    -4.9872  -4.9364  -4.8838  -4.7383  -4.6552  -4.6047  -4.5908  -4.5156
    -4.4344  -4.4191  -4.3578  -4.3216  -4.2374  -4.2241  -4.1998  -4.1471
    -4.0363  -4.0290  -3.9843  -3.9135  -3.8973  -3.8914  -3.8886  -3.8284
    -3.7820  -3.7575  -3.6993  -3.6551  -3.6342  -3.5886  -3.5468  -3.5330
    -3.5202  -3.4232  -3.4125  -3.3656  -3.2780  -3.2375  -3.1937  -3.0919
    -2.9259  -2.9020  -2.8562  -2.8072  -2.7509  -2.6988  -2.6770  -2.6658
    -2.6386  -2.5417  -2.4937  -2.4439  -2.3828  -2.3382  -2.2534  -2.2342
    -2.2300  -2.1652  -2.0731  -2.0462  -2.0051  -1.9644  -1.9347  -1.9038
    -1.8589  -1.7423  -1.6989  -1.6732  -1.6456  -1.6354  -1.5913  -1.5097
    -1.4258  -1.3721  -1.3577  -1.3428  -1.3190  -1.2725  -1.2292  -1.1753
    -1.1647  -1.1153  -1.1134  -1.1003  -1.0687  -0.9850  -0.8782  -0.8389
    -0.8133  -0.6981  -0.6919  -0.6289  -0.5570  -0.5156  -0.4879  -0.1915
     1.0215   1.1183   1.4132   1.6914   1.7997   1.9178   1.9651   2.0117
     2.0419   2.1290   2.2057   2.2264   2.2726   2.3914   2.4668   2.4805
     2.4875   2.5146   2.6175   2.6629   2.6678   2.6848   2.7064   2.8232
     2.8380   2.8825   2.8968   2.9505   2.9646   3.0175   3.0259   3.0478
     3.1015   3.1570   3.1952   3.1961   3.2438   3.2518   3.4075   3.4434
     3.4748   3.5167   3.5937   3.6226   3.6663   3.7104   3.8251   3.9525
     4.1005   4.1322   4.3229   4.4691   4.5909   4.7028   4.7806   4.8317
     5.0815   5.1290   5.2080   5.3501   5.3944   5.3995   5.4249   5.4291
     5.4503   5.5186   5.5511   5.6588   5.7149   5.7332   5.9023   5.9204
     5.9521   6.0715   6.0901   6.1325   6.2150   6.2915   6.4189   6.4858
     6.5389   6.5666   6.7794   6.8112   7.2142   7.9148   8.1523   8.1734
     8.3603   8.3878   8.6568   8.7154   8.7498   8.9740   9.1496   9.2527
     9.3144   9.4524   9.6213

          k = 0.0000 0.0280 0.0000 ( 34717 PWs)   bands (ev):

   -58.3070 -58.2766 -57.3897 -57.3840 -57.3550 -57.3161 -57.2633 -57.0947
   -57.0683 -57.0608 -57.0261 -56.9231 -56.9011 -56.8926 -56.8010 -56.7676
   -34.7291 -34.5759 -34.5510 -34.5096 -34.4274 -34.3911 -33.8610 -33.8487
   -33.7353 -33.6767 -33.6348 -33.5956 -33.5728 -33.5553 -33.5473 -33.5391
   -33.5341 -33.5218 -33.5187 -33.5015 -33.4938 -33.4771 -33.4688 -33.4491
   -33.3394 -33.3333 -33.3199 -33.3178 -33.3123 -33.3085 -33.2835 -33.2646
   -33.2507 -33.2424 -33.2407 -33.2302 -33.2064 -33.2043 -33.1518 -33.1381
   -33.1178 -33.0780 -33.0603 -33.0316 -33.0179 -32.9972 -32.9799 -32.9133
   -18.4162 -17.9822 -17.7677 -17.6867 -17.6113 -17.5121 -17.4425 -17.3773
   -17.3316 -17.2932 -17.1018 -17.0094 -17.0008 -16.9811 -16.9333 -16.8815
   -16.8011 -16.7790 -16.7664 -16.7413 -16.7130 -16.6876 -16.6234 -16.5715
   -16.4853 -16.4488 -16.4111 -16.3907 -16.3633 -16.1692 -16.1308 -15.6188
   -15.5693 -11.2035  -5.9676  -5.4180  -5.2086  -5.1375  -5.0295  -4.9659
    -4.9315  -4.9111  -4.8129  -4.7345  -4.6737  -4.6590  -4.5318  -4.5211
    -4.4219  -4.3821  -4.3683  -4.3284  -4.2631  -4.2171  -4.2038  -4.1822
    -4.1049  -4.0727  -4.0217  -4.0053  -3.9835  -3.9760  -3.9270  -3.8595
    -3.8199  -3.7596  -3.7584  -3.7201  -3.6822  -3.6496  -3.5609  -3.4428
    -3.4078  -3.3252  -3.3072  -3.3055  -3.2728  -3.1293  -3.1095  -2.9497
    -2.9085  -2.8874  -2.8063  -2.7540  -2.7494  -2.7264  -2.6932  -2.6566
    -2.6036  -2.5224  -2.4631  -2.4490  -2.4208  -2.2850  -2.2604  -2.2283
    -2.2173  -2.1579  -2.1497  -2.0336  -1.9885  -1.9627  -1.9306  -1.9180
    -1.8789  -1.7724  -1.7633  -1.7241  -1.6857  -1.6154  -1.5873  -1.5770
    -1.5066  -1.4649  -1.3963  -1.3826  -1.3795  -1.3624  -1.2897  -1.2768
    -1.2402  -1.1798  -1.1554  -1.0743  -0.9982  -0.9583  -0.9342  -0.9018
    -0.8813  -0.8447  -0.7344  -0.6041  -0.5777  -0.5640  -0.5440  -0.2326
     1.1542   1.1593   1.4144   1.8278   1.8720   1.8896   1.9222   1.9986
     2.0570   2.0750   2.2959   2.3042   2.3370   2.4541   2.4901   2.5106
     2.5185   2.5403   2.5452   2.5938   2.7108   2.7289   2.7989   2.8098
     2.8319   2.8962   2.9327   2.9609   2.9776   2.9904   3.0116   3.0623
     3.0827   3.1191   3.1723   3.2310   3.2435   3.3241   3.4322   3.4730
     3.5092   3.5396   3.5624   3.5851   3.6401   3.6634   3.7834   3.9047
     4.0547   4.1993   4.2792   4.5224   4.7016   4.7041   4.8107   4.9067
     5.1083   5.1695   5.2530   5.2990   5.3689   5.4084   5.4311   5.4757
     5.5030   5.5401   5.5481   5.6578   5.7016   5.7105   5.8197   5.8804
     5.9432   5.9878   6.0377   6.0476   6.1765   6.2482   6.3848   6.4304
     6.4476   6.5537   6.7251   6.8141   7.3208   7.4503   8.0028   8.0740
     8.3424   8.4960   8.5374   8.7144   8.7842   8.9916   9.1121   9.3089
     9.3702   9.4501   9.5262

          k = 0.0000 0.0560 0.0000 ( 34721 PWs)   bands (ev):

   -58.3006 -58.2830 -57.3863 -57.3789 -57.3614 -57.3183 -57.2625 -57.0943
   -57.0688 -57.0562 -57.0310 -56.9167 -56.9015 -56.8991 -56.7943 -56.7743
   -34.6592 -34.5706 -34.5562 -34.4925 -34.4642 -34.4450 -33.7912 -33.7792
   -33.6846 -33.6598 -33.6181 -33.5959 -33.5951 -33.5893 -33.5746 -33.5712
   -33.5432 -33.5342 -33.5169 -33.4985 -33.4751 -33.4703 -33.4670 -33.4150
   -33.3739 -33.3291 -33.3268 -33.3119 -33.2850 -33.2751 -33.2599 -33.2598
   -33.2584 -33.2502 -33.2471 -33.2290 -33.2205 -33.2136 -33.1692 -33.1373
   -33.1219 -33.0770 -33.0752 -33.0538 -33.0311 -33.0178 -33.0092 -32.9838
   -18.2551 -17.8176 -17.7950 -17.6379 -17.6040 -17.4142 -17.3951 -17.3768
   -17.3120 -17.2693 -17.2348 -17.0487 -16.9937 -16.9250 -16.9212 -16.9041
   -16.8463 -16.8205 -16.7319 -16.7086 -16.7032 -16.6772 -16.6275 -16.5645
   -16.5181 -16.5126 -16.4572 -16.4450 -16.4180 -16.2343 -16.2114 -15.6473
   -15.6230 -11.2053  -5.7282  -5.1851  -5.0491  -4.9928  -4.9591  -4.9334
    -4.8519  -4.8363  -4.8186  -4.7758  -4.7368  -4.5573  -4.5118  -4.4690
    -4.3973  -4.3963  -4.3546  -4.3236  -4.3090  -4.2911  -4.2533  -4.2168
    -4.2123  -4.1949  -4.1337  -4.0621  -4.0181  -3.9790  -3.9685  -3.9115
    -3.8761  -3.8189  -3.7457  -3.6989  -3.6395  -3.5480  -3.4156  -3.4082
    -3.3681  -3.2894  -3.2500  -3.1375  -3.0924  -3.0736  -3.0422  -3.0144
    -2.9711  -2.9608  -2.8309  -2.8002  -2.7445  -2.6996  -2.6546  -2.5606
    -2.4866  -2.4780  -2.4437  -2.3584  -2.3056  -2.3000  -2.2257  -2.1917
    -2.1565  -2.1426  -2.1224  -2.0899  -2.0574  -2.0138  -1.9988  -1.9727
    -1.9370  -1.8951  -1.8848  -1.8642  -1.8162  -1.7557  -1.6607  -1.6104
    -1.5980  -1.5813  -1.5158  -1.4770  -1.4541  -1.4490  -1.4348  -1.3801
    -1.2955  -1.2748  -1.2184  -1.2019  -1.0930  -1.0095  -0.9821  -0.9477
    -0.8631  -0.8396  -0.7408  -0.7191  -0.6239  -0.5856  -0.5677  -0.3360
     1.2831   1.4249   1.4975   1.7187   1.7954   1.8884   1.9591   2.0567
     2.1372   2.2730   2.2782   2.3299   2.4140   2.4831   2.5023   2.5285
     2.5696   2.6087   2.6591   2.7064   2.7497   2.7669   2.7981   2.8467
     2.8620   2.8808   2.8905   2.9605   3.0068   3.0249   3.0338   3.0607
     3.1218   3.1550   3.1784   3.2566   3.3051   3.3365   3.3832   3.4310
     3.4689   3.4844   3.5602   3.6083   3.6715   3.6837   3.7235   3.7992
     3.9215   4.1566   4.3217   4.6494   4.7397   4.8400   4.9319   5.0699
     5.0756   5.1730   5.2795   5.3308   5.3990   5.4342   5.4674   5.4966
     5.4969   5.5593   5.5790   5.6452   5.6501   5.7510   5.7689   5.8111
     5.8543   5.8655   5.8857   5.9278   6.1145   6.1561   6.2952   6.3709
     6.4218   6.4405   6.7183   6.7459   7.0006   7.2245   7.6154   7.7481
     8.2068   8.3818   8.7101   8.8202   8.8468   8.8946   9.1803   9.3519
     9.4203   9.6042   9.7104

          k = 0.0000-0.0840 0.0000 ( 34678 PWs)   bands (ev):

   -58.2925 -58.2911 -57.3847 -57.3725 -57.3682 -57.3195 -57.2622 -57.0941
   -57.0691 -57.0528 -57.0345 -56.9082 -56.9076 -56.9018 -56.7876 -56.7811
   -34.5643 -34.5633 -34.5624 -34.5618 -34.4694 -34.4682 -33.7074 -33.6942
   -33.6905 -33.6519 -33.6506 -33.6447 -33.6131 -33.5969 -33.5929 -33.5822
   -33.5416 -33.5361 -33.5164 -33.5077 -33.4721 -33.4657 -33.4039 -33.3891
   -33.3838 -33.3679 -33.3307 -33.3259 -33.3088 -33.2772 -33.2643 -33.2554
   -33.2537 -33.2532 -33.2288 -33.2268 -33.1784 -33.1534 -33.1526 -33.1450
   -33.1294 -33.1271 -33.0998 -33.0992 -33.0314 -33.0230 -33.0201 -33.0143
   -18.0300 -18.0293 -17.5977 -17.5885 -17.5148 -17.4907 -17.4905 -17.4003
   -17.2634 -17.2231 -17.1358 -17.1100 -17.0776 -17.0428 -16.9000 -16.8501
   -16.8130 -16.8127 -16.8113 -16.6800 -16.6180 -16.6146 -16.6083 -16.5843
   -16.5535 -16.5307 -16.5123 -16.4800 -16.4708 -16.2768 -16.2526 -15.6565
   -15.6565 -11.2062  -5.3887  -5.3885  -4.9335  -4.8925  -4.8915  -4.8791
    -4.8568  -4.7751  -4.7635  -4.7245  -4.6638  -4.6093  -4.5723  -4.5655
    -4.4969  -4.4743  -4.4511  -4.3967  -4.3810  -4.2709  -4.2587  -4.2509
    -4.1636  -4.1213  -4.0717  -4.0369  -3.9977  -3.9060  -3.8882  -3.8658
    -3.7864  -3.7246  -3.6965  -3.6780  -3.6657  -3.6536  -3.6279  -3.4151
    -3.3652  -3.3523  -3.1561  -3.0821  -3.0764  -3.0358  -2.9322  -2.9315
    -2.9221  -2.8547  -2.8316  -2.7963  -2.7782  -2.6996  -2.6741  -2.6503
    -2.5271  -2.5068  -2.4250  -2.4085  -2.4005  -2.3787  -2.3159  -2.2459
    -2.2319  -2.1704  -2.1238  -2.0626  -2.0109  -1.9846  -1.9804  -1.9747
    -1.9704  -1.9463  -1.8434  -1.8033  -1.7831  -1.7331  -1.6970  -1.6617
    -1.6457  -1.6147  -1.5954  -1.5221  -1.5124  -1.4700  -1.4505  -1.4279
    -1.3859  -1.3354  -1.2836  -1.1825  -1.1422  -1.1213  -1.0959  -1.0724
    -0.8429  -0.8191  -0.6218  -0.6128  -0.6077  -0.5997  -0.5508  -0.5023
     1.4793   1.4820   1.6316   1.6323   1.7112   1.7121   2.0823   2.0831
     2.1460   2.2011   2.3719   2.4064   2.4429   2.4891   2.5369   2.5447
     2.6514   2.6631   2.6725   2.6863   2.7385   2.7487   2.8067   2.8093
     2.9092   2.9444   2.9878   3.0156   3.0206   3.0235   3.0300   3.0334
     3.0408   3.2219   3.2314   3.2619   3.2945   3.3365   3.3627   3.3928
     3.4298   3.4449   3.5000   3.6219   3.6936   3.7323   3.7468   3.7893
     3.8426   4.0339   4.3741   4.7537   4.8292   4.8629   4.8636   5.0492
     5.1414   5.2209   5.3116   5.3274   5.3619   5.4049   5.4655   5.5399
     5.5615   5.5936   5.5962   5.6839   5.6968   5.7159   5.7260   5.7396
     5.7657   5.8065   5.8395   5.9405   6.0233   6.1550   6.2874   6.3878
     6.4582   6.4753   6.5917   6.6100   6.9351   6.9879   7.4557   7.6174
     8.0390   8.2452   8.7262   8.9459   9.1517   9.2146   9.3447   9.3462
     9.4507   9.6126   9.7007

          k = 0.0253 0.0000 0.0000 ( 34707 PWs)   bands (ev):

   -58.3093 -58.2743 -57.3910 -57.3861 -57.3526 -57.3150 -57.2637 -57.0949
   -57.0680 -57.0627 -57.0240 -56.9255 -56.9008 -56.8902 -56.8035 -56.7650
   -34.7548 -34.5779 -34.5491 -34.5151 -34.4209 -34.3641 -33.8866 -33.8760
   -33.7562 -33.6751 -33.6409 -33.5982 -33.5691 -33.5593 -33.5552 -33.5466
   -33.5350 -33.5233 -33.4942 -33.4933 -33.4781 -33.4749 -33.4728 -33.4556
   -33.3448 -33.3395 -33.3334 -33.3319 -33.3169 -33.2919 -33.2861 -33.2674
   -33.2514 -33.2401 -33.2401 -33.2307 -33.2025 -33.1804 -33.1442 -33.1441
   -33.1054 -33.0815 -33.0542 -33.0358 -33.0171 -32.9924 -32.9526 -32.8848
   -18.4299 -18.0040 -17.7955 -17.7899 -17.5664 -17.4625 -17.4541 -17.3887
   -17.3672 -17.3263 -17.1118 -17.0436 -17.0190 -16.9858 -16.9339 -16.8973
   -16.8628 -16.8003 -16.7697 -16.7476 -16.6438 -16.6014 -16.5923 -16.5846
   -16.4695 -16.4487 -16.4049 -16.3893 -16.3287 -16.1487 -16.0893 -15.6037
   -15.5437 -11.2025  -5.9282  -5.3956  -5.2197  -5.2047  -5.0790  -5.0297
    -4.9766  -4.9389  -4.8860  -4.7403  -4.7032  -4.5886  -4.5850  -4.5175
    -4.4897  -4.4141  -4.3327  -4.2682  -4.2632  -4.2032  -4.1964  -4.1097
    -4.0347  -4.0020  -3.9949  -3.9203  -3.9048  -3.8631  -3.8531  -3.8027
    -3.7389  -3.6974  -3.6738  -3.6059  -3.5681  -3.5586  -3.5282  -3.5056
    -3.4491  -3.4185  -3.3239  -3.3206  -3.2787  -3.2627  -3.2425  -3.1563
    -3.0172  -2.9068  -2.8432  -2.8228  -2.7755  -2.7482  -2.7043  -2.6752
    -2.6164  -2.5632  -2.5454  -2.5047  -2.4403  -2.3864  -2.3375  -2.2709
    -2.2529  -2.2037  -2.0957  -2.0506  -2.0098  -1.9604  -1.8878  -1.8557
    -1.8321  -1.8032  -1.7175  -1.6298  -1.5836  -1.5757  -1.5501  -1.5143
    -1.4824  -1.4378  -1.4339  -1.3979  -1.3389  -1.3068  -1.2958  -1.2267
    -1.1910  -1.1604  -1.1103  -1.0884  -1.0468  -1.0280  -0.9610  -0.9165
    -0.8390  -0.8326  -0.6753  -0.6484  -0.6112  -0.5935  -0.5621  -0.2511
     1.1041   1.1187   1.4123   1.7791   1.8153   1.9003   1.9268   2.0459
     2.0818   2.1136   2.2001   2.2408   2.3342   2.3796   2.4379   2.5018
     2.5242   2.5928   2.6250   2.6442   2.6746   2.7004   2.8085   2.8227
     2.8433   2.8464   2.8875   2.8965   2.9415   3.0230   3.0718   3.1301
     3.1870   3.1989   3.2121   3.2142   3.2384   3.3060   3.4033   3.4401
     3.4851   3.5405   3.5893   3.6312   3.6958   3.7605   3.7819   3.9058
     4.0490   4.1883   4.2610   4.4220   4.5779   4.6207   4.8060   4.8245
     4.9567   4.9805   5.0835   5.1679   5.3018   5.3131   5.4248   5.5349
     5.5555   5.7059   5.7398   5.9015   5.9099   5.9348   5.9611   5.9851
     6.0202   6.0300   6.0664   6.1666   6.2257   6.2571   6.4370   6.4924
     6.5394   6.6194   6.7373   6.8081   7.2603   7.6799   7.7625   8.0198
     8.2234   8.2997   8.3815   8.6979   8.7560   8.9752   9.1214   9.2195
     9.4158   9.5079   9.7832

          k = 0.0253 0.0280 0.0000 ( 34687 PWs)   bands (ev):

   -58.3070 -58.2766 -57.3894 -57.3844 -57.3550 -57.3161 -57.2633 -57.0947
   -57.0681 -57.0609 -57.0261 -56.9231 -56.9011 -56.8926 -56.8010 -56.7676
   -34.7294 -34.5759 -34.5510 -34.5089 -34.4273 -34.3911 -33.8612 -33.8507
   -33.7354 -33.6690 -33.6347 -33.5957 -33.5699 -33.5556 -33.5523 -33.5424
   -33.5346 -33.5228 -33.5211 -33.5011 -33.4938 -33.4711 -33.4692 -33.4497
   -33.3396 -33.3292 -33.3198 -33.3189 -33.3093 -33.3082 -33.2836 -33.2655
   -33.2550 -33.2419 -33.2407 -33.2318 -33.2061 -33.2042 -33.1500 -33.1381
   -33.1181 -33.0780 -33.0603 -33.0338 -33.0181 -32.9971 -32.9799 -32.9133
   -18.3726 -17.9457 -17.7780 -17.7423 -17.5256 -17.5234 -17.4160 -17.3705
   -17.3537 -17.3221 -17.1163 -17.0732 -17.0031 -16.9719 -16.9228 -16.8800
   -16.8329 -16.8079 -16.7987 -16.7360 -16.6731 -16.6693 -16.6171 -16.5524
   -16.4909 -16.4685 -16.4133 -16.4087 -16.3603 -16.1674 -16.1314 -15.6178
   -15.5694 -11.2034  -5.8432  -5.3122  -5.1467  -5.1310  -4.9959  -4.9622
    -4.9386  -4.9121  -4.8257  -4.7004  -4.6797  -4.6384  -4.5363  -4.5007
    -4.4421  -4.4043  -4.3159  -4.2968  -4.2466  -4.2090  -4.1853  -4.1581
    -4.1295  -4.0978  -4.0350  -3.9995  -3.9566  -3.9440  -3.9014  -3.8246
    -3.7931  -3.7417  -3.7271  -3.6887  -3.6448  -3.6145  -3.5300  -3.4045
    -3.3477  -3.3266  -3.3170  -3.2696  -3.2387  -3.1946  -3.1205  -3.0990
    -2.9325  -2.8968  -2.8428  -2.7822  -2.7531  -2.7135  -2.6824  -2.6423
    -2.6134  -2.5266  -2.5032  -2.4740  -2.4551  -2.3862  -2.3327  -2.3080
    -2.2317  -2.1924  -2.1322  -2.0680  -2.0181  -1.9570  -1.9401  -1.9132
[...]
    -1.7327  -1.5101  -1.4675  -1.4566  -1.4389  -1.4015  -1.3224  -1.1577
    -1.1476  -1.0911  -1.0732  -1.0574  -0.9750  -0.9140  -0.8751  -0.7908
    -0.7371  -0.7302  -0.7016  -0.6737  -0.5987  -0.5770  -0.5631   0.2878
     1.5983   1.6017   1.6143   1.6197   1.9621   1.9629   2.0919   2.0929
     2.2754   2.2963   2.3095   2.3912   2.4144   2.4842   2.5714   2.6302
     2.6522   2.6968   2.7802   2.8136   2.8701   2.9221   2.9443   2.9723
     2.9867   2.9956   3.0366   3.0945   3.1087   3.2060   3.2317   3.2405
     3.2562   3.2804   3.3376   3.3837   3.3975   3.4025   3.4593   3.4702
     3.4805   3.5082   3.5227   3.5764   3.6336   3.6519   3.7735   3.8750
     3.9104   3.9211   4.1370   4.1375   4.5880   4.6164   4.6389   4.7244
     4.8797   4.8956   4.9281   5.0783   5.1576   5.1626   5.1817   5.4429
     5.6705   5.6795   5.6904   5.9231   5.9284   5.9622   6.0135   6.0161
     6.0912   6.1025   6.1728   6.2637   6.2674   6.2760   6.3797   6.4570
     6.4971   6.6036   7.0844   7.2503   7.3444   7.3993   7.5550   7.5922
     7.7208   7.7711   7.9271   8.1158   8.2972   8.3453   8.4567   8.8722
     9.0140   9.0676   9.2179

          k =-0.0253 0.0280 0.0000 ( 34687 PWs)   bands (ev):

   -58.3072 -58.2768 -57.3894 -57.3844 -57.3550 -57.3162 -57.2642 -57.0988
   -57.0694 -57.0622 -57.0273 -56.9259 -56.9239 -56.8934 -56.8046 -56.7712
   -34.7296 -34.5761 -34.5512 -34.5090 -34.4275 -34.3913 -33.8612 -33.8507
   -33.7362 -33.6691 -33.6347 -33.5959 -33.5699 -33.5557 -33.5523 -33.5432
   -33.5354 -33.5228 -33.5211 -33.5011 -33.4948 -33.4717 -33.4708 -33.4522
   -33.3404 -33.3309 -33.3234 -33.3206 -33.3137 -33.3096 -33.2851 -33.2662
   -33.2557 -33.2426 -33.2422 -33.2335 -33.2179 -33.2067 -33.1704 -33.1388
   -33.1369 -33.0814 -33.0611 -33.0414 -33.0222 -33.0005 -32.9806 -32.9161
   -18.3723 -17.9434 -17.7777 -17.7359 -17.5249 -17.5185 -17.3772 -17.3704
   -17.3470 -17.3174 -17.1138 -17.0709 -16.9861 -16.9410 -16.8750 -16.8320
   -16.7940 -16.7523 -16.7348 -16.6713 -16.6646 -16.5847 -16.5455 -16.4872
   -16.4631 -16.4071 -16.3680 -16.3500 -16.1568 -16.1219 -15.8838 -15.6142
   -15.5655 -10.8087  -5.8431  -5.3119  -5.1457  -5.1277  -4.9956  -4.9548
    -4.9158  -4.8269  -4.7004  -4.6797  -4.6386  -4.5384  -4.5003  -4.4439
    -4.4105  -4.3156  -4.2922  -4.2524  -4.2014  -4.1835  -4.1434  -4.1293
    -4.0957  -4.0521  -4.0174  -3.9945  -3.9569  -3.9155  -3.8833  -3.8012
    -3.7873  -3.7262  -3.6879  -3.6251  -3.5963  -3.5782  -3.5088  -3.3946
    -3.3461  -3.3226  -3.2916  -3.2652  -3.2265  -3.1848  -3.1154  -3.0984
    -2.9219  -2.8845  -2.8247  -2.7799  -2.7241  -2.6877  -2.6768  -2.6196
    -2.5900  -2.5112  -2.5018  -2.4446  -2.4122  -2.3607  -2.2902  -2.2679
    -2.2161  -2.1945  -2.1066  -2.0450  -1.9616  -1.9429  -1.9186  -1.8525
    -1.8416  -1.7936  -1.7478  -1.6873  -1.6382  -1.5975  -1.5646  -1.5127
    -1.4789  -1.4380  -1.4090  -1.3826  -1.3634  -1.3483  -1.3167  -1.2931
    -1.2076  -1.1263  -1.0659  -1.0131  -0.9897  -0.9560  -0.9318  -0.8871
    -0.8454  -0.8226  -0.6340  -0.6123  -0.5880  -0.5248  -0.2679   0.3126
     1.1501   1.2438   1.4278   1.8170   1.8565   1.9237   1.9600   2.0274
     2.0384   2.1876   2.2984   2.3442   2.3856   2.4286   2.4521   2.5021
     2.5223   2.5466   2.5874   2.6479   2.6961   2.7201   2.7763   2.8299
     2.8750   2.9119   2.9284   2.9715   2.9889   3.0127   3.0390   3.0916
     3.1687   3.1894   3.2317   3.2571   3.2926   3.3349   3.4279   3.4629
     3.4931   3.5571   3.6102   3.6411   3.6618   3.7423   3.8189   3.8638
     4.0110   4.2073   4.2834   4.4341   4.6230   4.7213   4.8420   4.8591
     4.9999   5.0237   5.1107   5.1964   5.2397   5.3554   5.4588   5.5468
     5.6643   5.6931   5.7163   5.8013   5.8483   5.8811   5.9074   5.9295
     5.9649   5.9879   6.0635   6.1268   6.1732   6.2810   6.3963   6.4469
     6.4603   6.5811   6.7531   6.8092   7.3796   7.4828   7.8035   7.8948
     8.1014   8.2371   8.4880   8.5368   8.7891   8.8960   9.0861   9.3131
     9.3763   9.5344   9.6194

          k =-0.0253 0.0560 0.0000 ( 34699 PWs)   bands (ev):

   -58.3008 -58.2832 -57.3862 -57.3790 -57.3613 -57.3184 -57.2634 -57.0983
   -57.0700 -57.0575 -57.0322 -56.9264 -56.9175 -56.8998 -56.7979 -56.7780
   -34.6596 -34.5708 -34.5564 -34.4920 -34.4644 -34.4449 -33.7914 -33.7815
   -33.6855 -33.6538 -33.6180 -33.5944 -33.5904 -33.5894 -33.5781 -33.5712
   -33.5449 -33.5351 -33.5216 -33.4998 -33.4866 -33.4694 -33.4586 -33.4182
   -33.3752 -33.3283 -33.3246 -33.3161 -33.2870 -33.2775 -33.2612 -33.2610
   -33.2600 -33.2509 -33.2475 -33.2342 -33.2234 -33.2194 -33.1858 -33.1661
   -33.1226 -33.0784 -33.0777 -33.0545 -33.0383 -33.0246 -33.0126 -32.9866
   -18.2146 -17.8047 -17.7831 -17.6144 -17.6029 -17.4588 -17.3963 -17.3725
   -17.2515 -17.2442 -17.2066 -17.0609 -16.9512 -16.9222 -16.8840 -16.8431
   -16.8004 -16.7466 -16.7358 -16.7205 -16.6860 -16.6007 -16.5508 -16.5340
   -16.5028 -16.4442 -16.4137 -16.4094 -16.2183 -16.2031 -15.8826 -15.6429
   -15.6193 -10.8106  -5.6080  -5.0846  -5.0268  -4.9588  -4.9266  -4.8200
    -4.7980  -4.7608  -4.6905  -4.6761  -4.5288  -4.5121  -4.4490  -4.3984
    -4.3804  -4.3721  -4.3235  -4.2799  -4.2529  -4.2430  -4.2084  -4.1767
    -4.1347  -4.1242  -4.0581  -4.0265  -3.9944  -3.9640  -3.9326  -3.8928
    -3.8327  -3.7990  -3.6899  -3.5970  -3.5783  -3.5386  -3.4624  -3.3873
    -3.3685  -3.2934  -3.1904  -3.1629  -3.1214  -3.1137  -3.0619  -3.0269
    -2.9853  -2.9295  -2.8461  -2.7961  -2.7650  -2.7074  -2.6123  -2.5930
    -2.5269  -2.5126  -2.4595  -2.3939  -2.3785  -2.3208  -2.3029  -2.2615
    -2.1911  -2.1381  -2.1239  -2.0915  -2.0515  -2.0091  -1.9879  -1.9512
    -1.9337  -1.9084  -1.8958  -1.8490  -1.7705  -1.7051  -1.6923  -1.5964
    -1.5751  -1.5469  -1.5208  -1.4874  -1.4449  -1.4158  -1.3866  -1.3276
    -1.2923  -1.2250  -1.1572  -1.0366  -1.0069  -0.9726  -0.9401  -0.8601
    -0.7659  -0.7380  -0.7075  -0.6427  -0.6120  -0.5583  -0.3652   0.2930
     1.2844   1.4664   1.5617   1.7557   1.7711   1.9094   1.9762   2.0555
     2.2628   2.2732   2.3400   2.3762   2.4127   2.4848   2.5201   2.5455
     2.5703   2.5937   2.6511   2.7039   2.7185   2.7623   2.8047   2.8544
     2.8802   2.9151   2.9593   3.0048   3.0304   3.0438   3.0537   3.1072
     3.1568   3.1965   3.2158   3.2864   3.3153   3.3437   3.3756   3.4554
     3.5073   3.5322   3.6104   3.6319   3.6658   3.7252   3.7441   3.7979
     3.8937   4.0976   4.3907   4.4985   4.7136   4.8566   4.9078   4.9589
     4.9931   5.0876   5.1847   5.2056   5.3339   5.3856   5.4315   5.5262
     5.5623   5.5972   5.6497   5.7072   5.7366   5.8015   5.8178   5.8583
     5.9254   5.9416   6.0024   6.0880   6.1306   6.2104   6.3270   6.4305
     6.4586   6.4750   6.7179   6.7673   7.0787   7.3095   7.6751   7.8325
     8.1100   8.2356   8.3263   8.4939   8.7801   8.9018   9.0066   9.1883
     9.3781   9.5557   9.6521

          k =-0.0506 0.0280 0.0000 ( 34685 PWs)   bands (ev):

   -58.3071 -58.2768 -57.3885 -57.3852 -57.3550 -57.3162 -57.2641 -57.0988
   -57.0691 -57.0625 -57.0273 -56.9258 -56.9239 -56.8934 -56.8046 -56.7712
   -34.7303 -34.5761 -34.5512 -34.5075 -34.4275 -34.3913 -33.8616 -33.8547
   -33.7365 -33.6495 -33.6345 -33.5960 -33.5750 -33.5575 -33.5563 -33.5485
   -33.5357 -33.5302 -33.5199 -33.5010 -33.4949 -33.4720 -33.4593 -33.4533
   -33.3405 -33.3239 -33.3225 -33.3204 -33.3100 -33.3092 -33.2853 -33.2682
   -33.2657 -33.2423 -33.2416 -33.2364 -33.2180 -33.2062 -33.1664 -33.1388
   -33.1372 -33.0815 -33.0611 -33.0482 -33.0206 -33.0005 -32.9807 -32.9161
   -18.2640 -17.8659 -17.8537 -17.7031 -17.5896 -17.4575 -17.4399 -17.3463
   -17.3191 -17.2526 -17.1824 -17.0883 -16.9987 -16.9536 -16.9247 -16.8970
   -16.8124 -16.7695 -16.7583 -16.6984 -16.6351 -16.5515 -16.5247 -16.4912
   -16.4632 -16.4080 -16.3920 -16.3549 -16.1532 -16.1223 -15.8846 -15.6123
   -15.5656 -10.8085  -5.5418  -5.1893  -5.1559  -5.1231  -4.9514  -4.8716
    -4.7698  -4.7118  -4.6847  -4.6543  -4.6034  -4.5893  -4.5351  -4.4095
    -4.3653  -4.3247  -4.2433  -4.2181  -4.1814  -4.1672  -4.1502  -4.0596
    -4.0406  -4.0153  -3.9776  -3.9326  -3.8874  -3.8411  -3.8149  -3.7804
    -3.7235  -3.6718  -3.6366  -3.5942  -3.5785  -3.5365  -3.4898  -3.4601
    -3.3833  -3.3707  -3.3030  -3.2674  -3.2062  -3.1511  -3.1209  -3.0604
    -3.0117  -2.9826  -2.9037  -2.8386  -2.7598  -2.7009  -2.6914  -2.6686
    -2.6189  -2.5960  -2.5830  -2.5277  -2.5188  -2.3958  -2.3436  -2.3348
    -2.2723  -2.2031  -2.1879  -2.1614  -2.0831  -2.0128  -2.0065  -1.9451
    -1.9263  -1.8964  -1.8130  -1.7244  -1.7111  -1.6869  -1.6172  -1.5885
    -1.5259  -1.4785  -1.4560  -1.3955  -1.3812  -1.3289  -1.3134  -1.2629
    -1.2462  -1.1232  -1.0601  -1.0370  -1.0131  -0.9588  -0.9267  -0.8787
    -0.8304  -0.7988  -0.7232  -0.6840  -0.6626  -0.5386  -0.3939   0.2973
     1.1371   1.3371   1.4622   1.5630   1.9308   1.9408   1.9634   2.0552
     2.1212   2.1960   2.2509   2.3268   2.4032   2.4369   2.5256   2.5431
     2.5894   2.6478   2.6846   2.6982   2.7520   2.8255   2.8485   2.8787
     2.9375   2.9434   2.9768   2.9816   2.9882   3.0991   3.1063   3.1348
     3.1826   3.2116   3.2876   3.3076   3.3526   3.3793   3.4036   3.4520
     3.4664   3.5450   3.5994   3.6644   3.7398   3.7764   3.7962   3.8979
     3.9553   4.0589   4.1063   4.4047   4.5072   4.6532   4.7448   4.8065
     4.8388   4.9109   4.9633   5.2861   5.3266   5.4096   5.5244   5.5566
     5.6378   5.7637   5.7837   5.8506   5.8966   5.9101   5.9701   6.0546
     6.0909   6.1630   6.2473   6.3320   6.3843   6.4022   6.4405   6.4874
     6.5385   6.5492   6.7099   6.9215   7.0809   7.2238   7.5483   7.6113
     7.7318   8.2273   8.4147   8.4914   8.8676   8.9451   9.0665   9.2283
     9.4303   9.6152   9.6779

          k =-0.0506 0.0560 0.0000 ( 34596 PWs)   bands (ev):

   -58.3008 -58.2832 -57.3858 -57.3794 -57.3613 -57.3185 -57.2634 -57.0983
   -57.0698 -57.0577 -57.0323 -56.9264 -56.9175 -56.8998 -56.7979 -56.7780
   -34.6602 -34.5708 -34.5564 -34.4907 -34.4646 -34.4445 -33.7916 -33.7860
   -33.6856 -33.6380 -33.6178 -33.5936 -33.5920 -33.5893 -33.5724 -33.5712
   -33.5482 -33.5353 -33.5337 -33.5000 -33.4958 -33.4695 -33.4470 -33.4198
   -33.3755 -33.3281 -33.3136 -33.3109 -33.2896 -33.2796 -33.2625 -33.2608
   -33.2597 -33.2507 -33.2471 -33.2442 -33.2242 -33.2196 -33.1852 -33.1619
   -33.1226 -33.0785 -33.0777 -33.0544 -33.0425 -33.0252 -33.0125 -32.9865
   -18.1114 -17.8224 -17.7052 -17.6171 -17.6008 -17.5611 -17.3841 -17.3726
   -17.2225 -17.2099 -17.1210 -17.0988 -16.9813 -16.9157 -16.8712 -16.8459
   -16.8273 -16.8113 -16.7652 -16.7395 -16.7245 -16.6311 -16.6004 -16.5101
   -16.4998 -16.4418 -16.4244 -16.4142 -16.2177 -16.1996 -15.8826 -15.6417
   -15.6197 -10.8104  -5.3053  -4.9955  -4.9448  -4.9369  -4.7868  -4.7791
    -4.7202  -4.6432  -4.5303  -4.5103  -4.5044  -4.4217  -4.4072  -4.3844
    -4.3648  -4.3311  -4.3129  -4.2519  -4.2040  -4.1797  -4.1704  -4.1173
    -4.1055  -4.0654  -4.0480  -3.9995  -3.9842  -3.9093  -3.8918  -3.8302
    -3.7827  -3.7092  -3.6729  -3.6160  -3.5953  -3.5590  -3.5075  -3.4383
    -3.4007  -3.3235  -3.2645  -3.2346  -3.1372  -3.1318  -3.0832  -3.0565
    -2.9987  -2.9812  -2.9616  -2.9070  -2.8045  -2.7674  -2.7527  -2.7093
    -2.6331  -2.5905  -2.5495  -2.5056  -2.4818  -2.4178  -2.3930  -2.3732
    -2.3546  -2.2934  -2.1984  -2.1757  -2.1505  -2.1323  -2.1061  -2.0514
    -2.0164  -1.9746  -1.9477  -1.8740  -1.8514  -1.7852  -1.7346  -1.6600
    -1.5694  -1.5524  -1.5416  -1.4994  -1.4457  -1.3884  -1.3563  -1.3095
    -1.2476  -1.1782  -1.0805  -1.0249  -0.9917  -0.9064  -0.8557  -0.8484
    -0.7969  -0.7099  -0.6954  -0.6744  -0.6592  -0.5565  -0.4791   0.2954
     1.3050   1.4947   1.6434   1.6652   1.8498   2.0009   2.0294   2.0645
     2.2405   2.2532   2.3577   2.3736   2.4298   2.4586   2.5453   2.5824
     2.6476   2.6929   2.7267   2.7413   2.8085   2.8395   2.8681   2.9004
     2.9309   2.9480   3.0037   3.0389   3.0695   3.1105   3.1421   3.1878
     3.1928   3.2481   3.2818   3.3218   3.3310   3.3741   3.4136   3.4641
     3.4788   3.5463   3.5754   3.6383   3.6649   3.7425   3.8018   3.8378
     3.8805   3.9575   4.1497   4.5013   4.5935   4.6133   4.7516   4.8191
     4.8857   4.9622   5.0075   5.1837   5.2990   5.3732   5.4088   5.4410
     5.5921   5.6140   5.6651   5.7141   5.8766   5.8939   5.9845   6.0035
     6.0657   6.1058   6.1679   6.2063   6.3145   6.3347   6.4122   6.4209
     6.5387   6.6130   6.7648   6.8057   7.1964   7.3686   7.5139   7.6231
     7.9375   8.0201   8.1049   8.3896   8.6107   8.7212   8.8071   9.0422
     9.1939   9.3292   9.4357

     the Fermi energy is    -0.2942 ev

!    total energy              =   -3021.14966052 Ry
     Harris-Foulkes estimate   =   -3021.14966097 Ry
     estimated scf accuracy    <       0.00000064 Ry

     The total energy is the sum of the following terms:

     one-electron contribution =  -40438.46859528 Ry
     hartree contribution      =   20290.55919825 Ry
     xc contribution           =    -553.21935200 Ry
     ewald contribution        =   17679.99890710 Ry
     smearing contrib. (-TS)   =      -0.01981859 Ry

     total magnetization       =     1.06 Bohr mag/cell
     absolute magnetization    =     1.23 Bohr mag/cell

     convergence has been achieved in  10 iterations

     Forces acting on atoms (Ry/au):


     negative rho (up, down):  1.190E-02 1.197E-02
     atom    1 type  1   force =     0.00018458   -0.00089950   -0.10471293
     atom    2 type  2   force =     0.00014384    0.00068268    0.04002767
     atom    3 type  1   force =     0.00074777   -0.00175372   -0.02054899
     atom    4 type  2   force =    -0.00326839    0.00312204   -0.00324335
     atom    5 type  1   force =     0.00034686    0.00006974    0.00032524
     atom    6 type  2   force =    -0.00013393   -0.00010088    0.00024333
     atom    7 type  1   force =    -0.00016149    0.00002196   -0.00044838
     atom    8 type  2   force =    -0.00011145   -0.00008285   -0.00015040
     atom    9 type  1   force =    -0.00003323    0.00056459   -0.10484619
     atom   10 type  2   force =     0.00034843   -0.00021373    0.03599966
     atom   11 type  1   force =     0.00067922    0.00183719    0.00260577
     atom   12 type  2   force =    -0.00519618   -0.00267018   -0.00520603
     atom   13 type  1   force =     0.00041549    0.00007999   -0.00024998
     atom   14 type  2   force =     0.00013203   -0.00008219   -0.00005247
     atom   15 type  1   force =    -0.00006031   -0.00003372    0.00014147
     atom   16 type  2   force =    -0.00017981    0.00001804   -0.00036854
     atom   17 type  2   force =     0.00000790   -0.00001417    0.06658625
     atom   18 type  1   force =     0.00005681    0.00002959    0.13143283
     atom   19 type  2   force =     0.00017752   -0.00053047   -0.08521458
     atom   20 type  2   force =    -0.05792513    0.00014170   -0.03608968
     atom   21 type  2   force =     0.05781564   -0.00004922   -0.03605207
     atom   22 type  1   force =    -0.00042813    0.00074905    0.08016463
     atom   23 type  2   force =     0.00019964   -0.00005015    0.00003424
     atom   24 type  2   force =     0.00064085    0.00185780   -0.03467241
     atom   25 type  2   force =     0.00413965    0.00332553   -0.00510944
     atom   26 type  1   force =     0.00040714   -0.00004951    0.00011864
     atom   27 type  2   force =    -0.00009971   -0.00012412   -0.00000084
     atom   28 type  2   force =     0.00006192   -0.00019925   -0.00002045
     atom   29 type  2   force =    -0.00000781   -0.00007883    0.00007300
     atom   30 type  1   force =    -0.00032892   -0.00016981    0.00022695
     atom   31 type  2   force =     0.00012810   -0.00007424   -0.00013277
     atom   32 type  2   force =    -0.00013298   -0.00000782    0.00003044
     atom   33 type  2   force =    -0.00016604    0.00004887    0.06632077
     atom   34 type  1   force =     0.00007744   -0.00003399    0.13121204
     atom   35 type  2   force =     0.00018839   -0.00013039   -0.08482397
     atom   36 type  2   force =    -0.05782062    0.00006357   -0.03570364
     atom   37 type  2   force =     0.05798969   -0.00017743   -0.03610218
     atom   38 type  1   force =    -0.00037553   -0.00020565    0.07983486
     atom   39 type  2   force =     0.00007560   -0.00025876   -0.00009158
     atom   40 type  2   force =     0.00048902    0.00123818   -0.03527629
     atom   41 type  2   force =     0.00588729   -0.00243473   -0.00723543
     atom   42 type  1   force =     0.00024195   -0.00007001    0.00004700
     atom   43 type  2   force =    -0.00019637   -0.00009745    0.00000803
     atom   44 type  2   force =     0.00001309   -0.00016069   -0.00003071
     atom   45 type  2   force =    -0.00000503   -0.00016780    0.00005900
     atom   46 type  1   force =    -0.00013621   -0.00008976    0.00019614
     atom   47 type  2   force =    -0.00000112   -0.00015208   -0.00003526
     atom   48 type  2   force =    -0.00017811   -0.00011167    0.00036884
     atom   49 type  2   force =    -0.00067557   -0.00104050   -0.00039379
     atom   50 type  3   force =    -0.00908146    0.00949146   -0.01029103
     atom   51 type  4   force =    -0.00221746   -0.00010364   -0.00160963
     atom   52 type  4   force =     0.00844394   -0.01064418    0.01165511
     atom   53 type  4   force =     0.00038181   -0.00030580    0.00217522
     atom   54 type  4   force =    -0.00150059    0.00002695   -0.00117411

     Total force =     0.343177     Total SCF correction =     0.001680
 !ASE

     Writing output data file calc.save
 
     init_run     :     65.22s CPU     80.07s WALL (       1 calls)
     electrons    :   2803.08s CPU   3247.70s WALL (       1 calls)
     forces       :     48.85s CPU     50.75s WALL (       1 calls)

     Called by init_run:
     wfcinit      :     57.31s CPU     71.27s WALL (       1 calls)
     potinit      :      1.31s CPU      1.55s WALL (       1 calls)

     Called by electrons:
     c_bands      :   2463.67s CPU   2846.31s WALL (      11 calls)
     sum_band     :    294.60s CPU    351.07s WALL (      11 calls)
     v_of_rho     :     11.40s CPU     13.92s WALL (      11 calls)
     newd         :     36.94s CPU     40.20s WALL (      11 calls)
     mix_rho      :      0.40s CPU      0.54s WALL (      11 calls)
     vdW_energy   :      2.50s CPU      2.82s WALL (      12 calls)
     vdW_ffts     :      3.07s CPU      3.83s WALL (      24 calls)
     vdW_v        :      1.13s CPU      1.30s WALL (      12 calls)

     Called by c_bands:
     init_us_2    :      6.82s CPU      7.30s WALL (     960 calls)
     cegterg      :   2422.25s CPU   2802.58s WALL (     440 calls)

     Called by *egterg:
     h_psi        :    943.12s CPU   1235.57s WALL (    2078 calls)
     s_psi        :    164.26s CPU    169.65s WALL (    2078 calls)
     g_psi        :      4.81s CPU      4.99s WALL (    1598 calls)
     cdiaghg      :    770.20s CPU    793.68s WALL (    1998 calls)

     Called by h_psi:
     add_vuspsi   :    165.96s CPU    172.94s WALL (    2078 calls)

     General routines
     calbec       :    242.57s CPU    250.70s WALL (    2558 calls)
     fft          :      6.13s CPU      7.82s WALL (     956 calls)
     ffts         :      0.04s CPU      0.06s WALL (      44 calls)
     fftw         :    515.34s CPU    839.92s WALL (  781032 calls)
     interpolate  :      0.32s CPU      0.53s WALL (      44 calls)
     davcio       :      0.10s CPU      2.34s WALL (      40 calls)
 
     Parallel routines
     fft_scatter  :    251.38s CPU    428.94s WALL (  782032 calls)
 
     PWSCF        : 48m38.31s CPU    56m22.59s WALL

 
   This run was terminated on:  15:52:29  26Feb2018            

=------------------------------------------------------------------------------=
   JOB DONE.
=------------------------------------------------------------------------------=
