  python dir          : /home/vossj/suncat/lib/python2.7/site-packages/espresso
  espresso dir        : /home/vossj/suncat/esdld/espresso-dynpy-beef/bin
  pseudo dir          : /home/alatimer/bin/psp/esp_psp_w_gbrvRu/
  ase-espresso py git : ffa2778-git



     Program PWSCF v.5.1rc2 (svn rev. ) starts on 10Feb2018 at 20:44: 8 

     This program is part of the open-source Quantum ESPRESSO suite
     for quantum simulation of materials; please cite
         "P. Giannozzi et al., J. Phys.:Condens. Matter 21 395502 (2009);
          URL http://www.quantum-espresso.org", 
     in publications or presentations arising from this work. More details at
     http://www.quantum-espresso.org/quote

     Parallel version (MPI), running on    16 processors
     R & G space division:  proc/nbgrp/npool/nimage =      16
     Reading input from pw.inp
     Message from routine read_cards :
     DEPRECATED: no units specified in CELL_PARAMETERS card

     Current dimensions of program PWSCF are:
     Max number of different atomic species (ntypx) = 10
     Max number of k-points (npk) =  40000
     Max angular momentum in pseudopotentials (lmaxx) =  3

     **************************************************************************
     Initializing libbeef V0.1.1 with the BEEF-vdW functional.
     Citation: Wellendorff et al., PRB 85, 235149 (2012).
     **************************************************************************


     IMPORTANT: XC functional enforced from input :
     Exchange-correlation      = BEEF ( 1  4 27 13 2)
     Any further DFT definition will be discarded
     Please, verify this is what you really want


     Subspace diagonalization in iterative solution of the eigenvalue problem:
     a serial algorithm will be used

 
     Parallelization info
     --------------------
     sticks:   dense  smooth     PW     G-vecs:    dense   smooth      PW
     Min         281     112     31                68535    17318    2565
     Max         282     113     32                68545    17369    2582
     Sum        4501    1795    503              1096637   277353   41113
 
     Generating pointlists ...
     new r_m :   0.4125 (alat units)  0.7795 (a.u.) for type    1
     new r_m :   0.4057 (alat units)  0.7667 (a.u.) for type    2
     new r_m :   0.4057 (alat units)  0.7667 (a.u.) for type    3


     bravais-lattice index     =            0
     lattice parameter (alat)  =       1.8897  a.u.
     unit-cell volume          =    7990.9933 (a.u.)^3
     number of atoms/cell      =           50
     number of atomic types    =            3
     number of electrons       =       391.00
     number of Kohn-Sham states=          295
     kinetic-energy cutoff     =      40.4243  Ry
     charge density cutoff     =     404.2426  Ry
     convergence threshold     =      7.3E-07
     mixing beta               =       0.1000
     number of iterations used =           10  plain     mixing
     Exchange-correlation      = BEEF ( 1  4 27 13 2)
     nstep                     =           50


     celldm(1)=   1.889726  celldm(2)=   0.000000  celldm(3)=   0.000000
     celldm(4)=   0.000000  celldm(5)=   0.000000  celldm(6)=   0.000000

     crystal axes: (cart. coord. in units of alat)
               a(1) = (   6.590708   0.000000   0.000000 )  
               a(2) = (   0.000000   5.950229   0.000000 )  
               a(3) = (   0.000000   0.000000  30.195235 )  

     reciprocal axes: (cart. coord. in units 2 pi/alat)
               b(1) = (  0.151729  0.000000  0.000000 )  
               b(2) = (  0.000000  0.168061  0.000000 )  
               b(3) = (  0.000000  0.000000  0.033118 )  


     PseudoPot. # 1 for Ti read from file:
     /home/alatimer/bin/psp/esp_psp_w_gbrvRu/Ti.UPF
     MD5 check sum: 8e4df49b7f0d34bbd5052bf3f5ea0213
     Pseudo is Ultrasoft, Zval = 12.0
     Generated by new atomic code, or converted to UPF format
     Using radial grid of  851 points,  6 beta functions with: 
                l(1) =   0
                l(2) =   0
                l(3) =   1
                l(4) =   1
                l(5) =   2
                l(6) =   2
     Q(r) pseudized with  8 coefficients,  rinner =    1.000   1.000   1.000
                                                       1.000   1.000

     PseudoPot. # 2 for  O read from file:
     /home/alatimer/bin/psp/esp_psp_w_gbrvRu/O.UPF
     MD5 check sum: e057bbcf3229fb5d8c36c0c92f9568b4
     Pseudo is Ultrasoft + core correction, Zval =  6.0
     Generated using "atomic" code by A. Dal Corso  v.5.0.2 svn rev. 9415
     Using radial grid of 1095 points,  4 beta functions with: 
                l(1) =   0
                l(2) =   0
                l(3) =   1
                l(4) =   1
     Q(r) pseudized with 0 coefficients 


     PseudoPot. # 3 for  H read from file:
     /home/alatimer/bin/psp/esp_psp_w_gbrvRu/H.UPF
     MD5 check sum: bd57da0722753ddfd9833a65b40bb853
     Pseudo is Ultrasoft, Zval =  1.0
     Generated using "atomic" code by A. Dal Corso  v.5.0.2 svn rev. 9415
     Using radial grid of  929 points,  2 beta functions with: 
                l(1) =   0
                l(2) =   0
     Q(r) pseudized with 0 coefficients 


     vdW kernel table read from file vdW_kernel_table
     MD5 check sum: 095c7af220d748ca6e76c0b4c6cfb241

     atomic species   valence    mass     pseudopotential
        Ti1           12.00    47.88000     Ti( 1.00)
        O1             6.00    15.99940      O( 1.00)
        H1             1.00     1.00794      H( 1.00)

     Starting magnetic structure 
     atomic species   magnetization
        Ti1          0.250
        O1           0.500
        H1           0.000

      2 Sym. Ops. (no inversion) found ( 1 have fractional translation)



   Cartesian axes

     site n.     atom                  positions (alat units)
         1           Ti1 tau(   1) = (   1.6476770   0.7437786   2.6545865  )
         2           O1  tau(   2) = (   1.6476770   2.2313359   3.9361215  )
         3           Ti1 tau(   3) = (   1.6476770   2.2313359   5.9499405  )
         4           O1  tau(   4) = (   0.3661420   0.7437786   5.9499405  )
         5           Ti1 tau(   5) = (   1.6423058   0.7993178   9.2289010  )
         6           O1  tau(   6) = (   1.6406404   2.2313359  10.4535548  )
         7           Ti1 tau(   7) = (   1.6373334   2.2313359  13.0586656  )
         8           O1  tau(   8) = (   0.3716334   0.7231912  12.7369480  )
         9           Ti1 tau(   9) = (   1.6476770   3.7188931   2.6545865  )
        10           O1  tau(  10) = (   1.6476770   5.2064503   3.9361215  )
        11           Ti1 tau(  11) = (   1.6476770   5.2064503   5.9499405  )
        12           O1  tau(  12) = (   0.3661420   3.7188931   5.9499405  )
        13           Ti1 tau(  13) = (   1.6423059   3.6633529   9.2289023  )
        14           O1  tau(  14) = (   1.6396028   5.2064504  10.5374954  )
        15           Ti1 tau(  15) = (   1.6366369   5.2064504  12.3426698  )
        16           O1  tau(  16) = (   0.3716333   3.7394800  12.7369475  )
        17           O1  tau(  17) = (   1.6476770   2.2313359   1.3730516  )
        18           Ti1 tau(  18) = (   4.9430310   2.2313359   2.6545865  )
        19           O1  tau(  19) = (   4.9430310   2.2313359   4.6684056  )
        20           O1  tau(  20) = (   6.2245660   0.7437786   2.6545865  )
        21           O1  tau(  21) = (   3.6614961   0.7437786   2.6545865  )
        22           Ti1 tau(  22) = (   4.9430310   0.7437786   5.9499405  )
        23           O1  tau(  23) = (   1.6444126   2.2313359   7.9291264  )
        24           O1  tau(  24) = (   4.9430310   2.2313359   7.2314755  )
        25           O1  tau(  25) = (   2.9292120   0.7437786   5.9499405  )
        26           Ti1 tau(  26) = (   4.9374203   2.2313360   9.4425711  )
        27           O1  tau(  27) = (   4.9384755   2.2313359  11.2756104  )
        28           O1  tau(  28) = (   6.2333856   0.7395591   9.2701299  )
        29           O1  tau(  29) = (   3.6424277   0.7403199   9.2676498  )
        30           Ti1 tau(  30) = (   4.9388558   0.7382018  12.7898683  )
        31           O1  tau(  31) = (   4.8884434   2.2313358  13.8602379  )
        32           O1  tau(  32) = (   2.8718067   0.7224686  12.6922084  )
        33           O1  tau(  33) = (   1.6476770   5.2064503   1.3730516  )
        34           Ti1 tau(  34) = (   4.9430310   5.2064503   2.6545865  )
        35           O1  tau(  35) = (   4.9430310   5.2064503   4.6684056  )
        36           O1  tau(  36) = (   6.2245660   3.7188931   2.6545865  )
        37           O1  tau(  37) = (   3.6614961   3.7188931   2.6545865  )
        38           Ti1 tau(  38) = (   4.9430310   3.7188931   5.9499405  )
        39           O1  tau(  39) = (   1.6444418   5.2064506   7.9393866  )
        40           O1  tau(  40) = (   4.9430310   5.2064503   7.2314755  )
        41           O1  tau(  41) = (   2.9292120   3.7188931   5.9499405  )
        42           Ti1 tau(  42) = (   4.9387790   5.2064503   9.4241858  )
        43           O1  tau(  43) = (   4.9379278   5.2064504  11.2756977  )
        44           O1  tau(  44) = (   6.2333855   3.7231127   9.2701299  )
        45           O1  tau(  45) = (   3.6424278   3.7223520   9.2676499  )
        46           Ti1 tau(  46) = (   4.9388558   3.7244696  12.7898683  )
        47           O1  tau(  47) = (   4.8902929   5.2064502  13.8618696  )
        48           O1  tau(  48) = (   2.8718066   3.7402036  12.6922086  )
        49           O1  tau(  49) = (   1.7618258   2.2313358  14.8194317  )
        50           H1  tau(  50) = (   2.6007197   2.2313366  15.3328018  )

     number of k points=    32  Fermi-Dirac smearing, width (Ry)=  0.0073
                       cart. coord. in units 2pi/alat
        k(    1) = (   0.0000000   0.0000000   0.0000000), wk =   0.0277778
        k(    2) = (   0.0000000   0.0280101   0.0000000), wk =   0.0555556
        k(    3) = (   0.0000000   0.0560203   0.0000000), wk =   0.0555556
        k(    4) = (   0.0000000  -0.0840304   0.0000000), wk =   0.0277778
        k(    5) = (   0.0252881   0.0000000   0.0000000), wk =   0.0555556
        k(    6) = (   0.0252881   0.0280101   0.0000000), wk =   0.1111111
        k(    7) = (   0.0252881   0.0560203   0.0000000), wk =   0.1111111
        k(    8) = (   0.0252881  -0.0840304   0.0000000), wk =   0.0555556
        k(    9) = (   0.0505763   0.0000000   0.0000000), wk =   0.0555556
        k(   10) = (   0.0505763   0.0280101   0.0000000), wk =   0.1111111
        k(   11) = (   0.0505763   0.0560203   0.0000000), wk =   0.1111111
        k(   12) = (   0.0505763  -0.0840304   0.0000000), wk =   0.0555556
        k(   13) = (  -0.0758644   0.0000000   0.0000000), wk =   0.0277778
        k(   14) = (  -0.0758644   0.0280101   0.0000000), wk =   0.0555556
        k(   15) = (  -0.0758644   0.0560203   0.0000000), wk =   0.0555556
        k(   16) = (  -0.0758644  -0.0840304   0.0000000), wk =   0.0277778
        k(   17) = (   0.0000000   0.0000000   0.0000000), wk =   0.0277778
        k(   18) = (   0.0000000   0.0280101   0.0000000), wk =   0.0555556
        k(   19) = (   0.0000000   0.0560203   0.0000000), wk =   0.0555556
        k(   20) = (   0.0000000  -0.0840304   0.0000000), wk =   0.0277778
        k(   21) = (   0.0252881   0.0000000   0.0000000), wk =   0.0555556
        k(   22) = (   0.0252881   0.0280101   0.0000000), wk =   0.1111111
        k(   23) = (   0.0252881   0.0560203   0.0000000), wk =   0.1111111
        k(   24) = (   0.0252881  -0.0840304   0.0000000), wk =   0.0555556
        k(   25) = (   0.0505763   0.0000000   0.0000000), wk =   0.0555556
        k(   26) = (   0.0505763   0.0280101   0.0000000), wk =   0.1111111
        k(   27) = (   0.0505763   0.0560203   0.0000000), wk =   0.1111111
        k(   28) = (   0.0505763  -0.0840304   0.0000000), wk =   0.0555556
        k(   29) = (  -0.0758644   0.0000000   0.0000000), wk =   0.0277778
        k(   30) = (  -0.0758644   0.0280101   0.0000000), wk =   0.0555556
        k(   31) = (  -0.0758644   0.0560203   0.0000000), wk =   0.0555556
        k(   32) = (  -0.0758644  -0.0840304   0.0000000), wk =   0.0277778

     Dense  grid:  1096637 G-vectors     FFT dimensions: (  80,  72, 375)

     Smooth grid:   277353 G-vectors     FFT dimensions: (  54,  45, 240)

     Largest allocated arrays     est. size (Mb)     dimensions
        Kohn-Sham Wavefunctions         9.81 Mb     (    2180,  295)
        NL pseudopotentials            18.43 Mb     (    2180,  554)
        Each V/rho on FFT grid          4.22 Mb     (  138240,   2)
        Each G-vector array             0.52 Mb     (   68538)
        G-vector shells                 0.25 Mb     (   33046)
     Largest temporary arrays     est. size (Mb)     dimensions
        Auxiliary wavefunctions        39.25 Mb     (    2180, 1180)
        Each subspace H/S matrix       21.25 Mb     (    1180, 1180)
        Each <psi_i|beta_j> matrix      2.49 Mb     (     554,  295)
        Arrays for rho mixing          21.09 Mb     (  138240,   10)

     Check: negative/imaginary core charge=   -0.000049    0.000000

     The initial density is read from file :
     ./calc.save/charge-density.dat


     negative rho (up, down):  1.350E-02 1.350E-02


     ************************************************************************
     *
     * You are using vdW-DF for exchange-correlation in this calculation.
     * Please cite the following three references that made this development
     * possible:
     *
     *   M. Dion, H. Rydberg, E. Schroder, D. C. Langreth, and
     *   B. I. Lundqvist, Phys. Rev. Lett. 92, 246401 (2004).
     *
     *   T. Thonhauser, V. R. Cooper, S. Li, A. Puzder, P. Hyldgaard, and
     *   D. C. Langreth, Phys. Rev. B 76, 125112 (2007).
     *
     *   G. Roman-Perez and J. M. Soler, Phys. Rev. Lett. 103, 096102 (2009).
     *
     *
     * If you are using vdW-DF2, please also cite:
     *
     *   K. Lee, E. D. Murray, L. Kong, B. I. Lundqvist, and
     *   D. C. Langreth, Phys. Rev. B 82, 081101(R) (2010).
     *
     *
     * If you are calculating the stress with vdW-DF, please also cite:
     *
     *   R. Sabatini, E. Kucukbenli, B. Kolb, T. Thonhauser, and
     *   S. de Gironcoli, J. Phys.: Condens. Matter 24, 424209 (2012).
     *
     ************************************************************************

     Carrying out vdW-DF run using the following parameters:

     Nqs =      20    Nr_points =    1024   r_max =   100.000
     q_mesh =
               0.00001000     0.04494208     0.09755937     0.15916263
               0.23128650     0.31572767     0.41458969     0.53033537
               0.66584808     0.82450364     1.01025438     1.22772762
               1.48234092     1.78043706     2.12944203     2.53805004
               3.01644009     3.57652955     4.23227104     5.00000000

     Gradients computed in reciprocal space

     ************************************************************************


     Starting wfc are  293 randomized atomic wfcs +    2 random wfc

     total cpu time spent up to now is       58.8 secs

     Self-consistent Calculation

     iteration #  1     ecut=    40.42 Ry     beta=0.10
     Davidson diagonalization with overlap
     ethr =  1.00E-05,  avg # of iterations = 16.9

     negative rho (up, down):  1.352E-02 1.352E-02
 
     Magnetic moment per site:
     atom:    1    charge:    3.1243    magn:   -0.0002    constr:    0.0000
     atom:    2    charge:    2.0131    magn:    0.0002    constr:    0.0000
     atom:    3    charge:    3.1200    magn:    0.0000    constr:    0.0000
     atom:    4    charge:    2.0159    magn:   -0.0000    constr:    0.0000
     atom:    5    charge:    3.1144    magn:    0.0001    constr:    0.0000
     atom:    6    charge:    2.0069    magn:   -0.0002    constr:    0.0000
     atom:    7    charge:    3.1238    magn:    0.0000    constr:    0.0000
     atom:    8    charge:    2.0099    magn:   -0.0001    constr:    0.0000
     atom:    9    charge:    3.1243    magn:   -0.0002    constr:    0.0000
     atom:   10    charge:    2.0132    magn:    0.0002    constr:    0.0000
     atom:   11    charge:    3.1198    magn:    0.0000    constr:    0.0000
     atom:   12    charge:    2.0159    magn:   -0.0000    constr:    0.0000
     atom:   13    charge:    3.1144    magn:    0.0001    constr:    0.0000
     atom:   14    charge:    2.0214    magn:   -0.0000    constr:    0.0000
     atom:   15    charge:    3.1164    magn:    0.0000    constr:    0.0000
     atom:   16    charge:    2.0099    magn:   -0.0001    constr:    0.0000
     atom:   17    charge:    1.9831    magn:    0.0011    constr:    0.0000
     atom:   18    charge:    3.1237    magn:    0.0000    constr:    0.0000
     atom:   19    charge:    2.0102    magn:    0.0000    constr:    0.0000
     atom:   20    charge:    2.0133    magn:    0.0000    constr:    0.0000
     atom:   21    charge:    2.0133    magn:    0.0000    constr:    0.0000
     atom:   22    charge:    3.1199    magn:    0.0000    constr:    0.0000
     atom:   23    charge:    2.0203    magn:   -0.0001    constr:    0.0000
     atom:   24    charge:    2.0021    magn:   -0.0002    constr:    0.0000
     atom:   25    charge:    2.0159    magn:   -0.0000    constr:    0.0000
     atom:   26    charge:    3.1143    magn:    0.0001    constr:    0.0000
     atom:   27    charge:    2.0088    magn:   -0.0003    constr:    0.0000
     atom:   28    charge:    2.0143    magn:   -0.0002    constr:    0.0000
     atom:   29    charge:    2.0124    magn:   -0.0002    constr:    0.0000
     atom:   30    charge:    3.1196    magn:    0.0000    constr:    0.0000
     atom:   31    charge:    2.0107    magn:   -0.0000    constr:    0.0000
     atom:   32    charge:    2.0108    magn:   -0.0001    constr:    0.0000
     atom:   33    charge:    1.9831    magn:    0.0011    constr:    0.0000
     atom:   34    charge:    3.1237    magn:    0.0000    constr:    0.0000
     atom:   35    charge:    2.0102    magn:    0.0000    constr:    0.0000
     atom:   36    charge:    2.0133    magn:    0.0000    constr:    0.0000
     atom:   37    charge:    2.0133    magn:    0.0000    constr:    0.0000
     atom:   38    charge:    3.1199    magn:    0.0000    constr:    0.0000
     atom:   39    charge:    2.0105    magn:   -0.0001    constr:    0.0000
     atom:   40    charge:    2.0025    magn:   -0.0002    constr:    0.0000
     atom:   41    charge:    2.0159    magn:   -0.0000    constr:    0.0000
     atom:   42    charge:    3.1217    magn:    0.0001    constr:    0.0000
     atom:   43    charge:    2.0084    magn:   -0.0002    constr:    0.0000
     atom:   44    charge:    2.0143    magn:   -0.0002    constr:    0.0000
     atom:   45    charge:    2.0124    magn:   -0.0002    constr:    0.0000
     atom:   46    charge:    3.1196    magn:    0.0000    constr:    0.0000
     atom:   47    charge:    2.0100    magn:   -0.0001    constr:    0.0000
     atom:   48    charge:    2.0108    magn:   -0.0001    constr:    0.0000
     atom:   49    charge:    2.0140    magn:    0.0000    constr:    0.0000
     atom:   50    charge:    0.4055    magn:   -0.0000    constr:    0.0000

     total cpu time spent up to now is      786.8 secs

     total energy              =   -3005.53642833 Ry
     Harris-Foulkes estimate   =   -3005.58780899 Ry
     estimated scf accuracy    <       0.29708914 Ry

     total magnetization       =     0.01 Bohr mag/cell
     absolute magnetization    =     0.01 Bohr mag/cell

     iteration #  2     ecut=    40.42 Ry     beta=0.10
     Davidson diagonalization with overlap
     ethr =  7.60E-05,  avg # of iterations =  4.3

     negative rho (up, down):  1.352E-02 1.352E-02
 
     Magnetic moment per site:
     atom:    1    charge:    3.1243    magn:   -0.0002    constr:    0.0000
     atom:    2    charge:    2.0137    magn:    0.0002    constr:    0.0000
     atom:    3    charge:    3.1200    magn:    0.0000    constr:    0.0000
     atom:    4    charge:    2.0161    magn:   -0.0000    constr:    0.0000
     atom:    5    charge:    3.1144    magn:    0.0001    constr:    0.0000
     atom:    6    charge:    2.0059    magn:   -0.0002    constr:    0.0000
     atom:    7    charge:    3.1243    magn:    0.0000    constr:    0.0000
     atom:    8    charge:    2.0095    magn:   -0.0001    constr:    0.0000
     atom:    9    charge:    3.1243    magn:   -0.0002    constr:    0.0000
     atom:   10    charge:    2.0138    magn:    0.0002    constr:    0.0000
     atom:   11    charge:    3.1198    magn:    0.0000    constr:    0.0000
     atom:   12    charge:    2.0161    magn:   -0.0000    constr:    0.0000
     atom:   13    charge:    3.1144    magn:    0.0001    constr:    0.0000
     atom:   14    charge:    2.0210    magn:   -0.0000    constr:    0.0000
     atom:   15    charge:    3.1164    magn:    0.0000    constr:    0.0000
     atom:   16    charge:    2.0095    magn:   -0.0001    constr:    0.0000
     atom:   17    charge:    1.9859    magn:    0.0011    constr:    0.0000
     atom:   18    charge:    3.1240    magn:    0.0000    constr:    0.0000
     atom:   19    charge:    2.0102    magn:    0.0000    constr:    0.0000
     atom:   20    charge:    2.0134    magn:    0.0000    constr:    0.0000
     atom:   21    charge:    2.0134    magn:    0.0000    constr:    0.0000
     atom:   22    charge:    3.1200    magn:    0.0000    constr:    0.0000
     atom:   23    charge:    2.0202    magn:   -0.0001    constr:    0.0000
     atom:   24    charge:    2.0016    magn:   -0.0002    constr:    0.0000
     atom:   25    charge:    2.0161    magn:   -0.0000    constr:    0.0000
     atom:   26    charge:    3.1144    magn:    0.0001    constr:    0.0000
     atom:   27    charge:    2.0076    magn:   -0.0003    constr:    0.0000
     atom:   28    charge:    2.0137    magn:   -0.0002    constr:    0.0000
     atom:   29    charge:    2.0118    magn:   -0.0002    constr:    0.0000
     atom:   30    charge:    3.1195    magn:    0.0000    constr:    0.0000
     atom:   31    charge:    2.0107    magn:   -0.0000    constr:    0.0000
     atom:   32    charge:    2.0105    magn:   -0.0001    constr:    0.0000
     atom:   33    charge:    1.9859    magn:    0.0011    constr:    0.0000
     atom:   34    charge:    3.1240    magn:    0.0000    constr:    0.0000
     atom:   35    charge:    2.0102    magn:    0.0000    constr:    0.0000
     atom:   36    charge:    2.0134    magn:    0.0000    constr:    0.0000
     atom:   37    charge:    2.0134    magn:    0.0000    constr:    0.0000
     atom:   38    charge:    3.1200    magn:    0.0000    constr:    0.0000
     atom:   39    charge:    2.0104    magn:   -0.0001    constr:    0.0000
     atom:   40    charge:    2.0021    magn:   -0.0002    constr:    0.0000
     atom:   41    charge:    2.0161    magn:   -0.0000    constr:    0.0000
     atom:   42    charge:    3.1218    magn:    0.0001    constr:    0.0000
     atom:   43    charge:    2.0073    magn:   -0.0002    constr:    0.0000
     atom:   44    charge:    2.0137    magn:   -0.0002    constr:    0.0000
     atom:   45    charge:    2.0118    magn:   -0.0002    constr:    0.0000
     atom:   46    charge:    3.1195    magn:    0.0000    constr:    0.0000
     atom:   47    charge:    2.0099    magn:   -0.0001    constr:    0.0000
     atom:   48    charge:    2.0105    magn:   -0.0001    constr:    0.0000
     atom:   49    charge:    2.0142    magn:    0.0000    constr:    0.0000
     atom:   50    charge:    0.4040    magn:   -0.0000    constr:    0.0000

     total cpu time spent up to now is      986.2 secs

     total energy              =   -3005.54784269 Ry
     Harris-Foulkes estimate   =   -3005.57209370 Ry
     estimated scf accuracy    <       0.24736327 Ry

     total magnetization       =    -0.00 Bohr mag/cell
     absolute magnetization    =     0.01 Bohr mag/cell

     iteration #  3     ecut=    40.42 Ry     beta=0.10
     Davidson diagonalization with overlap
     ethr =  6.33E-05,  avg # of iterations =  4.1

     negative rho (up, down):  1.353E-02 1.353E-02
 
     Magnetic moment per site:
     atom:    1    charge:    3.1244    magn:   -0.0002    constr:    0.0000
     atom:    2    charge:    2.0138    magn:    0.0002    constr:    0.0000
     atom:    3    charge:    3.1200    magn:    0.0000    constr:    0.0000
     atom:    4    charge:    2.0157    magn:   -0.0000    constr:    0.0000
     atom:    5    charge:    3.1144    magn:    0.0001    constr:    0.0000
     atom:    6    charge:    2.0057    magn:   -0.0002    constr:    0.0000
     atom:    7    charge:    3.1245    magn:    0.0000    constr:    0.0000
     atom:    8    charge:    2.0099    magn:   -0.0001    constr:    0.0000
     atom:    9    charge:    3.1244    magn:   -0.0002    constr:    0.0000
     atom:   10    charge:    2.0139    magn:    0.0002    constr:    0.0000
     atom:   11    charge:    3.1198    magn:    0.0000    constr:    0.0000
     atom:   12    charge:    2.0157    magn:   -0.0000    constr:    0.0000
     atom:   13    charge:    3.1144    magn:    0.0001    constr:    0.0000
     atom:   14    charge:    2.0209    magn:   -0.0000    constr:    0.0000
     atom:   15    charge:    3.1165    magn:    0.0000    constr:    0.0000
     atom:   16    charge:    2.0099    magn:   -0.0001    constr:    0.0000
     atom:   17    charge:    1.9879    magn:    0.0010    constr:    0.0000
     atom:   18    charge:    3.1240    magn:    0.0000    constr:    0.0000
     atom:   19    charge:    2.0101    magn:    0.0000    constr:    0.0000
     atom:   20    charge:    2.0136    magn:    0.0000    constr:    0.0000
     atom:   21    charge:    2.0136    magn:    0.0000    constr:    0.0000
     atom:   22    charge:    3.1199    magn:    0.0000    constr:    0.0000
     atom:   23    charge:    2.0198    magn:   -0.0001    constr:    0.0000
     atom:   24    charge:    2.0010    magn:   -0.0002    constr:    0.0000
     atom:   25    charge:    2.0157    magn:   -0.0000    constr:    0.0000
     atom:   26    charge:    3.1143    magn:    0.0001    constr:    0.0000
     atom:   27    charge:    2.0076    magn:   -0.0002    constr:    0.0000
     atom:   28    charge:    2.0133    magn:   -0.0002    constr:    0.0000
     atom:   29    charge:    2.0114    magn:   -0.0002    constr:    0.0000
     atom:   30    charge:    3.1194    magn:    0.0000    constr:    0.0000
     atom:   31    charge:    2.0110    magn:   -0.0000    constr:    0.0000
     atom:   32    charge:    2.0109    magn:   -0.0001    constr:    0.0000
     atom:   33    charge:    1.9879    magn:    0.0010    constr:    0.0000
     atom:   34    charge:    3.1240    magn:    0.0000    constr:    0.0000
     atom:   35    charge:    2.0101    magn:    0.0000    constr:    0.0000
     atom:   36    charge:    2.0136    magn:    0.0000    constr:    0.0000
     atom:   37    charge:    2.0136    magn:    0.0000    constr:    0.0000
     atom:   38    charge:    3.1199    magn:    0.0000    constr:    0.0000
     atom:   39    charge:    2.0097    magn:   -0.0001    constr:    0.0000
     atom:   40    charge:    2.0014    magn:   -0.0002    constr:    0.0000
     atom:   41    charge:    2.0157    magn:   -0.0000    constr:    0.0000
     atom:   42    charge:    3.1216    magn:    0.0001    constr:    0.0000
     atom:   43    charge:    2.0076    magn:   -0.0002    constr:    0.0000
     atom:   44    charge:    2.0133    magn:   -0.0002    constr:    0.0000
     atom:   45    charge:    2.0114    magn:   -0.0002    constr:    0.0000
     atom:   46    charge:    3.1194    magn:    0.0000    constr:    0.0000
     atom:   47    charge:    2.0105    magn:   -0.0001    constr:    0.0000
     atom:   48    charge:    2.0109    magn:   -0.0001    constr:    0.0000
     atom:   49    charge:    2.0158    magn:    0.0000    constr:    0.0000
     atom:   50    charge:    0.4001    magn:   -0.0000    constr:    0.0000

     total cpu time spent up to now is     1180.4 secs

     total energy              =   -3005.53930142 Ry
     Harris-Foulkes estimate   =   -3005.55410782 Ry
     estimated scf accuracy    <       0.06335571 Ry

     total magnetization       =     0.00 Bohr mag/cell
     absolute magnetization    =     0.01 Bohr mag/cell

     iteration #  4     ecut=    40.42 Ry     beta=0.10
     Davidson diagonalization with overlap
     c_bands:  2 eigenvalues not converged
     ethr =  1.62E-05,  avg # of iterations =  6.0

     negative rho (up, down):  1.354E-02 1.354E-02
 
     Magnetic moment per site:
     atom:    1    charge:    3.1244    magn:   -0.0002    constr:    0.0000
     atom:    2    charge:    2.0138    magn:    0.0002    constr:    0.0000
     atom:    3    charge:    3.1200    magn:    0.0000    constr:    0.0000
     atom:    4    charge:    2.0159    magn:   -0.0000    constr:    0.0000
     atom:    5    charge:    3.1144    magn:    0.0001    constr:    0.0000
     atom:    6    charge:    2.0054    magn:   -0.0002    constr:    0.0000
     atom:    7    charge:    3.1237    magn:    0.0000    constr:    0.0000
     atom:    8    charge:    2.0099    magn:   -0.0001    constr:    0.0000
     atom:    9    charge:    3.1244    magn:   -0.0002    constr:    0.0000
     atom:   10    charge:    2.0139    magn:    0.0002    constr:    0.0000
     atom:   11    charge:    3.1198    magn:    0.0000    constr:    0.0000
     atom:   12    charge:    2.0159    magn:   -0.0000    constr:    0.0000
     atom:   13    charge:    3.1144    magn:    0.0001    constr:    0.0000
     atom:   14    charge:    2.0210    magn:   -0.0000    constr:    0.0000
     atom:   15    charge:    3.1166    magn:    0.0000    constr:    0.0000
     atom:   16    charge:    2.0099    magn:   -0.0001    constr:    0.0000
     atom:   17    charge:    1.9867    magn:    0.0010    constr:    0.0000
     atom:   18    charge:    3.1240    magn:    0.0000    constr:    0.0000
     atom:   19    charge:    2.0102    magn:    0.0000    constr:    0.0000
     atom:   20    charge:    2.0135    magn:    0.0000    constr:    0.0000
     atom:   21    charge:    2.0135    magn:    0.0000    constr:    0.0000
     atom:   22    charge:    3.1199    magn:    0.0000    constr:    0.0000
     atom:   23    charge:    2.0201    magn:   -0.0001    constr:    0.0000
     atom:   24    charge:    2.0014    magn:   -0.0002    constr:    0.0000
     atom:   25    charge:    2.0159    magn:   -0.0000    constr:    0.0000
     atom:   26    charge:    3.1143    magn:    0.0001    constr:    0.0000
     atom:   27    charge:    2.0074    magn:   -0.0002    constr:    0.0000
     atom:   28    charge:    2.0135    magn:   -0.0002    constr:    0.0000
     atom:   29    charge:    2.0116    magn:   -0.0002    constr:    0.0000
     atom:   30    charge:    3.1193    magn:    0.0000    constr:    0.0000
     atom:   31    charge:    2.0111    magn:   -0.0000    constr:    0.0000
     atom:   32    charge:    2.0110    magn:   -0.0001    constr:    0.0000
     atom:   33    charge:    1.9867    magn:    0.0010    constr:    0.0000
     atom:   34    charge:    3.1239    magn:    0.0000    constr:    0.0000
     atom:   35    charge:    2.0102    magn:    0.0000    constr:    0.0000
     atom:   36    charge:    2.0135    magn:    0.0000    constr:    0.0000
     atom:   37    charge:    2.0135    magn:    0.0000    constr:    0.0000
     atom:   38    charge:    3.1199    magn:    0.0000    constr:    0.0000
     atom:   39    charge:    2.0102    magn:   -0.0001    constr:    0.0000
     atom:   40    charge:    2.0018    magn:   -0.0002    constr:    0.0000
     atom:   41    charge:    2.0159    magn:   -0.0000    constr:    0.0000
     atom:   42    charge:    3.1217    magn:    0.0001    constr:    0.0000
     atom:   43    charge:    2.0074    magn:   -0.0002    constr:    0.0000
     atom:   44    charge:    2.0135    magn:   -0.0002    constr:    0.0000
     atom:   45    charge:    2.0116    magn:   -0.0002    constr:    0.0000
     atom:   46    charge:    3.1193    magn:    0.0000    constr:    0.0000
     atom:   47    charge:    2.0107    magn:   -0.0001    constr:    0.0000
     atom:   48    charge:    2.0110    magn:   -0.0001    constr:    0.0000
     atom:   49    charge:    2.0175    magn:    0.0000    constr:    0.0000
     atom:   50    charge:    0.3978    magn:   -0.0000    constr:    0.0000

     total cpu time spent up to now is     1403.7 secs

     total energy              =   -3005.53414778 Ry
     Harris-Foulkes estimate   =   -3005.54335926 Ry
     estimated scf accuracy    <       0.08033271 Ry

     total magnetization       =     0.00 Bohr mag/cell
     absolute magnetization    =     0.01 Bohr mag/cell

     iteration #  5     ecut=    40.42 Ry     beta=0.10
     Davidson diagonalization with overlap
     ethr =  1.62E-05,  avg # of iterations =  2.2

     negative rho (up, down):  1.356E-02 1.356E-02
 
     Magnetic moment per site:
     atom:    1    charge:    3.1246    magn:   -0.0002    constr:    0.0000
     atom:    2    charge:    2.0138    magn:    0.0002    constr:    0.0000
     atom:    3    charge:    3.1200    magn:    0.0000    constr:    0.0000
     atom:    4    charge:    2.0158    magn:   -0.0000    constr:    0.0000
     atom:    5    charge:    3.1144    magn:    0.0000    constr:    0.0000
     atom:    6    charge:    2.0053    magn:   -0.0001    constr:    0.0000
     atom:    7    charge:    3.1174    magn:    0.0000    constr:    0.0000
     atom:    8    charge:    2.0103    magn:   -0.0000    constr:    0.0000
     atom:    9    charge:    3.1246    magn:   -0.0002    constr:    0.0000
     atom:   10    charge:    2.0140    magn:    0.0002    constr:    0.0000
     atom:   11    charge:    3.1198    magn:    0.0000    constr:    0.0000
     atom:   12    charge:    2.0158    magn:   -0.0000    constr:    0.0000
     atom:   13    charge:    3.1144    magn:    0.0000    constr:    0.0000
     atom:   14    charge:    2.0211    magn:   -0.0000    constr:    0.0000
     atom:   15    charge:    3.1169    magn:    0.0000    constr:    0.0000
     atom:   16    charge:    2.0103    magn:   -0.0000    constr:    0.0000
     atom:   17    charge:    1.9875    magn:    0.0009    constr:    0.0000
     atom:   18    charge:    3.1239    magn:    0.0000    constr:    0.0000
     atom:   19    charge:    2.0102    magn:    0.0000    constr:    0.0000
     atom:   20    charge:    2.0135    magn:    0.0000    constr:    0.0000
     atom:   21    charge:    2.0135    magn:    0.0000    constr:    0.0000
     atom:   22    charge:    3.1198    magn:    0.0000    constr:    0.0000
     atom:   23    charge:    2.0202    magn:   -0.0001    constr:    0.0000
     atom:   24    charge:    2.0017    magn:   -0.0001    constr:    0.0000
     atom:   25    charge:    2.0158    magn:   -0.0000    constr:    0.0000
     atom:   26    charge:    3.1143    magn:    0.0001    constr:    0.0000
     atom:   27    charge:    2.0072    magn:   -0.0002    constr:    0.0000
     atom:   28    charge:    2.0135    magn:   -0.0002    constr:    0.0000
     atom:   29    charge:    2.0116    magn:   -0.0002    constr:    0.0000
     atom:   30    charge:    3.1192    magn:    0.0000    constr:    0.0000
     atom:   31    charge:    2.0118    magn:   -0.0000    constr:    0.0000
     atom:   32    charge:    2.0112    magn:   -0.0000    constr:    0.0000
     atom:   33    charge:    1.9875    magn:    0.0009    constr:    0.0000
     atom:   34    charge:    3.1239    magn:    0.0000    constr:    0.0000
     atom:   35    charge:    2.0102    magn:    0.0000    constr:    0.0000
     atom:   36    charge:    2.0135    magn:    0.0000    constr:    0.0000
     atom:   37    charge:    2.0135    magn:    0.0000    constr:    0.0000
     atom:   38    charge:    3.1198    magn:    0.0000    constr:    0.0000
     atom:   39    charge:    2.0102    magn:   -0.0001    constr:    0.0000
     atom:   40    charge:    2.0021    magn:   -0.0001    constr:    0.0000
     atom:   41    charge:    2.0158    magn:   -0.0000    constr:    0.0000
     atom:   42    charge:    3.1217    magn:    0.0001    constr:    0.0000
     atom:   43    charge:    2.0073    magn:   -0.0002    constr:    0.0000
     atom:   44    charge:    2.0135    magn:   -0.0002    constr:    0.0000
     atom:   45    charge:    2.0116    magn:   -0.0002    constr:    0.0000
     atom:   46    charge:    3.1192    magn:    0.0000    constr:    0.0000
     atom:   47    charge:    2.0118    magn:   -0.0001    constr:    0.0000
     atom:   48    charge:    2.0112    magn:   -0.0000    constr:    0.0000
     atom:   49    charge:    2.0251    magn:    0.0000    constr:    0.0000
     atom:   50    charge:    0.3913    magn:   -0.0000    constr:    0.0000

     total cpu time spent up to now is     1571.8 secs

     total energy              =   -3005.52577007 Ry
     Harris-Foulkes estimate   =   -3005.53675757 Ry
     estimated scf accuracy    <       0.02047314 Ry

     total magnetization       =     0.00 Bohr mag/cell
     absolute magnetization    =     0.01 Bohr mag/cell

     iteration #  6     ecut=    40.42 Ry     beta=0.10
     Davidson diagonalization with overlap
     ethr =  5.24E-06,  avg # of iterations =  6.9

     negative rho (up, down):  1.356E-02 1.356E-02
 
     Magnetic moment per site:
     atom:    1    charge:    3.1245    magn:   -0.0002    constr:    0.0000
     atom:    2    charge:    2.0136    magn:    0.0002    constr:    0.0000
     atom:    3    charge:    3.1200    magn:    0.0000    constr:    0.0000
     atom:    4    charge:    2.0159    magn:   -0.0000    constr:    0.0000
     atom:    5    charge:    3.1144    magn:    0.0000    constr:    0.0000
     atom:    6    charge:    2.0059    magn:   -0.0001    constr:    0.0000
     atom:    7    charge:    3.1159    magn:    0.0000    constr:    0.0000
     atom:    8    charge:    2.0102    magn:   -0.0000    constr:    0.0000
     atom:    9    charge:    3.1245    magn:   -0.0002    constr:    0.0000
     atom:   10    charge:    2.0137    magn:    0.0002    constr:    0.0000
     atom:   11    charge:    3.1198    magn:    0.0000    constr:    0.0000
     atom:   12    charge:    2.0159    magn:   -0.0000    constr:    0.0000
     atom:   13    charge:    3.1144    magn:    0.0000    constr:    0.0000
     atom:   14    charge:    2.0212    magn:   -0.0000    constr:    0.0000
     atom:   15    charge:    3.1168    magn:    0.0000    constr:    0.0000
     atom:   16    charge:    2.0102    magn:   -0.0000    constr:    0.0000
     atom:   17    charge:    1.9863    magn:    0.0008    constr:    0.0000
     atom:   18    charge:    3.1240    magn:    0.0000    constr:    0.0000
     atom:   19    charge:    2.0102    magn:    0.0000    constr:    0.0000
     atom:   20    charge:    2.0134    magn:    0.0000    constr:    0.0000
     atom:   21    charge:    2.0134    magn:    0.0000    constr:    0.0000
     atom:   22    charge:    3.1199    magn:    0.0000    constr:    0.0000
     atom:   23    charge:    2.0203    magn:   -0.0001    constr:    0.0000
     atom:   24    charge:    2.0018    magn:   -0.0001    constr:    0.0000
     atom:   25    charge:    2.0159    magn:   -0.0000    constr:    0.0000
     atom:   26    charge:    3.1143    magn:    0.0001    constr:    0.0000
     atom:   27    charge:    2.0075    magn:   -0.0002    constr:    0.0000
     atom:   28    charge:    2.0137    magn:   -0.0002    constr:    0.0000
     atom:   29    charge:    2.0119    magn:   -0.0002    constr:    0.0000
     atom:   30    charge:    3.1192    magn:    0.0000    constr:    0.0000
     atom:   31    charge:    2.0120    magn:   -0.0000    constr:    0.0000
     atom:   32    charge:    2.0111    magn:   -0.0000    constr:    0.0000
     atom:   33    charge:    1.9863    magn:    0.0009    constr:    0.0000
     atom:   34    charge:    3.1240    magn:    0.0000    constr:    0.0000
     atom:   35    charge:    2.0102    magn:    0.0000    constr:    0.0000
     atom:   36    charge:    2.0134    magn:    0.0000    constr:    0.0000
     atom:   37    charge:    2.0134    magn:    0.0000    constr:    0.0000
     atom:   38    charge:    3.1199    magn:    0.0000    constr:    0.0000
     atom:   39    charge:    2.0104    magn:   -0.0001    constr:    0.0000
     atom:   40    charge:    2.0022    magn:   -0.0001    constr:    0.0000
     atom:   41    charge:    2.0159    magn:   -0.0000    constr:    0.0000
     atom:   42    charge:    3.1217    magn:    0.0001    constr:    0.0000
     atom:   43    charge:    2.0074    magn:   -0.0002    constr:    0.0000
     atom:   44    charge:    2.0137    magn:   -0.0002    constr:    0.0000
     atom:   45    charge:    2.0119    magn:   -0.0002    constr:    0.0000
     atom:   46    charge:    3.1192    magn:    0.0000    constr:    0.0000
     atom:   47    charge:    2.0118    magn:   -0.0001    constr:    0.0000
     atom:   48    charge:    2.0111    magn:   -0.0000    constr:    0.0000
     atom:   49    charge:    2.0258    magn:    0.0000    constr:    0.0000
     atom:   50    charge:    0.3914    magn:   -0.0000    constr:    0.0000

     total cpu time spent up to now is     1825.4 secs

     total energy              =   -3005.52693381 Ry
     Harris-Foulkes estimate   =   -3005.52962741 Ry
     estimated scf accuracy    <       0.02782710 Ry

     total magnetization       =     0.00 Bohr mag/cell
     absolute magnetization    =     0.01 Bohr mag/cell

     iteration #  7     ecut=    40.42 Ry     beta=0.10
     Davidson diagonalization with overlap
     ethr =  5.24E-06,  avg # of iterations =  4.9

     negative rho (up, down):  1.355E-02 1.355E-02
 
     Magnetic moment per site:
     atom:    1    charge:    3.1244    magn:   -0.0001    constr:    0.0000
     atom:    2    charge:    2.0137    magn:    0.0002    constr:    0.0000
     atom:    3    charge:    3.1200    magn:    0.0000    constr:    0.0000
     atom:    4    charge:    2.0158    magn:   -0.0000    constr:    0.0000
     atom:    5    charge:    3.1144    magn:    0.0000    constr:    0.0000
     atom:    6    charge:    2.0062    magn:   -0.0001    constr:    0.0000
     atom:    7    charge:    3.1155    magn:    0.0000    constr:    0.0000
     atom:    8    charge:    2.0100    magn:   -0.0000    constr:    0.0000
     atom:    9    charge:    3.1244    magn:   -0.0001    constr:    0.0000
     atom:   10    charge:    2.0138    magn:    0.0002    constr:    0.0000
     atom:   11    charge:    3.1198    magn:    0.0000    constr:    0.0000
     atom:   12    charge:    2.0158    magn:   -0.0000    constr:    0.0000
     atom:   13    charge:    3.1144    magn:    0.0000    constr:    0.0000
     atom:   14    charge:    2.0212    magn:   -0.0000    constr:    0.0000
     atom:   15    charge:    3.1167    magn:    0.0000    constr:    0.0000
     atom:   16    charge:    2.0100    magn:   -0.0000    constr:    0.0000
     atom:   17    charge:    1.9868    magn:    0.0008    constr:    0.0000
     atom:   18    charge:    3.1240    magn:    0.0000    constr:    0.0000
     atom:   19    charge:    2.0102    magn:    0.0000    constr:    0.0000
     atom:   20    charge:    2.0135    magn:    0.0000    constr:    0.0000
     atom:   21    charge:    2.0135    magn:    0.0000    constr:    0.0000
     atom:   22    charge:    3.1199    magn:    0.0000    constr:    0.0000
     atom:   23    charge:    2.0201    magn:   -0.0000    constr:    0.0000
     atom:   24    charge:    2.0015    magn:   -0.0001    constr:    0.0000
     atom:   25    charge:    2.0158    magn:   -0.0000    constr:    0.0000
     atom:   26    charge:    3.1143    magn:    0.0001    constr:    0.0000
     atom:   27    charge:    2.0077    magn:   -0.0002    constr:    0.0000
     atom:   28    charge:    2.0136    magn:   -0.0001    constr:    0.0000
     atom:   29    charge:    2.0117    magn:   -0.0001    constr:    0.0000
     atom:   30    charge:    3.1193    magn:    0.0000    constr:    0.0000
     atom:   31    charge:    2.0120    magn:   -0.0000    constr:    0.0000
     atom:   32    charge:    2.0108    magn:   -0.0000    constr:    0.0000
     atom:   33    charge:    1.9867    magn:    0.0008    constr:    0.0000
     atom:   34    charge:    3.1240    magn:    0.0000    constr:    0.0000
     atom:   35    charge:    2.0102    magn:    0.0000    constr:    0.0000
     atom:   36    charge:    2.0135    magn:    0.0000    constr:    0.0000
     atom:   37    charge:    2.0135    magn:    0.0000    constr:    0.0000
     atom:   38    charge:    3.1199    magn:    0.0000    constr:    0.0000
     atom:   39    charge:    2.0101    magn:   -0.0001    constr:    0.0000
     atom:   40    charge:    2.0019    magn:   -0.0001    constr:    0.0000
     atom:   41    charge:    2.0158    magn:   -0.0000    constr:    0.0000
     atom:   42    charge:    3.1217    magn:    0.0001    constr:    0.0000
     atom:   43    charge:    2.0075    magn:   -0.0002    constr:    0.0000
     atom:   44    charge:    2.0136    magn:   -0.0001    constr:    0.0000
     atom:   45    charge:    2.0117    magn:   -0.0001    constr:    0.0000
     atom:   46    charge:    3.1193    magn:    0.0000    constr:    0.0000
     atom:   47    charge:    2.0116    magn:   -0.0000    constr:    0.0000
     atom:   48    charge:    2.0108    magn:   -0.0000    constr:    0.0000
     atom:   49    charge:    2.0255    magn:    0.0000    constr:    0.0000
     atom:   50    charge:    0.3918    magn:   -0.0000    constr:    0.0000

     total cpu time spent up to now is     2031.7 secs

     total energy              =   -3005.52815659 Ry
     Harris-Foulkes estimate   =   -3005.52911285 Ry
     estimated scf accuracy    <       0.01207763 Ry

     total magnetization       =     0.00 Bohr mag/cell
     absolute magnetization    =     0.01 Bohr mag/cell

     iteration #  8     ecut=    40.42 Ry     beta=0.10
     Davidson diagonalization with overlap
     ethr =  3.09E-06,  avg # of iterations =  1.6

     negative rho (up, down):  1.354E-02 1.354E-02
 
     Magnetic moment per site:
     atom:    1    charge:    3.1244    magn:   -0.0001    constr:    0.0000
     atom:    2    charge:    2.0137    magn:    0.0001    constr:    0.0000
     atom:    3    charge:    3.1200    magn:   -0.0000    constr:    0.0000
     atom:    4    charge:    2.0158    magn:   -0.0000    constr:    0.0000
     atom:    5    charge:    3.1144    magn:    0.0000    constr:    0.0000
     atom:    6    charge:    2.0062    magn:   -0.0001    constr:    0.0000
     atom:    7    charge:    3.1157    magn:    0.0000    constr:    0.0000
     atom:    8    charge:    2.0098    magn:   -0.0000    constr:    0.0000
     atom:    9    charge:    3.1244    magn:   -0.0001    constr:    0.0000
     atom:   10    charge:    2.0138    magn:    0.0002    constr:    0.0000
     atom:   11    charge:    3.1198    magn:    0.0000    constr:    0.0000
     atom:   12    charge:    2.0158    magn:   -0.0000    constr:    0.0000
     atom:   13    charge:    3.1144    magn:    0.0000    constr:    0.0000
     atom:   14    charge:    2.0212    magn:   -0.0000    constr:    0.0000
     atom:   15    charge:    3.1166    magn:    0.0000    constr:    0.0000
     atom:   16    charge:    2.0098    magn:   -0.0000    constr:    0.0000
     atom:   17    charge:    1.9866    magn:    0.0007    constr:    0.0000
     atom:   18    charge:    3.1239    magn:   -0.0000    constr:    0.0000
     atom:   19    charge:    2.0102    magn:    0.0000    constr:    0.0000
     atom:   20    charge:    2.0135    magn:    0.0000    constr:    0.0000
     atom:   21    charge:    2.0135    magn:    0.0000    constr:    0.0000
     atom:   22    charge:    3.1199    magn:    0.0000    constr:    0.0000
     atom:   23    charge:    2.0201    magn:   -0.0000    constr:    0.0000
     atom:   24    charge:    2.0015    magn:   -0.0001    constr:    0.0000
     atom:   25    charge:    2.0158    magn:   -0.0000    constr:    0.0000
     atom:   26    charge:    3.1143    magn:    0.0001    constr:    0.0000
     atom:   27    charge:    2.0078    magn:   -0.0002    constr:    0.0000
     atom:   28    charge:    2.0136    magn:   -0.0001    constr:    0.0000
     atom:   29    charge:    2.0117    magn:   -0.0001    constr:    0.0000
     atom:   30    charge:    3.1193    magn:    0.0000    constr:    0.0000
     atom:   31    charge:    2.0118    magn:   -0.0000    constr:    0.0000
     atom:   32    charge:    2.0106    magn:   -0.0000    constr:    0.0000
     atom:   33    charge:    1.9866    magn:    0.0008    constr:    0.0000
     atom:   34    charge:    3.1239    magn:   -0.0000    constr:    0.0000
     atom:   35    charge:    2.0102    magn:    0.0000    constr:    0.0000
     atom:   36    charge:    2.0135    magn:    0.0000    constr:    0.0000
     atom:   37    charge:    2.0135    magn:    0.0000    constr:    0.0000
     atom:   38    charge:    3.1199    magn:    0.0000    constr:    0.0000
     atom:   39    charge:    2.0101    magn:   -0.0001    constr:    0.0000
     atom:   40    charge:    2.0019    magn:   -0.0001    constr:    0.0000
     atom:   41    charge:    2.0158    magn:   -0.0000    constr:    0.0000
     atom:   42    charge:    3.1217    magn:    0.0001    constr:    0.0000
     atom:   43    charge:    2.0075    magn:   -0.0001    constr:    0.0000
     atom:   44    charge:    2.0136    magn:   -0.0001    constr:    0.0000
     atom:   45    charge:    2.0117    magn:   -0.0001    constr:    0.0000
     atom:   46    charge:    3.1193    magn:    0.0000    constr:    0.0000
     atom:   47    charge:    2.0113    magn:   -0.0000    constr:    0.0000
     atom:   48    charge:    2.0106    magn:   -0.0000    constr:    0.0000
     atom:   49    charge:    2.0249    magn:    0.0000    constr:    0.0000
     atom:   50    charge:    0.3924    magn:   -0.0000    constr:    0.0000

     total cpu time spent up to now is     2192.0 secs

     total energy              =   -3005.52858491 Ry
     Harris-Foulkes estimate   =   -3005.52865193 Ry
     estimated scf accuracy    <       0.00052040 Ry

     total magnetization       =     0.00 Bohr mag/cell
     absolute magnetization    =     0.01 Bohr mag/cell

     iteration #  9     ecut=    40.42 Ry     beta=0.10
     Davidson diagonalization with overlap
     ethr =  1.33E-07,  avg # of iterations =  2.1

     negative rho (up, down):  1.353E-02 1.353E-02
 
     Magnetic moment per site:
     atom:    1    charge:    3.1244    magn:   -0.0001    constr:    0.0000
     atom:    2    charge:    2.0137    magn:    0.0001    constr:    0.0000
     atom:    3    charge:    3.1200    magn:   -0.0000    constr:    0.0000
     atom:    4    charge:    2.0158    magn:   -0.0000    constr:    0.0000
     atom:    5    charge:    3.1144    magn:    0.0000    constr:    0.0000
     atom:    6    charge:    2.0059    magn:   -0.0001    constr:    0.0000
     atom:    7    charge:    3.1165    magn:    0.0000    constr:    0.0000
     atom:    8    charge:    2.0097    magn:   -0.0000    constr:    0.0000
     atom:    9    charge:    3.1244    magn:   -0.0001    constr:    0.0000
     atom:   10    charge:    2.0138    magn:    0.0001    constr:    0.0000
     atom:   11    charge:    3.1198    magn:    0.0000    constr:    0.0000
     atom:   12    charge:    2.0158    magn:   -0.0000    constr:    0.0000
     atom:   13    charge:    3.1144    magn:    0.0000    constr:    0.0000
     atom:   14    charge:    2.0211    magn:   -0.0000    constr:    0.0000
     atom:   15    charge:    3.1165    magn:    0.0000    constr:    0.0000
     atom:   16    charge:    2.0097    magn:   -0.0000    constr:    0.0000
     atom:   17    charge:    1.9865    magn:    0.0007    constr:    0.0000
     atom:   18    charge:    3.1239    magn:   -0.0000    constr:    0.0000
     atom:   19    charge:    2.0102    magn:    0.0000    constr:    0.0000
     atom:   20    charge:    2.0135    magn:    0.0000    constr:    0.0000
     atom:   21    charge:    2.0135    magn:    0.0000    constr:    0.0000
     atom:   22    charge:    3.1199    magn:    0.0000    constr:    0.0000
     atom:   23    charge:    2.0201    magn:   -0.0000    constr:    0.0000
     atom:   24    charge:    2.0015    magn:   -0.0001    constr:    0.0000
     atom:   25    charge:    2.0158    magn:   -0.0000    constr:    0.0000
     atom:   26    charge:    3.1144    magn:    0.0000    constr:    0.0000
     atom:   27    charge:    2.0076    magn:   -0.0001    constr:    0.0000
     atom:   28    charge:    2.0135    magn:   -0.0001    constr:    0.0000
     atom:   29    charge:    2.0117    magn:   -0.0001    constr:    0.0000
     atom:   30    charge:    3.1193    magn:    0.0000    constr:    0.0000
     atom:   31    charge:    2.0114    magn:   -0.0000    constr:    0.0000
     atom:   32    charge:    2.0105    magn:   -0.0000    constr:    0.0000
     atom:   33    charge:    1.9865    magn:    0.0007    constr:    0.0000
     atom:   34    charge:    3.1239    magn:   -0.0000    constr:    0.0000
     atom:   35    charge:    2.0102    magn:    0.0000    constr:    0.0000
     atom:   36    charge:    2.0135    magn:    0.0000    constr:    0.0000
     atom:   37    charge:    2.0135    magn:    0.0000    constr:    0.0000
     atom:   38    charge:    3.1199    magn:    0.0000    constr:    0.0000
     atom:   39    charge:    2.0102    magn:   -0.0001    constr:    0.0000
     atom:   40    charge:    2.0019    magn:   -0.0001    constr:    0.0000
     atom:   41    charge:    2.0158    magn:   -0.0000    constr:    0.0000
     atom:   42    charge:    3.1217    magn:    0.0000    constr:    0.0000
     atom:   43    charge:    2.0075    magn:   -0.0001    constr:    0.0000
     atom:   44    charge:    2.0135    magn:   -0.0001    constr:    0.0000
     atom:   45    charge:    2.0117    magn:   -0.0001    constr:    0.0000
     atom:   46    charge:    3.1193    magn:    0.0000    constr:    0.0000
     atom:   47    charge:    2.0109    magn:   -0.0000    constr:    0.0000
     atom:   48    charge:    2.0105    magn:   -0.0000    constr:    0.0000
     atom:   49    charge:    2.0240    magn:    0.0000    constr:    0.0000
     atom:   50    charge:    0.3933    magn:   -0.0000    constr:    0.0000

     total cpu time spent up to now is     2360.9 secs

     total energy              =   -3005.52857290 Ry
     Harris-Foulkes estimate   =   -3005.52860402 Ry
     estimated scf accuracy    <       0.00009186 Ry

     total magnetization       =     0.00 Bohr mag/cell
     absolute magnetization    =     0.01 Bohr mag/cell

     iteration # 10     ecut=    40.42 Ry     beta=0.10
     Davidson diagonalization with overlap
     ethr =  2.35E-08,  avg # of iterations =  3.0

     negative rho (up, down):  1.353E-02 1.353E-02
 
     Magnetic moment per site:
     atom:    1    charge:    3.1244    magn:   -0.0001    constr:    0.0000
     atom:    2    charge:    2.0137    magn:    0.0001    constr:    0.0000
     atom:    3    charge:    3.1200    magn:   -0.0000    constr:    0.0000
     atom:    4    charge:    2.0158    magn:   -0.0000    constr:    0.0000
     atom:    5    charge:    3.1144    magn:    0.0000    constr:    0.0000
     atom:    6    charge:    2.0059    magn:   -0.0001    constr:    0.0000
     atom:    7    charge:    3.1165    magn:    0.0000    constr:    0.0000
     atom:    8    charge:    2.0097    magn:   -0.0000    constr:    0.0000
     atom:    9    charge:    3.1244    magn:   -0.0001    constr:    0.0000
     atom:   10    charge:    2.0138    magn:    0.0001    constr:    0.0000
     atom:   11    charge:    3.1198    magn:    0.0000    constr:    0.0000
     atom:   12    charge:    2.0158    magn:   -0.0000    constr:    0.0000
     atom:   13    charge:    3.1144    magn:    0.0000    constr:    0.0000
     atom:   14    charge:    2.0211    magn:   -0.0000    constr:    0.0000
     atom:   15    charge:    3.1165    magn:    0.0000    constr:    0.0000
     atom:   16    charge:    2.0097    magn:   -0.0000    constr:    0.0000
     atom:   17    charge:    1.9864    magn:    0.0006    constr:    0.0000
     atom:   18    charge:    3.1239    magn:   -0.0000    constr:    0.0000
     atom:   19    charge:    2.0102    magn:    0.0000    constr:    0.0000
     atom:   20    charge:    2.0135    magn:    0.0000    constr:    0.0000
     atom:   21    charge:    2.0135    magn:    0.0000    constr:    0.0000
     atom:   22    charge:    3.1199    magn:    0.0000    constr:    0.0000
     atom:   23    charge:    2.0201    magn:   -0.0000    constr:    0.0000
     atom:   24    charge:    2.0015    magn:   -0.0001    constr:    0.0000
     atom:   25    charge:    2.0158    magn:   -0.0000    constr:    0.0000
     atom:   26    charge:    3.1143    magn:    0.0000    constr:    0.0000
     atom:   27    charge:    2.0076    magn:   -0.0001    constr:    0.0000
     atom:   28    charge:    2.0136    magn:   -0.0001    constr:    0.0000
     atom:   29    charge:    2.0117    magn:   -0.0001    constr:    0.0000
     atom:   30    charge:    3.1193    magn:    0.0000    constr:    0.0000
     atom:   31    charge:    2.0113    magn:   -0.0000    constr:    0.0000
     atom:   32    charge:    2.0106    magn:   -0.0000    constr:    0.0000
     atom:   33    charge:    1.9864    magn:    0.0007    constr:    0.0000
     atom:   34    charge:    3.1239    magn:   -0.0000    constr:    0.0000
     atom:   35    charge:    2.0102    magn:    0.0000    constr:    0.0000
     atom:   36    charge:    2.0135    magn:    0.0000    constr:    0.0000
     atom:   37    charge:    2.0135    magn:    0.0000    constr:    0.0000
     atom:   38    charge:    3.1199    magn:    0.0000    constr:    0.0000
     atom:   39    charge:    2.0102    magn:   -0.0001    constr:    0.0000
     atom:   40    charge:    2.0019    magn:   -0.0001    constr:    0.0000
     atom:   41    charge:    2.0158    magn:   -0.0000    constr:    0.0000
     atom:   42    charge:    3.1217    magn:    0.0000    constr:    0.0000
     atom:   43    charge:    2.0075    magn:   -0.0001    constr:    0.0000
     atom:   44    charge:    2.0136    magn:   -0.0001    constr:    0.0000
     atom:   45    charge:    2.0117    magn:   -0.0001    constr:    0.0000
     atom:   46    charge:    3.1193    magn:    0.0000    constr:    0.0000
     atom:   47    charge:    2.0109    magn:   -0.0000    constr:    0.0000
     atom:   48    charge:    2.0106    magn:   -0.0000    constr:    0.0000
     atom:   49    charge:    2.0241    magn:    0.0000    constr:    0.0000
     atom:   50    charge:    0.3935    magn:   -0.0000    constr:    0.0000

     total cpu time spent up to now is     2548.1 secs

     total energy              =   -3005.52857587 Ry
     Harris-Foulkes estimate   =   -3005.52858927 Ry
     estimated scf accuracy    <       0.00015310 Ry

     total magnetization       =     0.00 Bohr mag/cell
     absolute magnetization    =     0.01 Bohr mag/cell

     iteration # 11     ecut=    40.42 Ry     beta=0.10
     Davidson diagonalization with overlap
     ethr =  2.35E-08,  avg # of iterations =  2.0

     negative rho (up, down):  1.353E-02 1.353E-02
 
     Magnetic moment per site:
     atom:    1    charge:    3.1244    magn:   -0.0001    constr:    0.0000
     atom:    2    charge:    2.0137    magn:    0.0001    constr:    0.0000
     atom:    3    charge:    3.1200    magn:   -0.0000    constr:    0.0000
     atom:    4    charge:    2.0159    magn:   -0.0000    constr:    0.0000
     atom:    5    charge:    3.1144    magn:    0.0000    constr:    0.0000
     atom:    6    charge:    2.0059    magn:   -0.0001    constr:    0.0000
     atom:    7    charge:    3.1169    magn:    0.0000    constr:    0.0000
     atom:    8    charge:    2.0098    magn:   -0.0000    constr:    0.0000
     atom:    9    charge:    3.1244    magn:   -0.0001    constr:    0.0000
     atom:   10    charge:    2.0138    magn:    0.0001    constr:    0.0000
     atom:   11    charge:    3.1198    magn:    0.0000    constr:    0.0000
     atom:   12    charge:    2.0159    magn:   -0.0000    constr:    0.0000
     atom:   13    charge:    3.1144    magn:    0.0000    constr:    0.0000
     atom:   14    charge:    2.0211    magn:   -0.0000    constr:    0.0000
     atom:   15    charge:    3.1165    magn:    0.0000    constr:    0.0000
     atom:   16    charge:    2.0098    magn:   -0.0000    constr:    0.0000
     atom:   17    charge:    1.9865    magn:    0.0006    constr:    0.0000
     atom:   18    charge:    3.1239    magn:   -0.0000    constr:    0.0000
     atom:   19    charge:    2.0102    magn:    0.0000    constr:    0.0000
     atom:   20    charge:    2.0135    magn:    0.0000    constr:    0.0000
     atom:   21    charge:    2.0135    magn:    0.0000    constr:    0.0000
     atom:   22    charge:    3.1199    magn:    0.0000    constr:    0.0000
     atom:   23    charge:    2.0201    magn:   -0.0000    constr:    0.0000
     atom:   24    charge:    2.0015    magn:   -0.0001    constr:    0.0000
     atom:   25    charge:    2.0158    magn:   -0.0000    constr:    0.0000
     atom:   26    charge:    3.1143    magn:    0.0000    constr:    0.0000
     atom:   27    charge:    2.0076    magn:   -0.0001    constr:    0.0000
     atom:   28    charge:    2.0136    magn:   -0.0001    constr:    0.0000
     atom:   29    charge:    2.0117    magn:   -0.0001    constr:    0.0000
     atom:   30    charge:    3.1193    magn:    0.0000    constr:    0.0000
     atom:   31    charge:    2.0113    magn:   -0.0000    constr:    0.0000
     atom:   32    charge:    2.0107    magn:   -0.0000    constr:    0.0000
     atom:   33    charge:    1.9865    magn:    0.0006    constr:    0.0000
     atom:   34    charge:    3.1239    magn:   -0.0000    constr:    0.0000
     atom:   35    charge:    2.0102    magn:    0.0000    constr:    0.0000
     atom:   36    charge:    2.0135    magn:    0.0000    constr:    0.0000
     atom:   37    charge:    2.0135    magn:    0.0000    constr:    0.0000
     atom:   38    charge:    3.1199    magn:    0.0000    constr:    0.0000
     atom:   39    charge:    2.0102    magn:   -0.0000    constr:    0.0000
     atom:   40    charge:    2.0020    magn:   -0.0001    constr:    0.0000
     atom:   41    charge:    2.0158    magn:   -0.0000    constr:    0.0000
     atom:   42    charge:    3.1217    magn:    0.0000    constr:    0.0000
     atom:   43    charge:    2.0075    magn:   -0.0001    constr:    0.0000
     atom:   44    charge:    2.0136    magn:   -0.0001    constr:    0.0000
     atom:   45    charge:    2.0117    magn:   -0.0001    constr:    0.0000
     atom:   46    charge:    3.1193    magn:    0.0000    constr:    0.0000
     atom:   47    charge:    2.0109    magn:   -0.0000    constr:    0.0000
     atom:   48    charge:    2.0107    magn:   -0.0000    constr:    0.0000
     atom:   49    charge:    2.0242    magn:    0.0000    constr:    0.0000
     atom:   50    charge:    0.3937    magn:   -0.0000    constr:    0.0000

     total cpu time spent up to now is     2714.1 secs

     total energy              =   -3005.52858157 Ry
     Harris-Foulkes estimate   =   -3005.52858346 Ry
     estimated scf accuracy    <       0.00001754 Ry

     total magnetization       =     0.00 Bohr mag/cell
     absolute magnetization    =     0.01 Bohr mag/cell

     iteration # 12     ecut=    40.42 Ry     beta=0.10
     Davidson diagonalization with overlap
     ethr =  4.49E-09,  avg # of iterations =  2.0

     negative rho (up, down):  1.353E-02 1.353E-02
 
     Magnetic moment per site:
     atom:    1    charge:    3.1244    magn:   -0.0001    constr:    0.0000
     atom:    2    charge:    2.0137    magn:    0.0001    constr:    0.0000
     atom:    3    charge:    3.1200    magn:   -0.0000    constr:    0.0000
     atom:    4    charge:    2.0159    magn:   -0.0000    constr:    0.0000
     atom:    5    charge:    3.1144    magn:    0.0000    constr:    0.0000
     atom:    6    charge:    2.0059    magn:   -0.0001    constr:    0.0000
     atom:    7    charge:    3.1170    magn:    0.0000    constr:    0.0000
     atom:    8    charge:    2.0098    magn:   -0.0000    constr:    0.0000
     atom:    9    charge:    3.1244    magn:   -0.0001    constr:    0.0000
     atom:   10    charge:    2.0138    magn:    0.0001    constr:    0.0000
     atom:   11    charge:    3.1198    magn:    0.0000    constr:    0.0000
     atom:   12    charge:    2.0159    magn:   -0.0000    constr:    0.0000
     atom:   13    charge:    3.1144    magn:    0.0000    constr:    0.0000
     atom:   14    charge:    2.0211    magn:   -0.0000    constr:    0.0000
     atom:   15    charge:    3.1165    magn:    0.0000    constr:    0.0000
     atom:   16    charge:    2.0098    magn:   -0.0000    constr:    0.0000
     atom:   17    charge:    1.9865    magn:    0.0005    constr:    0.0000
     atom:   18    charge:    3.1239    magn:   -0.0000    constr:    0.0000
     atom:   19    charge:    2.0102    magn:    0.0000    constr:    0.0000
     atom:   20    charge:    2.0135    magn:    0.0000    constr:    0.0000
     atom:   21    charge:    2.0135    magn:    0.0000    constr:    0.0000
     atom:   22    charge:    3.1199    magn:    0.0000    constr:    0.0000
     atom:   23    charge:    2.0201    magn:   -0.0000    constr:    0.0000
     atom:   24    charge:    2.0015    magn:   -0.0001    constr:    0.0000
     atom:   25    charge:    2.0158    magn:   -0.0000    constr:    0.0000
     atom:   26    charge:    3.1143    magn:    0.0000    constr:    0.0000
     atom:   27    charge:    2.0076    magn:   -0.0001    constr:    0.0000
     atom:   28    charge:    2.0136    magn:   -0.0001    constr:    0.0000
     atom:   29    charge:    2.0117    magn:   -0.0001    constr:    0.0000
     atom:   30    charge:    3.1193    magn:    0.0000    constr:    0.0000
     atom:   31    charge:    2.0113    magn:   -0.0000    constr:    0.0000
     atom:   32    charge:    2.0107    magn:   -0.0000    constr:    0.0000
     atom:   33    charge:    1.9865    magn:    0.0006    constr:    0.0000
     atom:   34    charge:    3.1239    magn:   -0.0000    constr:    0.0000
     atom:   35    charge:    2.0102    magn:    0.0000    constr:    0.0000
     atom:   36    charge:    2.0135    magn:    0.0000    constr:    0.0000
     atom:   37    charge:    2.0135    magn:    0.0000    constr:    0.0000
     atom:   38    charge:    3.1199    magn:    0.0000    constr:    0.0000
     atom:   39    charge:    2.0102    magn:   -0.0000    constr:    0.0000
     atom:   40    charge:    2.0019    magn:   -0.0001    constr:    0.0000
     atom:   41    charge:    2.0158    magn:   -0.0000    constr:    0.0000
     atom:   42    charge:    3.1217    magn:    0.0000    constr:    0.0000
     atom:   43    charge:    2.0075    magn:   -0.0001    constr:    0.0000
     atom:   44    charge:    2.0136    magn:   -0.0001    constr:    0.0000
     atom:   45    charge:    2.0117    magn:   -0.0001    constr:    0.0000
     atom:   46    charge:    3.1193    magn:    0.0000    constr:    0.0000
     atom:   47    charge:    2.0109    magn:   -0.0000    constr:    0.0000
     atom:   48    charge:    2.0107    magn:   -0.0000    constr:    0.0000
     atom:   49    charge:    2.0242    magn:    0.0000    constr:    0.0000
     atom:   50    charge:    0.3937    magn:   -0.0000    constr:    0.0000

     total cpu time spent up to now is     2880.6 secs

     total energy              =   -3005.52858244 Ry
     Harris-Foulkes estimate   =   -3005.52858309 Ry
     estimated scf accuracy    <       0.00000750 Ry

     total magnetization       =     0.00 Bohr mag/cell
     absolute magnetization    =     0.01 Bohr mag/cell

     iteration # 13     ecut=    40.42 Ry     beta=0.10
     Davidson diagonalization with overlap
     ethr =  1.92E-09,  avg # of iterations =  2.0

     negative rho (up, down):  1.353E-02 1.353E-02
 
     Magnetic moment per site:
     atom:    1    charge:    3.1244    magn:   -0.0001    constr:    0.0000
     atom:    2    charge:    2.0137    magn:    0.0001    constr:    0.0000
     atom:    3    charge:    3.1200    magn:   -0.0000    constr:    0.0000
     atom:    4    charge:    2.0159    magn:   -0.0000    constr:    0.0000
     atom:    5    charge:    3.1144    magn:    0.0000    constr:    0.0000
     atom:    6    charge:    2.0059    magn:   -0.0000    constr:    0.0000
     atom:    7    charge:    3.1171    magn:    0.0000    constr:    0.0000
     atom:    8    charge:    2.0098    magn:   -0.0000    constr:    0.0000
     atom:    9    charge:    3.1244    magn:   -0.0001    constr:    0.0000
     atom:   10    charge:    2.0138    magn:    0.0001    constr:    0.0000
     atom:   11    charge:    3.1198    magn:   -0.0000    constr:    0.0000
     atom:   12    charge:    2.0159    magn:   -0.0000    constr:    0.0000
     atom:   13    charge:    3.1144    magn:    0.0000    constr:    0.0000
     atom:   14    charge:    2.0211    magn:   -0.0000    constr:    0.0000
     atom:   15    charge:    3.1166    magn:    0.0000    constr:    0.0000
     atom:   16    charge:    2.0098    magn:   -0.0000    constr:    0.0000
     atom:   17    charge:    1.9865    magn:    0.0005    constr:    0.0000
     atom:   18    charge:    3.1239    magn:   -0.0000    constr:    0.0000
     atom:   19    charge:    2.0102    magn:    0.0000    constr:    0.0000
     atom:   20    charge:    2.0135    magn:    0.0000    constr:    0.0000
     atom:   21    charge:    2.0135    magn:    0.0000    constr:    0.0000
     atom:   22    charge:    3.1199    magn:    0.0000    constr:    0.0000
     atom:   23    charge:    2.0201    magn:   -0.0000    constr:    0.0000
     atom:   24    charge:    2.0015    magn:   -0.0000    constr:    0.0000
     atom:   25    charge:    2.0158    magn:   -0.0000    constr:    0.0000
     atom:   26    charge:    3.1143    magn:    0.0000    constr:    0.0000
     atom:   27    charge:    2.0076    magn:   -0.0001    constr:    0.0000
     atom:   28    charge:    2.0136    magn:   -0.0001    constr:    0.0000
     atom:   29    charge:    2.0117    magn:   -0.0001    constr:    0.0000
     atom:   30    charge:    3.1193    magn:    0.0000    constr:    0.0000
     atom:   31    charge:    2.0114    magn:   -0.0000    constr:    0.0000
     atom:   32    charge:    2.0107    magn:   -0.0000    constr:    0.0000
     atom:   33    charge:    1.9865    magn:    0.0005    constr:    0.0000
     atom:   34    charge:    3.1239    magn:   -0.0000    constr:    0.0000
     atom:   35    charge:    2.0102    magn:    0.0000    constr:    0.0000
     atom:   36    charge:    2.0135    magn:    0.0000    constr:    0.0000
     atom:   37    charge:    2.0135    magn:    0.0000    constr:    0.0000
     atom:   38    charge:    3.1199    magn:    0.0000    constr:    0.0000
     atom:   39    charge:    2.0102    magn:   -0.0000    constr:    0.0000
     atom:   40    charge:    2.0019    magn:   -0.0000    constr:    0.0000
     atom:   41    charge:    2.0158    magn:   -0.0000    constr:    0.0000
     atom:   42    charge:    3.1217    magn:    0.0000    constr:    0.0000
     atom:   43    charge:    2.0075    magn:   -0.0001    constr:    0.0000
     atom:   44    charge:    2.0136    magn:   -0.0001    constr:    0.0000
     atom:   45    charge:    2.0117    magn:   -0.0001    constr:    0.0000
     atom:   46    charge:    3.1193    magn:    0.0000    constr:    0.0000
     atom:   47    charge:    2.0110    magn:   -0.0000    constr:    0.0000
     atom:   48    charge:    2.0107    magn:   -0.0000    constr:    0.0000
     atom:   49    charge:    2.0243    magn:    0.0000    constr:    0.0000
     atom:   50    charge:    0.3938    magn:   -0.0000    constr:    0.0000

     total cpu time spent up to now is     3045.9 secs

     total energy              =   -3005.52858285 Ry
     Harris-Foulkes estimate   =   -3005.52858305 Ry
     estimated scf accuracy    <       0.00000478 Ry

     total magnetization       =     0.00 Bohr mag/cell
     absolute magnetization    =     0.01 Bohr mag/cell

     iteration # 14     ecut=    40.42 Ry     beta=0.10
     Davidson diagonalization with overlap
     ethr =  1.22E-09,  avg # of iterations =  1.4

     negative rho (up, down):  1.352E-02 1.352E-02
 
     Magnetic moment per site:
     atom:    1    charge:    3.1244    magn:   -0.0001    constr:    0.0000
     atom:    2    charge:    2.0137    magn:    0.0001    constr:    0.0000
     atom:    3    charge:    3.1200    magn:   -0.0000    constr:    0.0000
     atom:    4    charge:    2.0159    magn:    0.0000    constr:    0.0000
     atom:    5    charge:    3.1144    magn:    0.0000    constr:    0.0000
     atom:    6    charge:    2.0059    magn:   -0.0000    constr:    0.0000
     atom:    7    charge:    3.1171    magn:    0.0000    constr:    0.0000
     atom:    8    charge:    2.0098    magn:   -0.0000    constr:    0.0000
     atom:    9    charge:    3.1244    magn:   -0.0001    constr:    0.0000
     atom:   10    charge:    2.0138    magn:    0.0001    constr:    0.0000
     atom:   11    charge:    3.1198    magn:   -0.0000    constr:    0.0000
     atom:   12    charge:    2.0159    magn:    0.0000    constr:    0.0000
     atom:   13    charge:    3.1144    magn:    0.0000    constr:    0.0000
     atom:   14    charge:    2.0211    magn:   -0.0000    constr:    0.0000
     atom:   15    charge:    3.1165    magn:    0.0000    constr:    0.0000
     atom:   16    charge:    2.0098    magn:   -0.0000    constr:    0.0000
     atom:   17    charge:    1.9865    magn:    0.0004    constr:    0.0000
     atom:   18    charge:    3.1239    magn:   -0.0000    constr:    0.0000
     atom:   19    charge:    2.0102    magn:    0.0000    constr:    0.0000
     atom:   20    charge:    2.0135    magn:    0.0000    constr:    0.0000
     atom:   21    charge:    2.0135    magn:    0.0000    constr:    0.0000
     atom:   22    charge:    3.1199    magn:    0.0000    constr:    0.0000
     atom:   23    charge:    2.0201    magn:   -0.0000    constr:    0.0000
     atom:   24    charge:    2.0016    magn:   -0.0000    constr:    0.0000
     atom:   25    charge:    2.0158    magn:    0.0000    constr:    0.0000
     atom:   26    charge:    3.1143    magn:    0.0000    constr:    0.0000
     atom:   27    charge:    2.0076    magn:   -0.0000    constr:    0.0000
     atom:   28    charge:    2.0136    magn:   -0.0000    constr:    0.0000
     atom:   29    charge:    2.0117    magn:   -0.0000    constr:    0.0000
     atom:   30    charge:    3.1193    magn:    0.0000    constr:    0.0000
     atom:   31    charge:    2.0114    magn:   -0.0000    constr:    0.0000
     atom:   32    charge:    2.0107    magn:   -0.0000    constr:    0.0000
     atom:   33    charge:    1.9865    magn:    0.0004    constr:    0.0000
     atom:   34    charge:    3.1239    magn:   -0.0000    constr:    0.0000
     atom:   35    charge:    2.0102    magn:    0.0000    constr:    0.0000
     atom:   36    charge:    2.0135    magn:    0.0000    constr:    0.0000
     atom:   37    charge:    2.0135    magn:    0.0000    constr:    0.0000
     atom:   38    charge:    3.1199    magn:    0.0000    constr:    0.0000
     atom:   39    charge:    2.0102    magn:   -0.0000    constr:    0.0000
     atom:   40    charge:    2.0020    magn:   -0.0000    constr:    0.0000
     atom:   41    charge:    2.0158    magn:    0.0000    constr:    0.0000
     atom:   42    charge:    3.1217    magn:    0.0000    constr:    0.0000
     atom:   43    charge:    2.0075    magn:   -0.0000    constr:    0.0000
     atom:   44    charge:    2.0136    magn:   -0.0000    constr:    0.0000
     atom:   45    charge:    2.0117    magn:   -0.0000    constr:    0.0000
     atom:   46    charge:    3.1193    magn:    0.0000    constr:    0.0000
     atom:   47    charge:    2.0110    magn:   -0.0000    constr:    0.0000
     atom:   48    charge:    2.0107    magn:   -0.0000    constr:    0.0000
     atom:   49    charge:    2.0242    magn:   -0.0000    constr:    0.0000
     atom:   50    charge:    0.3938    magn:   -0.0000    constr:    0.0000

     total cpu time spent up to now is     3204.3 secs

     End of self-consistent calculation

 ------ SPIN UP ------------


          k = 0.0000 0.0000 0.0000 ( 34665 PWs)   bands (ev):

   -58.4760 -58.4409 -57.5644 -57.5343 -57.5287 -57.4517 -57.4370 -57.3974
   -57.2806 -57.2541 -57.2335 -57.1979 -57.0885 -57.0532 -56.9881 -56.9501
   -34.9209 -34.7450 -34.7162 -34.6823 -34.5873 -34.5305 -34.0637 -34.0189
   -33.9792 -33.8380 -33.8174 -33.7579 -33.7378 -33.7317 -33.7224 -33.7133
   -33.7059 -33.6731 -33.6704 -33.6638 -33.6602 -33.6377 -33.6278 -33.6234
   -33.6191 -33.6169 -33.6024 -33.5451 -33.5222 -33.5181 -33.5071 -33.4659
   -33.4594 -33.4564 -33.4294 -33.4157 -33.4038 -33.4026 -33.3608 -33.3545
   -33.3068 -33.2656 -33.2189 -33.2171 -33.2000 -33.1773 -33.1154 -33.0700
   -18.6397 -18.2686 -18.2084 -17.9783 -17.8817 -17.7125 -17.6997 -17.5929
   -17.5613 -17.5365 -17.4272 -17.2285 -17.1879 -17.1812 -17.1159 -17.0190
   -16.9997 -16.9769 -16.9083 -16.8672 -16.8107 -16.7787 -16.7758 -16.7531
   -16.6603 -16.5973 -16.5852 -16.4733 -16.4633 -16.3229 -16.2606 -15.7681
   -15.7078  -6.2179  -6.1070  -5.6623  -5.4658  -5.3842  -5.2813  -5.1569
    -5.1278  -5.0481  -4.9155  -4.8248  -4.7698  -4.7566  -4.6845  -4.6101
    -4.5816  -4.5126  -4.4991  -4.3867  -4.3833  -4.3330  -4.3124  -4.2175
    -4.1899  -4.1387  -4.0766  -4.0606  -4.0567  -4.0451  -3.9629  -3.9469
    -3.8785  -3.8054  -3.7946  -3.7117  -3.7082  -3.6978  -3.5916  -3.5869
    -3.5506  -3.4401  -3.4226  -3.3824  -3.2678  -3.1260  -3.0592  -3.0224
    -2.9422  -2.9271  -2.8747  -2.8659  -2.8530  -2.7792  -2.7191  -2.7056
    -2.6136  -2.5612  -2.4685  -2.4096  -2.3976  -2.3965  -2.3116  -2.2649
    -2.2151  -2.2016  -2.1392  -2.0919  -2.0564  -2.0441  -1.8970  -1.8182
    -1.7976  -1.7936  -1.7820  -1.6860  -1.5924  -1.5374  -1.5334  -1.4998
    -1.4992  -1.4690  -1.4194  -1.3364  -1.3151  -1.3117  -1.2788  -1.2631
    -1.2470  -1.1311  -1.0367  -0.9703  -0.9211  -0.8495  -0.8402  -0.7874
    -0.7208  -0.6839  -0.6334  -0.3400   0.8555   0.9528   1.2458   1.5290
     1.6363   1.7235   1.7514   1.8444   1.8761   1.9644   1.9897   2.0543
     2.0663   2.2068   2.2204   2.2966   2.3167   2.3472   2.4270   2.4492
     2.4972   2.5041   2.5417   2.5563   2.6560   2.6614   2.7054   2.7521
     2.7826   2.7959   2.8374   2.8635   2.8901   2.9190   2.9290   3.0284
     3.0492   3.0677   3.2390   3.2446   3.2758   3.2917   3.3840   3.4414
     3.5041   3.5339   3.6276   3.7774   3.9108   3.9274   4.1134   4.3044
     4.4353   4.5369   4.5423   4.6765   4.8465   4.9583   4.9939   5.1105
     5.2233   5.2341   5.2645   5.2760   5.3222   5.3711   5.3738   5.4917
     5.5138   5.5572   5.7246   5.7439   5.7814   5.9147   5.9383   5.9435
     6.0248   6.0865   6.2574   6.3224   6.3766   6.3997   6.6106   6.6411
     7.0959   7.7747   8.0180   8.0262   8.1711   8.2421   8.5993   8.7192
     8.7731   9.0601   9.1526   9.2097   9.3298   9.4097   9.5788

          k = 0.0000 0.0280 0.0000 ( 34717 PWs)   bands (ev):

   -58.4737 -58.4433 -57.5620 -57.5335 -57.5310 -57.4526 -57.4349 -57.3995
   -57.2789 -57.2558 -57.2313 -57.2002 -57.0861 -57.0556 -56.9855 -56.9527
[...]
    -4.2787  -4.2452  -4.1785  -4.1387  -4.1273  -4.1111  -4.0048  -3.9939
    -3.9367  -3.8994  -3.6708  -3.6564  -3.6100  -3.5704  -3.5276  -3.5104
    -3.4167  -3.3963  -3.3254  -3.2935  -3.2845  -3.2684  -3.1939  -3.1008
    -3.0533  -3.0491  -2.9832  -2.9776  -2.9477  -2.9214  -2.8944  -2.8015
    -2.7688  -2.7177  -2.6197  -2.6050  -2.5740  -2.5310  -2.4800  -2.4748
    -2.4358  -2.3936  -2.3076  -2.2954  -2.2329  -2.2205  -2.2041  -2.1515
    -2.1514  -2.0454  -2.0444  -1.9545  -1.9289  -1.8053  -1.7544  -1.6869
    -1.6569  -1.6407  -1.6286  -1.5448  -1.3759  -1.3634  -1.2935  -1.2655
    -1.2655  -1.2401  -1.1015  -1.0743  -1.0422  -0.9472  -0.8761  -0.8649
    -0.7818  -0.7742  -0.7184  -0.7178   1.3689   1.3701   1.4906   1.4920
     1.7775   1.7775   1.8842   1.8858   2.0623   2.0626   2.1607   2.2586
     2.3123   2.3186   2.4189   2.4773   2.4871   2.4889   2.5561   2.6070
     2.6122   2.6195   2.6772   2.6913   2.7804   2.7891   2.8191   2.8275
     2.8694   2.9048   2.9960   3.0165   3.0338   3.0351   3.0650   3.0903
     3.1005   3.1950   3.2229   3.2296   3.2716   3.3077   3.3734   3.3800
     3.4276   3.4351   3.5214   3.6438   3.6928   3.7067   4.1535   4.1538
     4.3309   4.5974   4.5986   4.6966   4.7974   4.8184   4.8632   4.8680
     4.9633   4.9955   5.0312   5.0499   5.4520   5.4930   5.5046   5.6353
     5.7229   5.7388   5.7851   5.7963   5.8136   5.8700   5.8781   5.9684
     6.0107   6.1063   6.2340   6.2717   6.3634   6.3688   6.5872   6.8420
     7.1165   7.1482   7.5738   7.6028   7.9252   7.9270   8.0291   8.0941
     8.4144   8.4327   8.5400   8.6679   9.1350   9.1547   9.2903

          k =-0.0759 0.0000 0.0000 ( 34758 PWs)   bands (ev):

   -58.4761 -58.4410 -57.5641 -57.5346 -57.5287 -57.4517 -57.4369 -57.3973
   -57.2806 -57.2540 -57.2335 -57.1978 -57.0889 -57.0536 -56.9880 -56.9501
   -34.9225 -34.7450 -34.7163 -34.6791 -34.5876 -34.5307 -34.0645 -34.0274
   -33.9797 -33.8171 -33.7843 -33.7615 -33.7580 -33.7533 -33.7234 -33.7227
   -33.7059 -33.6772 -33.6698 -33.6695 -33.6378 -33.6350 -33.6281 -33.6234
   -33.6199 -33.6165 -33.5851 -33.5364 -33.5247 -33.5180 -33.5072 -33.4923
   -33.4597 -33.4515 -33.4343 -33.4155 -33.4018 -33.4018 -33.3609 -33.3548
   -33.3071 -33.2655 -33.2304 -33.2176 -33.1951 -33.1773 -33.1161 -33.0702
   -18.4113 -18.2582 -18.0888 -18.0264 -17.9253 -17.8241 -17.6399 -17.5586
   -17.5361 -17.4863 -17.3970 -17.3491 -17.2174 -17.2095 -17.1921 -17.1775
   -17.0994 -16.9985 -16.9481 -16.9227 -16.7885 -16.7790 -16.7372 -16.6347
   -16.6255 -16.5918 -16.5883 -16.5525 -16.4620 -16.3191 -16.2607 -15.7622
   -15.7052  -6.0997  -5.6028  -5.5201  -5.4336  -5.3610  -5.1078  -5.0833
    -5.0288  -4.9676  -4.9391  -4.7756  -4.7129  -4.7097  -4.7024  -4.5732
    -4.5598  -4.4287  -4.3917  -4.3452  -4.2513  -4.2433  -4.1665  -4.1654
    -4.0839  -4.0688  -4.0472  -3.9536  -3.9359  -3.9332  -3.9012  -3.8207
    -3.7763  -3.7532  -3.7521  -3.7285  -3.6668  -3.6589  -3.6159  -3.5907
    -3.4787  -3.4569  -3.4378  -3.2822  -3.1945  -3.1859  -3.1472  -3.0954
    -3.0520  -2.9889  -2.9668  -2.9132  -2.8921  -2.8679  -2.8568  -2.8083
    -2.8064  -2.7099  -2.6597  -2.6417  -2.5506  -2.5269  -2.4659  -2.4561
    -2.3176  -2.3005  -2.2228  -2.1414  -2.1086  -1.9551  -1.9336  -1.9058
    -1.8925  -1.8758  -1.7929  -1.7795  -1.6629  -1.6433  -1.6411  -1.5833
    -1.5331  -1.4982  -1.4423  -1.4030  -1.3998  -1.3507  -1.3366  -1.3316
    -1.3073  -1.2430  -1.2194  -1.0821  -1.0699  -1.0310  -0.8825  -0.8750
    -0.8599  -0.8541  -0.8397  -0.6656   0.8987   1.1134   1.2366   1.2428
     1.6188   1.7470   1.7834   1.8356   1.8825   1.9182   2.0128   2.1577
     2.1847   2.3036   2.3694   2.4108   2.4414   2.4621   2.4909   2.5089
     2.5397   2.5430   2.6555   2.6999   2.7504   2.7765   2.8005   2.8511
     2.8719   2.8742   2.9817   2.9967   3.0003   3.0012   3.0202   3.0719
     3.1075   3.1249   3.1798   3.2166   3.2676   3.3338   3.4043   3.4697
     3.5662   3.6467   3.6638   3.6855   3.7890   3.8178   3.8364   4.1945
     4.2099   4.3532   4.4064   4.5307   4.6702   4.8447   4.9221   4.9514
     5.0353   5.2977   5.3819   5.5259   5.5572   5.6269   5.6417   5.7207
     5.7586   5.7956   5.8676   5.9109   6.0324   6.1366   6.1402   6.3210
     6.3320   6.3517   6.3622   6.3750   6.3788   6.4336   6.5385   6.6248
     6.6599   6.8010   7.2181   7.3978   7.9953   8.1157   8.2347   8.6000
     8.7259   8.8944   9.0993   9.2238   9.3502   9.8045   9.9311

          k =-0.0759 0.0280 0.0000 ( 34680 PWs)   bands (ev):

   -58.4737 -58.4434 -57.5617 -57.5337 -57.5310 -57.4527 -57.4348 -57.3994
   -57.2789 -57.2557 -57.2312 -57.2000 -57.0865 -57.0560 -56.9855 -56.9526
   -34.8970 -34.7431 -34.7182 -34.6730 -34.5938 -34.5577 -34.0389 -34.0024
   -33.9563 -33.8110 -33.7796 -33.7611 -33.7544 -33.7349 -33.7255 -33.7244
   -33.7049 -33.6969 -33.6744 -33.6639 -33.6500 -33.6451 -33.6338 -33.6336
   -33.6182 -33.6075 -33.5849 -33.5380 -33.5315 -33.5008 -33.4860 -33.4823
   -33.4587 -33.4527 -33.4320 -33.4163 -33.4078 -33.4039 -33.3807 -33.3802
   -33.3013 -33.2621 -33.2273 -33.2237 -33.1972 -33.1821 -33.1433 -33.0986
   -18.3549 -18.2567 -18.0633 -17.9776 -17.8796 -17.8150 -17.6144 -17.6098
   -17.4960 -17.4880 -17.3711 -17.3287 -17.2438 -17.1720 -17.1612 -17.1463
   -17.0800 -16.9867 -16.9760 -16.9351 -16.8252 -16.8171 -16.7530 -16.6520
   -16.6467 -16.6437 -16.5929 -16.5676 -16.5001 -16.3398 -16.3016 -15.7767
   -15.7315  -6.0988  -5.5064  -5.3762  -5.3609  -5.2898  -5.0067  -4.9867
    -4.9468  -4.8443  -4.8387  -4.8209  -4.7895  -4.6926  -4.5965  -4.5185
    -4.5114  -4.4452  -4.4107  -4.3960  -4.3228  -4.2979  -4.2944  -4.1682
    -4.1287  -4.1176  -4.1002  -4.0000  -3.9693  -3.9351  -3.8906  -3.8814
    -3.8136  -3.8086  -3.7262  -3.7142  -3.6647  -3.6110  -3.5853  -3.5594
    -3.5196  -3.4088  -3.3433  -3.2486  -3.1912  -3.1491  -3.1032  -3.0948
    -3.0348  -3.0117  -2.9828  -2.9496  -2.9122  -2.8632  -2.8464  -2.7916
    -2.7635  -2.7167  -2.7037  -2.6629  -2.5640  -2.5394  -2.4811  -2.3834
    -2.3529  -2.2938  -2.2575  -2.2378  -2.2059  -2.1472  -2.1151  -2.0226
    -1.9760  -1.8921  -1.8528  -1.8022  -1.7661  -1.7540  -1.7012  -1.6719
    -1.5893  -1.5548  -1.5119  -1.4952  -1.4064  -1.3279  -1.3008  -1.2584
    -1.2564  -1.1757  -1.1246  -1.0727  -1.0338  -1.0107  -0.9832  -0.8776
    -0.8555  -0.8141  -0.8047  -0.6239   0.9680   1.1894   1.2841   1.3121
     1.7118   1.8118   1.8164   1.8475   1.9325   1.9787   2.0172   2.1524
     2.2216   2.3322   2.3713   2.3783   2.4856   2.5005   2.5245   2.5495
     2.5650   2.5853   2.7311   2.7580   2.7653   2.7784   2.7992   2.8125
     2.8260   2.8763   2.9699   2.9916   3.0076   3.0104   3.0273   3.0759
     3.1323   3.1356   3.2490   3.2502   3.2646   3.3682   3.3992   3.4565
     3.5311   3.6198   3.6364   3.6596   3.7481   3.7585   3.8110   4.2133
     4.2621   4.3468   4.4035   4.6515   4.6607   4.6936   4.9497   4.9517
     5.0426   5.3216   5.3812   5.3826   5.4346   5.5241   5.6337   5.6525
     5.6919   5.7234   5.8247   5.9694   6.0485   6.0913   6.1709   6.2037
     6.2247   6.2935   6.2964   6.4076   6.4624   6.4798   6.5222   6.5736
     6.7894   6.9324   7.3355   7.4269   7.5247   8.0941   8.2092   8.4932
     9.0157   9.0752   9.2051   9.3021   9.3673   9.3973   9.4753

          k =-0.0759 0.0560 0.0000 ( 34616 PWs)   bands (ev):

   -58.4673 -58.4498 -57.5553 -57.5375 -57.5317 -57.4547 -57.4295 -57.4047
   -57.2744 -57.2602 -57.2253 -57.2060 -57.0801 -57.0625 -56.9786 -56.9596
   -34.8268 -34.7378 -34.7234 -34.6564 -34.6312 -34.6106 -33.9685 -33.9350
   -33.8965 -33.7943 -33.7777 -33.7684 -33.7608 -33.7479 -33.7467 -33.7296
   -33.7107 -33.7023 -33.6862 -33.6735 -33.6729 -33.6450 -33.6347 -33.6308
   -33.6230 -33.5794 -33.5787 -33.5724 -33.5208 -33.4745 -33.4697 -33.4553
   -33.4461 -33.4358 -33.4328 -33.4259 -33.4242 -33.4131 -33.4097 -33.4005
   -33.2851 -33.2591 -33.2403 -33.2200 -33.2170 -33.2034 -33.1945 -33.1687
   -18.2542 -18.1995 -17.9958 -17.8747 -17.7979 -17.7659 -17.7615 -17.5518
   -17.5339 -17.3826 -17.3591 -17.2921 -17.1732 -17.1374 -17.0790 -17.0706
   -17.0379 -17.0221 -16.9998 -16.9877 -16.9086 -16.8819 -16.8000 -16.7572
   -16.6920 -16.6774 -16.6047 -16.5984 -16.5932 -16.4088 -16.3741 -15.8066
   -15.7859  -6.0975  -5.2356  -5.1704  -5.1096  -4.9832  -4.9727  -4.9659
    -4.8857  -4.7351  -4.6748  -4.6011  -4.5835  -4.5620  -4.5439  -4.5034
    -4.4750  -4.4645  -4.3885  -4.3620  -4.3406  -4.3131  -4.2832  -4.2487
    -4.2427  -4.2233  -4.2053  -4.1480  -4.0907  -4.0158  -3.9318  -3.8869
    -3.8033  -3.7783  -3.7593  -3.7339  -3.6974  -3.6457  -3.5218  -3.4745
    -3.4230  -3.3785  -3.3467  -3.3223  -3.2961  -3.2488  -3.2345  -3.1703
    -3.1326  -3.1260  -2.9446  -2.9016  -2.8859  -2.8637  -2.8578  -2.8057
    -2.7610  -2.7479  -2.7217  -2.6781  -2.6266  -2.5991  -2.5679  -2.5162
    -2.4369  -2.4111  -2.3676  -2.3417  -2.2960  -2.2836  -2.2031  -2.1029
    -2.0859  -2.0511  -2.0249  -1.8902  -1.8686  -1.7793  -1.7323  -1.7150
    -1.7024  -1.6435  -1.5892  -1.4924  -1.4474  -1.3747  -1.2868  -1.2264
    -1.1837  -1.1794  -1.1215  -1.0254  -0.9473  -0.9093  -0.8856  -0.8687
    -0.8295  -0.8126  -0.7768  -0.7022   1.1695   1.3382   1.3890   1.5248
     1.7277   1.8843   1.9006   1.9267   1.9531   2.0575   2.1410   2.1729
     2.2452   2.3071   2.3752   2.4344   2.5090   2.5128   2.5641   2.6247
     2.6625   2.6934   2.7140   2.7331   2.7504   2.7833   2.8580   2.8643
     2.8976   2.9318   2.9832   3.0057   3.0554   3.0710   3.0888   3.1083
     3.1293   3.1877   3.2259   3.2382   3.3098   3.3217   3.3374   3.4365
     3.4763   3.5199   3.6305   3.6369   3.6851   3.7149   3.8132   4.2743
     4.2942   4.3474   4.4311   4.4490   4.7605   4.7782   4.8380   4.9100
     5.0373   5.0884   5.1219   5.1917   5.4241   5.4914   5.5238   5.6394
     5.6800   5.8121   5.8488   5.9107   5.9436   5.9592   5.9918   6.1353
     6.1409   6.1916   6.3239   6.3518   6.4149   6.4347   6.6655   6.8413
     6.8984   7.1052   7.2855   7.5573   7.7563   7.8939   8.1971   8.2578
     8.4673   8.4847   8.6042   8.7387   9.0306   9.2441   9.4179

          k =-0.0759-0.0840 0.0000 ( 34556 PWs)   bands (ev):

   -58.4594 -58.4577 -57.5464 -57.5464 -57.5307 -57.4557 -57.4258 -57.4084
   -57.2702 -57.2645 -57.2198 -57.2115 -57.0713 -57.0713 -56.9700 -56.9683
   -34.7315 -34.7307 -34.7294 -34.7291 -34.6343 -34.6327 -33.8715 -33.8711
   -33.8652 -33.8488 -33.8128 -33.7711 -33.7710 -33.7589 -33.7400 -33.7396
   -33.7343 -33.7255 -33.6937 -33.6626 -33.6573 -33.6384 -33.6324 -33.6316
   -33.6299 -33.5891 -33.5332 -33.5321 -33.5312 -33.5113 -33.4850 -33.4796
   -33.4506 -33.4481 -33.4433 -33.4325 -33.4177 -33.4177 -33.3173 -33.3164
   -33.3159 -33.3074 -33.2628 -33.2625 -33.2124 -33.2114 -33.2081 -33.2011
   -18.2531 -17.9843 -17.9840 -17.9141 -17.9121 -17.6666 -17.6264 -17.6260
   -17.6244 -17.3537 -17.2263 -17.2179 -17.2150 -17.1251 -17.1183 -17.0623
   -17.0228 -16.9713 -16.9570 -16.9453 -16.9437 -16.9436 -16.9369 -16.7377
   -16.7162 -16.7014 -16.6979 -16.6096 -16.6081 -16.4419 -16.4167 -15.8181
   -15.8180  -6.0969  -5.0545  -5.0448  -4.9760  -4.9739  -4.8424  -4.8421
    -4.8368  -4.8296  -4.5881  -4.5826  -4.5794  -4.5140  -4.4529  -4.3826
    -4.3809  -4.3793  -4.3448  -4.3299  -4.3160  -4.3062  -4.2882  -4.2389
    -4.2346  -4.2053  -4.2052  -4.1897  -4.0783  -4.0205  -3.9621  -3.9407
    -3.9049  -3.8271  -3.8186  -3.8159  -3.7002  -3.6259  -3.6127  -3.6044
    -3.4803  -3.4794  -3.3274  -3.3273  -3.3131  -3.2792  -3.2112  -3.1752
    -3.1184  -3.1083  -3.0251  -3.0163  -2.9880  -2.9696  -2.9496  -2.8699
    -2.8227  -2.7323  -2.6964  -2.6575  -2.6064  -2.6005  -2.5494  -2.5439
    -2.5235  -2.4481  -2.3945  -2.3941  -2.3676  -2.3028  -2.2567  -2.2159
    -2.1037  -2.0407  -2.0335  -2.0084  -1.8903  -1.8674  -1.8214  -1.6737
    -1.6285  -1.5986  -1.5854  -1.5619  -1.3190  -1.2782  -1.2619  -1.2552
    -1.2198  -1.1714  -1.0952  -1.0206  -0.9453  -0.9152  -0.9021  -0.8649
    -0.8424  -0.8132  -0.7399  -0.7275   1.4325   1.4364   1.4481   1.4538
     1.7957   1.7963   1.9241   1.9260   2.0784   2.1343   2.1372   2.1914
     2.2643   2.2937   2.3870   2.4612   2.4678   2.5375   2.5724   2.6409
     2.6410   2.6647   2.7962   2.7974   2.8044   2.8191   2.8361   2.8701
     2.9169   2.9750   2.9820   3.0703   3.0739   3.0765   3.1000   3.1146
     3.1898   3.2274   3.2302   3.2832   3.2917   3.3131   3.3275   3.3315
     3.3985   3.4206   3.5736   3.6540   3.7171   3.7176   3.9718   3.9722
     4.3764   4.4564   4.4825   4.5426   4.6777   4.6963   4.7348   4.8381
     4.9894   5.0074   5.0178   5.0496   5.5032   5.5044   5.5220   5.7389
     5.7634   5.7657   5.8272   5.8454   5.9268   5.9309   5.9681   6.0732
     6.1089   6.1167   6.2009   6.2676   6.3238   6.4230   6.6819   7.0799
     7.4054   7.4189   7.4380   7.4969   7.6810   7.6935   7.8299   7.9076
     8.2445   8.2554   8.4265   8.5571   9.0391   9.0556   9.1741

     the Fermi energy is    -0.4569 ev

!    total energy              =   -3005.52858339 Ry
     Harris-Foulkes estimate   =   -3005.52858304 Ry
     estimated scf accuracy    <       0.00000022 Ry

     The total energy is the sum of the following terms:

     one-electron contribution =  -41028.47258208 Ry
     hartree contribution      =   20580.44173887 Ry
     xc contribution           =    -546.73931484 Ry
     ewald contribution        =   17989.26115212 Ry
     smearing contrib. (-TS)   =      -0.01957746 Ry

     total magnetization       =     0.00 Bohr mag/cell
     absolute magnetization    =     0.00 Bohr mag/cell

     convergence has been achieved in  14 iterations

     Forces acting on atoms (Ry/au):


     negative rho (up, down):  1.352E-02 1.352E-02
     atom    1 type  1   force =    -0.00000277   -0.00110400   -0.10407140
     atom    2 type  2   force =    -0.00000042    0.00000000    0.03810444
     atom    3 type  1   force =    -0.00011509    0.00000000   -0.02274517
     atom    4 type  2   force =    -0.00616108    0.00313276   -0.00578687
     atom    5 type  1   force =     0.00029798    0.00045421   -0.00055679
     atom    6 type  2   force =    -0.00038511    0.00000000   -0.00049413
     atom    7 type  1   force =    -0.00116132    0.00000000   -0.02693232
     atom    8 type  2   force =    -0.00095974   -0.00083590   -0.00028186
     atom    9 type  1   force =    -0.00000277    0.00110400   -0.10407140
     atom   10 type  2   force =    -0.00000215    0.00000000    0.03432409
     atom   11 type  1   force =    -0.00010939    0.00000000    0.01133438
     atom   12 type  2   force =    -0.00616108   -0.00313276   -0.00578687
     atom   13 type  1   force =     0.00029798   -0.00045421   -0.00055679
     atom   14 type  2   force =    -0.00069391    0.00000000   -0.00137483
     atom   15 type  1   force =     0.00049305    0.00000000    0.00088180
     atom   16 type  2   force =    -0.00095974    0.00083590   -0.00028186
     atom   17 type  2   force =    -0.00001510    0.00000000    0.06637752
     atom   18 type  1   force =     0.00012509    0.00000000    0.13082102
     atom   19 type  2   force =    -0.00012845    0.00000000   -0.08419011
     atom   20 type  2   force =    -0.05790921    0.00018105   -0.03626408
     atom   21 type  2   force =     0.05802753    0.00021965   -0.03615397
     atom   22 type  1   force =    -0.00002577    0.00088103    0.07803186
     atom   23 type  2   force =    -0.00017931    0.00000000    0.00131592
     atom   24 type  2   force =    -0.00013628    0.00000000   -0.03627551
     atom   25 type  2   force =     0.00593513    0.00308567   -0.00553938
     atom   26 type  1   force =    -0.00042426    0.00000000    0.00015477
     atom   27 type  2   force =     0.00038463    0.00000000    0.00154710
     atom   28 type  2   force =    -0.00025944    0.00034302   -0.00037678
     atom   29 type  2   force =    -0.00023656    0.00020524    0.00004918
     atom   30 type  1   force =     0.00000420    0.00034767   -0.00032013
     atom   31 type  2   force =    -0.00043284    0.00000000    0.00075382
     atom   32 type  2   force =     0.00131468   -0.00161987   -0.00038696
     atom   33 type  2   force =    -0.00002281    0.00000000    0.06629479
     atom   34 type  1   force =     0.00004929    0.00000000    0.13060424
     atom   35 type  2   force =    -0.00011131    0.00000000   -0.08359562
     atom   36 type  2   force =    -0.05790921   -0.00018105   -0.03626408
     atom   37 type  2   force =     0.05802753   -0.00021965   -0.03615397
     atom   38 type  1   force =    -0.00002577   -0.00088103    0.07803186
     atom   39 type  2   force =    -0.00009773    0.00000000   -0.00024365
     atom   40 type  2   force =     0.00005550    0.00000000   -0.03529779
     atom   41 type  2   force =     0.00593513   -0.00308567   -0.00553938
     atom   42 type  1   force =    -0.00055376    0.00000000    0.00088385
     atom   43 type  2   force =     0.00039073    0.00000000    0.00179040
     atom   44 type  2   force =    -0.00025944   -0.00034302   -0.00037678
     atom   45 type  2   force =    -0.00023656   -0.00020524    0.00004918
     atom   46 type  1   force =     0.00000420   -0.00034767   -0.00032013
     atom   47 type  2   force =     0.00170659    0.00000000    0.00119405
     atom   48 type  2   force =     0.00131468    0.00161987   -0.00038696
     atom   49 type  2   force =     0.02650741    0.00000000    0.04313383
     atom   50 type  3   force =    -0.02519298    0.00000000   -0.01505255

     Total force =     0.346285     Total SCF correction =     0.001777
 !ASE

     Writing output data file calc.save
 
     init_run     :     50.26s CPU     58.38s WALL (       1 calls)
     electrons    :   2789.85s CPU   3145.78s WALL (       1 calls)
     forces       :     42.76s CPU     43.96s WALL (       1 calls)

     Called by init_run:
     wfcinit      :     42.99s CPU     50.53s WALL (       1 calls)
     potinit      :      1.36s CPU      1.57s WALL (       1 calls)

     Called by electrons:
     c_bands      :   2420.13s CPU   2713.98s WALL (      14 calls)
     sum_band     :    308.12s CPU    363.12s WALL (      14 calls)
     v_of_rho     :     15.28s CPU     18.24s WALL (      15 calls)
     newd         :     49.41s CPU     53.67s WALL (      15 calls)
     mix_rho      :      0.60s CPU      0.79s WALL (      14 calls)
     vdW_energy   :      3.36s CPU      3.77s WALL (      16 calls)
     vdW_ffts     :      3.84s CPU      4.86s WALL (      32 calls)
     vdW_v        :      1.55s CPU      1.74s WALL (      16 calls)

     Called by c_bands:
     init_us_2    :      6.57s CPU      7.16s WALL (     960 calls)
     cegterg      :   2379.71s CPU   2671.00s WALL (     448 calls)

     Called by *egterg:
     h_psi        :    905.08s CPU   1105.91s WALL (    2381 calls)
     s_psi        :    156.58s CPU    162.75s WALL (    2381 calls)
     g_psi        :      4.53s CPU      4.73s WALL (    1901 calls)
     cdiaghg      :    804.08s CPU    828.58s WALL (    2349 calls)

     Called by h_psi:
     add_vuspsi   :    157.62s CPU    164.47s WALL (    2381 calls)

     General routines
     calbec       :    231.39s CPU    237.89s WALL (    2861 calls)
     fft          :      7.96s CPU      9.91s WALL (    1272 calls)
     ffts         :      0.08s CPU      0.11s WALL (      58 calls)
     fftw         :    514.84s CPU    748.05s WALL (  757694 calls)
     interpolate  :      0.46s CPU      0.70s WALL (      58 calls)
     davcio       :      0.05s CPU      2.64s WALL (      32 calls)
 
     Parallel routines
     fft_scatter  :    254.21s CPU    396.63s WALL (  759024 calls)
 
     PWSCF        : 48m 3.84s CPU    54m12.27s WALL

 
   This run was terminated on:  21:38:20  10Feb2018            

=------------------------------------------------------------------------------=
   JOB DONE.
=------------------------------------------------------------------------------=
