  python dir          : /home/vossj/suncat/lib/python2.7/site-packages/espresso
  espresso dir        : /home/vossj/suncat/esdld/espresso-dynpy-beef/bin
  pseudo dir          : /home/alatimer/bin/psp/esp_psp_w_gbrvRu/
  ase-espresso py git : ffa2778-git



     Program PWSCF v.5.1rc2 (svn rev. ) starts on 10Mar2018 at  8:12:31 

     This program is part of the open-source Quantum ESPRESSO suite
     for quantum simulation of materials; please cite
         "P. Giannozzi et al., J. Phys.:Condens. Matter 21 395502 (2009);
          URL http://www.quantum-espresso.org", 
     in publications or presentations arising from this work. More details at
     http://www.quantum-espresso.org/quote

     Parallel version (MPI), running on    16 processors
     R & G space division:  proc/nbgrp/npool/nimage =      16
     Reading input from pw.inp
     Message from routine read_cards :
     DEPRECATED: no units specified in CELL_PARAMETERS card

     Current dimensions of program PWSCF are:
     Max number of different atomic species (ntypx) = 10
     Max number of k-points (npk) =  40000
     Max angular momentum in pseudopotentials (lmaxx) =  3

     **************************************************************************
     Initializing libbeef V0.1.1 with the BEEF-vdW functional.
     Citation: Wellendorff et al., PRB 85, 235149 (2012).
     **************************************************************************


     IMPORTANT: XC functional enforced from input :
     Exchange-correlation      = BEEF ( 1  4 27 13 2)
     Any further DFT definition will be discarded
     Please, verify this is what you really want


     Subspace diagonalization in iterative solution of the eigenvalue problem:
     a serial algorithm will be used

 
     Parallelization info
     --------------------
     sticks:   dense  smooth     PW     G-vecs:    dense   smooth      PW
     Min         281     112     31                68535    17318    2565
     Max         282     113     32                68545    17369    2582
     Sum        4501    1795    503              1096637   277353   41113
 
     Generating pointlists ...
     new r_m :   0.4125 (alat units)  0.7795 (a.u.) for type    1
     new r_m :   0.4125 (alat units)  0.7795 (a.u.) for type    2
     new r_m :   0.4125 (alat units)  0.7795 (a.u.) for type    3


     bravais-lattice index     =            0
     lattice parameter (alat)  =       1.8897  a.u.
     unit-cell volume          =    7990.9933 (a.u.)^3
     number of atoms/cell      =           51
     number of atomic types    =            3
     number of electrons       =       400.00
     number of Kohn-Sham states=          300
     kinetic-energy cutoff     =      40.4243  Ry
     charge density cutoff     =     404.2426  Ry
     convergence threshold     =      7.3E-07
     mixing beta               =       0.1000
     number of iterations used =           10  plain     mixing
     Exchange-correlation      = BEEF ( 1  4 27 13 2)
     nstep                     =           50


     celldm(1)=   1.889726  celldm(2)=   0.000000  celldm(3)=   0.000000
     celldm(4)=   0.000000  celldm(5)=   0.000000  celldm(6)=   0.000000

     crystal axes: (cart. coord. in units of alat)
               a(1) = (   6.590708   0.000000   0.000000 )  
               a(2) = (   0.000000   5.950229   0.000000 )  
               a(3) = (   0.000000   0.000000  30.195235 )  

     reciprocal axes: (cart. coord. in units 2 pi/alat)
               b(1) = (  0.151729  0.000000  0.000000 )  
               b(2) = (  0.000000  0.168061  0.000000 )  
               b(3) = (  0.000000  0.000000  0.033118 )  


     PseudoPot. # 1 for Ti read from file:
     /home/alatimer/bin/psp/esp_psp_w_gbrvRu/Ti.UPF
     MD5 check sum: 8e4df49b7f0d34bbd5052bf3f5ea0213
     Pseudo is Ultrasoft, Zval = 12.0
     Generated by new atomic code, or converted to UPF format
     Using radial grid of  851 points,  6 beta functions with: 
                l(1) =   0
                l(2) =   0
                l(3) =   1
                l(4) =   1
                l(5) =   2
                l(6) =   2
     Q(r) pseudized with  8 coefficients,  rinner =    1.000   1.000   1.000
                                                       1.000   1.000

     PseudoPot. # 2 for  O read from file:
     /home/alatimer/bin/psp/esp_psp_w_gbrvRu/O.UPF
     MD5 check sum: e057bbcf3229fb5d8c36c0c92f9568b4
     Pseudo is Ultrasoft + core correction, Zval =  6.0
     Generated using "atomic" code by A. Dal Corso  v.5.0.2 svn rev. 9415
     Using radial grid of 1095 points,  4 beta functions with: 
                l(1) =   0
                l(2) =   0
                l(3) =   1
                l(4) =   1
     Q(r) pseudized with 0 coefficients 


     PseudoPot. # 3 for  N read from file:
     /home/alatimer/bin/psp/esp_psp_w_gbrvRu/N.UPF
     MD5 check sum: ed8b6a90f28a53b7d71920e7015d2dd6
     Pseudo is Ultrasoft + core correction, Zval =  5.0
     Generated using "atomic" code by A. Dal Corso  v.5.0.2 svn rev. 9415
     Using radial grid of 1085 points,  4 beta functions with: 
                l(1) =   0
                l(2) =   0
                l(3) =   1
                l(4) =   1
     Q(r) pseudized with 0 coefficients 


     vdW kernel table read from file vdW_kernel_table
     MD5 check sum: 095c7af220d748ca6e76c0b4c6cfb241

     atomic species   valence    mass     pseudopotential
        Ti1           12.00    47.88000     Ti( 1.00)
        O1             6.00    15.99940      O( 1.00)
        N1             5.00    14.00670      N( 1.00)

     Starting magnetic structure 
     atomic species   magnetization
        Ti1          0.250
        O1           0.500
        N1           0.600

     No symmetry found



   Cartesian axes

     site n.     atom                  positions (alat units)
         1           Ti1 tau(   1) = (   1.6476770   0.7437786   2.6545865  )
         2           O1  tau(   2) = (   1.6476770   2.2313359   3.9361215  )
         3           Ti1 tau(   3) = (   1.6476770   2.2313359   5.9499405  )
         4           O1  tau(   4) = (   0.3661420   0.7437786   5.9499405  )
         5           Ti1 tau(   5) = (   1.5280591   0.7315068   9.1973351  )
         6           O1  tau(   6) = (   1.6613943   2.1836906  10.6091769  )
         7           Ti1 tau(   7) = (   1.6665780   2.2096385  12.4157880  )
         8           O1  tau(   8) = (   0.4439715   0.7264440  12.7601561  )
         9           Ti1 tau(   9) = (   1.6476770   3.7188931   2.6545865  )
        10           O1  tau(  10) = (   1.6476770   5.2064503   3.9361215  )
        11           Ti1 tau(  11) = (   1.6476770   5.2064503   5.9499405  )
        12           O1  tau(  12) = (   0.3661420   3.7188931   5.9499405  )
        13           Ti1 tau(  13) = (   1.5319291   3.7072436   9.2118370  )
        14           O1  tau(  14) = (   1.6575607   5.2126413  10.6087893  )
        15           Ti1 tau(  15) = (   1.6606453   5.1916961  12.4165775  )
        16           O1  tau(  16) = (   0.4123725   3.7022030  12.5882193  )
        17           O1  tau(  17) = (   1.6476770   2.2313359   1.3730516  )
        18           Ti1 tau(  18) = (   4.9430310   2.2313359   2.6545865  )
        19           O1  tau(  19) = (   4.9430310   2.2313359   4.6684056  )
        20           O1  tau(  20) = (   6.2245660   0.7437786   2.6545865  )
        21           O1  tau(  21) = (   3.6614961   0.7437786   2.6545865  )
        22           Ti1 tau(  22) = (   4.9430310   0.7437786   5.9499405  )
        23           O1  tau(  23) = (   1.6517842   2.2287041   8.0298356  )
        24           O1  tau(  24) = (   4.9430310   2.2313359   7.2314755  )
        25           O1  tau(  25) = (   2.9292120   0.7437786   5.9499405  )
        26           Ti1 tau(  26) = (   4.8605205   2.2076595   9.4238065  )
        27           O1  tau(  27) = (   4.9553550   2.1639423  11.2756624  )
        28           O1  tau(  28) = (   6.2690671   0.7288246   9.2688367  )
        29           O1  tau(  29) = (   3.6660957   0.7249325   9.2867299  )
        30           Ti1 tau(  30) = (   4.9284588   0.7282168  12.7798302  )
        31           O1  tau(  31) = (   4.9953437   2.2216212  13.8477397  )
        32           O1  tau(  32) = (   2.9112183   0.7266397  12.7651274  )
        33           O1  tau(  33) = (   1.6476770   5.2064503   1.3730516  )
        34           Ti1 tau(  34) = (   4.9430310   5.2064503   2.6545865  )
        35           O1  tau(  35) = (   4.9430310   5.2064503   4.6684056  )
        36           O1  tau(  36) = (   6.2245660   3.7188931   2.6545865  )
        37           O1  tau(  37) = (   3.6614961   3.7188931   2.6545865  )
        38           Ti1 tau(  38) = (   4.9430310   3.7188931   5.9499405  )
        39           O1  tau(  39) = (   1.6524867   5.1852222   8.0294571  )
        40           O1  tau(  40) = (   4.9430310   5.2064503   7.2314755  )
        41           O1  tau(  41) = (   2.9292120   3.7188931   5.9499405  )
        42           Ti1 tau(  42) = (   4.8610151   5.1886528   9.4241876  )
        43           O1  tau(  43) = (   4.9550983   5.2107439  11.2753448  )
        44           O1  tau(  44) = (   6.2713562   3.7024388   9.3047907  )
        45           O1  tau(  45) = (   3.6650622   3.7005085   9.3135888  )
        46           Ti1 tau(  46) = (   5.0160509   3.7038162  12.7585864  )
        47           O1  tau(  47) = (   4.9984032   5.1727849  13.8485277  )
        48           O1  tau(  48) = (   2.9655234   3.7049164  12.5317472  )
        49           O1  tau(  49) = (   2.2548149   3.7363572  14.5693114  )
        50           N1  tau(  50) = (   2.4020298   3.6667063  16.9651815  )
        51           N1  tau(  51) = (   2.1425646   3.6919273  15.8611024  )

     number of k points=    40  Fermi-Dirac smearing, width (Ry)=  0.0073
                       cart. coord. in units 2pi/alat
        k(    1) = (   0.0000000   0.0000000   0.0000000), wk =   0.0277778
        k(    2) = (   0.0000000   0.0280101   0.0000000), wk =   0.0555556
        k(    3) = (   0.0000000   0.0560203   0.0000000), wk =   0.0555556
        k(    4) = (   0.0000000  -0.0840304   0.0000000), wk =   0.0277778
        k(    5) = (   0.0252881   0.0000000   0.0000000), wk =   0.0555556
        k(    6) = (   0.0252881   0.0280101   0.0000000), wk =   0.0555556
        k(    7) = (   0.0252881   0.0560203   0.0000000), wk =   0.0555556
        k(    8) = (   0.0252881  -0.0840304   0.0000000), wk =   0.0555556
        k(    9) = (   0.0505763   0.0000000   0.0000000), wk =   0.0555556
        k(   10) = (   0.0505763   0.0280101   0.0000000), wk =   0.0555556
        k(   11) = (   0.0505763   0.0560203   0.0000000), wk =   0.0555556
        k(   12) = (   0.0505763  -0.0840304   0.0000000), wk =   0.0555556
        k(   13) = (  -0.0758644   0.0000000   0.0000000), wk =   0.0277778
        k(   14) = (  -0.0758644   0.0280101   0.0000000), wk =   0.0555556
        k(   15) = (  -0.0758644   0.0560203   0.0000000), wk =   0.0555556
        k(   16) = (  -0.0758644  -0.0840304   0.0000000), wk =   0.0277778
        k(   17) = (  -0.0252881   0.0280101   0.0000000), wk =   0.0555556
        k(   18) = (  -0.0252881   0.0560203   0.0000000), wk =   0.0555556
        k(   19) = (  -0.0505763   0.0280101   0.0000000), wk =   0.0555556
        k(   20) = (  -0.0505763   0.0560203   0.0000000), wk =   0.0555556
        k(   21) = (   0.0000000   0.0000000   0.0000000), wk =   0.0277778
        k(   22) = (   0.0000000   0.0280101   0.0000000), wk =   0.0555556
        k(   23) = (   0.0000000   0.0560203   0.0000000), wk =   0.0555556
        k(   24) = (   0.0000000  -0.0840304   0.0000000), wk =   0.0277778
        k(   25) = (   0.0252881   0.0000000   0.0000000), wk =   0.0555556
        k(   26) = (   0.0252881   0.0280101   0.0000000), wk =   0.0555556
        k(   27) = (   0.0252881   0.0560203   0.0000000), wk =   0.0555556
        k(   28) = (   0.0252881  -0.0840304   0.0000000), wk =   0.0555556
        k(   29) = (   0.0505763   0.0000000   0.0000000), wk =   0.0555556
        k(   30) = (   0.0505763   0.0280101   0.0000000), wk =   0.0555556
        k(   31) = (   0.0505763   0.0560203   0.0000000), wk =   0.0555556
        k(   32) = (   0.0505763  -0.0840304   0.0000000), wk =   0.0555556
        k(   33) = (  -0.0758644   0.0000000   0.0000000), wk =   0.0277778
        k(   34) = (  -0.0758644   0.0280101   0.0000000), wk =   0.0555556
        k(   35) = (  -0.0758644   0.0560203   0.0000000), wk =   0.0555556
        k(   36) = (  -0.0758644  -0.0840304   0.0000000), wk =   0.0277778
        k(   37) = (  -0.0252881   0.0280101   0.0000000), wk =   0.0555556
        k(   38) = (  -0.0252881   0.0560203   0.0000000), wk =   0.0555556
        k(   39) = (  -0.0505763   0.0280101   0.0000000), wk =   0.0555556
        k(   40) = (  -0.0505763   0.0560203   0.0000000), wk =   0.0555556

     Dense  grid:  1096637 G-vectors     FFT dimensions: (  80,  72, 375)

     Smooth grid:   277353 G-vectors     FFT dimensions: (  54,  45, 240)

     Largest allocated arrays     est. size (Mb)     dimensions
        Kohn-Sham Wavefunctions         9.98 Mb     (    2180,  300)
        NL pseudopotentials            18.89 Mb     (    2180,  568)
        Each V/rho on FFT grid          4.22 Mb     (  138240,   2)
        Each G-vector array             0.52 Mb     (   68538)
        G-vector shells                 0.25 Mb     (   33046)
     Largest temporary arrays     est. size (Mb)     dimensions
        Auxiliary wavefunctions        39.92 Mb     (    2180, 1200)
        Each subspace H/S matrix       21.97 Mb     (    1200, 1200)
        Each <psi_i|beta_j> matrix      2.60 Mb     (     568,  300)
        Arrays for rho mixing          21.09 Mb     (  138240,   10)

     Check: negative/imaginary core charge=   -0.000049    0.000000

     The initial density is read from file :
     ./calc.save/charge-density.dat


     negative rho (up, down):  1.158E-02 1.158E-02


     ************************************************************************
     *
     * You are using vdW-DF for exchange-correlation in this calculation.
     * Please cite the following three references that made this development
     * possible:
     *
     *   M. Dion, H. Rydberg, E. Schroder, D. C. Langreth, and
     *   B. I. Lundqvist, Phys. Rev. Lett. 92, 246401 (2004).
     *
     *   T. Thonhauser, V. R. Cooper, S. Li, A. Puzder, P. Hyldgaard, and
     *   D. C. Langreth, Phys. Rev. B 76, 125112 (2007).
     *
     *   G. Roman-Perez and J. M. Soler, Phys. Rev. Lett. 103, 096102 (2009).
     *
     *
     * If you are using vdW-DF2, please also cite:
     *
     *   K. Lee, E. D. Murray, L. Kong, B. I. Lundqvist, and
     *   D. C. Langreth, Phys. Rev. B 82, 081101(R) (2010).
     *
     *
     * If you are calculating the stress with vdW-DF, please also cite:
     *
     *   R. Sabatini, E. Kucukbenli, B. Kolb, T. Thonhauser, and
     *   S. de Gironcoli, J. Phys.: Condens. Matter 24, 424209 (2012).
     *
     ************************************************************************

     Carrying out vdW-DF run using the following parameters:

     Nqs =      20    Nr_points =    1024   r_max =   100.000
     q_mesh =
               0.00001000     0.04494208     0.09755937     0.15916263
               0.23128650     0.31572767     0.41458969     0.53033537
               0.66584808     0.82450364     1.01025438     1.22772762
               1.48234092     1.78043706     2.12944203     2.53805004
               3.01644009     3.57652955     4.23227104     5.00000000

     Gradients computed in reciprocal space

     ************************************************************************


     Starting wfc are  300 randomized atomic wfcs

     total cpu time spent up to now is       69.0 secs

     Self-consistent Calculation

     iteration #  1     ecut=    40.42 Ry     beta=0.10
     Davidson diagonalization with overlap
     ethr =  1.00E-05,  avg # of iterations = 14.9

     negative rho (up, down):  1.158E-02 1.158E-02
 
     Magnetic moment per site:
     atom:    1    charge:    3.1250    magn:   -0.0002    constr:    0.0000
     atom:    2    charge:    2.0894    magn:    0.0001    constr:    0.0000
     atom:    3    charge:    3.1196    magn:   -0.0001    constr:    0.0000
     atom:    4    charge:    2.0870    magn:    0.0000    constr:    0.0000
     atom:    5    charge:    3.1170    magn:   -0.0001    constr:    0.0000
     atom:    6    charge:    2.0920    magn:    0.0001    constr:    0.0000
     atom:    7    charge:    3.1172    magn:   -0.0000    constr:    0.0000
     atom:    8    charge:    2.0816    magn:    0.0001    constr:    0.0000
     atom:    9    charge:    3.1250    magn:   -0.0002    constr:    0.0000
     atom:   10    charge:    2.0894    magn:    0.0001    constr:    0.0000
     atom:   11    charge:    3.1196    magn:   -0.0001    constr:    0.0000
     atom:   12    charge:    2.0870    magn:    0.0000    constr:    0.0000
     atom:   13    charge:    3.1148    magn:   -0.0001    constr:    0.0000
     atom:   14    charge:    2.0908    magn:    0.0001    constr:    0.0000
     atom:   15    charge:    3.1207    magn:   -0.0000    constr:    0.0000
     atom:   16    charge:    2.0883    magn:    0.0001    constr:    0.0000
     atom:   17    charge:    2.0624    magn:    0.0004    constr:    0.0000
     atom:   18    charge:    3.1239    magn:   -0.0000    constr:    0.0000
     atom:   19    charge:    2.0878    magn:   -0.0000    constr:    0.0000
     atom:   20    charge:    2.0847    magn:   -0.0001    constr:    0.0000
     atom:   21    charge:    2.0847    magn:   -0.0001    constr:    0.0000
     atom:   22    charge:    3.1197    magn:   -0.0000    constr:    0.0000
     atom:   23    charge:    2.0908    magn:    0.0001    constr:    0.0000
     atom:   24    charge:    2.0777    magn:    0.0001    constr:    0.0000
     atom:   25    charge:    2.0869    magn:    0.0000    constr:    0.0000
     atom:   26    charge:    3.1165    magn:   -0.0001    constr:    0.0000
     atom:   27    charge:    2.0822    magn:    0.0002    constr:    0.0000
     atom:   28    charge:    2.0879    magn:    0.0001    constr:    0.0000
     atom:   29    charge:    2.0877    magn:    0.0001    constr:    0.0000
     atom:   30    charge:    3.1168    magn:   -0.0001    constr:    0.0000
     atom:   31    charge:    2.0809    magn:    0.0003    constr:    0.0000
     atom:   32    charge:    2.0843    magn:    0.0001    constr:    0.0000
     atom:   33    charge:    2.0624    magn:    0.0004    constr:    0.0000
     atom:   34    charge:    3.1239    magn:   -0.0000    constr:    0.0000
     atom:   35    charge:    2.0878    magn:   -0.0000    constr:    0.0000
     atom:   36    charge:    2.0847    magn:   -0.0001    constr:    0.0000
     atom:   37    charge:    2.0847    magn:   -0.0001    constr:    0.0000
     atom:   38    charge:    3.1197    magn:   -0.0000    constr:    0.0000
     atom:   39    charge:    2.0912    magn:    0.0001    constr:    0.0000
     atom:   40    charge:    2.0777    magn:    0.0001    constr:    0.0000
     atom:   41    charge:    2.0869    magn:    0.0000    constr:    0.0000
     atom:   42    charge:    3.1181    magn:   -0.0001    constr:    0.0000
     atom:   43    charge:    2.0839    magn:    0.0002    constr:    0.0000
     atom:   44    charge:    2.0865    magn:    0.0001    constr:    0.0000
     atom:   45    charge:    2.0871    magn:    0.0001    constr:    0.0000
     atom:   46    charge:    3.1171    magn:   -0.0001    constr:    0.0000
     atom:   47    charge:    2.0803    magn:    0.0003    constr:    0.0000
     atom:   48    charge:    2.0834    magn:    0.0002    constr:    0.0000
     atom:   49    charge:    2.0467    magn:   -0.0000    constr:    0.0000
     atom:   50    charge:    1.2590    magn:   -0.0000    constr:    0.0000
     atom:   51    charge:    1.2856    magn:    0.0000    constr:    0.0000

     total cpu time spent up to now is      801.6 secs

     total energy              =   -3044.98177136 Ry
     Harris-Foulkes estimate   =   -3044.99433153 Ry
     estimated scf accuracy    <       0.08440079 Ry

     total magnetization       =     0.00 Bohr mag/cell
     absolute magnetization    =     0.01 Bohr mag/cell

     iteration #  2     ecut=    40.42 Ry     beta=0.10
     Davidson diagonalization with overlap
     ethr =  2.11E-05,  avg # of iterations =  1.1

     negative rho (up, down):  1.158E-02 1.158E-02
 
     Magnetic moment per site:
     atom:    1    charge:    3.1250    magn:   -0.0001    constr:    0.0000
     atom:    2    charge:    2.0894    magn:    0.0001    constr:    0.0000
     atom:    3    charge:    3.1196    magn:   -0.0000    constr:    0.0000
     atom:    4    charge:    2.0870    magn:    0.0000    constr:    0.0000
     atom:    5    charge:    3.1170    magn:   -0.0000    constr:    0.0000
     atom:    6    charge:    2.0920    magn:    0.0001    constr:    0.0000
     atom:    7    charge:    3.1165    magn:   -0.0000    constr:    0.0000
     atom:    8    charge:    2.0816    magn:    0.0001    constr:    0.0000
     atom:    9    charge:    3.1250    magn:   -0.0001    constr:    0.0000
     atom:   10    charge:    2.0894    magn:    0.0001    constr:    0.0000
     atom:   11    charge:    3.1196    magn:   -0.0000    constr:    0.0000
     atom:   12    charge:    2.0870    magn:    0.0000    constr:    0.0000
     atom:   13    charge:    3.1148    magn:   -0.0000    constr:    0.0000
     atom:   14    charge:    2.0909    magn:    0.0001    constr:    0.0000
     atom:   15    charge:    3.1214    magn:   -0.0000    constr:    0.0000
     atom:   16    charge:    2.0883    magn:    0.0000    constr:    0.0000
     atom:   17    charge:    2.0624    magn:    0.0003    constr:    0.0000
     atom:   18    charge:    3.1239    magn:   -0.0000    constr:    0.0000
     atom:   19    charge:    2.0878    magn:   -0.0000    constr:    0.0000
     atom:   20    charge:    2.0847    magn:   -0.0001    constr:    0.0000
     atom:   21    charge:    2.0847    magn:   -0.0001    constr:    0.0000
     atom:   22    charge:    3.1197    magn:   -0.0000    constr:    0.0000
     atom:   23    charge:    2.0908    magn:    0.0001    constr:    0.0000
     atom:   24    charge:    2.0777    magn:    0.0001    constr:    0.0000
     atom:   25    charge:    2.0869    magn:    0.0000    constr:    0.0000
     atom:   26    charge:    3.1165    magn:   -0.0001    constr:    0.0000
     atom:   27    charge:    2.0823    magn:    0.0001    constr:    0.0000
     atom:   28    charge:    2.0879    magn:    0.0001    constr:    0.0000
     atom:   29    charge:    2.0877    magn:    0.0001    constr:    0.0000
     atom:   30    charge:    3.1168    magn:   -0.0001    constr:    0.0000
     atom:   31    charge:    2.0805    magn:    0.0002    constr:    0.0000
     atom:   32    charge:    2.0843    magn:    0.0001    constr:    0.0000
     atom:   33    charge:    2.0624    magn:    0.0003    constr:    0.0000
     atom:   34    charge:    3.1239    magn:   -0.0000    constr:    0.0000
     atom:   35    charge:    2.0878    magn:   -0.0000    constr:    0.0000
     atom:   36    charge:    2.0847    magn:   -0.0001    constr:    0.0000
     atom:   37    charge:    2.0847    magn:   -0.0001    constr:    0.0000
     atom:   38    charge:    3.1197    magn:   -0.0000    constr:    0.0000
     atom:   39    charge:    2.0912    magn:    0.0001    constr:    0.0000
     atom:   40    charge:    2.0777    magn:    0.0001    constr:    0.0000
     atom:   41    charge:    2.0869    magn:    0.0000    constr:    0.0000
     atom:   42    charge:    3.1181    magn:   -0.0001    constr:    0.0000
     atom:   43    charge:    2.0839    magn:    0.0001    constr:    0.0000
     atom:   44    charge:    2.0865    magn:    0.0001    constr:    0.0000
     atom:   45    charge:    2.0871    magn:    0.0001    constr:    0.0000
     atom:   46    charge:    3.1171    magn:   -0.0001    constr:    0.0000
     atom:   47    charge:    2.0807    magn:    0.0002    constr:    0.0000
     atom:   48    charge:    2.0834    magn:    0.0001    constr:    0.0000
     atom:   49    charge:    2.0497    magn:   -0.0000    constr:    0.0000
     atom:   50    charge:    1.2589    magn:   -0.0000    constr:    0.0000
     atom:   51    charge:    1.2851    magn:    0.0000    constr:    0.0000

     total cpu time spent up to now is      973.0 secs

     total energy              =   -3044.95694703 Ry
     Harris-Foulkes estimate   =   -3044.98250416 Ry
     estimated scf accuracy    <       0.05564344 Ry

     total magnetization       =     0.00 Bohr mag/cell
     absolute magnetization    =     0.01 Bohr mag/cell

     iteration #  3     ecut=    40.42 Ry     beta=0.10
     Davidson diagonalization with overlap
     ethr =  1.39E-05,  avg # of iterations =  2.0

     negative rho (up, down):  1.159E-02 1.159E-02
 
     Magnetic moment per site:
     atom:    1    charge:    3.1250    magn:   -0.0001    constr:    0.0000
     atom:    2    charge:    2.0894    magn:    0.0001    constr:    0.0000
     atom:    3    charge:    3.1196    magn:   -0.0000    constr:    0.0000
     atom:    4    charge:    2.0870    magn:    0.0000    constr:    0.0000
     atom:    5    charge:    3.1170    magn:   -0.0000    constr:    0.0000
     atom:    6    charge:    2.0912    magn:    0.0000    constr:    0.0000
     atom:    7    charge:    3.1197    magn:   -0.0000    constr:    0.0000
     atom:    8    charge:    2.0815    magn:    0.0000    constr:    0.0000
     atom:    9    charge:    3.1250    magn:   -0.0001    constr:    0.0000
     atom:   10    charge:    2.0894    magn:    0.0001    constr:    0.0000
     atom:   11    charge:    3.1196    magn:   -0.0000    constr:    0.0000
     atom:   12    charge:    2.0870    magn:    0.0000    constr:    0.0000
     atom:   13    charge:    3.1148    magn:   -0.0000    constr:    0.0000
     atom:   14    charge:    2.0917    magn:    0.0000    constr:    0.0000
     atom:   15    charge:    3.1182    magn:   -0.0000    constr:    0.0000
     atom:   16    charge:    2.0883    magn:    0.0000    constr:    0.0000
     atom:   17    charge:    2.0624    magn:    0.0002    constr:    0.0000
     atom:   18    charge:    3.1239    magn:   -0.0000    constr:    0.0000
     atom:   19    charge:    2.0878    magn:   -0.0000    constr:    0.0000
     atom:   20    charge:    2.0847    magn:   -0.0000    constr:    0.0000
     atom:   21    charge:    2.0847    magn:   -0.0000    constr:    0.0000
     atom:   22    charge:    3.1197    magn:   -0.0000    constr:    0.0000
     atom:   23    charge:    2.0909    magn:    0.0000    constr:    0.0000
     atom:   24    charge:    2.0777    magn:    0.0000    constr:    0.0000
     atom:   25    charge:    2.0869    magn:    0.0000    constr:    0.0000
     atom:   26    charge:    3.1165    magn:   -0.0000    constr:    0.0000
     atom:   27    charge:    2.0827    magn:    0.0001    constr:    0.0000
     atom:   28    charge:    2.0879    magn:    0.0001    constr:    0.0000
     atom:   29    charge:    2.0877    magn:    0.0000    constr:    0.0000
     atom:   30    charge:    3.1168    magn:   -0.0001    constr:    0.0000
     atom:   31    charge:    2.0823    magn:    0.0002    constr:    0.0000
     atom:   32    charge:    2.0842    magn:    0.0000    constr:    0.0000
     atom:   33    charge:    2.0624    magn:    0.0002    constr:    0.0000
     atom:   34    charge:    3.1239    magn:   -0.0000    constr:    0.0000
     atom:   35    charge:    2.0878    magn:   -0.0000    constr:    0.0000
     atom:   36    charge:    2.0847    magn:   -0.0000    constr:    0.0000
     atom:   37    charge:    2.0847    magn:   -0.0000    constr:    0.0000
     atom:   38    charge:    3.1197    magn:   -0.0000    constr:    0.0000
     atom:   39    charge:    2.0912    magn:    0.0000    constr:    0.0000
     atom:   40    charge:    2.0777    magn:    0.0000    constr:    0.0000
     atom:   41    charge:    2.0869    magn:    0.0000    constr:    0.0000
     atom:   42    charge:    3.1181    magn:   -0.0000    constr:    0.0000
     atom:   43    charge:    2.0834    magn:    0.0001    constr:    0.0000
     atom:   44    charge:    2.0865    magn:    0.0001    constr:    0.0000
     atom:   45    charge:    2.0871    magn:    0.0000    constr:    0.0000
     atom:   46    charge:    3.1171    magn:   -0.0001    constr:    0.0000
     atom:   47    charge:    2.0789    magn:    0.0002    constr:    0.0000
     atom:   48    charge:    2.0835    magn:    0.0001    constr:    0.0000
     atom:   49    charge:    2.0511    magn:   -0.0000    constr:    0.0000
     atom:   50    charge:    1.2590    magn:   -0.0000    constr:    0.0000
     atom:   51    charge:    1.2853    magn:    0.0000    constr:    0.0000

     total cpu time spent up to now is     1162.9 secs

     total energy              =   -3044.95492253 Ry
     Harris-Foulkes estimate   =   -3044.96127737 Ry
     estimated scf accuracy    <       0.01138010 Ry

     total magnetization       =     0.00 Bohr mag/cell
     absolute magnetization    =     0.00 Bohr mag/cell

     iteration #  4     ecut=    40.42 Ry     beta=0.10
     Davidson diagonalization with overlap
     ethr =  2.85E-06,  avg # of iterations =  4.8

     negative rho (up, down):  1.159E-02 1.159E-02
 
     Magnetic moment per site:
     atom:    1    charge:    3.1250    magn:   -0.0001    constr:    0.0000
     atom:    2    charge:    2.0894    magn:    0.0001    constr:    0.0000
     atom:    3    charge:    3.1196    magn:   -0.0000    constr:    0.0000
     atom:    4    charge:    2.0870    magn:    0.0000    constr:    0.0000
     atom:    5    charge:    3.1170    magn:   -0.0000    constr:    0.0000
     atom:    6    charge:    2.0915    magn:    0.0000    constr:    0.0000
     atom:    7    charge:    3.1194    magn:   -0.0000    constr:    0.0000
     atom:    8    charge:    2.0815    magn:    0.0000    constr:    0.0000
     atom:    9    charge:    3.1250    magn:   -0.0001    constr:    0.0000
     atom:   10    charge:    2.0894    magn:    0.0001    constr:    0.0000
     atom:   11    charge:    3.1196    magn:   -0.0000    constr:    0.0000
     atom:   12    charge:    2.0870    magn:    0.0000    constr:    0.0000
     atom:   13    charge:    3.1148    magn:   -0.0000    constr:    0.0000
     atom:   14    charge:    2.0914    magn:    0.0000    constr:    0.0000
     atom:   15    charge:    3.1185    magn:   -0.0000    constr:    0.0000
     atom:   16    charge:    2.0883    magn:    0.0000    constr:    0.0000
     atom:   17    charge:    2.0624    magn:    0.0002    constr:    0.0000
     atom:   18    charge:    3.1239    magn:   -0.0000    constr:    0.0000
     atom:   19    charge:    2.0878    magn:   -0.0000    constr:    0.0000
     atom:   20    charge:    2.0847    magn:   -0.0000    constr:    0.0000
     atom:   21    charge:    2.0847    magn:   -0.0000    constr:    0.0000
     atom:   22    charge:    3.1197    magn:   -0.0000    constr:    0.0000
     atom:   23    charge:    2.0909    magn:    0.0000    constr:    0.0000
     atom:   24    charge:    2.0777    magn:    0.0000    constr:    0.0000
     atom:   25    charge:    2.0869    magn:    0.0000    constr:    0.0000
     atom:   26    charge:    3.1165    magn:   -0.0000    constr:    0.0000
     atom:   27    charge:    2.0825    magn:    0.0001    constr:    0.0000
     atom:   28    charge:    2.0879    magn:    0.0001    constr:    0.0000
     atom:   29    charge:    2.0877    magn:    0.0000    constr:    0.0000
     atom:   30    charge:    3.1168    magn:   -0.0001    constr:    0.0000
     atom:   31    charge:    2.0821    magn:    0.0002    constr:    0.0000
     atom:   32    charge:    2.0842    magn:    0.0000    constr:    0.0000
     atom:   33    charge:    2.0624    magn:    0.0002    constr:    0.0000
     atom:   34    charge:    3.1239    magn:   -0.0000    constr:    0.0000
     atom:   35    charge:    2.0878    magn:   -0.0000    constr:    0.0000
     atom:   36    charge:    2.0847    magn:   -0.0000    constr:    0.0000
     atom:   37    charge:    2.0847    magn:   -0.0000    constr:    0.0000
     atom:   38    charge:    3.1197    magn:   -0.0000    constr:    0.0000
     atom:   39    charge:    2.0912    magn:    0.0000    constr:    0.0000
     atom:   40    charge:    2.0777    magn:    0.0000    constr:    0.0000
     atom:   41    charge:    2.0869    magn:    0.0000    constr:    0.0000
     atom:   42    charge:    3.1181    magn:   -0.0000    constr:    0.0000
     atom:   43    charge:    2.0836    magn:    0.0001    constr:    0.0000
     atom:   44    charge:    2.0865    magn:    0.0001    constr:    0.0000
     atom:   45    charge:    2.0871    magn:    0.0000    constr:    0.0000
     atom:   46    charge:    3.1171    magn:   -0.0001    constr:    0.0000
     atom:   47    charge:    2.0791    magn:    0.0002    constr:    0.0000
     atom:   48    charge:    2.0835    magn:    0.0001    constr:    0.0000
     atom:   49    charge:    2.0510    magn:    0.0000    constr:    0.0000
     atom:   50    charge:    1.2590    magn:   -0.0000    constr:    0.0000
     atom:   51    charge:    1.2856    magn:    0.0000    constr:    0.0000

     total cpu time spent up to now is     1396.5 secs

     total energy              =   -3044.95656772 Ry
     Harris-Foulkes estimate   =   -3044.95665781 Ry
     estimated scf accuracy    <       0.00048235 Ry

     total magnetization       =     0.00 Bohr mag/cell
     absolute magnetization    =     0.00 Bohr mag/cell

     iteration #  5     ecut=    40.42 Ry     beta=0.10
     Davidson diagonalization with overlap
     ethr =  1.21E-07,  avg # of iterations =  2.6

     negative rho (up, down):  1.159E-02 1.159E-02
 
     Magnetic moment per site:
     atom:    1    charge:    3.1250    magn:   -0.0001    constr:    0.0000
     atom:    2    charge:    2.0894    magn:    0.0000    constr:    0.0000
     atom:    3    charge:    3.1196    magn:   -0.0000    constr:    0.0000
     atom:    4    charge:    2.0870    magn:    0.0000    constr:    0.0000
     atom:    5    charge:    3.1170    magn:   -0.0000    constr:    0.0000
     atom:    6    charge:    2.0919    magn:    0.0000    constr:    0.0000
     atom:    7    charge:    3.1188    magn:   -0.0000    constr:    0.0000
     atom:    8    charge:    2.0816    magn:    0.0000    constr:    0.0000
     atom:    9    charge:    3.1250    magn:   -0.0001    constr:    0.0000
     atom:   10    charge:    2.0894    magn:    0.0000    constr:    0.0000
     atom:   11    charge:    3.1196    magn:   -0.0000    constr:    0.0000
     atom:   12    charge:    2.0870    magn:    0.0000    constr:    0.0000
     atom:   13    charge:    3.1148    magn:   -0.0000    constr:    0.0000
     atom:   14    charge:    2.0909    magn:    0.0000    constr:    0.0000
     atom:   15    charge:    3.1191    magn:   -0.0000    constr:    0.0000
     atom:   16    charge:    2.0883    magn:    0.0000    constr:    0.0000
     atom:   17    charge:    2.0624    magn:    0.0002    constr:    0.0000
     atom:   18    charge:    3.1239    magn:   -0.0000    constr:    0.0000
     atom:   19    charge:    2.0878    magn:   -0.0000    constr:    0.0000
     atom:   20    charge:    2.0847    magn:   -0.0000    constr:    0.0000
     atom:   21    charge:    2.0847    magn:   -0.0000    constr:    0.0000
     atom:   22    charge:    3.1197    magn:   -0.0000    constr:    0.0000
     atom:   23    charge:    2.0909    magn:    0.0000    constr:    0.0000
     atom:   24    charge:    2.0777    magn:    0.0000    constr:    0.0000
     atom:   25    charge:    2.0869    magn:    0.0000    constr:    0.0000
     atom:   26    charge:    3.1165    magn:   -0.0000    constr:    0.0000
     atom:   27    charge:    2.0822    magn:    0.0001    constr:    0.0000
     atom:   28    charge:    2.0879    magn:    0.0000    constr:    0.0000
     atom:   29    charge:    2.0877    magn:    0.0000    constr:    0.0000
     atom:   30    charge:    3.1168    magn:   -0.0001    constr:    0.0000
     atom:   31    charge:    2.0817    magn:    0.0001    constr:    0.0000
     atom:   32    charge:    2.0843    magn:    0.0000    constr:    0.0000
     atom:   33    charge:    2.0624    magn:    0.0002    constr:    0.0000
     atom:   34    charge:    3.1239    magn:   -0.0000    constr:    0.0000
     atom:   35    charge:    2.0878    magn:   -0.0000    constr:    0.0000
     atom:   36    charge:    2.0847    magn:   -0.0000    constr:    0.0000
     atom:   37    charge:    2.0847    magn:   -0.0000    constr:    0.0000
     atom:   38    charge:    3.1197    magn:   -0.0000    constr:    0.0000
     atom:   39    charge:    2.0912    magn:    0.0000    constr:    0.0000
     atom:   40    charge:    2.0777    magn:    0.0000    constr:    0.0000
     atom:   41    charge:    2.0869    magn:    0.0000    constr:    0.0000
     atom:   42    charge:    3.1181    magn:   -0.0000    constr:    0.0000
     atom:   43    charge:    2.0840    magn:    0.0001    constr:    0.0000
     atom:   44    charge:    2.0865    magn:    0.0000    constr:    0.0000
     atom:   45    charge:    2.0871    magn:    0.0000    constr:    0.0000
     atom:   46    charge:    3.1171    magn:   -0.0001    constr:    0.0000
     atom:   47    charge:    2.0795    magn:    0.0001    constr:    0.0000
     atom:   48    charge:    2.0836    magn:    0.0001    constr:    0.0000
     atom:   49    charge:    2.0509    magn:    0.0000    constr:    0.0000
     atom:   50    charge:    1.2590    magn:   -0.0000    constr:    0.0000
     atom:   51    charge:    1.2860    magn:    0.0000    constr:    0.0000

     total cpu time spent up to now is     1589.4 secs

     total energy              =   -3044.95649338 Ry
     Harris-Foulkes estimate   =   -3044.95658387 Ry
     estimated scf accuracy    <       0.00024817 Ry

     total magnetization       =     0.00 Bohr mag/cell
     absolute magnetization    =     0.00 Bohr mag/cell

     iteration #  6     ecut=    40.42 Ry     beta=0.10
     Davidson diagonalization with overlap
     ethr =  6.20E-08,  avg # of iterations =  2.0

     negative rho (up, down):  1.159E-02 1.159E-02
 
     Magnetic moment per site:
     atom:    1    charge:    3.1250    magn:   -0.0001    constr:    0.0000
     atom:    2    charge:    2.0894    magn:    0.0000    constr:    0.0000
     atom:    3    charge:    3.1196    magn:   -0.0000    constr:    0.0000
     atom:    4    charge:    2.0870    magn:    0.0000    constr:    0.0000
     atom:    5    charge:    3.1170    magn:   -0.0000    constr:    0.0000
     atom:    6    charge:    2.0917    magn:    0.0000    constr:    0.0000
     atom:    7    charge:    3.1186    magn:   -0.0000    constr:    0.0000
     atom:    8    charge:    2.0816    magn:    0.0000    constr:    0.0000
     atom:    9    charge:    3.1250    magn:   -0.0001    constr:    0.0000
     atom:   10    charge:    2.0894    magn:    0.0000    constr:    0.0000
     atom:   11    charge:    3.1196    magn:   -0.0000    constr:    0.0000
     atom:   12    charge:    2.0870    magn:    0.0000    constr:    0.0000
     atom:   13    charge:    3.1148    magn:   -0.0000    constr:    0.0000
     atom:   14    charge:    2.0912    magn:    0.0000    constr:    0.0000
     atom:   15    charge:    3.1193    magn:   -0.0000    constr:    0.0000
     atom:   16    charge:    2.0883    magn:    0.0000    constr:    0.0000
     atom:   17    charge:    2.0624    magn:    0.0001    constr:    0.0000
     atom:   18    charge:    3.1239    magn:   -0.0000    constr:    0.0000
     atom:   19    charge:    2.0878    magn:   -0.0000    constr:    0.0000
     atom:   20    charge:    2.0847    magn:   -0.0000    constr:    0.0000
     atom:   21    charge:    2.0847    magn:   -0.0000    constr:    0.0000
     atom:   22    charge:    3.1197    magn:   -0.0000    constr:    0.0000
     atom:   23    charge:    2.0908    magn:    0.0000    constr:    0.0000
     atom:   24    charge:    2.0777    magn:    0.0000    constr:    0.0000
     atom:   25    charge:    2.0869    magn:    0.0000    constr:    0.0000
     atom:   26    charge:    3.1164    magn:   -0.0000    constr:    0.0000
     atom:   27    charge:    2.0823    magn:    0.0001    constr:    0.0000
     atom:   28    charge:    2.0879    magn:    0.0000    constr:    0.0000
     atom:   29    charge:    2.0877    magn:    0.0000    constr:    0.0000
     atom:   30    charge:    3.1168    magn:   -0.0000    constr:    0.0000
     atom:   31    charge:    2.0816    magn:    0.0001    constr:    0.0000
     atom:   32    charge:    2.0843    magn:    0.0000    constr:    0.0000
     atom:   33    charge:    2.0624    magn:    0.0001    constr:    0.0000
     atom:   34    charge:    3.1239    magn:   -0.0000    constr:    0.0000
     atom:   35    charge:    2.0878    magn:   -0.0000    constr:    0.0000
     atom:   36    charge:    2.0847    magn:   -0.0000    constr:    0.0000
     atom:   37    charge:    2.0847    magn:   -0.0000    constr:    0.0000
     atom:   38    charge:    3.1197    magn:   -0.0000    constr:    0.0000
     atom:   39    charge:    2.0912    magn:    0.0000    constr:    0.0000
     atom:   40    charge:    2.0777    magn:    0.0000    constr:    0.0000
     atom:   41    charge:    2.0869    magn:    0.0000    constr:    0.0000
     atom:   42    charge:    3.1181    magn:   -0.0000    constr:    0.0000
     atom:   43    charge:    2.0838    magn:    0.0001    constr:    0.0000
     atom:   44    charge:    2.0865    magn:    0.0000    constr:    0.0000
     atom:   45    charge:    2.0871    magn:    0.0000    constr:    0.0000
     atom:   46    charge:    3.1171    magn:   -0.0000    constr:    0.0000
     atom:   47    charge:    2.0796    magn:    0.0001    constr:    0.0000
     atom:   48    charge:    2.0835    magn:    0.0000    constr:    0.0000
     atom:   49    charge:    2.0513    magn:    0.0000    constr:    0.0000
     atom:   50    charge:    1.2589    magn:   -0.0000    constr:    0.0000
     atom:   51    charge:    1.2859    magn:    0.0000    constr:    0.0000

     total cpu time spent up to now is     1774.9 secs

     total energy              =   -3044.95650537 Ry
     Harris-Foulkes estimate   =   -3044.95651669 Ry
     estimated scf accuracy    <       0.00004817 Ry

     total magnetization       =     0.00 Bohr mag/cell
     absolute magnetization    =     0.00 Bohr mag/cell

     iteration #  7     ecut=    40.42 Ry     beta=0.10
     Davidson diagonalization with overlap
     ethr =  1.20E-08,  avg # of iterations =  2.0

     negative rho (up, down):  1.159E-02 1.159E-02
 
     Magnetic moment per site:
     atom:    1    charge:    3.1250    magn:   -0.0000    constr:    0.0000
     atom:    2    charge:    2.0894    magn:    0.0000    constr:    0.0000
     atom:    3    charge:    3.1196    magn:   -0.0000    constr:    0.0000
     atom:    4    charge:    2.0870    magn:    0.0000    constr:    0.0000
     atom:    5    charge:    3.1170    magn:   -0.0000    constr:    0.0000
     atom:    6    charge:    2.0917    magn:    0.0000    constr:    0.0000
     atom:    7    charge:    3.1185    magn:   -0.0000    constr:    0.0000
     atom:    8    charge:    2.0816    magn:    0.0000    constr:    0.0000
     atom:    9    charge:    3.1250    magn:   -0.0000    constr:    0.0000
     atom:   10    charge:    2.0894    magn:    0.0000    constr:    0.0000
     atom:   11    charge:    3.1196    magn:   -0.0000    constr:    0.0000
     atom:   12    charge:    2.0870    magn:    0.0000    constr:    0.0000
     atom:   13    charge:    3.1148    magn:   -0.0000    constr:    0.0000
     atom:   14    charge:    2.0911    magn:    0.0000    constr:    0.0000
     atom:   15    charge:    3.1194    magn:   -0.0000    constr:    0.0000
     atom:   16    charge:    2.0883    magn:    0.0000    constr:    0.0000
     atom:   17    charge:    2.0624    magn:    0.0001    constr:    0.0000
     atom:   18    charge:    3.1239    magn:   -0.0000    constr:    0.0000
     atom:   19    charge:    2.0878    magn:   -0.0000    constr:    0.0000
     atom:   20    charge:    2.0847    magn:   -0.0000    constr:    0.0000
     atom:   21    charge:    2.0847    magn:   -0.0000    constr:    0.0000
     atom:   22    charge:    3.1197    magn:   -0.0000    constr:    0.0000
     atom:   23    charge:    2.0909    magn:    0.0000    constr:    0.0000
     atom:   24    charge:    2.0777    magn:    0.0000    constr:    0.0000
     atom:   25    charge:    2.0869    magn:    0.0000    constr:    0.0000
     atom:   26    charge:    3.1165    magn:   -0.0000    constr:    0.0000
     atom:   27    charge:    2.0823    magn:    0.0000    constr:    0.0000
     atom:   28    charge:    2.0879    magn:    0.0000    constr:    0.0000
     atom:   29    charge:    2.0877    magn:    0.0000    constr:    0.0000
     atom:   30    charge:    3.1168    magn:   -0.0000    constr:    0.0000
     atom:   31    charge:    2.0815    magn:    0.0001    constr:    0.0000
     atom:   32    charge:    2.0843    magn:    0.0000    constr:    0.0000
     atom:   33    charge:    2.0624    magn:    0.0001    constr:    0.0000
     atom:   34    charge:    3.1239    magn:   -0.0000    constr:    0.0000
     atom:   35    charge:    2.0878    magn:   -0.0000    constr:    0.0000
     atom:   36    charge:    2.0847    magn:   -0.0000    constr:    0.0000
     atom:   37    charge:    2.0847    magn:   -0.0000    constr:    0.0000
     atom:   38    charge:    3.1197    magn:   -0.0000    constr:    0.0000
     atom:   39    charge:    2.0912    magn:    0.0000    constr:    0.0000
     atom:   40    charge:    2.0777    magn:    0.0000    constr:    0.0000
     atom:   41    charge:    2.0869    magn:    0.0000    constr:    0.0000
     atom:   42    charge:    3.1181    magn:   -0.0000    constr:    0.0000
     atom:   43    charge:    2.0838    magn:    0.0000    constr:    0.0000
     atom:   44    charge:    2.0865    magn:    0.0000    constr:    0.0000
     atom:   45    charge:    2.0871    magn:    0.0000    constr:    0.0000
     atom:   46    charge:    3.1171    magn:   -0.0000    constr:    0.0000
     atom:   47    charge:    2.0797    magn:    0.0001    constr:    0.0000
     atom:   48    charge:    2.0835    magn:    0.0000    constr:    0.0000
     atom:   49    charge:    2.0513    magn:    0.0000    constr:    0.0000
     atom:   50    charge:    1.2590    magn:   -0.0000    constr:    0.0000
     atom:   51    charge:    1.2858    magn:    0.0000    constr:    0.0000

     total cpu time spent up to now is     1959.7 secs

     total energy              =   -3044.95651066 Ry
     Harris-Foulkes estimate   =   -3044.95651015 Ry
     estimated scf accuracy    <       0.00000858 Ry

     total magnetization       =     0.00 Bohr mag/cell
     absolute magnetization    =     0.00 Bohr mag/cell

     iteration #  8     ecut=    40.42 Ry     beta=0.10
     Davidson diagonalization with overlap
     ethr =  2.15E-09,  avg # of iterations =  2.0

     negative rho (up, down):  1.159E-02 1.159E-02
 
     Magnetic moment per site:
     atom:    1    charge:    3.1250    magn:   -0.0000    constr:    0.0000
     atom:    2    charge:    2.0894    magn:    0.0000    constr:    0.0000
     atom:    3    charge:    3.1196    magn:   -0.0000    constr:    0.0000
     atom:    4    charge:    2.0870    magn:    0.0000    constr:    0.0000
     atom:    5    charge:    3.1170    magn:   -0.0000    constr:    0.0000
     atom:    6    charge:    2.0916    magn:    0.0000    constr:    0.0000
     atom:    7    charge:    3.1185    magn:   -0.0000    constr:    0.0000
     atom:    8    charge:    2.0816    magn:    0.0000    constr:    0.0000
     atom:    9    charge:    3.1250    magn:   -0.0000    constr:    0.0000
     atom:   10    charge:    2.0894    magn:    0.0000    constr:    0.0000
     atom:   11    charge:    3.1196    magn:   -0.0000    constr:    0.0000
     atom:   12    charge:    2.0870    magn:    0.0000    constr:    0.0000
     atom:   13    charge:    3.1148    magn:   -0.0000    constr:    0.0000
     atom:   14    charge:    2.0912    magn:    0.0000    constr:    0.0000
     atom:   15    charge:    3.1194    magn:   -0.0000    constr:    0.0000
     atom:   16    charge:    2.0883    magn:    0.0000    constr:    0.0000
     atom:   17    charge:    2.0624    magn:    0.0001    constr:    0.0000
     atom:   18    charge:    3.1239    magn:   -0.0000    constr:    0.0000
     atom:   19    charge:    2.0878    magn:   -0.0000    constr:    0.0000
     atom:   20    charge:    2.0847    magn:   -0.0000    constr:    0.0000
     atom:   21    charge:    2.0847    magn:   -0.0000    constr:    0.0000
     atom:   22    charge:    3.1197    magn:   -0.0000    constr:    0.0000
     atom:   23    charge:    2.0909    magn:    0.0000    constr:    0.0000
     atom:   24    charge:    2.0777    magn:    0.0000    constr:    0.0000
     atom:   25    charge:    2.0869    magn:    0.0000    constr:    0.0000
     atom:   26    charge:    3.1165    magn:   -0.0000    constr:    0.0000
     atom:   27    charge:    2.0824    magn:    0.0000    constr:    0.0000
     atom:   28    charge:    2.0879    magn:    0.0000    constr:    0.0000
     atom:   29    charge:    2.0877    magn:    0.0000    constr:    0.0000
     atom:   30    charge:    3.1168    magn:   -0.0000    constr:    0.0000
     atom:   31    charge:    2.0815    magn:    0.0001    constr:    0.0000
     atom:   32    charge:    2.0843    magn:    0.0000    constr:    0.0000
     atom:   33    charge:    2.0624    magn:    0.0001    constr:    0.0000
     atom:   34    charge:    3.1239    magn:   -0.0000    constr:    0.0000
     atom:   35    charge:    2.0878    magn:   -0.0000    constr:    0.0000
     atom:   36    charge:    2.0847    magn:   -0.0000    constr:    0.0000
     atom:   37    charge:    2.0847    magn:   -0.0000    constr:    0.0000
     atom:   38    charge:    3.1197    magn:   -0.0000    constr:    0.0000
     atom:   39    charge:    2.0912    magn:    0.0000    constr:    0.0000
     atom:   40    charge:    2.0777    magn:    0.0000    constr:    0.0000
     atom:   41    charge:    2.0869    magn:    0.0000    constr:    0.0000
     atom:   42    charge:    3.1181    magn:   -0.0000    constr:    0.0000
     atom:   43    charge:    2.0838    magn:    0.0000    constr:    0.0000
     atom:   44    charge:    2.0865    magn:    0.0000    constr:    0.0000
     atom:   45    charge:    2.0871    magn:    0.0000    constr:    0.0000
     atom:   46    charge:    3.1171    magn:   -0.0000    constr:    0.0000
     atom:   47    charge:    2.0797    magn:    0.0001    constr:    0.0000
     atom:   48    charge:    2.0835    magn:    0.0000    constr:    0.0000
     atom:   49    charge:    2.0514    magn:    0.0000    constr:    0.0000
     atom:   50    charge:    1.2590    magn:   -0.0000    constr:    0.0000
     atom:   51    charge:    1.2858    magn:    0.0000    constr:    0.0000

     total cpu time spent up to now is     2144.6 secs

     total energy              =   -3044.95651145 Ry
     Harris-Foulkes estimate   =   -3044.95651121 Ry
     estimated scf accuracy    <       0.00000422 Ry

     total magnetization       =     0.00 Bohr mag/cell
     absolute magnetization    =     0.00 Bohr mag/cell

     iteration #  9     ecut=    40.42 Ry     beta=0.10
     Davidson diagonalization with overlap
     ethr =  1.06E-09,  avg # of iterations =  2.0

     negative rho (up, down):  1.158E-02 1.158E-02
 
     Magnetic moment per site:
     atom:    1    charge:    3.1250    magn:   -0.0000    constr:    0.0000
     atom:    2    charge:    2.0894    magn:    0.0000    constr:    0.0000
     atom:    3    charge:    3.1196    magn:   -0.0000    constr:    0.0000
     atom:    4    charge:    2.0870    magn:    0.0000    constr:    0.0000
     atom:    5    charge:    3.1170    magn:   -0.0000    constr:    0.0000
     atom:    6    charge:    2.0917    magn:    0.0000    constr:    0.0000
     atom:    7    charge:    3.1185    magn:   -0.0000    constr:    0.0000
     atom:    8    charge:    2.0816    magn:    0.0000    constr:    0.0000
     atom:    9    charge:    3.1250    magn:   -0.0000    constr:    0.0000
     atom:   10    charge:    2.0894    magn:    0.0000    constr:    0.0000
     atom:   11    charge:    3.1196    magn:   -0.0000    constr:    0.0000
     atom:   12    charge:    2.0870    magn:    0.0000    constr:    0.0000
     atom:   13    charge:    3.1148    magn:   -0.0000    constr:    0.0000
     atom:   14    charge:    2.0912    magn:    0.0000    constr:    0.0000
     atom:   15    charge:    3.1194    magn:   -0.0000    constr:    0.0000
     atom:   16    charge:    2.0883    magn:    0.0000    constr:    0.0000
     atom:   17    charge:    2.0624    magn:    0.0001    constr:    0.0000
     atom:   18    charge:    3.1239    magn:   -0.0000    constr:    0.0000
     atom:   19    charge:    2.0878    magn:   -0.0000    constr:    0.0000
     atom:   20    charge:    2.0847    magn:   -0.0000    constr:    0.0000
     atom:   21    charge:    2.0847    magn:   -0.0000    constr:    0.0000
     atom:   22    charge:    3.1197    magn:   -0.0000    constr:    0.0000
     atom:   23    charge:    2.0909    magn:    0.0000    constr:    0.0000
     atom:   24    charge:    2.0777    magn:    0.0000    constr:    0.0000
     atom:   25    charge:    2.0869    magn:    0.0000    constr:    0.0000
     atom:   26    charge:    3.1165    magn:   -0.0000    constr:    0.0000
     atom:   27    charge:    2.0824    magn:    0.0000    constr:    0.0000
     atom:   28    charge:    2.0879    magn:    0.0000    constr:    0.0000
     atom:   29    charge:    2.0877    magn:    0.0000    constr:    0.0000
     atom:   30    charge:    3.1168    magn:   -0.0000    constr:    0.0000
     atom:   31    charge:    2.0815    magn:    0.0000    constr:    0.0000
     atom:   32    charge:    2.0843    magn:    0.0000    constr:    0.0000
     atom:   33    charge:    2.0624    magn:    0.0001    constr:    0.0000
     atom:   34    charge:    3.1239    magn:   -0.0000    constr:    0.0000
     atom:   35    charge:    2.0878    magn:   -0.0000    constr:    0.0000
     atom:   36    charge:    2.0847    magn:   -0.0000    constr:    0.0000
     atom:   37    charge:    2.0847    magn:   -0.0000    constr:    0.0000
     atom:   38    charge:    3.1197    magn:   -0.0000    constr:    0.0000
     atom:   39    charge:    2.0912    magn:    0.0000    constr:    0.0000
     atom:   40    charge:    2.0777    magn:    0.0000    constr:    0.0000
     atom:   41    charge:    2.0869    magn:    0.0000    constr:    0.0000
     atom:   42    charge:    3.1181    magn:   -0.0000    constr:    0.0000
     atom:   43    charge:    2.0838    magn:    0.0000    constr:    0.0000
     atom:   44    charge:    2.0865    magn:    0.0000    constr:    0.0000
     atom:   45    charge:    2.0871    magn:    0.0000    constr:    0.0000
     atom:   46    charge:    3.1171    magn:   -0.0000    constr:    0.0000
     atom:   47    charge:    2.0796    magn:    0.0000    constr:    0.0000
     atom:   48    charge:    2.0835    magn:    0.0000    constr:    0.0000
     atom:   49    charge:    2.0515    magn:    0.0000    constr:    0.0000
     atom:   50    charge:    1.2590    magn:   -0.0000    constr:    0.0000
     atom:   51    charge:    1.2858    magn:    0.0000    constr:    0.0000

     total cpu time spent up to now is     2328.8 secs

     total energy              =   -3044.95651209 Ry
     Harris-Foulkes estimate   =   -3044.95651169 Ry
     estimated scf accuracy    <       0.00000175 Ry

     total magnetization       =     0.00 Bohr mag/cell
     absolute magnetization    =     0.00 Bohr mag/cell

     iteration # 10     ecut=    40.42 Ry     beta=0.10
     Davidson diagonalization with overlap
     ethr =  4.37E-10,  avg # of iterations =  2.0

     negative rho (up, down):  1.158E-02 1.158E-02
 
     Magnetic moment per site:
     atom:    1    charge:    3.1250    magn:   -0.0000    constr:    0.0000
     atom:    2    charge:    2.0894    magn:    0.0000    constr:    0.0000
     atom:    3    charge:    3.1196    magn:   -0.0000    constr:    0.0000
     atom:    4    charge:    2.0870    magn:    0.0000    constr:    0.0000
     atom:    5    charge:    3.1170    magn:   -0.0000    constr:    0.0000
     atom:    6    charge:    2.0917    magn:    0.0000    constr:    0.0000
     atom:    7    charge:    3.1185    magn:   -0.0000    constr:    0.0000
     atom:    8    charge:    2.0816    magn:    0.0000    constr:    0.0000
     atom:    9    charge:    3.1250    magn:   -0.0000    constr:    0.0000
     atom:   10    charge:    2.0894    magn:    0.0000    constr:    0.0000
     atom:   11    charge:    3.1196    magn:   -0.0000    constr:    0.0000
     atom:   12    charge:    2.0870    magn:    0.0000    constr:    0.0000
     atom:   13    charge:    3.1148    magn:   -0.0000    constr:    0.0000
     atom:   14    charge:    2.0911    magn:    0.0000    constr:    0.0000
     atom:   15    charge:    3.1194    magn:   -0.0000    constr:    0.0000
     atom:   16    charge:    2.0883    magn:    0.0000    constr:    0.0000
     atom:   17    charge:    2.0624    magn:    0.0000    constr:    0.0000
     atom:   18    charge:    3.1239    magn:   -0.0000    constr:    0.0000
     atom:   19    charge:    2.0878    magn:   -0.0000    constr:    0.0000
     atom:   20    charge:    2.0847    magn:   -0.0000    constr:    0.0000
     atom:   21    charge:    2.0847    magn:   -0.0000    constr:    0.0000
     atom:   22    charge:    3.1197    magn:   -0.0000    constr:    0.0000
     atom:   23    charge:    2.0908    magn:    0.0000    constr:    0.0000
     atom:   24    charge:    2.0777    magn:    0.0000    constr:    0.0000
     atom:   25    charge:    2.0869    magn:    0.0000    constr:    0.0000
     atom:   26    charge:    3.1165    magn:   -0.0000    constr:    0.0000
     atom:   27    charge:    2.0823    magn:    0.0000    constr:    0.0000
     atom:   28    charge:    2.0879    magn:    0.0000    constr:    0.0000
     atom:   29    charge:    2.0877    magn:    0.0000    constr:    0.0000
     atom:   30    charge:    3.1168    magn:   -0.0000    constr:    0.0000
     atom:   31    charge:    2.0815    magn:    0.0000    constr:    0.0000
     atom:   32    charge:    2.0843    magn:    0.0000    constr:    0.0000
     atom:   33    charge:    2.0624    magn:    0.0000    constr:    0.0000
     atom:   34    charge:    3.1239    magn:   -0.0000    constr:    0.0000
     atom:   35    charge:    2.0878    magn:   -0.0000    constr:    0.0000
     atom:   36    charge:    2.0847    magn:   -0.0000    constr:    0.0000
     atom:   37    charge:    2.0847    magn:   -0.0000    constr:    0.0000
     atom:   38    charge:    3.1197    magn:   -0.0000    constr:    0.0000
     atom:   39    charge:    2.0912    magn:    0.0000    constr:    0.0000
     atom:   40    charge:    2.0777    magn:    0.0000    constr:    0.0000
     atom:   41    charge:    2.0869    magn:    0.0000    constr:    0.0000
     atom:   42    charge:    3.1181    magn:   -0.0000    constr:    0.0000
     atom:   43    charge:    2.0838    magn:    0.0000    constr:    0.0000
     atom:   44    charge:    2.0865    magn:    0.0000    constr:    0.0000
     atom:   45    charge:    2.0871    magn:    0.0000    constr:    0.0000
     atom:   46    charge:    3.1171    magn:   -0.0000    constr:    0.0000
     atom:   47    charge:    2.0797    magn:    0.0000    constr:    0.0000
     atom:   48    charge:    2.0835    magn:    0.0000    constr:    0.0000
     atom:   49    charge:    2.0514    magn:    0.0000    constr:    0.0000
     atom:   50    charge:    1.2590    magn:   -0.0000    constr:    0.0000
     atom:   51    charge:    1.2858    magn:    0.0000    constr:    0.0000

     total cpu time spent up to now is     2515.1 secs

     End of self-consistent calculation

 ------ SPIN UP ------------


          k = 0.0000 0.0000 0.0000 ( 34665 PWs)   bands (ev):

   -57.8231 -57.7882 -57.5130 -57.4575 -57.3893 -57.3528 -57.2785 -57.2431
   -57.1809 -57.1456 -57.1174 -57.0821 -56.8840 -56.8118 -56.2852 -56.2499
   -34.2595 -34.1043 -34.0757 -34.0599 -34.0247 -33.9303 -33.8696 -33.8650
   -33.8274 -33.7719 -33.7337 -33.7230 -33.7185 -33.6879 -33.6722 -33.6684
   -33.6492 -33.6397 -33.6186 -33.5570 -33.5258 -33.4600 -33.4598 -33.4392
   -33.4322 -33.4297 -33.3878 -33.3832 -33.3788 -33.3609 -33.3564 -33.3361
   -33.3134 -33.3073 -33.2798 -33.2742 -33.2487 -33.1453 -33.1404 -33.0835
   -33.0392 -32.9383 -32.7039 -32.6363 -32.6103 -32.5078 -32.4161 -32.3079
   -24.2388 -21.0021 -18.1764 -17.9755 -17.7523 -17.6303 -17.4963 -17.4941
   -17.2127 -17.1920 -17.1466 -17.0545 -17.0517 -17.0100 -16.9942 -16.9213
   -16.8738 -16.8622 -16.8398 -16.7991 -16.7371 -16.6904 -16.5727 -16.5496
   -16.5210 -16.5091 -16.4220 -16.3119 -16.2763 -16.2449 -16.1080 -16.0781
   -14.8674 -14.7826  -9.7928  -7.4829  -7.4695  -5.9984  -5.5683  -5.5116
    -5.3608  -5.3526  -5.2953  -4.9979  -4.9385  -4.5885  -4.5846  -4.5491
    -4.5399  -4.4921  -4.3677  -4.2712  -4.2226  -4.2052  -4.1704  -4.1677
    -4.1633  -4.1556  -4.0909  -4.0863  -4.0099  -3.9871  -3.9554  -3.9142
    -3.8808  -3.8077  -3.7737  -3.7495  -3.7201  -3.6439  -3.6227  -3.5468
    -3.5448  -3.5193  -3.4518  -3.3331  -3.2025  -3.1673  -3.0637  -3.0052
    -2.9624  -2.8768  -2.8267  -2.8130  -2.7428  -2.7412  -2.7255  -2.6000
    -2.5626  -2.5074  -2.4355  -2.3992  -2.3716  -2.3528  -2.3245  -2.2828
    -2.2774  -2.2482  -2.2113  -2.1794  -2.1756  -2.0499  -1.9931  -1.8939
    -1.7514  -1.7488  -1.7225  -1.6809  -1.6534  -1.6420  -1.5646  -1.5428
    -1.4430  -1.4334  -1.4098  -1.3987  -1.3855  -1.2839  -1.2330  -1.2231
    -1.2020  -1.1331  -1.0724  -1.0168  -0.9179  -0.7438  -0.7141  -0.7098
    -0.6464  -0.5190  -0.3718  -0.2352  -0.1725  -0.0085   0.1182   0.1333
     1.5188   1.5478   1.8327   1.8697   1.8810   1.9012   2.0687   2.0882
     2.1227   2.2393   2.3584   2.3720   2.4073   2.4264   2.4636   2.4787
     2.5263   2.5637   2.6200   2.6659   2.6671   2.6802   2.7601   2.8080
     2.8674   2.8948   2.9864   2.9951   2.9961   3.0193   3.0646   3.0819
     3.0926   3.0973   3.1048   3.1391   3.2368   3.2977   3.3009   3.3148
     3.3535   3.3833   3.4175   3.5312   3.5337   3.6708   3.8780   3.9842
     3.9948   4.0429   4.0640   4.1801   4.2526   4.4595   4.5342   4.6574
     4.9065   4.9311   5.0114   5.1264   5.2058   5.3895   5.3950   5.4217
     5.4967   5.5825   5.6278   5.6369   5.7150   5.7326   5.7374   5.7548
     5.9217   5.9604   6.0110   6.0202   6.0980   6.1424   6.2040   6.2197
     6.4746   6.6171   6.7694   6.7846   6.8809   7.1635   7.2714   7.2847
     7.9102   7.9876   8.1612   8.4056   8.7030   8.9109   8.9132   8.9543
     9.2115   9.2588   9.2857   9.3537

          k = 0.0000 0.0280 0.0000 ( 34717 PWs)   bands (ev):

   -57.8208 -57.7905 -57.5115 -57.4590 -57.3870 -57.3551 -57.2761 -57.2455
   -57.1785 -57.1479 -57.1151 -57.0845 -56.8828 -56.8130 -56.2828 -56.2523
   -34.2341 -34.1022 -34.0776 -34.0342 -34.0185 -33.9368 -33.8966 -33.8398
   -33.8209 -33.7479 -33.7364 -33.7269 -33.7179 -33.6885 -33.6729 -33.6695
   -33.6468 -33.6157 -33.6121 -33.5500 -33.5347 -33.4853 -33.4577 -33.4488
   -33.4340 -33.4236 -33.4059 -33.3791 -33.3616 -33.3598 -33.3551 -33.3426
   -33.3131 -33.3124 -33.3050 -33.2760 -33.2744 -33.1447 -33.1373 -33.0841
   -33.0435 -32.9666 -32.6782 -32.6346 -32.6121 -32.5017 -32.4224 -32.3354
   -24.2388 -21.0020 -18.1149 -17.9175 -17.6993 -17.5769 -17.4751 -17.4476
   -17.2296 -17.1896 -17.1618 -17.1207 -17.0569 -17.0065 -16.9836 -16.9070
   -16.8912 -16.8456 -16.8301 -16.7994 -16.7678 -16.7479 -16.5968 -16.5395
   -16.5193 -16.5002 -16.4515 -16.3080 -16.2940 -16.2624 -16.1334 -16.1206
   -14.8772 -14.8058  -9.7927  -7.4844  -7.4694  -5.9973  -5.4801  -5.4274
    -5.2833  -5.2726  -5.2180  -4.8800  -4.8635  -4.6127  -4.5834  -4.5158
    -4.4883  -4.4541  -4.3175  -4.2932  -4.2882  -4.2396  -4.2328  -4.1954
    -4.1581  -4.1443  -4.1089  -4.0966  -4.0791  -4.0531  -4.0093  -3.9871
    -3.9293  -3.9229  -3.8624  -3.8039  -3.7373  -3.7222  -3.7013  -3.5669
    -3.4867  -3.4710  -3.3805  -3.3126  -3.1299  -3.0827  -2.9919  -2.9580
    -2.8388  -2.8080  -2.7568  -2.7503  -2.6709  -2.6401  -2.6341  -2.6168
    -2.5699  -2.5584  -2.5200  -2.4546  -2.4146  -2.3476  -2.3225  -2.2815
    -2.2367  -2.2180  -2.2023  -2.1256  -2.0525  -2.0188  -1.9406  -1.8730
    -1.8416  -1.8196  -1.7889  -1.7735  -1.6983  -1.6739  -1.6322  -1.5988
    -1.5579  -1.4950  -1.4655  -1.4091  -1.3890  -1.3575  -1.2764  -1.2372
    -1.1906  -1.1539  -1.0676  -1.0313  -0.9476  -0.9129  -0.8456  -0.7598
    -0.7312  -0.5337  -0.4126  -0.2279  -0.2242   0.0023   0.0727   0.0977
     1.6045   1.6514   1.8616   1.8716   1.9258   2.0016   2.0465   2.1144
     2.1717   2.2674   2.3207   2.3757   2.3781   2.4414   2.4518   2.4832
     2.5178   2.5392   2.5909   2.6337   2.6863   2.7347   2.7694   2.7850
     2.8260   2.8758   2.9400   2.9565   2.9879   3.0190   3.0438   3.0720
     3.0936   3.1030   3.1882   3.2022   3.2549   3.3158   3.3470   3.3987
     3.4165   3.4682   3.5023   3.5072   3.5691   3.6376   3.8283   3.9432
     3.9910   4.0539   4.1315   4.1631   4.1845   4.4024   4.5926   4.7556
     4.9127   5.0101   5.1094   5.1885   5.2100   5.4066   5.4292   5.4796
     5.4911   5.5645   5.5973   5.6224   5.6704   5.6953   5.7337   5.8214
     5.8579   5.9317   5.9771   6.0159   6.0239   6.0276   6.1168   6.2873
     6.4541   6.5436   6.7170   6.7876   6.8093   7.0691   7.2086   7.3717
     7.6828   7.9815   8.1023   8.2895   8.4136   8.7065   8.9950   9.0253
     9.0800   9.2981   9.3586   9.4076

          k = 0.0000 0.0560 0.0000 ( 34721 PWs)   bands (ev):

   -57.8144 -57.7969 -57.5082 -57.4624 -57.3810 -57.3612 -57.2697 -57.2520
   -57.1722 -57.1543 -57.1087 -57.0909 -56.8802 -56.8157 -56.2764 -56.2587
   -34.1643 -34.0969 -34.0826 -34.0014 -33.9696 -33.9636 -33.9543 -33.8050
   -33.7744 -33.7646 -33.7511 -33.7156 -33.7055 -33.6921 -33.6746 -33.6716
   -33.5947 -33.5768 -33.5750 -33.5471 -33.5362 -33.5305 -33.4793 -33.4728
   -33.4524 -33.4387 -33.4072 -33.3812 -33.3747 -33.3603 -33.3575 -33.3534
   -33.3399 -33.3255 -33.3037 -33.3016 -33.2666 -33.1440 -33.1336 -33.0854
   -33.0570 -33.0341 -32.6299 -32.6169 -32.6074 -32.4852 -32.4393 -32.4095
   -24.2388 -21.0018 -17.9434 -17.7574 -17.5596 -17.4477 -17.4277 -17.4224
   -17.3195 -17.2923 -17.1805 -17.0789 -17.0788 -17.0460 -17.0225 -16.9814
   -16.8629 -16.8582 -16.8514 -16.8138 -16.7516 -16.6858 -16.6607 -16.6169
   -16.5323 -16.4724 -16.4469 -16.3311 -16.3217 -16.2814 -16.2456 -16.1830
   -14.8948 -14.8561  -9.7925  -7.4873  -7.4691  -5.9955  -5.2374  -5.1920
    -5.0760  -5.0433  -5.0094  -4.7369  -4.6643  -4.6272  -4.5520  -4.5425
    -4.5144  -4.4983  -4.4687  -4.3913  -4.3591  -4.3515  -4.3282  -4.3238
    -4.2568  -4.2194  -4.1981  -4.1479  -4.1342  -4.0941  -4.0689  -4.0175
    -3.9554  -3.9277  -3.8575  -3.7823  -3.7262  -3.6043  -3.5764  -3.4827
    -3.4205  -3.3870  -3.3659  -3.2696  -3.1741  -3.0262  -2.9774  -2.9648
    -2.9470  -2.8805  -2.7884  -2.7365  -2.6867  -2.6522  -2.6077  -2.4695
    -2.4553  -2.4482  -2.4148  -2.3924  -2.3391  -2.3034  -2.2806  -2.2764
    -2.2041  -2.1813  -2.0999  -2.0694  -2.0464  -2.0376  -2.0108  -1.9888
    -1.9411  -1.9032  -1.8670  -1.7907  -1.7156  -1.6832  -1.6695  -1.6567
    -1.6403  -1.5719  -1.5181  -1.5023  -1.4820  -1.4432  -1.3725  -1.3572
    -1.2817  -1.2408  -1.1674  -1.1417  -1.0636  -0.9988  -0.9286  -0.8953
    -0.7989  -0.7144  -0.5959  -0.3929  -0.0433   0.0129   0.0437   0.0469
     1.7412   1.8862   1.9037   1.9833   2.0140   2.0568   2.1346   2.2007
     2.2209   2.2576   2.2623   2.2753   2.3041   2.3554   2.3784   2.5113
     2.5226   2.5558   2.6442   2.6547   2.6823   2.7372   2.7543   2.8003
     2.8047   2.8272   2.8478   2.9409   2.9612   3.0111   3.0850   3.0948
     3.1118   3.1727   3.1942   3.2207   3.3245   3.3682   3.4087   3.4622
     3.4870   3.5559   3.6147   3.6663   3.6866   3.7214   3.7417   3.8486
     3.9824   3.9955   4.0113   4.0969   4.2375   4.3259   4.7181   4.8442
     5.0302   5.1641   5.2524   5.3008   5.3309   5.3972   5.4038   5.4771
     5.5244   5.5975   5.6108   5.6194   5.6433   5.6921   5.7273   5.7387
     5.7551   5.7930   5.8307   5.8958   5.9797   6.0232   6.1914   6.2993
     6.3712   6.4072   6.6420   6.6489   6.7399   6.9080   7.0160   7.2651
     7.4904   7.6700   7.7742   8.2687   8.4222   8.6002   8.8934   9.0362
     9.1960   9.3505   9.4460   9.5758

          k = 0.0000-0.0840 0.0000 ( 34678 PWs)   bands (ev):

   -57.8057 -57.8057 -57.5064 -57.4642 -57.3755 -57.3667 -57.2609 -57.2608
   -57.1646 -57.1619 -57.1007 -57.0989 -56.8788 -56.8171 -56.2676 -56.2676
   -34.0898 -34.0898 -34.0677 -34.0677 -33.9779 -33.9779 -33.8808 -33.8480
   -33.7881 -33.7696 -33.7175 -33.7106 -33.6951 -33.6779 -33.6707 -33.6588
   -33.5776 -33.5775 -33.5719 -33.5640 -33.5028 -33.5024 -33.4810 -33.4786
   -33.4561 -33.4484 -33.4455 -33.4452 -33.3848 -33.3825 -33.3561 -33.3530
   -33.3435 -33.3417 -33.2971 -33.2955 -33.1996 -33.1660 -33.1407 -33.0902
   -33.0853 -33.0538 -32.6233 -32.6233 -32.5095 -32.5094 -32.4622 -32.4622
   -24.2387 -21.0017 -17.7055 -17.6936 -17.5368 -17.5360 -17.4208 -17.4022
   -17.2470 -17.2408 -17.1794 -17.1790 -17.1445 -17.1410 -16.9655 -16.9653
   -16.9419 -16.9379 -16.7752 -16.7474 -16.7202 -16.7172 -16.6457 -16.6388
   -16.5521 -16.5072 -16.3790 -16.3773 -16.3326 -16.3311 -16.2513 -16.2499
   -14.8929 -14.8929  -9.7924  -7.4887  -7.4689  -5.9946  -4.9266  -4.9229
    -4.8588  -4.8587  -4.8064  -4.7916  -4.7654  -4.7588  -4.7219  -4.7000
    -4.5289  -4.5105  -4.4963  -4.4942  -4.4250  -4.4234  -4.4189  -4.4163
    -4.2605  -4.2216  -4.1588  -4.1575  -4.1455  -4.1233  -4.0102  -3.9545
    -3.9531  -3.9174  -3.8420  -3.7991  -3.6558  -3.6167  -3.4643  -3.4529
    -3.3013  -3.2913  -3.2315  -3.1542  -3.1344  -3.1050  -2.9716  -2.9561
    -2.9461  -2.8853  -2.8606  -2.8211  -2.7156  -2.6891  -2.6687  -2.6514
    -2.6262  -2.6179  -2.5746  -2.4570  -2.4500  -2.4216  -2.1603  -2.1252
    -2.1026  -2.0553  -2.0156  -1.9837  -1.9356  -1.9347  -1.9289  -1.8800
    -1.8713  -1.8668  -1.8489  -1.7924  -1.7780  -1.7117  -1.6322  -1.6316
    -1.5919  -1.5743  -1.5578  -1.5564  -1.5484  -1.5440  -1.5239  -1.4171
    -1.3753  -1.2654  -1.2525  -1.2241  -1.1301  -1.1245  -1.1008  -1.0954
    -0.6848  -0.6350  -0.5977  -0.5922   0.0125   0.0129   0.0496   0.0499
     1.9065   1.9102   2.0091   2.0100   2.0988   2.0990   2.1040   2.1260
     2.2210   2.2211   2.2261   2.2416   2.3395   2.3807   2.4296   2.4321
     2.5235   2.5283   2.5923   2.5928   2.6778   2.7483   2.7603   2.8218
     2.8292   2.8638   2.9033   2.9457   2.9729   2.9931   3.0519   3.0680
     3.0776   3.2098   3.2530   3.3224   3.3292   3.3307   3.3319   3.4757
     3.6165   3.6193   3.6862   3.6998   3.7274   3.7865   3.7880   3.8687
     3.9217   3.9241   3.9875   3.9880   4.1295   4.4134   4.7923   4.8167
     5.1503   5.1701   5.2870   5.3241   5.3820   5.3821   5.4920   5.5182
     5.5521   5.5695   5.5823   5.6401   5.6581   5.6954   5.7044   5.7049
     5.7476   5.8299   5.8359   5.8544   5.9995   6.0006   6.0368   6.0808
     6.4166   6.4213   6.5522   6.5874   6.8555   6.8580   6.9707   6.9737
     7.4496   7.4960   7.6240   8.1934   8.3332   8.6534   9.0394   9.1217
     9.3641   9.4261   9.6113   9.6612

          k = 0.0253 0.0000 0.0000 ( 34707 PWs)   bands (ev):

   -57.8231 -57.7882 -57.5130 -57.4575 -57.3893 -57.3528 -57.2785 -57.2431
   -57.1809 -57.1456 -57.1175 -57.0821 -56.8840 -56.8118 -56.2852 -56.2499
   -34.2598 -34.1043 -34.0757 -34.0600 -34.0240 -33.9304 -33.8697 -33.8656
   -33.8274 -33.7734 -33.7334 -33.7224 -33.7179 -33.6889 -33.6797 -33.6725
   -33.6493 -33.6259 -33.6168 -33.5514 -33.5263 -33.4601 -33.4597 -33.4388
   -33.4322 -33.4298 -33.3873 -33.3866 -33.3788 -33.3663 -33.3552 -33.3362
   -33.3133 -33.3072 -33.2800 -33.2742 -33.2488 -33.1463 -33.1405 -33.0836
   -33.0392 -32.9385 -32.7038 -32.6374 -32.6098 -32.5078 -32.4162 -32.3080
   -24.2388 -21.0020 -18.1482 -17.9340 -17.7118 -17.5924 -17.4955 -17.4910
   -17.2701 -17.2316 -17.1458 -17.0616 -17.0540 -17.0456 -17.0184 -16.9620
   -16.9170 -16.8977 -16.8213 -16.7888 -16.7041 -16.6089 -16.6072 -16.5217
   -16.5183 -16.5152 -16.4648 -16.3123 -16.2667 -16.2455 -16.1075 -16.0782
   -14.8662 -14.7824  -9.7921  -7.4831  -7.4694  -5.9978  -5.5381  -5.3957
    -5.2515  -5.2390  -5.1878  -4.9897  -4.9372  -4.7817  -4.5810  -4.5683
    -4.5160  -4.4935  -4.4452  -4.4375  -4.3346  -4.1989  -4.1883  -4.1684
    -4.0925  -4.0758  -4.0704  -3.9869  -3.9702  -3.9368  -3.8768  -3.8417
    -3.8339  -3.8114  -3.7741  -3.7305  -3.7017  -3.6210  -3.5810  -3.4917
    -3.4616  -3.4244  -3.3361  -3.2609  -3.2182  -3.1570  -3.1375  -3.0395
    -3.0211  -2.9249  -2.8924  -2.8121  -2.7579  -2.7248  -2.7018  -2.6760
    -2.6517  -2.6115  -2.5024  -2.4956  -2.4506  -2.3768  -2.3603  -2.3167
    -2.2537  -2.2180  -2.2124  -2.1288  -2.0989  -2.0310  -1.9369  -1.8960
    -1.8021  -1.7779  -1.7532  -1.7268  -1.7045  -1.6349  -1.6103  -1.4965
    -1.4860  -1.4757  -1.4323  -1.4075  -1.3646  -1.3401  -1.2727  -1.2561
    -1.2310  -1.1182  -1.0962  -0.9950  -0.9604  -0.8992  -0.8111  -0.7722
    -0.6927  -0.5630  -0.3663  -0.2625  -0.2030  -0.0226   0.0756   0.0766
     1.5361   1.6032   1.8802   1.8993   1.9934   2.0094   2.0573   2.1357
     2.2171   2.2462   2.3163   2.3250   2.3685   2.4176   2.4361   2.4515
     2.4657   2.5358   2.5473   2.6074   2.6726   2.6826   2.7139   2.8287
     2.8442   2.9001   2.9968   3.0029   3.0111   3.0778   3.0880   3.0976
     3.1480   3.1892   3.2056   3.2417   3.2945   3.3190   3.3337   3.3862
     3.3941   3.4337   3.4645   3.4962   3.5935   3.6166   3.8086   3.8946
     4.0372   4.0601   4.0800   4.1705   4.2375   4.4128   4.6399   4.6833
     4.7686   4.9281   4.9414   4.9913   5.0116   5.0492   5.2188   5.4949
     5.5679   5.6371   5.7299   5.7396   5.7898   5.8328   5.9419   5.9530
     5.9785   6.0370   6.0402   6.0719   6.1353   6.1500   6.2452   6.3162
     6.4889   6.6320   6.7407   6.7773   6.8848   7.0699   7.1633   7.3195
     7.6136   8.0346   8.1525   8.3448   8.4008   8.7537   8.8272   8.9234
     8.9672   9.2476   9.2923   9.4221

          k = 0.0253 0.0280 0.0000 ( 34687 PWs)   bands (ev):

   -57.8208 -57.7905 -57.5115 -57.4590 -57.3870 -57.3551 -57.2761 -57.2455
   -57.1786 -57.1479 -57.1151 -57.0845 -56.8828 -56.8130 -56.2828 -56.2523
   -34.2344 -34.1023 -34.0776 -34.0342 -34.0178 -33.9367 -33.8966 -33.8404
   -33.8210 -33.7492 -33.7364 -33.7265 -33.7169 -33.6889 -33.6764 -33.6729
   -33.6471 -33.6104 -33.6068 -33.5446 -33.5348 -33.4854 -33.4576 -33.4475
   -33.4340 -33.4237 -33.4068 -33.3823 -33.3642 -33.3612 -33.3546 -33.3426
   -33.3132 -33.3124 -33.3050 -33.2760 -33.2743 -33.1456 -33.1374 -33.0842
   -33.0435 -32.9666 -32.6781 -32.6355 -32.6116 -32.5018 -32.4224 -32.3354
   -24.2388 -21.0019 -18.0880 -17.8770 -17.6604 -17.5406 -17.4745 -17.4424
   -17.2543 -17.2320 -17.2054 -17.0843 -17.0602 -17.0413 -16.9897 -16.9537
   -16.9253 -16.8601 -16.8400 -16.8212 -16.7483 -16.6599 -16.6291 -16.5428
   -16.5087 -16.4978 -16.4818 -16.3078 -16.2849 -16.2629 -16.1331 -16.1209
   -14.8762 -14.8058  -9.7920  -7.4845  -7.4692  -5.9968  -5.4537  -5.3108
    -5.1718  -5.1600  -5.1097  -4.8746  -4.8618  -4.7284  -4.5700  -4.5217
    -4.4754  -4.4448  -4.4143  -4.3555  -4.3226  -4.2857  -4.2238  -4.1953
    -4.1547  -4.1222  -4.0907  -4.0729  -4.0338  -3.9725  -3.9610  -3.9289
    -3.9131  -3.8565  -3.8433  -3.7572  -3.7366  -3.6815  -3.6763  -3.4811
    -3.4531  -3.3881  -3.3378  -3.2814  -3.1640  -3.1056  -3.0684  -2.9361
    -2.8491  -2.8447  -2.7994  -2.7858  -2.7507  -2.6764  -2.6302  -2.6141
    -2.5901  -2.5753  -2.5485  -2.5150  -2.4558  -2.4011  -2.3519  -2.3262
    -2.2651  -2.2471  -2.1944  -2.1047  -2.0621  -2.0330  -1.9928  -1.9069
    -1.8758  -1.8520  -1.7892  -1.7633  -1.7388  -1.7184  -1.6627  -1.6237
    -1.5671  -1.5095  -1.4817  -1.4633  -1.4168  -1.3773  -1.3251  -1.2316
    -1.2054  -1.2000  -1.0546  -0.9967  -0.9762  -0.9081  -0.8873  -0.8687
    -0.7833  -0.5728  -0.4237  -0.2807  -0.2181   0.0069   0.0487   0.0577
     1.5976   1.7242   1.8929   1.9043   2.0197   2.0372   2.1370   2.1722
     2.2339   2.2786   2.3155   2.3297   2.3795   2.3939   2.4091   2.4301
     2.5082   2.5415   2.5783   2.6100   2.6308   2.6860   2.7773   2.8097
     2.8483   2.8908   2.9770   2.9865   2.9946   2.9995   3.0538   3.0916
     3.1688   3.2256   3.2626   3.2688   3.3007   3.3236   3.3750   3.4275
     3.4601   3.4913   3.5165   3.5328   3.5820   3.6290   3.7641   3.8889
     4.0187   4.0477   4.0915   4.1680   4.2226   4.3622   4.6841   4.7698
     4.8207   4.9392   4.9853   5.0300   5.0394   5.1162   5.2709   5.5249
     5.5632   5.5976   5.6454   5.7262   5.7395   5.8209   5.8803   5.9239
     5.9557   5.9974   6.0245   6.0339   6.0505   6.0866   6.2961   6.3142
     6.4732   6.5513   6.7365   6.7699   6.8146   7.0592   7.1147   7.3477
     7.5354   8.0141   8.1371   8.2283   8.3152   8.5244   8.5769   8.8331
     9.0205   9.2762   9.4012   9.4739

          k = 0.0253 0.0560 0.0000 ( 34699 PWs)   bands (ev):

   -57.8144 -57.7969 -57.5082 -57.4623 -57.3810 -57.3612 -57.2697 -57.2520
   -57.1722 -57.1544 -57.1087 -57.0909 -56.8802 -56.8157 -56.2764 -56.2587
   -34.1646 -34.0969 -34.0827 -34.0009 -33.9697 -33.9636 -33.9541 -33.8050
   -33.7747 -33.7648 -33.7512 -33.7148 -33.7055 -33.6923 -33.6761 -33.6729
   -33.5935 -33.5774 -33.5749 -33.5436 -33.5360 -33.5261 -33.4800 -33.4697
   -33.4523 -33.4387 -33.4073 -33.3814 -33.3766 -33.3608 -33.3603 -33.3545
   -33.3401 -33.3261 -33.3037 -33.3015 -33.2666 -33.1446 -33.1337 -33.0858
   -33.0570 -33.0341 -32.6305 -32.6166 -32.6073 -32.4852 -32.4393 -32.4095
   -24.2387 -21.0017 -17.9210 -17.7203 -17.5267 -17.4415 -17.4194 -17.3985
   -17.3106 -17.2950 -17.1841 -17.1220 -17.0838 -17.0318 -17.0070 -16.9890
   -16.8996 -16.8909 -16.8537 -16.8073 -16.7708 -16.7341 -16.6820 -16.5898
   -16.5753 -16.4670 -16.4326 -16.3243 -16.3193 -16.2824 -16.2464 -16.1826
   -14.8942 -14.8563  -9.7917  -7.4874  -7.4689  -5.9951  -5.2226  -5.0763
    -4.9628  -4.9341  -4.9035  -4.7312  -4.6636  -4.6467  -4.5305  -4.5233
    -4.5035  -4.4944  -4.3929  -4.3537  -4.3480  -4.3176  -4.2864  -4.2698
    -4.2251  -4.2104  -4.1901  -4.1552  -4.0871  -4.0732  -4.0619  -4.0070
    -3.9716  -3.9152  -3.8461  -3.8080  -3.7244  -3.6313  -3.5435  -3.4726
    -3.4323  -3.4133  -3.3760  -3.2054  -3.1708  -3.0400  -2.9914  -2.9722
    -2.9468  -2.8744  -2.8002  -2.7641  -2.7105  -2.6711  -2.6306  -2.5815
    -2.5580  -2.5158  -2.4703  -2.4545  -2.4123  -2.3984  -2.3174  -2.2723
    -2.2574  -2.2272  -2.1710  -2.1351  -2.0904  -2.0765  -2.0123  -1.9987
    -1.9473  -1.9244  -1.8712  -1.8360  -1.8210  -1.7779  -1.7239  -1.6921
    -1.6640  -1.5872  -1.5657  -1.4931  -1.4694  -1.4189  -1.3804  -1.3435
    -1.2577  -1.2299  -1.1592  -1.0947  -1.0684  -0.9689  -0.9439  -0.8729
    -0.8202  -0.7349  -0.6013  -0.4045  -0.0419  -0.0011   0.0240   0.0471
     1.7375   1.9124   1.9286   2.0513   2.0573   2.0806   2.1662   2.1774
[...]
    -2.6741  -2.6309  -2.6216  -2.6145  -2.5832  -2.5404  -2.5042  -2.4876
    -2.4873  -2.4241  -2.3841  -2.3705  -2.3335  -2.3026  -2.2588  -2.2566
    -2.2330  -2.1457  -2.1415  -2.1393  -2.0135  -1.9756  -1.8243  -1.7957
    -1.7351  -1.6869  -1.4330  -1.3873  -1.3237  -1.3225  -1.1660  -1.1521
    -1.1451  -1.1434  -1.1179  -1.0866  -1.0414  -0.9060  -0.8895  -0.7584
    -0.7472  -0.7319  -0.6649  -0.6640  -0.0630  -0.0630   0.0746   0.0749
     1.9881   2.0023   2.0447   2.0512   2.0741   2.0768   2.0884   2.0923
     2.3575   2.3697   2.3756   2.3894   2.4526   2.4586   2.5243   2.5396
     2.5599   2.5604   2.6171   2.7222   2.7313   2.8378   2.8504   2.8680
     2.8789   2.9566   3.0306   3.1046   3.1114   3.1641   3.1943   3.2588
     3.2828   3.2967   3.3350   3.3631   3.3965   3.3997   3.4429   3.4767
     3.5596   3.5837   3.6837   3.7293   3.7938   3.8159   3.8178   3.8186
     3.9494   3.9544   3.9740   3.9740   4.2914   4.5517   4.6602   4.6607
     4.7165   4.7386   4.7762   4.7839   4.7855   4.8089   5.0776   5.1070
     5.2302   5.2627   5.6211   5.6360   5.8113   5.8256   5.9420   6.0463
     6.1657   6.2092   6.2156   6.2460   6.3947   6.4172   6.4759   6.5314
     6.5329   6.5455   6.7089   6.7097   6.7647   6.7661   7.0350   7.0807
     7.6432   7.6717   7.8014   7.8131   8.0411   8.0921   8.3279   8.4010
     8.5392   8.6064   8.6861   9.1868

          k =-0.0253 0.0280 0.0000 ( 34687 PWs)   bands (ev):

   -57.8208 -57.7905 -57.5116 -57.4591 -57.3871 -57.3551 -57.2761 -57.2456
   -57.1786 -57.1479 -57.1152 -57.0845 -56.8829 -56.8131 -56.2830 -56.2524
   -34.2344 -34.1023 -34.0776 -34.0343 -34.0178 -33.9367 -33.8967 -33.8405
   -33.8211 -33.7492 -33.7364 -33.7266 -33.7169 -33.6889 -33.6765 -33.6728
   -33.6471 -33.6104 -33.6068 -33.5446 -33.5348 -33.4854 -33.4577 -33.4475
   -33.4340 -33.4238 -33.4068 -33.3823 -33.3642 -33.3613 -33.3546 -33.3426
   -33.3132 -33.3124 -33.3050 -33.2760 -33.2743 -33.1457 -33.1375 -33.0843
   -33.0436 -32.9667 -32.6782 -32.6357 -32.6117 -32.5019 -32.4225 -32.3355
   -24.2388 -21.0019 -18.0879 -17.8770 -17.6603 -17.5405 -17.4745 -17.4422
   -17.2543 -17.2323 -17.2054 -17.0843 -17.0604 -17.0413 -16.9902 -16.9537
   -16.9253 -16.8601 -16.8400 -16.8208 -16.7473 -16.6599 -16.6293 -16.5429
   -16.5086 -16.4975 -16.4817 -16.3077 -16.2848 -16.2628 -16.1330 -16.1209
   -14.8759 -14.8056  -9.7920  -7.4845  -7.4692  -5.9968  -5.4536  -5.3108
    -5.1715  -5.1595  -5.1097  -4.8750  -4.8619  -4.7289  -4.5685  -4.5221
    -4.4753  -4.4452  -4.4156  -4.3554  -4.3229  -4.2851  -4.2261  -4.1950
    -4.1549  -4.1223  -4.0909  -4.0729  -4.0309  -3.9733  -3.9606  -3.9298
    -3.9124  -3.8564  -3.8472  -3.7564  -3.7368  -3.6816  -3.6752  -3.4797
    -3.4520  -3.3864  -3.3381  -3.2805  -3.1633  -3.1054  -3.0685  -2.9360
    -2.8595  -2.8230  -2.8028  -2.7883  -2.7521  -2.6767  -2.6335  -2.6109
    -2.5927  -2.5742  -2.5476  -2.5181  -2.4579  -2.3987  -2.3500  -2.3272
    -2.2633  -2.2467  -2.1961  -2.1066  -2.0631  -2.0322  -1.9926  -1.9131
    -1.8754  -1.8529  -1.7917  -1.7616  -1.7399  -1.7170  -1.6626  -1.6236
    -1.5638  -1.5063  -1.4817  -1.4612  -1.4181  -1.3761  -1.3269  -1.2317
    -1.2089  -1.2007  -1.0550  -0.9939  -0.9732  -0.9106  -0.8871  -0.8662
    -0.7841  -0.5732  -0.4236  -0.2807  -0.2180   0.0070   0.0489   0.0579
     1.5976   1.7242   1.8928   1.9045   2.0203   2.0382   2.1377   2.1742
     2.2366   2.2776   2.3142   2.3257   2.3802   2.3929   2.4089   2.4310
     2.5084   2.5427   2.5789   2.6110   2.6302   2.6851   2.7747   2.8086
     2.8480   2.8906   2.9756   2.9855   2.9945   2.9998   3.0548   3.0897
     3.1698   3.2264   3.2632   3.2691   3.3003   3.3239   3.3760   3.4269
     3.4613   3.4911   3.5165   3.5328   3.5813   3.6303   3.7638   3.8852
     4.0181   4.0469   4.0956   4.1680   4.2221   4.3621   4.6844   4.7665
     4.8228   4.9387   4.9844   5.0288   5.0395   5.1168   5.2707   5.5246
     5.5619   5.5980   5.6459   5.7259   5.7395   5.8195   5.8857   5.9259
     5.9543   5.9966   6.0235   6.0341   6.0508   6.0863   6.2960   6.3136
     6.4746   6.5516   6.7360   6.7696   6.8146   7.0590   7.1111   7.3474
     7.5401   8.0141   8.1471   8.2206   8.3171   8.5242   8.5724   8.8344
     9.0216   9.2719   9.4027   9.4713

          k =-0.0253 0.0560 0.0000 ( 34699 PWs)   bands (ev):

   -57.8144 -57.7970 -57.5083 -57.4624 -57.3810 -57.3612 -57.2697 -57.2520
   -57.1722 -57.1544 -57.1087 -57.0910 -56.8803 -56.8158 -56.2765 -56.2589
   -34.1646 -34.0970 -34.0827 -34.0009 -33.9697 -33.9637 -33.9541 -33.8051
   -33.7748 -33.7648 -33.7512 -33.7148 -33.7055 -33.6924 -33.6762 -33.6730
   -33.5933 -33.5774 -33.5752 -33.5436 -33.5360 -33.5261 -33.4801 -33.4697
   -33.4523 -33.4388 -33.4073 -33.3814 -33.3767 -33.3608 -33.3604 -33.3545
   -33.3401 -33.3261 -33.3037 -33.3016 -33.2667 -33.1447 -33.1338 -33.0859
   -33.0571 -33.0342 -32.6306 -32.6168 -32.6075 -32.4853 -32.4394 -32.4096
   -24.2387 -21.0017 -17.9208 -17.7203 -17.5266 -17.4416 -17.4195 -17.3985
   -17.3101 -17.2950 -17.1842 -17.1220 -17.0844 -17.0318 -17.0070 -16.9906
   -16.8996 -16.8908 -16.8527 -16.8052 -16.7713 -16.7341 -16.6827 -16.5896
   -16.5753 -16.4669 -16.4325 -16.3242 -16.3193 -16.2823 -16.2464 -16.1825
   -14.8939 -14.8561  -9.7917  -7.4874  -7.4689  -5.9951  -5.2224  -5.0764
    -4.9617  -4.9336  -4.9035  -4.7307  -4.6639  -4.6478  -4.5314  -4.5255
    -4.5022  -4.4941  -4.3950  -4.3547  -4.3478  -4.3156  -4.2843  -4.2694
    -4.2256  -4.2115  -4.1905  -4.1558  -4.0880  -4.0743  -4.0621  -4.0080
    -3.9716  -3.9154  -3.8463  -3.8073  -3.7246  -3.6295  -3.5444  -3.4692
    -3.4310  -3.4121  -3.3749  -3.2045  -3.1739  -3.0401  -2.9916  -2.9714
    -2.9416  -2.8715  -2.8003  -2.7676  -2.7113  -2.6702  -2.6331  -2.5816
    -2.5573  -2.5149  -2.4706  -2.4551  -2.4125  -2.3974  -2.3162  -2.2730
    -2.2570  -2.2294  -2.1733  -2.1366  -2.0896  -2.0791  -2.0112  -1.9983
    -1.9495  -1.9276  -1.8761  -1.8370  -1.8167  -1.7776  -1.7217  -1.6946
    -1.6611  -1.5854  -1.5654  -1.4895  -1.4682  -1.4211  -1.3820  -1.3420
    -1.2580  -1.2294  -1.1577  -1.0939  -1.0685  -0.9689  -0.9435  -0.8745
    -0.8204  -0.7343  -0.6013  -0.4047  -0.0418  -0.0009   0.0242   0.0472
     1.7375   1.9129   1.9285   2.0513   2.0571   2.0826   2.1688   2.1780
     2.2518   2.2694   2.2925   2.3077   2.3513   2.3957   2.4255   2.5079
     2.5577   2.5793   2.6464   2.6581   2.6772   2.6879   2.7512   2.7862
     2.8056   2.8211   2.8709   2.8806   2.9892   3.0594   3.1238   3.1439
     3.2000   3.2105   3.2435   3.2745   3.3249   3.3655   3.4189   3.4388
     3.5098   3.5391   3.6373   3.6649   3.6982   3.7339   3.7552   3.8213
     3.9373   3.9766   4.0129   4.1373   4.2073   4.3687   4.7764   4.8471
     4.9905   5.0253   5.0994   5.1167   5.1405   5.2234   5.3271   5.4289
     5.4506   5.5079   5.5961   5.6278   5.7180   5.7310   5.7939   5.8244
     5.8794   5.9067   5.9514   6.0139   6.0501   6.2217   6.2483   6.3599
     6.4085   6.4458   6.6507   6.6555   6.7745   6.9063   7.0444   7.2880
     7.3703   7.7196   7.8380   8.0987   8.3650   8.5583   8.6323   8.9023
     9.0251   9.0594   9.2908   9.3907

          k =-0.0506 0.0280 0.0000 ( 34685 PWs)   bands (ev):

   -57.8208 -57.7905 -57.5116 -57.4590 -57.3871 -57.3551 -57.2761 -57.2456
   -57.1786 -57.1479 -57.1152 -57.0845 -56.8829 -56.8131 -56.2830 -56.2524
   -34.2351 -34.1023 -34.0776 -34.0345 -34.0164 -33.9367 -33.8967 -33.8417
   -33.8211 -33.7519 -33.7364 -33.7263 -33.7159 -33.6905 -33.6834 -33.6729
   -33.6479 -33.6070 -33.5933 -33.5352 -33.5325 -33.4856 -33.4575 -33.4451
   -33.4340 -33.4240 -33.4098 -33.3888 -33.3735 -33.3605 -33.3532 -33.3426
   -33.3132 -33.3126 -33.3051 -33.2760 -33.2743 -33.1477 -33.1376 -33.0845
   -33.0436 -32.9667 -32.6781 -32.6375 -32.6108 -32.5019 -32.4225 -32.3355
   -24.2388 -21.0017 -18.0293 -17.7783 -17.5672 -17.4776 -17.4729 -17.3993
   -17.3406 -17.2565 -17.2411 -17.1107 -17.0903 -17.0631 -17.0591 -17.0006
   -16.9817 -16.9675 -16.8700 -16.7608 -16.7181 -16.6705 -16.5862 -16.5694
   -16.5330 -16.4904 -16.4609 -16.3066 -16.2735 -16.2639 -16.1328 -16.1219
   -14.8739 -14.8056  -9.7905  -7.4848  -7.4689  -5.9960  -5.4372  -5.0173
    -4.9438  -4.9321  -4.8627  -4.8389  -4.8188  -4.7781  -4.6413  -4.5786
    -4.5626  -4.5097  -4.4509  -4.3591  -4.3119  -4.2261  -4.1747  -4.1551
    -4.1358  -4.1264  -4.0541  -4.0102  -3.9777  -3.9493  -3.9091  -3.8840
    -3.8630  -3.8290  -3.7818  -3.7233  -3.7064  -3.5878  -3.4522  -3.4180
    -3.3920  -3.3374  -3.3061  -3.2545  -3.1868  -3.1040  -3.0606  -3.0034
    -2.9408  -2.9104  -2.8709  -2.8575  -2.8088  -2.7560  -2.7371  -2.6861
    -2.6450  -2.6185  -2.5889  -2.5401  -2.5021  -2.4802  -2.4335  -2.4059
    -2.3422  -2.3118  -2.2316  -2.2033  -2.1370  -2.1061  -2.0928  -2.0494
    -1.9989  -1.9346  -1.9059  -1.8747  -1.8473  -1.7786  -1.6929  -1.6379
    -1.6023  -1.5710  -1.4972  -1.4693  -1.4289  -1.4080  -1.3228  -1.2690
    -1.1861  -1.1465  -1.0359  -1.0222  -0.9538  -0.9256  -0.8922  -0.8571
    -0.8179  -0.6536  -0.4550  -0.4009  -0.2049  -0.0222   0.0085   0.0221
     1.5821   1.7883   1.9209   1.9384   1.9579   2.0334   2.0672   2.1443
     2.2415   2.2566   2.2981   2.3584   2.4077   2.4500   2.4516   2.5193
     2.5338   2.5772   2.6052   2.6480   2.6990   2.7674   2.8232   2.8294
     2.8702   2.9230   2.9455   3.0103   3.0188   3.0641   3.1411   3.1646
     3.2304   3.2622   3.2951   3.3137   3.3749   3.3990   3.4401   3.4774
     3.4958   3.5297   3.5428   3.5936   3.6366   3.6865   3.7369   3.8205
     3.9273   4.0284   4.1361   4.1461   4.2815   4.3496   4.5251   4.6331
     4.6556   4.6817   4.8479   4.8971   4.9939   5.3107   5.3626   5.4713
     5.5142   5.5750   5.6543   5.7085   5.7345   5.7509   5.8821   5.9285
     5.9799   6.0214   6.2522   6.2708   6.3054   6.3708   6.4314   6.5134
     6.5414   6.6169   6.6855   6.7304   6.8249   6.9584   7.0270   7.3329
     7.4295   7.6906   7.8115   8.0801   8.3180   8.4040   8.5213   8.9212
     9.0825   9.1633   9.3669   9.4668

          k =-0.0506 0.0560 0.0000 ( 34596 PWs)   bands (ev):

   -57.8144 -57.7970 -57.5083 -57.4624 -57.3810 -57.3612 -57.2697 -57.2520
   -57.1722 -57.1544 -57.1087 -57.0910 -56.8803 -56.8158 -56.2765 -56.2589
   -34.1651 -34.0969 -34.0826 -33.9997 -33.9699 -33.9638 -33.9537 -33.8051
   -33.7754 -33.7653 -33.7512 -33.7137 -33.7055 -33.6929 -33.6785 -33.6752
   -33.5905 -33.5784 -33.5754 -33.5369 -33.5355 -33.5159 -33.4827 -33.4634
   -33.4522 -33.4387 -33.4074 -33.3815 -33.3802 -33.3683 -33.3603 -33.3566
   -33.3403 -33.3274 -33.3037 -33.3014 -33.2665 -33.1459 -33.1340 -33.0865
   -33.0570 -33.0340 -32.6318 -32.6163 -32.6073 -32.4853 -32.4394 -32.4095
   -24.2387 -21.0016 -17.8724 -17.6272 -17.4525 -17.4307 -17.4125 -17.3400
   -17.3008 -17.2685 -17.1964 -17.1635 -17.0924 -17.0727 -17.0071 -16.9856
   -16.9832 -16.9143 -16.9044 -16.8396 -16.8001 -16.7735 -16.7068 -16.6611
   -16.5584 -16.4565 -16.4135 -16.3147 -16.3135 -16.2850 -16.2481 -16.1821
   -14.8927 -14.8564  -9.7902  -7.4875  -7.4685  -5.9944  -5.2144  -4.7827
    -4.7318  -4.7221  -4.6842  -4.6480  -4.6376  -4.6007  -4.4961  -4.4776
    -4.4529  -4.4367  -4.3453  -4.2931  -4.2761  -4.2705  -4.2285  -4.2081
    -4.1831  -4.1711  -4.1572  -4.1300  -4.0774  -4.0402  -4.0292  -3.9992
    -3.9437  -3.8843  -3.8188  -3.7836  -3.6816  -3.6519  -3.5092  -3.4832
    -3.4653  -3.3971  -3.3788  -3.2017  -3.1157  -3.0762  -3.0276  -2.9858
    -2.9526  -2.9115  -2.8901  -2.8558  -2.8110  -2.7680  -2.7127  -2.7065
    -2.6339  -2.6188  -2.5905  -2.5127  -2.4853  -2.4672  -2.4488  -2.4262
    -2.3989  -2.3569  -2.2870  -2.2744  -2.2500  -2.2242  -2.1789  -2.1622
    -2.0913  -2.0521  -2.0212  -1.9814  -1.9346  -1.8535  -1.7844  -1.7698
    -1.7015  -1.6015  -1.5277  -1.4826  -1.4485  -1.3707  -1.3344  -1.2257
    -1.1735  -1.1352  -1.0917  -1.0295  -0.9861  -0.9224  -0.9093  -0.8319
    -0.7982  -0.7837  -0.6550  -0.4645  -0.0535  -0.0164  -0.0030   0.0530
     1.7404   1.9367   1.9575   2.0192   2.0749   2.1147   2.1239   2.1780
     2.2246   2.2719   2.3874   2.4242   2.4325   2.4588   2.4773   2.5019
     2.5972   2.6119   2.6461   2.6686   2.7058   2.7268   2.7944   2.8268
     2.8937   2.9076   2.9473   2.9772   3.0266   3.0655   3.1925   3.2205
     3.2375   3.2690   3.3154   3.3288   3.3737   3.3899   3.4075   3.4695
     3.5450   3.5844   3.6112   3.6900   3.7436   3.7723   3.7822   3.7977
     3.8402   3.9728   4.0250   4.1515   4.2108   4.4548   4.6491   4.6792
     4.7514   4.7542   4.8983   5.0035   5.0753   5.1428   5.2125   5.2381
     5.3091   5.4670   5.5702   5.6367   5.7029   5.7420   5.8326   5.9731
     6.0143   6.1177   6.1674   6.2111   6.2576   6.3057   6.4682   6.4865
     6.5517   6.5930   6.6466   6.6834   6.8348   6.8581   6.9759   7.3093
     7.3300   7.7391   7.7688   8.0197   8.0955   8.1766   8.5734   8.6729
     8.8430   8.9065   9.1439   9.3656

     the Fermi energy is     0.8666 ev

!    total energy              =   -3044.95651535 Ry
     Harris-Foulkes estimate   =   -3044.95651221 Ry
     estimated scf accuracy    <       0.00000020 Ry

     The total energy is the sum of the following terms:

     one-electron contribution =  -40855.51863692 Ry
     hartree contribution      =   20500.08651203 Ry
     xc contribution           =    -557.16278219 Ry
     ewald contribution        =   17867.63859728 Ry
     smearing contrib. (-TS)   =      -0.00020556 Ry

     total magnetization       =     0.00 Bohr mag/cell
     absolute magnetization    =     0.00 Bohr mag/cell

     convergence has been achieved in  10 iterations

     Forces acting on atoms (Ry/au):


     negative rho (up, down):  1.158E-02 1.158E-02
     atom    1 type  1   force =    -0.00007444    0.00034186   -0.13601453
     atom    2 type  2   force =     0.00012322   -0.00005953    0.07515416
     atom    3 type  1   force =     0.00124470    0.00114659   -0.05984171
     atom    4 type  2   force =     0.00661445    0.00000323    0.00967855
     atom    5 type  1   force =    -0.00131202   -0.00018144   -0.00002759
     atom    6 type  2   force =    -0.00185878   -0.00360278   -0.00871700
     atom    7 type  1   force =     0.01106164    0.00827893   -0.01698183
     atom    8 type  2   force =     0.00049569    0.00012325    0.00065580
     atom    9 type  1   force =     0.00012363    0.00044654   -0.13606349
     atom   10 type  2   force =     0.00013878    0.00000071    0.07515673
     atom   11 type  1   force =     0.00127703   -0.00080588   -0.06001853
     atom   12 type  2   force =     0.00604090   -0.00008663    0.00857219
     atom   13 type  1   force =     0.00015680    0.00000791   -0.00038134
     atom   14 type  2   force =    -0.00199950    0.00295947   -0.00925409
     atom   15 type  1   force =     0.01109790   -0.00747021   -0.01656742
     atom   16 type  2   force =     0.00709491   -0.00026567    0.01082191
     atom   17 type  2   force =    -0.00003293   -0.00000557    0.08001045
     atom   18 type  1   force =    -0.00002548    0.00031606    0.11909475
     atom   19 type  2   force =     0.00037540    0.00023941   -0.06812615
     atom   20 type  2   force =    -0.06268817    0.00010141   -0.03208580
     atom   21 type  2   force =     0.06273874    0.00015353   -0.03257298
     atom   22 type  1   force =    -0.00048361   -0.00005312    0.06428462
     atom   23 type  2   force =     0.00015291    0.00064294   -0.00262862
     atom   24 type  2   force =     0.00046323    0.00008300   -0.02245493
     atom   25 type  2   force =    -0.00644997   -0.00016861    0.00824408
     atom   26 type  1   force =    -0.00007894   -0.00003925    0.00248586
     atom   27 type  2   force =     0.00255581   -0.00136597   -0.00246916
     atom   28 type  2   force =    -0.00003603    0.00006383   -0.00146880
     atom   29 type  2   force =     0.00010980   -0.00008583   -0.00053285
     atom   30 type  1   force =     0.00574644    0.00021286   -0.00070130
     atom   31 type  2   force =    -0.00210476    0.00178242    0.00114048
     atom   32 type  2   force =     0.00147859   -0.00002097    0.00190349
     atom   33 type  2   force =     0.00000227    0.00020737    0.08005372
     atom   34 type  1   force =    -0.00011534    0.00032905    0.11910395
     atom   35 type  2   force =     0.00036422    0.00038390   -0.06803910
     atom   36 type  2   force =    -0.06268665    0.00013155   -0.03230893
     atom   37 type  2   force =     0.06287747    0.00017685   -0.03204645
     atom   38 type  1   force =    -0.00069326    0.00003316    0.06411866
     atom   39 type  2   force =     0.00020317   -0.00074481   -0.00266584
     atom   40 type  2   force =     0.00064369   -0.00223042   -0.02254280
     atom   41 type  2   force =    -0.00619815   -0.00023464    0.00764444
     atom   42 type  1   force =    -0.00011283    0.00001490    0.00251987
     atom   43 type  2   force =     0.00256894    0.00150708   -0.00237188
     atom   44 type  2   force =     0.00036124   -0.00013095   -0.00071214
     atom   45 type  2   force =    -0.00020309    0.00001403   -0.00091702
     atom   46 type  1   force =    -0.01909176    0.00053966   -0.00504192
     atom   47 type  2   force =    -0.00210449   -0.00149753    0.00089710
     atom   48 type  2   force =    -0.00084536   -0.00056778   -0.02795497
     atom   49 type  2   force =    -0.04851316   -0.00887257    0.18012158
     atom   50 type  3   force =    -0.03188754   -0.00131806   -0.03263986
     atom   51 type  3   force =     0.06348469    0.00956675   -0.07751336

     Total force =     0.430406     Total SCF correction =     0.001086
 !ASE

     Writing output data file calc.save
 
     init_run     :     54.14s CPU     68.51s WALL (       1 calls)
     electrons    :   2020.80s CPU   2446.47s WALL (       1 calls)
     forces       :     40.14s CPU     42.07s WALL (       1 calls)

     Called by init_run:
     wfcinit      :     46.04s CPU     59.61s WALL (       1 calls)
     potinit      :      1.53s CPU      1.81s WALL (       1 calls)

     Called by electrons:
     c_bands      :   1740.87s CPU   2097.71s WALL (      10 calls)
     sum_band     :    235.28s CPU    297.77s WALL (      10 calls)
     v_of_rho     :     11.04s CPU     13.87s WALL (      11 calls)
     newd         :     37.43s CPU     41.11s WALL (      11 calls)
     mix_rho      :      0.41s CPU      0.61s WALL (      10 calls)
     vdW_energy   :      1.97s CPU      2.43s WALL (      12 calls)
     vdW_ffts     :      3.01s CPU      3.96s WALL (      24 calls)
     vdW_v        :      1.16s CPU      1.34s WALL (      12 calls)

     Called by c_bands:
     init_us_2    :      5.87s CPU      6.43s WALL (     880 calls)
     cegterg      :   1705.01s CPU   2059.50s WALL (     400 calls)

     Called by *egterg:
     h_psi        :    736.47s CPU   1014.83s WALL (    1857 calls)
     s_psi        :     92.01s CPU     96.33s WALL (    1857 calls)
     g_psi        :      4.90s CPU      5.05s WALL (    1417 calls)
     cdiaghg      :    538.47s CPU    551.54s WALL (    1817 calls)

     Called by h_psi:
     add_vuspsi   :     92.61s CPU     96.56s WALL (    1857 calls)

     General routines
     calbec       :    142.09s CPU    145.04s WALL (    2297 calls)
     fft          :      6.32s CPU      8.25s WALL (     948 calls)
     ffts         :      0.08s CPU      0.10s WALL (      42 calls)
     fftw         :    477.39s CPU    803.54s WALL (  722940 calls)
     interpolate  :      0.39s CPU      0.60s WALL (      42 calls)
     davcio       :      0.15s CPU      3.44s WALL (      40 calls)
 
     Parallel routines
     fft_scatter  :    244.41s CPU    441.56s WALL (  723930 calls)
 
     PWSCF        : 35m16.12s CPU    42m42.28s WALL

 
   This run was terminated on:   8:55:13  10Mar2018            

=------------------------------------------------------------------------------=
   JOB DONE.
=------------------------------------------------------------------------------=
