  python dir          : /home/vossj/suncat/lib/python2.7/site-packages/espresso
  espresso dir        : /home/vossj/suncat/esdld/espresso-dynpy-beef/bin
  pseudo dir          : /home/alatimer/bin/psp/esp_psp_w_gbrvRu/
  ase-espresso py git : ffa2778-git



     Program PWSCF v.5.1rc2 (svn rev. ) starts on 13Feb2018 at  2:49:35 

     This program is part of the open-source Quantum ESPRESSO suite
     for quantum simulation of materials; please cite
         "P. Giannozzi et al., J. Phys.:Condens. Matter 21 395502 (2009);
          URL http://www.quantum-espresso.org", 
     in publications or presentations arising from this work. More details at
     http://www.quantum-espresso.org/quote

     Parallel version (MPI), running on    16 processors
     R & G space division:  proc/nbgrp/npool/nimage =      16
     Reading input from pw.inp
     Message from routine read_cards :
     DEPRECATED: no units specified in CELL_PARAMETERS card

     Current dimensions of program PWSCF are:
     Max number of different atomic species (ntypx) = 10
     Max number of k-points (npk) =  40000
     Max angular momentum in pseudopotentials (lmaxx) =  3

     **************************************************************************
     Initializing libbeef V0.1.1 with the BEEF-vdW functional.
     Citation: Wellendorff et al., PRB 85, 235149 (2012).
     **************************************************************************


     IMPORTANT: XC functional enforced from input :
     Exchange-correlation      = BEEF ( 1  4 27 13 2)
     Any further DFT definition will be discarded
     Please, verify this is what you really want


     Subspace diagonalization in iterative solution of the eigenvalue problem:
     a serial algorithm will be used

 
     Parallelization info
     --------------------
     sticks:   dense  smooth     PW     G-vecs:    dense   smooth      PW
     Min         281     112     31                68535    17318    2565
     Max         282     113     32                68545    17369    2582
     Sum        4501    1795    503              1096637   277353   41113
 
     Generating pointlists ...
     new r_m :   0.4125 (alat units)  0.7795 (a.u.) for type    1
     new r_m :   0.3995 (alat units)  0.7549 (a.u.) for type    2
     new r_m :   0.4125 (alat units)  0.7795 (a.u.) for type    3
     new r_m :   0.3995 (alat units)  0.7549 (a.u.) for type    4


     bravais-lattice index     =            0
     lattice parameter (alat)  =       1.8897  a.u.
     unit-cell volume          =    7990.9933 (a.u.)^3
     number of atoms/cell      =           54
     number of atomic types    =            4
     number of electrons       =       398.00
     number of Kohn-Sham states=          299
     kinetic-energy cutoff     =      40.4243  Ry
     charge density cutoff     =     404.2426  Ry
     convergence threshold     =      7.3E-07
     mixing beta               =       0.1000
     number of iterations used =           10  plain     mixing
     Exchange-correlation      = BEEF ( 1  4 27 13 2)
     nstep                     =           50


     celldm(1)=   1.889726  celldm(2)=   0.000000  celldm(3)=   0.000000
     celldm(4)=   0.000000  celldm(5)=   0.000000  celldm(6)=   0.000000

     crystal axes: (cart. coord. in units of alat)
               a(1) = (   6.590708   0.000000   0.000000 )  
               a(2) = (   0.000000   5.950229   0.000000 )  
               a(3) = (   0.000000   0.000000  30.195235 )  

     reciprocal axes: (cart. coord. in units 2 pi/alat)
               b(1) = (  0.151729  0.000000  0.000000 )  
               b(2) = (  0.000000  0.168061  0.000000 )  
               b(3) = (  0.000000  0.000000  0.033118 )  


     PseudoPot. # 1 for Ti read from file:
     /home/alatimer/bin/psp/esp_psp_w_gbrvRu/Ti.UPF
     MD5 check sum: 8e4df49b7f0d34bbd5052bf3f5ea0213
     Pseudo is Ultrasoft, Zval = 12.0
     Generated by new atomic code, or converted to UPF format
     Using radial grid of  851 points,  6 beta functions with: 
                l(1) =   0
                l(2) =   0
                l(3) =   1
                l(4) =   1
                l(5) =   2
                l(6) =   2
     Q(r) pseudized with  8 coefficients,  rinner =    1.000   1.000   1.000
                                                       1.000   1.000

     PseudoPot. # 2 for  O read from file:
     /home/alatimer/bin/psp/esp_psp_w_gbrvRu/O.UPF
     MD5 check sum: e057bbcf3229fb5d8c36c0c92f9568b4
     Pseudo is Ultrasoft + core correction, Zval =  6.0
     Generated using "atomic" code by A. Dal Corso  v.5.0.2 svn rev. 9415
     Using radial grid of 1095 points,  4 beta functions with: 
                l(1) =   0
                l(2) =   0
                l(3) =   1
                l(4) =   1
     Q(r) pseudized with 0 coefficients 


     PseudoPot. # 3 for  C read from file:
     /home/alatimer/bin/psp/esp_psp_w_gbrvRu/C.UPF
     MD5 check sum: ab446d787031eba755f1d5ee46644bb0
     Pseudo is Ultrasoft + core correction, Zval =  4.0
     Generated using "atomic" code by A. Dal Corso  v.5.0.2 svn rev. 9415
     Using radial grid of 1073 points,  4 beta functions with: 
                l(1) =   0
                l(2) =   0
                l(3) =   1
                l(4) =   1
     Q(r) pseudized with 0 coefficients 


     PseudoPot. # 4 for  H read from file:
     /home/alatimer/bin/psp/esp_psp_w_gbrvRu/H.UPF
     MD5 check sum: bd57da0722753ddfd9833a65b40bb853
     Pseudo is Ultrasoft, Zval =  1.0
     Generated using "atomic" code by A. Dal Corso  v.5.0.2 svn rev. 9415
     Using radial grid of  929 points,  2 beta functions with: 
                l(1) =   0
                l(2) =   0
     Q(r) pseudized with 0 coefficients 


     vdW kernel table read from file vdW_kernel_table
     MD5 check sum: 095c7af220d748ca6e76c0b4c6cfb241

     atomic species   valence    mass     pseudopotential
        Ti1           12.00    47.88000     Ti( 1.00)
        O1             6.00    15.99940      O( 1.00)
        C1             4.00    12.01100      C( 1.00)
        H1             1.00     1.00794      H( 1.00)

     Starting magnetic structure 
     atomic species   magnetization
        Ti1          0.250
        O1           0.500
        C1           0.750
        H1           0.000

     No symmetry found



   Cartesian axes

     site n.     atom                  positions (alat units)
         1           Ti1 tau(   1) = (   1.6476770   0.7437786   2.6545865  )
         2           O1  tau(   2) = (   1.6476770   2.2313359   3.9361215  )
         3           Ti1 tau(   3) = (   1.6476770   2.2313359   5.9499405  )
         4           O1  tau(   4) = (   0.3661420   0.7437786   5.9499405  )
         5           Ti1 tau(   5) = (   1.7592931   0.7557636   9.1813031  )
         6           O1  tau(   6) = (   1.6162490   2.2572048  10.5951269  )
         7           Ti1 tau(   7) = (   1.5595004   2.2680265  12.4668274  )
         8           O1  tau(   8) = (   0.3709531   0.7738127  12.6996540  )
         9           Ti1 tau(   9) = (   1.6476770   3.7188931   2.6545865  )
        10           O1  tau(  10) = (   1.6476770   5.2064503   3.9361215  )
        11           Ti1 tau(  11) = (   1.6476770   5.2064503   5.9499405  )
        12           O1  tau(  12) = (   0.3661420   3.7188931   5.9499405  )
        13           Ti1 tau(  13) = (   1.7607536   3.7112867   9.1949733  )
        14           O1  tau(  14) = (   1.6133076   5.2250699  10.5465640  )
        15           Ti1 tau(  15) = (   1.6492307   5.2431137  12.3448001  )
        16           O1  tau(  16) = (   0.3719744   3.7598389  12.7007434  )
        17           O1  tau(  17) = (   1.6476770   2.2313359   1.3730516  )
        18           Ti1 tau(  18) = (   4.9430310   2.2313359   2.6545865  )
        19           O1  tau(  19) = (   4.9430310   2.2313359   4.6684056  )
        20           O1  tau(  20) = (   6.2245660   0.7437786   2.6545865  )
        21           O1  tau(  21) = (   3.6614961   0.7437786   2.6545865  )
        22           Ti1 tau(  22) = (   4.9430310   0.7437786   5.9499405  )
        23           O1  tau(  23) = (   1.6387103   2.2391978   8.0037664  )
        24           O1  tau(  24) = (   4.9430310   2.2313359   7.2314755  )
        25           O1  tau(  25) = (   2.9292120   0.7437786   5.9499405  )
        26           Ti1 tau(  26) = (   5.0158092   2.2383949   9.3973727  )
        27           O1  tau(  27) = (   4.9391445   2.2276729  11.2675731  )
        28           O1  tau(  28) = (   6.2094020   0.7514556   9.2742047  )
        29           O1  tau(  29) = (   3.6131301   0.7515640   9.2682932  )
        30           Ti1 tau(  30) = (   4.8940083   0.8207741  12.7348365  )
        31           O1  tau(  31) = (   4.8487174   2.2703822  13.8475395  )
        32           O1  tau(  32) = (   2.8766274   0.7418004  12.6316555  )
        33           O1  tau(  33) = (   1.6476770   5.2064503   1.3730516  )
        34           Ti1 tau(  34) = (   4.9430310   5.2064503   2.6545865  )
        35           O1  tau(  35) = (   4.9430310   5.2064503   4.6684056  )
        36           O1  tau(  36) = (   6.2245660   3.7188931   2.6545865  )
        37           O1  tau(  37) = (   3.6614961   3.7188931   2.6545865  )
        38           Ti1 tau(  38) = (   4.9430310   3.7188931   5.9499405  )
        39           O1  tau(  39) = (   1.6418458   5.2133935   8.0066417  )
        40           O1  tau(  40) = (   4.9430310   5.2064503   7.2314755  )
        41           O1  tau(  41) = (   2.9292120   3.7188931   5.9499405  )
        42           Ti1 tau(  42) = (   5.0218241   5.2139137   9.3870600  )
        43           O1  tau(  43) = (   4.9399496   5.2040061  11.2598200  )
        44           O1  tau(  44) = (   6.2073000   3.7245411   9.2731052  )
        45           O1  tau(  45) = (   3.6137513   3.7232133   9.2682466  )
        46           Ti1 tau(  46) = (   4.8936935   3.8094630  12.7397413  )
        47           O1  tau(  47) = (   4.9051259   5.2510468  13.8339921  )
        48           O1  tau(  48) = (   2.8743370   3.7938830  12.6403791  )
        49           C1  tau(  49) = (   1.0587210   2.2268971  15.9066084  )
        50           O1  tau(  50) = (   1.8917182   2.2355032  14.7378010  )
        51           H1  tau(  51) = (   0.0310076   2.2200215  15.5603933  )
        52           H1  tau(  52) = (   2.8355400   2.2288152  14.9543747  )
        53           H1  tau(  53) = (   1.2778062   1.3326534  16.5039879  )
        54           H1  tau(  54) = (   1.2341453   3.1195140  16.5098874  )

     number of k points=    40  Fermi-Dirac smearing, width (Ry)=  0.0073
                       cart. coord. in units 2pi/alat
        k(    1) = (   0.0000000   0.0000000   0.0000000), wk =   0.0277778
        k(    2) = (   0.0000000   0.0280101   0.0000000), wk =   0.0555556
        k(    3) = (   0.0000000   0.0560203   0.0000000), wk =   0.0555556
        k(    4) = (   0.0000000  -0.0840304   0.0000000), wk =   0.0277778
        k(    5) = (   0.0252881   0.0000000   0.0000000), wk =   0.0555556
        k(    6) = (   0.0252881   0.0280101   0.0000000), wk =   0.0555556
        k(    7) = (   0.0252881   0.0560203   0.0000000), wk =   0.0555556
        k(    8) = (   0.0252881  -0.0840304   0.0000000), wk =   0.0555556
        k(    9) = (   0.0505763   0.0000000   0.0000000), wk =   0.0555556
        k(   10) = (   0.0505763   0.0280101   0.0000000), wk =   0.0555556
        k(   11) = (   0.0505763   0.0560203   0.0000000), wk =   0.0555556
        k(   12) = (   0.0505763  -0.0840304   0.0000000), wk =   0.0555556
        k(   13) = (  -0.0758644   0.0000000   0.0000000), wk =   0.0277778
        k(   14) = (  -0.0758644   0.0280101   0.0000000), wk =   0.0555556
        k(   15) = (  -0.0758644   0.0560203   0.0000000), wk =   0.0555556
        k(   16) = (  -0.0758644  -0.0840304   0.0000000), wk =   0.0277778
        k(   17) = (  -0.0252881   0.0280101   0.0000000), wk =   0.0555556
        k(   18) = (  -0.0252881   0.0560203   0.0000000), wk =   0.0555556
        k(   19) = (  -0.0505763   0.0280101   0.0000000), wk =   0.0555556
        k(   20) = (  -0.0505763   0.0560203   0.0000000), wk =   0.0555556
        k(   21) = (   0.0000000   0.0000000   0.0000000), wk =   0.0277778
        k(   22) = (   0.0000000   0.0280101   0.0000000), wk =   0.0555556
        k(   23) = (   0.0000000   0.0560203   0.0000000), wk =   0.0555556
        k(   24) = (   0.0000000  -0.0840304   0.0000000), wk =   0.0277778
        k(   25) = (   0.0252881   0.0000000   0.0000000), wk =   0.0555556
        k(   26) = (   0.0252881   0.0280101   0.0000000), wk =   0.0555556
        k(   27) = (   0.0252881   0.0560203   0.0000000), wk =   0.0555556
        k(   28) = (   0.0252881  -0.0840304   0.0000000), wk =   0.0555556
        k(   29) = (   0.0505763   0.0000000   0.0000000), wk =   0.0555556
        k(   30) = (   0.0505763   0.0280101   0.0000000), wk =   0.0555556
        k(   31) = (   0.0505763   0.0560203   0.0000000), wk =   0.0555556
        k(   32) = (   0.0505763  -0.0840304   0.0000000), wk =   0.0555556
        k(   33) = (  -0.0758644   0.0000000   0.0000000), wk =   0.0277778
        k(   34) = (  -0.0758644   0.0280101   0.0000000), wk =   0.0555556
        k(   35) = (  -0.0758644   0.0560203   0.0000000), wk =   0.0555556
        k(   36) = (  -0.0758644  -0.0840304   0.0000000), wk =   0.0277778
        k(   37) = (  -0.0252881   0.0280101   0.0000000), wk =   0.0555556
        k(   38) = (  -0.0252881   0.0560203   0.0000000), wk =   0.0555556
        k(   39) = (  -0.0505763   0.0280101   0.0000000), wk =   0.0555556
        k(   40) = (  -0.0505763   0.0560203   0.0000000), wk =   0.0555556

     Dense  grid:  1096637 G-vectors     FFT dimensions: (  80,  72, 375)

     Smooth grid:   277353 G-vectors     FFT dimensions: (  54,  45, 240)

     Largest allocated arrays     est. size (Mb)     dimensions
        Kohn-Sham Wavefunctions         9.95 Mb     (    2180,  299)
        NL pseudopotentials            18.89 Mb     (    2180,  568)
        Each V/rho on FFT grid          4.22 Mb     (  138240,   2)
        Each G-vector array             0.52 Mb     (   68538)
        G-vector shells                 0.25 Mb     (   33046)
     Largest temporary arrays     est. size (Mb)     dimensions
        Auxiliary wavefunctions        39.78 Mb     (    2180, 1196)
        Each subspace H/S matrix       21.83 Mb     (    1196, 1196)
        Each <psi_i|beta_j> matrix      2.59 Mb     (     568,  299)
        Arrays for rho mixing          21.09 Mb     (  138240,   10)

     Check: negative/imaginary core charge=   -0.000049    0.000000

     The initial density is read from file :
     ./calc.save/charge-density.dat


     negative rho (up, down):  1.209E-02 1.209E-02


     ************************************************************************
     *
     * You are using vdW-DF for exchange-correlation in this calculation.
     * Please cite the following three references that made this development
     * possible:
     *
     *   M. Dion, H. Rydberg, E. Schroder, D. C. Langreth, and
     *   B. I. Lundqvist, Phys. Rev. Lett. 92, 246401 (2004).
     *
     *   T. Thonhauser, V. R. Cooper, S. Li, A. Puzder, P. Hyldgaard, and
     *   D. C. Langreth, Phys. Rev. B 76, 125112 (2007).
     *
     *   G. Roman-Perez and J. M. Soler, Phys. Rev. Lett. 103, 096102 (2009).
     *
     *
     * If you are using vdW-DF2, please also cite:
     *
     *   K. Lee, E. D. Murray, L. Kong, B. I. Lundqvist, and
     *   D. C. Langreth, Phys. Rev. B 82, 081101(R) (2010).
     *
     *
     * If you are calculating the stress with vdW-DF, please also cite:
     *
     *   R. Sabatini, E. Kucukbenli, B. Kolb, T. Thonhauser, and
     *   S. de Gironcoli, J. Phys.: Condens. Matter 24, 424209 (2012).
     *
     ************************************************************************

     Carrying out vdW-DF run using the following parameters:

     Nqs =      20    Nr_points =    1024   r_max =   100.000
     q_mesh =
               0.00001000     0.04494208     0.09755937     0.15916263
               0.23128650     0.31572767     0.41458969     0.53033537
               0.66584808     0.82450364     1.01025438     1.22772762
               1.48234092     1.78043706     2.12944203     2.53805004
               3.01644009     3.57652955     4.23227104     5.00000000

     Gradients computed in reciprocal space

     ************************************************************************


     Starting wfc are  300 randomized atomic wfcs

     total cpu time spent up to now is       73.4 secs

     Self-consistent Calculation

     iteration #  1     ecut=    40.42 Ry     beta=0.10
     Davidson diagonalization with overlap
     ethr =  1.00E-05,  avg # of iterations = 14.7

     Threshold (ethr) on eigenvalues was too large:
     Diagonalizing with lowered threshold

     Davidson diagonalization with overlap
     ethr =  3.22E-07,  avg # of iterations =  1.0

     negative rho (up, down):  1.209E-02 1.209E-02
 
     Magnetic moment per site:
     atom:    1    charge:    3.1250    magn:   -0.0002    constr:    0.0000
     atom:    2    charge:    1.9452    magn:    0.0000    constr:    0.0000
     atom:    3    charge:    3.1198    magn:    0.0000    constr:    0.0000
     atom:    4    charge:    1.9504    magn:   -0.0001    constr:    0.0000
     atom:    5    charge:    3.1166    magn:    0.0000    constr:    0.0000
     atom:    6    charge:    1.9476    magn:   -0.0001    constr:    0.0000
     atom:    7    charge:    3.1157    magn:    0.0001    constr:    0.0000
     atom:    8    charge:    1.9452    magn:   -0.0001    constr:    0.0000
     atom:    9    charge:    3.1250    magn:   -0.0002    constr:    0.0000
     atom:   10    charge:    1.9452    magn:    0.0000    constr:    0.0000
     atom:   11    charge:    3.1197    magn:    0.0000    constr:    0.0000
     atom:   12    charge:    1.9504    magn:   -0.0001    constr:    0.0000
     atom:   13    charge:    3.1158    magn:    0.0000    constr:    0.0000
     atom:   14    charge:    1.9587    magn:   -0.0001    constr:    0.0000
     atom:   15    charge:    3.1188    magn:    0.0001    constr:    0.0000
     atom:   16    charge:    1.9445    magn:   -0.0001    constr:    0.0000
     atom:   17    charge:    1.9184    magn:    0.0004    constr:    0.0000
     atom:   18    charge:    3.1239    magn:   -0.0001    constr:    0.0000
     atom:   19    charge:    1.9408    magn:   -0.0000    constr:    0.0000
     atom:   20    charge:    1.9471    magn:    0.0000    constr:    0.0000
     atom:   21    charge:    1.9471    magn:    0.0000    constr:    0.0000
     atom:   22    charge:    3.1196    magn:    0.0000    constr:    0.0000
     atom:   23    charge:    1.9566    magn:   -0.0001    constr:    0.0000
     atom:   24    charge:    1.9379    magn:   -0.0001    constr:    0.0000
     atom:   25    charge:    1.9505    magn:   -0.0001    constr:    0.0000
     atom:   26    charge:    3.1145    magn:    0.0001    constr:    0.0000
     atom:   27    charge:    1.9398    magn:   -0.0001    constr:    0.0000
     atom:   28    charge:    1.9517    magn:   -0.0001    constr:    0.0000
     atom:   29    charge:    1.9476    magn:   -0.0001    constr:    0.0000
     atom:   30    charge:    3.1167    magn:    0.0000    constr:    0.0000
     atom:   31    charge:    1.9446    magn:   -0.0000    constr:    0.0000
     atom:   32    charge:    1.9440    magn:   -0.0001    constr:    0.0000
     atom:   33    charge:    1.9184    magn:    0.0004    constr:    0.0000
     atom:   34    charge:    3.1239    magn:   -0.0001    constr:    0.0000
     atom:   35    charge:    1.9408    magn:   -0.0000    constr:    0.0000
     atom:   36    charge:    1.9471    magn:    0.0000    constr:    0.0000
     atom:   37    charge:    1.9471    magn:    0.0000    constr:    0.0000
     atom:   38    charge:    3.1196    magn:    0.0000    constr:    0.0000
     atom:   39    charge:    1.9549    magn:   -0.0001    constr:    0.0000
     atom:   40    charge:    1.9383    magn:   -0.0001    constr:    0.0000
     atom:   41    charge:    1.9505    magn:   -0.0001    constr:    0.0000
     atom:   42    charge:    3.1141    magn:    0.0001    constr:    0.0000
     atom:   43    charge:    1.9413    magn:   -0.0001    constr:    0.0000
     atom:   44    charge:    1.9517    magn:   -0.0001    constr:    0.0000
     atom:   45    charge:    1.9468    magn:   -0.0001    constr:    0.0000
     atom:   46    charge:    3.1165    magn:    0.0000    constr:    0.0000
     atom:   47    charge:    1.9431    magn:   -0.0000    constr:    0.0000
     atom:   48    charge:    1.9444    magn:   -0.0001    constr:    0.0000
     atom:   49    charge:    0.6578    magn:   -0.0001    constr:    0.0000
     atom:   50    charge:    1.9580    magn:   -0.0001    constr:    0.0000
     atom:   51    charge:    0.4021    magn:    0.0000    constr:    0.0000
     atom:   52    charge:    0.4006    magn:    0.0000    constr:    0.0000
     atom:   53    charge:    0.4006    magn:    0.0000    constr:    0.0000
     atom:   54    charge:    0.4040    magn:    0.0000    constr:    0.0000

     total cpu time spent up to now is     1007.3 secs

     total energy              =   -3021.42017532 Ry
     Harris-Foulkes estimate   =   -3021.42026530 Ry
     estimated scf accuracy    <       0.00128145 Ry

     total magnetization       =     0.00 Bohr mag/cell
     absolute magnetization    =     0.01 Bohr mag/cell

     iteration #  2     ecut=    40.42 Ry     beta=0.10
     Davidson diagonalization with overlap
     ethr =  3.22E-07,  avg # of iterations =  1.0

     negative rho (up, down):  1.209E-02 1.209E-02
 
     Magnetic moment per site:
     atom:    1    charge:    3.1250    magn:   -0.0001    constr:    0.0000
     atom:    2    charge:    1.9452    magn:    0.0000    constr:    0.0000
     atom:    3    charge:    3.1198    magn:    0.0000    constr:    0.0000
     atom:    4    charge:    1.9504    magn:   -0.0000    constr:    0.0000
     atom:    5    charge:    3.1166    magn:    0.0000    constr:    0.0000
     atom:    6    charge:    1.9477    magn:   -0.0001    constr:    0.0000
     atom:    7    charge:    3.1157    magn:    0.0000    constr:    0.0000
     atom:    8    charge:    1.9452    magn:   -0.0001    constr:    0.0000
     atom:    9    charge:    3.1250    magn:   -0.0001    constr:    0.0000
     atom:   10    charge:    1.9452    magn:    0.0000    constr:    0.0000
     atom:   11    charge:    3.1197    magn:    0.0000    constr:    0.0000
     atom:   12    charge:    1.9504    magn:   -0.0000    constr:    0.0000
     atom:   13    charge:    3.1158    magn:    0.0000    constr:    0.0000
     atom:   14    charge:    1.9587    magn:   -0.0001    constr:    0.0000
     atom:   15    charge:    3.1189    magn:    0.0000    constr:    0.0000
     atom:   16    charge:    1.9445    magn:   -0.0001    constr:    0.0000
     atom:   17    charge:    1.9184    magn:    0.0003    constr:    0.0000
     atom:   18    charge:    3.1239    magn:   -0.0001    constr:    0.0000
     atom:   19    charge:    1.9408    magn:   -0.0000    constr:    0.0000
     atom:   20    charge:    1.9471    magn:    0.0000    constr:    0.0000
     atom:   21    charge:    1.9471    magn:    0.0000    constr:    0.0000
     atom:   22    charge:    3.1196    magn:    0.0000    constr:    0.0000
     atom:   23    charge:    1.9566    magn:   -0.0001    constr:    0.0000
     atom:   24    charge:    1.9379    magn:   -0.0000    constr:    0.0000
     atom:   25    charge:    1.9505    magn:   -0.0000    constr:    0.0000
     atom:   26    charge:    3.1145    magn:    0.0000    constr:    0.0000
     atom:   27    charge:    1.9398    magn:   -0.0000    constr:    0.0000
     atom:   28    charge:    1.9517    magn:   -0.0001    constr:    0.0000
     atom:   29    charge:    1.9476    magn:   -0.0001    constr:    0.0000
     atom:   30    charge:    3.1167    magn:    0.0000    constr:    0.0000
     atom:   31    charge:    1.9446    magn:   -0.0000    constr:    0.0000
     atom:   32    charge:    1.9441    magn:   -0.0001    constr:    0.0000
     atom:   33    charge:    1.9184    magn:    0.0003    constr:    0.0000
     atom:   34    charge:    3.1239    magn:   -0.0001    constr:    0.0000
     atom:   35    charge:    1.9408    magn:   -0.0000    constr:    0.0000
     atom:   36    charge:    1.9471    magn:    0.0000    constr:    0.0000
     atom:   37    charge:    1.9471    magn:    0.0000    constr:    0.0000
     atom:   38    charge:    3.1196    magn:    0.0000    constr:    0.0000
     atom:   39    charge:    1.9550    magn:   -0.0001    constr:    0.0000
     atom:   40    charge:    1.9383    magn:   -0.0000    constr:    0.0000
     atom:   41    charge:    1.9505    magn:   -0.0000    constr:    0.0000
     atom:   42    charge:    3.1141    magn:    0.0000    constr:    0.0000
     atom:   43    charge:    1.9413    magn:   -0.0000    constr:    0.0000
     atom:   44    charge:    1.9517    magn:   -0.0001    constr:    0.0000
     atom:   45    charge:    1.9469    magn:   -0.0001    constr:    0.0000
     atom:   46    charge:    3.1165    magn:    0.0000    constr:    0.0000
     atom:   47    charge:    1.9431    magn:   -0.0000    constr:    0.0000
     atom:   48    charge:    1.9445    magn:   -0.0001    constr:    0.0000
     atom:   49    charge:    0.6563    magn:   -0.0000    constr:    0.0000
     atom:   50    charge:    1.9587    magn:   -0.0000    constr:    0.0000
     atom:   51    charge:    0.4016    magn:    0.0000    constr:    0.0000
     atom:   52    charge:    0.4008    magn:    0.0000    constr:    0.0000
     atom:   53    charge:    0.4011    magn:    0.0000    constr:    0.0000
     atom:   54    charge:    0.4043    magn:    0.0000    constr:    0.0000

     total cpu time spent up to now is     1181.6 secs

     total energy              =   -3021.41989160 Ry
     Harris-Foulkes estimate   =   -3021.42018048 Ry
     estimated scf accuracy    <       0.00095570 Ry

     total magnetization       =     0.00 Bohr mag/cell
     absolute magnetization    =     0.01 Bohr mag/cell

     iteration #  3     ecut=    40.42 Ry     beta=0.10
     Davidson diagonalization with overlap
     ethr =  2.40E-07,  avg # of iterations =  3.0

     negative rho (up, down):  1.209E-02 1.209E-02
 
     Magnetic moment per site:
     atom:    1    charge:    3.1250    magn:   -0.0001    constr:    0.0000
     atom:    2    charge:    1.9452    magn:    0.0000    constr:    0.0000
     atom:    3    charge:    3.1198    magn:    0.0000    constr:    0.0000
     atom:    4    charge:    1.9504    magn:   -0.0000    constr:    0.0000
     atom:    5    charge:    3.1166    magn:    0.0000    constr:    0.0000
     atom:    6    charge:    1.9477    magn:   -0.0001    constr:    0.0000
     atom:    7    charge:    3.1157    magn:    0.0000    constr:    0.0000
     atom:    8    charge:    1.9453    magn:   -0.0001    constr:    0.0000
     atom:    9    charge:    3.1250    magn:   -0.0001    constr:    0.0000
     atom:   10    charge:    1.9452    magn:    0.0000    constr:    0.0000
     atom:   11    charge:    3.1197    magn:    0.0000    constr:    0.0000
     atom:   12    charge:    1.9504    magn:   -0.0000    constr:    0.0000
     atom:   13    charge:    3.1158    magn:    0.0000    constr:    0.0000
     atom:   14    charge:    1.9587    magn:   -0.0001    constr:    0.0000
     atom:   15    charge:    3.1188    magn:    0.0000    constr:    0.0000
     atom:   16    charge:    1.9446    magn:   -0.0001    constr:    0.0000
     atom:   17    charge:    1.9184    magn:    0.0003    constr:    0.0000
     atom:   18    charge:    3.1239    magn:   -0.0001    constr:    0.0000
     atom:   19    charge:    1.9408    magn:   -0.0000    constr:    0.0000
     atom:   20    charge:    1.9471    magn:    0.0000    constr:    0.0000
     atom:   21    charge:    1.9471    magn:    0.0000    constr:    0.0000
     atom:   22    charge:    3.1196    magn:    0.0000    constr:    0.0000
     atom:   23    charge:    1.9566    magn:   -0.0001    constr:    0.0000
     atom:   24    charge:    1.9379    magn:   -0.0000    constr:    0.0000
     atom:   25    charge:    1.9505    magn:   -0.0000    constr:    0.0000
     atom:   26    charge:    3.1145    magn:    0.0000    constr:    0.0000
     atom:   27    charge:    1.9398    magn:   -0.0000    constr:    0.0000
     atom:   28    charge:    1.9517    magn:   -0.0000    constr:    0.0000
     atom:   29    charge:    1.9476    magn:   -0.0001    constr:    0.0000
     atom:   30    charge:    3.1167    magn:    0.0000    constr:    0.0000
     atom:   31    charge:    1.9447    magn:   -0.0000    constr:    0.0000
     atom:   32    charge:    1.9439    magn:   -0.0001    constr:    0.0000
     atom:   33    charge:    1.9184    magn:    0.0003    constr:    0.0000
     atom:   34    charge:    3.1239    magn:   -0.0001    constr:    0.0000
     atom:   35    charge:    1.9408    magn:   -0.0000    constr:    0.0000
     atom:   36    charge:    1.9471    magn:    0.0000    constr:    0.0000
     atom:   37    charge:    1.9471    magn:    0.0000    constr:    0.0000
     atom:   38    charge:    3.1196    magn:    0.0000    constr:    0.0000
     atom:   39    charge:    1.9549    magn:   -0.0001    constr:    0.0000
     atom:   40    charge:    1.9383    magn:   -0.0000    constr:    0.0000
     atom:   41    charge:    1.9505    magn:   -0.0000    constr:    0.0000
     atom:   42    charge:    3.1141    magn:    0.0000    constr:    0.0000
     atom:   43    charge:    1.9413    magn:   -0.0000    constr:    0.0000
     atom:   44    charge:    1.9518    magn:   -0.0000    constr:    0.0000
     atom:   45    charge:    1.9468    magn:   -0.0001    constr:    0.0000
     atom:   46    charge:    3.1165    magn:    0.0000    constr:    0.0000
     atom:   47    charge:    1.9431    magn:   -0.0000    constr:    0.0000
     atom:   48    charge:    1.9444    magn:   -0.0001    constr:    0.0000
     atom:   49    charge:    0.6568    magn:   -0.0000    constr:    0.0000
     atom:   50    charge:    1.9581    magn:   -0.0000    constr:    0.0000
     atom:   51    charge:    0.4017    magn:    0.0000    constr:    0.0000
     atom:   52    charge:    0.4007    magn:    0.0000    constr:    0.0000
     atom:   53    charge:    0.4011    magn:    0.0000    constr:    0.0000
     atom:   54    charge:    0.4042    magn:    0.0000    constr:    0.0000

     total cpu time spent up to now is     1388.8 secs

     total energy              =   -3021.41998615 Ry
     Harris-Foulkes estimate   =   -3021.42000041 Ry
     estimated scf accuracy    <       0.00008845 Ry

     total magnetization       =     0.00 Bohr mag/cell
     absolute magnetization    =     0.00 Bohr mag/cell

     iteration #  4     ecut=    40.42 Ry     beta=0.10
     Davidson diagonalization with overlap
     ethr =  2.22E-08,  avg # of iterations =  3.0

     negative rho (up, down):  1.209E-02 1.209E-02
 
     Magnetic moment per site:
     atom:    1    charge:    3.1250    magn:   -0.0001    constr:    0.0000
     atom:    2    charge:    1.9452    magn:    0.0000    constr:    0.0000
     atom:    3    charge:    3.1198    magn:    0.0000    constr:    0.0000
     atom:    4    charge:    1.9504    magn:   -0.0000    constr:    0.0000
     atom:    5    charge:    3.1166    magn:    0.0000    constr:    0.0000
     atom:    6    charge:    1.9477    magn:   -0.0000    constr:    0.0000
     atom:    7    charge:    3.1157    magn:    0.0000    constr:    0.0000
     atom:    8    charge:    1.9453    magn:   -0.0000    constr:    0.0000
     atom:    9    charge:    3.1250    magn:   -0.0001    constr:    0.0000
     atom:   10    charge:    1.9452    magn:    0.0000    constr:    0.0000
     atom:   11    charge:    3.1197    magn:    0.0000    constr:    0.0000
     atom:   12    charge:    1.9504    magn:   -0.0000    constr:    0.0000
     atom:   13    charge:    3.1158    magn:    0.0000    constr:    0.0000
     atom:   14    charge:    1.9587    magn:   -0.0000    constr:    0.0000
     atom:   15    charge:    3.1188    magn:    0.0000    constr:    0.0000
     atom:   16    charge:    1.9446    magn:   -0.0000    constr:    0.0000
     atom:   17    charge:    1.9184    magn:    0.0002    constr:    0.0000
     atom:   18    charge:    3.1239    magn:   -0.0000    constr:    0.0000
     atom:   19    charge:    1.9408    magn:   -0.0000    constr:    0.0000
     atom:   20    charge:    1.9471    magn:    0.0000    constr:    0.0000
     atom:   21    charge:    1.9471    magn:    0.0000    constr:    0.0000
     atom:   22    charge:    3.1196    magn:    0.0000    constr:    0.0000
     atom:   23    charge:    1.9566    magn:   -0.0000    constr:    0.0000
     atom:   24    charge:    1.9379    magn:   -0.0000    constr:    0.0000
     atom:   25    charge:    1.9505    magn:   -0.0000    constr:    0.0000
     atom:   26    charge:    3.1145    magn:    0.0000    constr:    0.0000
     atom:   27    charge:    1.9398    magn:   -0.0000    constr:    0.0000
     atom:   28    charge:    1.9517    magn:   -0.0000    constr:    0.0000
     atom:   29    charge:    1.9476    magn:   -0.0000    constr:    0.0000
     atom:   30    charge:    3.1167    magn:    0.0000    constr:    0.0000
     atom:   31    charge:    1.9447    magn:   -0.0000    constr:    0.0000
     atom:   32    charge:    1.9440    magn:   -0.0000    constr:    0.0000
     atom:   33    charge:    1.9184    magn:    0.0002    constr:    0.0000
     atom:   34    charge:    3.1239    magn:   -0.0000    constr:    0.0000
     atom:   35    charge:    1.9408    magn:   -0.0000    constr:    0.0000
     atom:   36    charge:    1.9471    magn:    0.0000    constr:    0.0000
     atom:   37    charge:    1.9471    magn:    0.0000    constr:    0.0000
     atom:   38    charge:    3.1196    magn:    0.0000    constr:    0.0000
     atom:   39    charge:    1.9549    magn:   -0.0000    constr:    0.0000
     atom:   40    charge:    1.9383    magn:   -0.0000    constr:    0.0000
     atom:   41    charge:    1.9505    magn:   -0.0000    constr:    0.0000
     atom:   42    charge:    3.1141    magn:    0.0000    constr:    0.0000
     atom:   43    charge:    1.9413    magn:   -0.0000    constr:    0.0000
     atom:   44    charge:    1.9517    magn:   -0.0000    constr:    0.0000
     atom:   45    charge:    1.9468    magn:   -0.0000    constr:    0.0000
     atom:   46    charge:    3.1165    magn:    0.0000    constr:    0.0000
     atom:   47    charge:    1.9431    magn:   -0.0000    constr:    0.0000
     atom:   48    charge:    1.9444    magn:   -0.0000    constr:    0.0000
     atom:   49    charge:    0.6569    magn:   -0.0000    constr:    0.0000
     atom:   50    charge:    1.9579    magn:   -0.0000    constr:    0.0000
     atom:   51    charge:    0.4018    magn:    0.0000    constr:    0.0000
     atom:   52    charge:    0.4007    magn:    0.0000    constr:    0.0000
     atom:   53    charge:    0.4012    magn:    0.0000    constr:    0.0000
     atom:   54    charge:    0.4042    magn:    0.0000    constr:    0.0000

     total cpu time spent up to now is     1593.7 secs

     total energy              =   -3021.41999350 Ry
     Harris-Foulkes estimate   =   -3021.41999088 Ry
     estimated scf accuracy    <       0.00003283 Ry

     total magnetization       =     0.00 Bohr mag/cell
     absolute magnetization    =     0.00 Bohr mag/cell

     iteration #  5     ecut=    40.42 Ry     beta=0.10
     Davidson diagonalization with overlap
     ethr =  8.25E-09,  avg # of iterations =  3.0

     negative rho (up, down):  1.209E-02 1.209E-02
 
     Magnetic moment per site:
     atom:    1    charge:    3.1250    magn:   -0.0001    constr:    0.0000
     atom:    2    charge:    1.9452    magn:    0.0000    constr:    0.0000
     atom:    3    charge:    3.1198    magn:    0.0000    constr:    0.0000
     atom:    4    charge:    1.9504    magn:   -0.0000    constr:    0.0000
     atom:    5    charge:    3.1166    magn:    0.0000    constr:    0.0000
     atom:    6    charge:    1.9476    magn:   -0.0000    constr:    0.0000
     atom:    7    charge:    3.1157    magn:    0.0000    constr:    0.0000
     atom:    8    charge:    1.9452    magn:   -0.0000    constr:    0.0000
     atom:    9    charge:    3.1250    magn:   -0.0001    constr:    0.0000
     atom:   10    charge:    1.9452    magn:    0.0000    constr:    0.0000
     atom:   11    charge:    3.1197    magn:    0.0000    constr:    0.0000
     atom:   12    charge:    1.9504    magn:   -0.0000    constr:    0.0000
     atom:   13    charge:    3.1158    magn:    0.0000    constr:    0.0000
     atom:   14    charge:    1.9587    magn:   -0.0000    constr:    0.0000
     atom:   15    charge:    3.1188    magn:    0.0000    constr:    0.0000
     atom:   16    charge:    1.9445    magn:   -0.0000    constr:    0.0000
     atom:   17    charge:    1.9184    magn:    0.0002    constr:    0.0000
     atom:   18    charge:    3.1239    magn:   -0.0000    constr:    0.0000
     atom:   19    charge:    1.9408    magn:   -0.0000    constr:    0.0000
     atom:   20    charge:    1.9471    magn:    0.0000    constr:    0.0000
     atom:   21    charge:    1.9471    magn:    0.0000    constr:    0.0000
     atom:   22    charge:    3.1196    magn:    0.0000    constr:    0.0000
     atom:   23    charge:    1.9566    magn:   -0.0000    constr:    0.0000
     atom:   24    charge:    1.9379    magn:   -0.0000    constr:    0.0000
     atom:   25    charge:    1.9505    magn:   -0.0000    constr:    0.0000
     atom:   26    charge:    3.1145    magn:    0.0000    constr:    0.0000
     atom:   27    charge:    1.9398    magn:   -0.0000    constr:    0.0000
     atom:   28    charge:    1.9517    magn:   -0.0000    constr:    0.0000
     atom:   29    charge:    1.9476    magn:   -0.0000    constr:    0.0000
     atom:   30    charge:    3.1167    magn:    0.0000    constr:    0.0000
     atom:   31    charge:    1.9447    magn:   -0.0000    constr:    0.0000
     atom:   32    charge:    1.9440    magn:   -0.0000    constr:    0.0000
     atom:   33    charge:    1.9184    magn:    0.0002    constr:    0.0000
     atom:   34    charge:    3.1239    magn:   -0.0000    constr:    0.0000
     atom:   35    charge:    1.9408    magn:   -0.0000    constr:    0.0000
     atom:   36    charge:    1.9471    magn:    0.0000    constr:    0.0000
     atom:   37    charge:    1.9471    magn:    0.0000    constr:    0.0000
     atom:   38    charge:    3.1196    magn:    0.0000    constr:    0.0000
     atom:   39    charge:    1.9549    magn:   -0.0000    constr:    0.0000
     atom:   40    charge:    1.9383    magn:   -0.0000    constr:    0.0000
     atom:   41    charge:    1.9505    magn:   -0.0000    constr:    0.0000
     atom:   42    charge:    3.1141    magn:    0.0000    constr:    0.0000
     atom:   43    charge:    1.9413    magn:   -0.0000    constr:    0.0000
     atom:   44    charge:    1.9517    magn:   -0.0000    constr:    0.0000
     atom:   45    charge:    1.9468    magn:   -0.0000    constr:    0.0000
     atom:   46    charge:    3.1165    magn:    0.0000    constr:    0.0000
     atom:   47    charge:    1.9431    magn:   -0.0000    constr:    0.0000
     atom:   48    charge:    1.9444    magn:   -0.0000    constr:    0.0000
     atom:   49    charge:    0.6574    magn:   -0.0000    constr:    0.0000
     atom:   50    charge:    1.9577    magn:   -0.0000    constr:    0.0000
     atom:   51    charge:    0.4019    magn:    0.0000    constr:    0.0000
     atom:   52    charge:    0.4006    magn:    0.0000    constr:    0.0000
     atom:   53    charge:    0.4011    magn:    0.0000    constr:    0.0000
     atom:   54    charge:    0.4041    magn:    0.0000    constr:    0.0000

     total cpu time spent up to now is     1798.0 secs

     total energy              =   -3021.41999033 Ry
     Harris-Foulkes estimate   =   -3021.41999468 Ry
     estimated scf accuracy    <       0.00001234 Ry

     total magnetization       =     0.00 Bohr mag/cell
     absolute magnetization    =     0.00 Bohr mag/cell

     iteration #  6     ecut=    40.42 Ry     beta=0.10
     Davidson diagonalization with overlap
     ethr =  3.10E-09,  avg # of iterations =  4.0

     negative rho (up, down):  1.209E-02 1.209E-02
 
     Magnetic moment per site:
     atom:    1    charge:    3.1250    magn:   -0.0001    constr:    0.0000
     atom:    2    charge:    1.9452    magn:    0.0000    constr:    0.0000
     atom:    3    charge:    3.1198    magn:    0.0000    constr:    0.0000
     atom:    4    charge:    1.9504    magn:   -0.0000    constr:    0.0000
     atom:    5    charge:    3.1166    magn:    0.0000    constr:    0.0000
     atom:    6    charge:    1.9476    magn:   -0.0000    constr:    0.0000
     atom:    7    charge:    3.1157    magn:    0.0000    constr:    0.0000
     atom:    8    charge:    1.9452    magn:   -0.0000    constr:    0.0000
     atom:    9    charge:    3.1250    magn:   -0.0001    constr:    0.0000
     atom:   10    charge:    1.9452    magn:    0.0000    constr:    0.0000
     atom:   11    charge:    3.1197    magn:    0.0000    constr:    0.0000
     atom:   12    charge:    1.9504    magn:   -0.0000    constr:    0.0000
     atom:   13    charge:    3.1158    magn:    0.0000    constr:    0.0000
     atom:   14    charge:    1.9587    magn:   -0.0000    constr:    0.0000
     atom:   15    charge:    3.1188    magn:    0.0000    constr:    0.0000
     atom:   16    charge:    1.9445    magn:   -0.0000    constr:    0.0000
     atom:   17    charge:    1.9184    magn:    0.0001    constr:    0.0000
     atom:   18    charge:    3.1239    magn:   -0.0000    constr:    0.0000
     atom:   19    charge:    1.9408    magn:   -0.0000    constr:    0.0000
     atom:   20    charge:    1.9471    magn:    0.0000    constr:    0.0000
     atom:   21    charge:    1.9471    magn:    0.0000    constr:    0.0000
     atom:   22    charge:    3.1196    magn:    0.0000    constr:    0.0000
     atom:   23    charge:    1.9566    magn:   -0.0000    constr:    0.0000
     atom:   24    charge:    1.9379    magn:   -0.0000    constr:    0.0000
     atom:   25    charge:    1.9505    magn:   -0.0000    constr:    0.0000
     atom:   26    charge:    3.1145    magn:    0.0000    constr:    0.0000
     atom:   27    charge:    1.9398    magn:   -0.0000    constr:    0.0000
     atom:   28    charge:    1.9517    magn:   -0.0000    constr:    0.0000
     atom:   29    charge:    1.9476    magn:   -0.0000    constr:    0.0000
     atom:   30    charge:    3.1167    magn:    0.0000    constr:    0.0000
     atom:   31    charge:    1.9447    magn:   -0.0000    constr:    0.0000
     atom:   32    charge:    1.9440    magn:   -0.0000    constr:    0.0000
     atom:   33    charge:    1.9184    magn:    0.0001    constr:    0.0000
     atom:   34    charge:    3.1239    magn:   -0.0000    constr:    0.0000
     atom:   35    charge:    1.9408    magn:   -0.0000    constr:    0.0000
     atom:   36    charge:    1.9471    magn:    0.0000    constr:    0.0000
     atom:   37    charge:    1.9471    magn:    0.0000    constr:    0.0000
     atom:   38    charge:    3.1196    magn:    0.0000    constr:    0.0000
     atom:   39    charge:    1.9549    magn:   -0.0000    constr:    0.0000
     atom:   40    charge:    1.9383    magn:   -0.0000    constr:    0.0000
     atom:   41    charge:    1.9505    magn:   -0.0000    constr:    0.0000
     atom:   42    charge:    3.1141    magn:    0.0000    constr:    0.0000
     atom:   43    charge:    1.9413    magn:   -0.0000    constr:    0.0000
     atom:   44    charge:    1.9517    magn:   -0.0000    constr:    0.0000
     atom:   45    charge:    1.9468    magn:   -0.0000    constr:    0.0000
     atom:   46    charge:    3.1165    magn:    0.0000    constr:    0.0000
     atom:   47    charge:    1.9431    magn:   -0.0000    constr:    0.0000
     atom:   48    charge:    1.9444    magn:   -0.0000    constr:    0.0000
     atom:   49    charge:    0.6573    magn:   -0.0000    constr:    0.0000
     atom:   50    charge:    1.9579    magn:   -0.0000    constr:    0.0000
     atom:   51    charge:    0.4020    magn:    0.0000    constr:    0.0000
     atom:   52    charge:    0.4006    magn:    0.0000    constr:    0.0000
     atom:   53    charge:    0.4011    magn:    0.0000    constr:    0.0000
     atom:   54    charge:    0.4041    magn:    0.0000    constr:    0.0000

     total cpu time spent up to now is     2023.2 secs

     total energy              =   -3021.41999244 Ry
     Harris-Foulkes estimate   =   -3021.41999296 Ry
     estimated scf accuracy    <       0.00000328 Ry

     total magnetization       =     0.00 Bohr mag/cell
     absolute magnetization    =     0.00 Bohr mag/cell

     iteration #  7     ecut=    40.42 Ry     beta=0.10
     Davidson diagonalization with overlap
     ethr =  8.23E-10,  avg # of iterations =  3.0

     negative rho (up, down):  1.209E-02 1.209E-02
 
     Magnetic moment per site:
     atom:    1    charge:    3.1250    magn:   -0.0000    constr:    0.0000
     atom:    2    charge:    1.9451    magn:    0.0000    constr:    0.0000
     atom:    3    charge:    3.1198    magn:    0.0000    constr:    0.0000
     atom:    4    charge:    1.9504    magn:   -0.0000    constr:    0.0000
     atom:    5    charge:    3.1166    magn:    0.0000    constr:    0.0000
     atom:    6    charge:    1.9477    magn:   -0.0000    constr:    0.0000
     atom:    7    charge:    3.1157    magn:    0.0000    constr:    0.0000
     atom:    8    charge:    1.9452    magn:   -0.0000    constr:    0.0000
     atom:    9    charge:    3.1250    magn:   -0.0000    constr:    0.0000
     atom:   10    charge:    1.9452    magn:    0.0000    constr:    0.0000
     atom:   11    charge:    3.1197    magn:    0.0000    constr:    0.0000
     atom:   12    charge:    1.9504    magn:   -0.0000    constr:    0.0000
     atom:   13    charge:    3.1158    magn:    0.0000    constr:    0.0000
     atom:   14    charge:    1.9587    magn:   -0.0000    constr:    0.0000
     atom:   15    charge:    3.1188    magn:    0.0000    constr:    0.0000
     atom:   16    charge:    1.9446    magn:   -0.0000    constr:    0.0000
     atom:   17    charge:    1.9184    magn:    0.0001    constr:    0.0000
     atom:   18    charge:    3.1239    magn:   -0.0000    constr:    0.0000
     atom:   19    charge:    1.9408    magn:   -0.0000    constr:    0.0000
     atom:   20    charge:    1.9471    magn:    0.0000    constr:    0.0000
     atom:   21    charge:    1.9471    magn:    0.0000    constr:    0.0000
     atom:   22    charge:    3.1196    magn:    0.0000    constr:    0.0000
     atom:   23    charge:    1.9566    magn:   -0.0000    constr:    0.0000
     atom:   24    charge:    1.9379    magn:   -0.0000    constr:    0.0000
     atom:   25    charge:    1.9505    magn:   -0.0000    constr:    0.0000
     atom:   26    charge:    3.1145    magn:    0.0000    constr:    0.0000
     atom:   27    charge:    1.9398    magn:   -0.0000    constr:    0.0000
     atom:   28    charge:    1.9517    magn:   -0.0000    constr:    0.0000
     atom:   29    charge:    1.9476    magn:   -0.0000    constr:    0.0000
     atom:   30    charge:    3.1167    magn:    0.0000    constr:    0.0000
     atom:   31    charge:    1.9447    magn:   -0.0000    constr:    0.0000
     atom:   32    charge:    1.9440    magn:   -0.0000    constr:    0.0000
     atom:   33    charge:    1.9184    magn:    0.0001    constr:    0.0000
     atom:   34    charge:    3.1239    magn:   -0.0000    constr:    0.0000
     atom:   35    charge:    1.9408    magn:   -0.0000    constr:    0.0000
     atom:   36    charge:    1.9471    magn:    0.0000    constr:    0.0000
     atom:   37    charge:    1.9471    magn:    0.0000    constr:    0.0000
     atom:   38    charge:    3.1196    magn:    0.0000    constr:    0.0000
     atom:   39    charge:    1.9549    magn:   -0.0000    constr:    0.0000
     atom:   40    charge:    1.9383    magn:   -0.0000    constr:    0.0000
     atom:   41    charge:    1.9505    magn:   -0.0000    constr:    0.0000
     atom:   42    charge:    3.1141    magn:    0.0000    constr:    0.0000
     atom:   43    charge:    1.9413    magn:   -0.0000    constr:    0.0000
     atom:   44    charge:    1.9517    magn:   -0.0000    constr:    0.0000
     atom:   45    charge:    1.9469    magn:   -0.0000    constr:    0.0000
     atom:   46    charge:    3.1165    magn:    0.0000    constr:    0.0000
     atom:   47    charge:    1.9431    magn:   -0.0000    constr:    0.0000
     atom:   48    charge:    1.9444    magn:   -0.0000    constr:    0.0000
     atom:   49    charge:    0.6571    magn:   -0.0000    constr:    0.0000
     atom:   50    charge:    1.9581    magn:   -0.0000    constr:    0.0000
     atom:   51    charge:    0.4019    magn:    0.0000    constr:    0.0000
     atom:   52    charge:    0.4006    magn:    0.0000    constr:    0.0000
     atom:   53    charge:    0.4012    magn:    0.0000    constr:    0.0000
     atom:   54    charge:    0.4041    magn:    0.0000    constr:    0.0000

     total cpu time spent up to now is     2230.3 secs

     End of self-consistent calculation

 ------ SPIN UP ------------


          k = 0.0000 0.0000 0.0000 ( 34665 PWs)   bands (ev):

   -57.6985 -57.6636 -57.3175 -57.2812 -57.2322 -57.1096 -57.0732 -57.0723
   -57.0504 -57.0375 -56.9901 -56.9546 -56.7311 -56.6936 -56.1491 -56.1138
   -34.1346 -33.9807 -33.9522 -33.8995 -33.8698 -33.8052 -33.7447 -33.6530
   -33.6181 -33.6050 -33.5675 -33.5405 -33.5186 -33.5075 -33.4895 -33.4850
   -33.4645 -33.4541 -33.4307 -33.3986 -33.3240 -33.2918 -33.2716 -33.2623
   -33.2546 -33.2541 -33.2436 -33.2429 -33.2369 -33.2294 -33.2289 -33.2123
   -33.1804 -33.1801 -33.1745 -33.1409 -33.1183 -32.9971 -32.9789 -32.9579
   -32.9086 -32.8059 -32.5669 -32.5014 -32.4753 -32.3711 -32.2794 -32.1711
   -20.2988 -18.0124 -17.8412 -17.5568 -17.4617 -17.3726 -17.2516 -17.0775
   -17.0661 -16.9743 -16.9386 -16.8840 -16.7839 -16.7775 -16.7291 -16.7073
   -16.7035 -16.6624 -16.6109 -16.6044 -16.5358 -16.4155 -16.4030 -16.3979
   -16.3212 -16.2676 -16.1946 -16.1674 -16.1498 -15.9800 -15.9299 -14.7337
   -14.6500 -11.4504  -7.2334  -5.4739  -5.3957  -5.3188  -5.2057  -5.1813
    -5.1455  -5.1260  -4.8390  -4.8160  -4.4718  -4.4428  -4.3589  -4.3554
    -4.3220  -4.2325  -4.0898  -4.0612  -4.0556  -4.0176  -3.9991  -3.9911
    -3.9604  -3.9523  -3.9510  -3.8398  -3.7877  -3.7656  -3.7374  -3.7197
    -3.6322  -3.6168  -3.5869  -3.5776  -3.5197  -3.5079  -3.4086  -3.3952
    -3.3760  -3.2787  -3.2400  -3.1930  -3.0134  -2.9356  -2.8786  -2.8348
    -2.6950  -2.6070  -2.5897  -2.5799  -2.5759  -2.5685  -2.4318  -2.4142
    -2.3358  -2.2690  -2.2470  -2.2046  -2.2002  -2.1645  -2.1384  -2.0928
    -2.0477  -2.0280  -2.0200  -1.8870  -1.8654  -1.7595  -1.7358  -1.6240
    -1.5428  -1.5407  -1.4899  -1.4806  -1.4630  -1.4233  -1.3244  -1.3092
    -1.3019  -1.2797  -1.2427  -1.1355  -1.0865  -1.0751  -1.0668  -1.0202
    -0.9541  -0.9155  -0.8167  -0.7632  -0.6103  -0.5873  -0.5690  -0.4793
    -0.3762  -0.2420  -0.0846  -0.0263   0.1315   0.2483   0.2620   1.6429
     1.6754   1.9859   2.0024   2.0656   2.0955   2.2052   2.2441   2.2871
     2.4302   2.4974   2.5261   2.5310   2.5423   2.6313   2.6493   2.6575
     2.7155   2.7998   2.8270   2.8391   2.9110   2.9998   3.0334   3.0995
     3.1055   3.1144   3.1613   3.2023   3.2083   3.2269   3.2400   3.2515
     3.2609   3.2892   3.3965   3.4320   3.4568   3.4664   3.5287   3.5859
     3.6531   3.6951   3.8079   3.9812   4.0163   4.0916   4.1803   4.3206
     4.3386   4.3921   4.5844   4.5995   4.8106   4.8387   5.0874   5.1670
     5.2461   5.3310   5.4787   5.5178   5.5267   5.5932   5.6781   5.7120
     5.8001   5.8654   5.8767   5.8866   5.9549   6.0393   6.0483   6.0724
     6.1448   6.2294   6.2437   6.2972   6.3784   6.5822   6.6362   6.7571
     6.8412   7.0113   7.0407   7.1621   7.3027   7.5749   7.9042   8.2529
     8.3205   8.6774   8.7949   8.8724   8.9386   9.0079   9.1751   9.2508
     9.3524   9.3811   9.5306

          k = 0.0000 0.0280 0.0000 ( 34717 PWs)   bands (ev):

   -57.6962 -57.6659 -57.3151 -57.2836 -57.2318 -57.1073 -57.0753 -57.0701
   -57.0509 -57.0398 -56.9878 -56.9570 -56.7286 -56.6960 -56.1467 -56.1162
   -34.1093 -33.9787 -33.9541 -33.8933 -33.8438 -33.8117 -33.7718 -33.6303
   -33.6113 -33.5800 -33.5421 -33.5375 -33.5204 -33.5005 -33.4922 -33.4842
   -33.4712 -33.4617 -33.4288 -33.3917 -33.3178 -33.2900 -33.2854 -33.2638
   -33.2588 -33.2521 -33.2504 -33.2394 -33.2378 -33.2360 -33.2356 -33.2181
   -33.2024 -33.1852 -33.1772 -33.1449 -33.1417 -32.9932 -32.9775 -32.9593
   -32.9137 -32.8338 -32.5412 -32.4997 -32.4772 -32.3650 -32.2857 -32.1986
   -20.2987 -17.9506 -17.7836 -17.5038 -17.4095 -17.3289 -17.2250 -17.0913
   -17.0359 -16.9981 -16.9927 -16.8857 -16.8194 -16.7615 -16.7071 -16.6893
   -16.6757 -16.6649 -16.6567 -16.6417 -16.5948 -16.4393 -16.3843 -16.3680
   -16.3479 -16.2972 -16.2116 -16.1740 -16.1535 -16.0108 -15.9669 -14.7437
   -14.6734 -11.4501  -7.2330  -5.4406  -5.3147  -5.2568  -5.1841  -5.1303
    -5.0683  -5.0471  -4.7635  -4.7023  -4.4355  -4.4002  -4.3938  -4.3119
    -4.3014  -4.1598  -4.1240  -4.1138  -4.0914  -4.0705  -4.0324  -4.0307
    -3.9657  -3.9613  -3.9498  -3.8913  -3.8531  -3.8466  -3.8380  -3.7666
    -3.7218  -3.7063  -3.6657  -3.6158  -3.5753  -3.5574  -3.4315  -3.3613
    -3.3185  -3.2356  -3.2113  -3.1049  -2.9341  -2.8712  -2.7470  -2.7247
    -2.6136  -2.6006  -2.5252  -2.5097  -2.4779  -2.4405  -2.4120  -2.4076
    -2.3865  -2.3616  -2.2880  -2.2766  -2.1676  -2.1422  -2.1362  -2.0942
    -2.0219  -1.9967  -1.9537  -1.8770  -1.8104  -1.7656  -1.7068  -1.6819
    -1.6427  -1.6256  -1.5637  -1.5256  -1.4815  -1.4380  -1.4357  -1.3960
    -1.3552  -1.2711  -1.2181  -1.2130  -1.1580  -1.0889  -1.0663  -1.0219
    -1.0084  -0.9043  -0.8637  -0.7906  -0.7599  -0.7064  -0.6080  -0.5910
    -0.3945  -0.2701  -0.0914  -0.0806   0.1464   0.2019   0.2285   1.7292
     1.7752   1.9862   2.0652   2.1307   2.1518   2.2187   2.2744   2.3131
     2.4246   2.4615   2.4993   2.5355   2.5861   2.6034   2.6306   2.6919
     2.7328   2.7708   2.7971   2.9124   2.9226   2.9514   2.9760   3.0103
     3.1113   3.1168   3.1348   3.1752   3.1927   3.2054   3.2583   3.3044
     3.3357   3.3711   3.4071   3.4735   3.5065   3.5521   3.5616   3.6492
     3.6649   3.6855   3.7716   3.9598   4.0341   4.1142   4.1913   4.2862
     4.3235   4.3971   4.5412   4.6873   4.8641   4.9252   5.0911   5.2586
     5.3044   5.3355   5.5376   5.5675   5.6035   5.6240   5.6859   5.7203
     5.7845   5.7927   5.8517   5.8780   5.8992   5.9481   6.0693   6.1232
     6.1497   6.1574   6.1756   6.2070   6.2755   6.5586   6.6029   6.6948
     6.8474   6.9493   6.9818   7.0830   7.2314   7.5794   7.9155   8.0071
     8.0604   8.4554   8.5610   8.8343   8.9087   8.9976   9.0879   9.1322
     9.2694   9.4353   9.4864

          k = 0.0000 0.0560 0.0000 ( 34721 PWs)   bands (ev):

   -57.6898 -57.6723 -57.3086 -57.2902 -57.2310 -57.1012 -57.0813 -57.0638
   -57.0517 -57.0463 -56.9813 -56.9635 -56.7220 -56.7027 -56.1403 -56.1226
   -34.0395 -33.9734 -33.9591 -33.8763 -33.8447 -33.8292 -33.7728 -33.5957
   -33.5726 -33.5716 -33.5345 -33.5271 -33.5062 -33.5038 -33.4763 -33.4721
   -33.4560 -33.4259 -33.4188 -33.3723 -33.3158 -33.3128 -33.3126 -33.3013
   -33.2857 -33.2760 -33.2675 -33.2634 -33.2532 -33.2464 -33.2340 -33.2319
   -33.2102 -33.1983 -33.1707 -33.1653 -33.1267 -32.9882 -32.9739 -32.9626
   -32.9266 -32.9035 -32.4949 -32.4819 -32.4705 -32.3484 -32.3026 -32.2727
   -20.2984 -17.7795 -17.6249 -17.3725 -17.2757 -17.2601 -17.2188 -17.1668
   -17.1360 -16.9624 -16.9530 -16.9185 -16.8736 -16.8195 -16.7882 -16.7254
   -16.7158 -16.6839 -16.6249 -16.5967 -16.5401 -16.5047 -16.4227 -16.3778
   -16.3625 -16.3017 -16.2407 -16.1951 -16.1570 -16.1113 -16.0399 -14.7620
   -14.7240 -11.4493  -7.2321  -5.4098  -5.1963  -5.0763  -5.0380  -4.9243
    -4.8583  -4.8243  -4.5617  -4.5060  -4.4730  -4.4174  -4.4093  -4.3665
    -4.3315  -4.2597  -4.2348  -4.2117  -4.1960  -4.1866  -4.1561  -4.0754
    -4.0576  -4.0060  -3.9873  -3.9687  -3.9304  -3.8911  -3.8566  -3.8184
    -3.7972  -3.7314  -3.6357  -3.5857  -3.4338  -3.4270  -3.3501  -3.2685
    -3.2389  -3.2126  -3.1935  -3.0830  -2.8964  -2.8436  -2.8380  -2.7986
    -2.7218  -2.6682  -2.5478  -2.4732  -2.4438  -2.3221  -2.3162  -2.3111
    -2.3032  -2.2493  -2.2070  -2.1792  -2.1477  -2.1172  -2.0316  -2.0103
    -1.9606  -1.9474  -1.9174  -1.9049  -1.8831  -1.8485  -1.8167  -1.7827
    -1.7447  -1.6943  -1.6250  -1.5420  -1.5272  -1.5097  -1.4558  -1.4198
    -1.3805  -1.3646  -1.3502  -1.2903  -1.2387  -1.2171  -1.1554  -1.1009
    -1.0786  -1.0237  -0.9216  -0.8883  -0.8507  -0.7847  -0.7631  -0.6600
    -0.5869  -0.4632  -0.2420   0.0912   0.1435   0.1786   0.1853   1.8648
     2.0248   2.0978   2.1093   2.2097   2.2346   2.2695   2.3665   2.3892
     2.3960   2.4113   2.4343   2.4762   2.5034   2.5381   2.6742   2.6953
     2.7339   2.7753   2.8303   2.9036   2.9154   2.9380   2.9718   2.9731
     3.0150   3.0985   3.1374   3.1570   3.2501   3.2616   3.2862   3.3294
     3.3682   3.3862   3.4406   3.5373   3.5435   3.6362   3.6767   3.7267
     3.7599   3.8232   3.8578   3.8901   3.9314   4.1304   4.1417   4.1585
     4.3270   4.3757   4.5647   4.9061   5.0156   5.0599   5.1741   5.3784
     5.3820   5.4782   5.5180   5.5495   5.6480   5.7227   5.7242   5.7332
     5.7793   5.7875   5.7992   5.8561   5.8851   5.9464   5.9777   5.9900
     6.0011   6.0546   6.1553   6.1709   6.3060   6.3732   6.4099   6.6155
     6.6597   6.7810   6.8685   7.0427   7.2156   7.3346   7.4438   7.7240
     8.0798   8.1955   8.3398   8.6171   8.8816   8.9911   9.3110   9.3317
     9.4285   9.4408   9.5633

          k = 0.0000-0.0840 0.0000 ( 34678 PWs)   bands (ev):

   -57.6812 -57.6810 -57.3010 -57.2977 -57.2306 -57.0957 -57.0868 -57.0551
   -57.0550 -57.0522 -56.9729 -56.9719 -56.7150 -56.7097 -56.1315 -56.1315
   -33.9663 -33.9662 -33.9429 -33.9428 -33.8528 -33.8527 -33.6859 -33.6619
   -33.5658 -33.5624 -33.5284 -33.5178 -33.5135 -33.4765 -33.4531 -33.4237
   -33.4138 -33.4073 -33.3750 -33.3747 -33.3622 -33.3469 -33.3410 -33.3242
   -33.3229 -33.2846 -33.2779 -33.2757 -33.2689 -33.2669 -33.2325 -33.2307
   -33.2156 -33.2138 -33.1637 -33.1629 -33.0496 -33.0288 -32.9709 -32.9653
   -32.9406 -32.9375 -32.4884 -32.4884 -32.3726 -32.3725 -32.3255 -32.3255
   -20.2982 -17.5689 -17.5053 -17.4102 -17.3899 -17.2292 -17.1752 -17.0659
   -17.0617 -17.0158 -17.0031 -16.9894 -16.8719 -16.8394 -16.8394 -16.8007
   -16.7941 -16.5963 -16.5943 -16.5256 -16.5233 -16.4884 -16.4869 -16.4048
   -16.4028 -16.2630 -16.2609 -16.2011 -16.1970 -16.1326 -16.1020 -14.7607
   -14.7606 -11.4489  -7.2315  -5.4020  -5.2011  -4.7996  -4.7331  -4.7321
    -4.6561  -4.6423  -4.6376  -4.6018  -4.5740  -4.5097  -4.5023  -4.4005
    -4.3732  -4.3392  -4.3375  -4.3085  -4.2953  -4.2802  -4.2748  -4.0547
    -4.0331  -4.0236  -4.0107  -3.9923  -3.9428  -3.8099  -3.7936  -3.7899
    -3.7150  -3.6945  -3.6399  -3.5092  -3.4725  -3.3399  -3.3267  -3.2631
    -3.1385  -3.1164  -3.0435  -3.0194  -2.9628  -2.9276  -2.8051  -2.7884
    -2.6979  -2.6937  -2.5769  -2.5393  -2.5129  -2.4950  -2.4798  -2.4473
    -2.4385  -2.4187  -2.3301  -2.2452  -2.0276  -2.0072  -1.9668  -1.9402
    -1.9274  -1.8290  -1.8225  -1.8090  -1.7822  -1.7449  -1.7309  -1.7000
    -1.6650  -1.6404  -1.6143  -1.5585  -1.5156  -1.4875  -1.4811  -1.4530
    -1.4250  -1.4174  -1.4097  -1.3821  -1.3592  -1.3262  -1.2194  -1.1872
    -1.0997  -1.0734  -1.0055  -0.9779  -0.9704  -0.9599  -0.9399  -0.5242
    -0.5189  -0.4569  -0.4428   0.1436   0.1437   0.1863   0.1880   2.0393
     2.0425   2.2186   2.2201   2.2209   2.2368   2.2848   2.3398   2.3473
     2.3474   2.3725   2.3832   2.5277   2.5540   2.5550   2.6011   2.6643
     2.7152   2.7372   2.7501   2.8915   2.9226   2.9899   2.9975   3.0571
     3.0582   3.1020   3.1127   3.1801   3.2183   3.2333   3.2461   3.4038
     3.4262   3.4373   3.4400   3.4729   3.4837   3.7247   3.7656   3.8039
     3.8073   3.8320   3.9090   3.9313   3.9685   4.0737   4.0760   4.1260
     4.1266   4.4183   4.6731   4.9605   5.0007   5.2603   5.3303   5.4574
     5.4891   5.5085   5.5086   5.5718   5.5996   5.6468   5.6654   5.6711
     5.7990   5.8041   5.8261   5.8518   5.8620   5.8669   5.8833   5.9737
     6.0199   6.0591   6.0714   6.1590   6.1964   6.4041   6.4666   6.5644
     6.6043   6.7457   6.7725   6.9795   7.0316   7.1020   7.3271   7.7028
     7.8749   8.1573   8.4083   8.7835   8.8383   8.8611   9.1456   9.6921
     9.7026   9.7466   9.7938

          k = 0.0253 0.0000 0.0000 ( 34707 PWs)   bands (ev):

   -57.6985 -57.6636 -57.3175 -57.2812 -57.2322 -57.1095 -57.0731 -57.0724
   -57.0504 -57.0375 -56.9901 -56.9546 -56.7311 -56.6936 -56.1491 -56.1138
   -34.1349 -33.9807 -33.9523 -33.8988 -33.8699 -33.8053 -33.7448 -33.6538
   -33.6181 -33.6066 -33.5678 -33.5370 -33.5323 -33.5083 -33.4850 -33.4747
   -33.4632 -33.4541 -33.4308 -33.3917 -33.3238 -33.2919 -33.2713 -33.2623
   -33.2583 -33.2573 -33.2441 -33.2411 -33.2397 -33.2294 -33.2290 -33.2121
   -33.1803 -33.1800 -33.1749 -33.1409 -33.1184 -32.9971 -32.9813 -32.9571
   -32.9087 -32.8060 -32.5668 -32.5024 -32.4748 -32.3711 -32.2795 -32.1712
   -20.2986 -17.9826 -17.8012 -17.5145 -17.4328 -17.3560 -17.2582 -17.1442
   -17.0920 -16.9752 -16.9381 -16.8712 -16.8187 -16.8056 -16.7893 -16.7801
   -16.7297 -16.6926 -16.5564 -16.5338 -16.4538 -16.4524 -16.4039 -16.3699
   -16.3388 -16.3122 -16.1832 -16.1651 -16.1511 -15.9798 -15.9297 -14.7325
   -14.6499 -11.4492  -7.2307  -5.4694  -5.3092  -5.2645  -5.1797  -5.0974
    -5.0442  -5.0162  -4.8336  -4.8114  -4.6178  -4.4689  -4.4354  -4.3303
    -4.3111  -4.3012  -4.2475  -4.1002  -4.0365  -4.0326  -3.9963  -3.9446
    -3.9375  -3.9098  -3.8304  -3.8013  -3.7509  -3.7205  -3.6946  -3.6917
    -3.6207  -3.5979  -3.5698  -3.5624  -3.5163  -3.4476  -3.3432  -3.3101
    -3.2520  -3.2385  -3.1853  -3.1062  -3.0336  -2.9764  -2.9243  -2.8957
    -2.7518  -2.6736  -2.6325  -2.6001  -2.5790  -2.5299  -2.5195  -2.5035
    -2.4318  -2.3352  -2.3222  -2.2364  -2.2206  -2.1817  -2.1566  -2.0704
    -2.0092  -1.9996  -1.9629  -1.8826  -1.8482  -1.7525  -1.7396  -1.6506
    -1.5852  -1.5817  -1.5377  -1.4632  -1.4578  -1.3656  -1.3571  -1.3450
    -1.3369  -1.2903  -1.2735  -1.1898  -1.1271  -1.1171  -1.0762  -1.0429
    -0.9715  -0.9149  -0.8289  -0.7827  -0.7740  -0.6509  -0.6425  -0.5505
    -0.4209  -0.2364  -0.1156  -0.0537   0.1174   0.2056   0.2064   1.6623
     1.7254   2.0016   2.0718   2.1489   2.2235   2.2382   2.2701   2.3784
     2.3855   2.4579   2.5047   2.5225   2.5416   2.5786   2.5977   2.6366
     2.6561   2.7345   2.7578   2.8672   2.8841   2.9701   3.0308   3.1043
     3.1215   3.1441   3.1628   3.2037   3.2086   3.2541   3.2698   3.3400
     3.3772   3.4020   3.4511   3.4733   3.5360   3.5605   3.5921   3.6002
     3.6643   3.7301   3.7473   3.9140   4.0020   4.0962   4.1745   4.2765
     4.3747   4.3950   4.5534   4.6730   4.8634   4.9116   4.9264   5.0701
     5.1218   5.1463   5.1888   5.3512   5.5679   5.6209   5.6936   5.8665
     5.8830   5.9252   5.9595   6.0308   6.0804   6.1148   6.1608   6.2097
     6.2192   6.2521   6.2590   6.3083   6.4489   6.5247   6.6422   6.6667
     6.8203   6.8680   7.0345   7.1463   7.3025   7.7516   7.8550   8.0842
     8.3275   8.3419   8.4301   8.6842   8.8458   8.9661   9.1487   9.3426
     9.3632   9.4515   9.4933

          k = 0.0253 0.0280 0.0000 ( 34687 PWs)   bands (ev):

   -57.6962 -57.6659 -57.3151 -57.2836 -57.2318 -57.1072 -57.0752 -57.0702
   -57.0509 -57.0398 -56.9878 -56.9570 -56.7286 -56.6960 -56.1467 -56.1162
   -34.1096 -33.9788 -33.9541 -33.8926 -33.8439 -33.8116 -33.7718 -33.6310
   -33.6113 -33.5817 -33.5424 -33.5343 -33.5217 -33.5159 -33.4925 -33.4720
   -33.4658 -33.4605 -33.4288 -33.3849 -33.3177 -33.2902 -33.2831 -33.2638
   -33.2588 -33.2542 -33.2523 -33.2474 -33.2373 -33.2360 -33.2348 -33.2168
   -33.2025 -33.1852 -33.1772 -33.1448 -33.1417 -32.9933 -32.9797 -32.9585
   -32.9137 -32.8338 -32.5411 -32.5006 -32.4766 -32.3650 -32.2857 -32.1986
   -20.2985 -17.9223 -17.7445 -17.4633 -17.3831 -17.3089 -17.2317 -17.1280
   -17.0976 -17.0058 -16.9628 -16.8584 -16.8299 -16.8053 -16.7838 -16.7698
   -16.7125 -16.6998 -16.5999 -16.5794 -16.5061 -16.4749 -16.3814 -16.3648
   -16.3559 -16.3291 -16.2003 -16.1735 -16.1532 -16.0112 -15.9667 -14.7427
   -14.6734 -11.4488  -7.2302  -5.4441  -5.2456  -5.1851  -5.1786  -5.0210
    -4.9658  -4.9360  -4.7585  -4.6993  -4.5619  -4.4028  -4.3709  -4.3452
    -4.2593  -4.2528  -4.1863  -4.1183  -4.0870  -4.0644  -4.0336  -4.0202
    -3.9759  -3.9422  -3.9126  -3.8676  -3.8217  -3.8096  -3.7838  -3.7197
    -3.6976  -3.6641  -3.6149  -3.6048  -3.5407  -3.5266  -3.3573  -3.3047
    -3.2518  -3.2207  -3.1516  -3.0743  -2.9812  -2.9496  -2.7852  -2.7062
    -2.6806  -2.6359  -2.6105  -2.5343  -2.5032  -2.4539  -2.4477  -2.4203
    -2.4045  -2.3863  -2.3397  -2.3021  -2.2155  -2.1778  -2.1154  -2.1002
    -2.0663  -1.9935  -1.9488  -1.8913  -1.8642  -1.8256  -1.7619  -1.6740
    -1.6446  -1.6161  -1.5884  -1.5618  -1.5087  -1.4617  -1.4398  -1.3998
    -1.3443  -1.3278  -1.2694  -1.2548  -1.2063  -1.1063  -1.0967  -1.0604
    -1.0067  -0.8854  -0.8373  -0.8345  -0.7643  -0.7384  -0.6960  -0.6582
    -0.4319  -0.2810  -0.1338  -0.0855   0.1495   0.1788   0.1890   1.7213
     1.8454   2.0168   2.0993   2.1961   2.2450   2.2823   2.3167   2.3973
     2.4180   2.4674   2.4893   2.5249   2.5332   2.5527   2.5909   2.6745
     2.7056   2.7278   2.7876   2.8071   2.9305   2.9870   3.0102   3.0352
     3.1065   3.1346   3.1463   3.1730   3.2089   3.2425   3.3442   3.3739
     3.4065   3.4366   3.4630   3.5102   3.5527   3.5690   3.6366   3.6615
     3.6738   3.7084   3.7499   3.8948   3.9937   4.1384   4.1859   4.2530
     4.3070   4.4526   4.5098   4.7676   4.9292   4.9520   4.9936   5.0784
     5.1604   5.1758   5.2236   5.3873   5.6429   5.6818   5.7315   5.7775
     5.8546   5.8656   5.8716   6.0077   6.0714   6.0859   6.1197   6.1450
     6.1972   6.2091   6.2194   6.2352   6.4290   6.5287   6.6124   6.6609
     6.7864   6.8653   6.9636   7.1503   7.2262   7.5055   7.9319   8.0281
     8.0941   8.2466   8.4483   8.5729   8.6441   8.7743   8.9405   9.2584
     9.3503   9.4595   9.5080

          k = 0.0253 0.0560 0.0000 ( 34699 PWs)   bands (ev):

   -57.6898 -57.6723 -57.3085 -57.2902 -57.2310 -57.1012 -57.0813 -57.0638
   -57.0517 -57.0463 -56.9813 -56.9635 -56.7220 -56.7027 -56.1403 -56.1226
   -34.0397 -33.9734 -33.9591 -33.8758 -33.8448 -33.8289 -33.7728 -33.5957
   -33.5732 -33.5717 -33.5347 -33.5251 -33.5085 -33.5073 -33.4763 -33.4724
   -33.4550 -33.4259 -33.4135 -33.3669 -33.3162 -33.3135 -33.3083 -33.3012
   -33.2859 -33.2764 -33.2675 -33.2623 -33.2533 -33.2486 -33.2380 -33.2342
   -33.2103 -33.1990 -33.1707 -33.1651 -33.1266 -32.9882 -32.9754 -32.9625
   -32.9267 -32.9034 -32.4955 -32.4817 -32.4704 -32.3484 -32.3026 -32.2727
   -20.2982 -17.7561 -17.5891 -17.3431 -17.2640 -17.2445 -17.1933 -17.1676
   -17.1391 -16.9955 -16.9700 -16.8803 -16.8758 -16.8291 -16.7962 -16.7722
   -16.7476 -16.6702 -16.6227 -16.6046 -16.5790 -16.5301 -16.4265 -16.4120
   -16.3558 -16.2846 -16.2338 -16.1944 -16.1567 -16.1121 -16.0393 -14.7613
   -14.7242 -11.4480  -7.2292  -5.4172  -5.1957  -5.0317  -4.9484  -4.8127
    -4.7566  -4.7145  -4.5580  -4.4982  -4.4906  -4.4133  -4.3938  -4.3393
    -4.2705  -4.2310  -4.2154  -4.1917  -4.1475  -4.1409  -4.1061  -4.0614
    -4.0323  -4.0125  -3.9930  -3.9352  -3.9241  -3.8750  -3.8592  -3.8215
    -3.7745  -3.7157  -3.6548  -3.5714  -3.4735  -3.4018  -3.3312  -3.2827
    -3.2372  -3.2229  -3.1880  -3.0123  -2.9410  -2.8634  -2.8291  -2.7793
    -2.7585  -2.6456  -2.5928  -2.5092  -2.4886  -2.4374  -2.3925  -2.3658
    -2.3426  -2.3242  -2.2883  -2.2631  -2.1896  -2.1405  -2.1273  -2.0389
    -2.0113  -2.0092  -1.9463  -1.9380  -1.9025  -1.8611  -1.8342  -1.8118
    -1.7443  -1.7031  -1.6782  -1.6371  -1.5721  -1.5376  -1.4941  -1.4752
    -1.4307  -1.3730  -1.3385  -1.3013  -1.2231  -1.2054  -1.1284  -1.1053
    -1.0565  -1.0118  -0.9117  -0.8719  -0.8209  -0.7990  -0.7434  -0.6805
    -0.6065  -0.4651  -0.2558   0.0922   0.1288   0.1559   0.1884   1.8622
     2.0485   2.1326   2.1793   2.2318   2.2720   2.3062   2.3478   2.3852
     2.4263   2.4623   2.4811   2.5083   2.5207   2.5839   2.6939   2.7218
     2.7392   2.7767   2.8240   2.8402   2.9041   2.9525   2.9748   2.9862
     3.0275   3.0340   3.1565   3.2077   3.2866   3.3298   3.3406   3.3834
     3.4077   3.4393   3.4610   3.5409   3.5600   3.6310   3.6561   3.7342
     3.7928   3.8197   3.8617   3.9006   3.9049   4.0720   4.1171   4.1657
     4.3434   4.3849   4.6162   4.9648   5.0126   5.1248   5.1412   5.1583
     5.2624   5.2894   5.3137   5.4370   5.5101   5.5617   5.6372   5.7586
     5.8237   5.8503   5.8917   5.9340   5.9609   6.0025   6.0479   6.0608
     6.1359   6.1569   6.2228   6.3283   6.3796   6.4031   6.4812   6.6422
     6.6907   6.7967   6.8476   7.0364   7.1547   7.3641   7.4810   7.5886
     7.9815   8.1694   8.3493   8.5170   8.6371   8.8512   9.0474   9.1139
     9.1809   9.4900   9.6250

          k = 0.0253-0.0840 0.0000 ( 34722 PWs)   bands (ev):

   -57.6812 -57.6810 -57.3010 -57.2977 -57.2306 -57.0957 -57.0868 -57.0551
   -57.0550 -57.0522 -56.9729 -56.9719 -56.7150 -56.7097 -56.1315 -56.1315
   -33.9664 -33.9662 -33.9432 -33.9430 -33.8525 -33.8524 -33.6860 -33.6620
   -33.5658 -33.5624 -33.5290 -33.5176 -33.5133 -33.4766 -33.4523 -33.4239
   -33.4159 -33.4098 -33.3759 -33.3758 -33.3630 -33.3401 -33.3341 -33.3228
   -33.3214 -33.2844 -33.2777 -33.2760 -33.2691 -33.2654 -33.2360 -33.2345
   -33.2173 -33.2155 -33.1637 -33.1629 -33.0495 -33.0288 -32.9715 -32.9662
   -32.9405 -32.9374 -32.4886 -32.4886 -32.3726 -32.3725 -32.3255 -32.3255
   -20.2981 -17.5555 -17.4871 -17.3819 -17.3634 -17.2131 -17.1541 -17.0590
   -17.0495 -17.0039 -16.9795 -16.9753 -16.8887 -16.8791 -16.8688 -16.7855
   -16.7802 -16.6345 -16.6288 -16.5683 -16.5646 -16.5221 -16.5207 -16.3884
   -16.3872 -16.2544 -16.2522 -16.1993 -16.1955 -16.1331 -16.1014 -14.7606
   -14.7605 -11.4476  -7.2287  -5.4093  -5.2008  -4.7997  -4.6456  -4.6352
    -4.6244  -4.5481  -4.5473  -4.5320  -4.5243  -4.4181  -4.4091  -4.3696
    -4.3465  -4.3161  -4.2979  -4.2846  -4.2629  -4.2313  -4.2275  -4.0424
    -4.0386  -4.0143  -3.9833  -3.9644  -3.9203  -3.8478  -3.8432  -3.8159
    -3.7379  -3.6604  -3.6445  -3.4140  -3.4010  -3.3480  -3.3190  -3.2556
    -3.1190  -3.0949  -3.0600  -3.0509  -3.0089  -2.9643  -2.9192  -2.8955
    -2.8090  -2.8050  -2.6227  -2.6032  -2.5771  -2.5591  -2.5298  -2.4667
    -2.4345  -2.3422  -2.3149  -2.2749  -2.1206  -2.0733  -2.0549  -2.0091
    -1.9228  -1.9203  -1.8781  -1.8668  -1.8560  -1.8160  -1.8055  -1.7951
    -1.7668  -1.7290  -1.6855  -1.6564  -1.6205  -1.6071  -1.5943  -1.4760
    -1.4011  -1.3884  -1.2780  -1.2615  -1.2411  -1.2268  -1.1838  -1.1296
    -1.0806  -1.0513  -1.0434  -1.0127  -0.9541  -0.8904  -0.8775  -0.5372
    -0.5290  -0.4572  -0.4449   0.1174   0.1175   0.1968   0.1984   2.0510
     2.0532   2.2180   2.2337   2.2368   2.2402   2.2784   2.3165   2.4240
     2.4260   2.4407   2.4429   2.5582   2.5596   2.5782   2.6556   2.7219
     2.7562   2.8205   2.8293   2.8803   2.8999   2.9384   2.9484   3.0260
     3.0399   3.0856   3.1149   3.2215   3.2694   3.2902   3.3071   3.4228
     3.4282   3.4524   3.4696   3.4943   3.5226   3.7144   3.7401   3.8081
     3.8261   3.8378   3.8861   3.9137   3.9205   4.0813   4.0838   4.1176
     4.1179   4.4738   4.7147   4.9850   5.0241   5.2701   5.3021   5.3103
     5.3280   5.3606   5.3852   5.4269   5.4789   5.5096   5.5534   5.6400
     5.6431   5.7633   5.8338   5.8763   5.8917   6.0157   6.0768   6.0887
     6.1310   6.1858   6.2184   6.2813   6.3018   6.4662   6.5205   6.5948
     6.6379   6.7856   6.7956   6.9901   7.0345   7.1223   7.3838   7.5729
     7.7455   8.0046   8.2725   8.7238   8.7393   8.9673   9.0019   9.2982
     9.3449   9.4517   9.5403

          k = 0.0506 0.0000 0.0000 ( 34729 PWs)   bands (ev):

   -57.6985 -57.6636 -57.3175 -57.2812 -57.2322 -57.1094 -57.0730 -57.0726
   -57.0504 -57.0375 -56.9901 -56.9546 -56.7311 -56.6936 -56.1491 -56.1138
   -34.1356 -33.9807 -33.9523 -33.8974 -33.8701 -33.8053 -33.7448 -33.6552
   -33.6180 -33.6100 -33.5683 -33.5491 -33.5291 -33.5085 -33.4850 -33.4607
   -33.4583 -33.4533 -33.4308 -33.3750 -33.3236 -33.2922 -33.2707 -33.2669
   -33.2624 -33.2613 -33.2605 -33.2373 -33.2344 -33.2295 -33.2291 -33.2116
   -33.1801 -33.1798 -33.1755 -33.1410 -33.1185 -32.9971 -32.9864 -32.9552
   -32.9087 -32.8061 -32.5667 -32.5046 -32.4736 -32.3710 -32.2795 -32.1713
   -20.2982 -17.9166 -17.7063 -17.4158 -17.3901 -17.2827 -17.2656 -17.2371
   -17.1396 -16.9782 -16.9675 -16.9373 -16.8950 -16.8857 -16.8682 -16.8455
   -16.7508 -16.7008 -16.5365 -16.4553 -16.4492 -16.4103 -16.4052 -16.3588
   -16.3539 -16.3274 -16.1754 -16.1601 -16.1536 -15.9799 -15.9293 -14.7303
   -14.6495 -11.4467  -7.2251  -5.4780  -5.2954  -5.1782  -4.9797  -4.9135
    -4.8017  -4.7978  -4.7712  -4.7482  -4.7138  -4.6329  -4.5249  -4.4646
    -4.4182  -4.2477  -4.1323  -4.0414  -4.0250  -4.0194  -3.9739  -3.9298
    -3.9117  -3.8285  -3.7883  -3.7617  -3.7532  -3.6589  -3.6367  -3.6160
    -3.5556  -3.5535  -3.5410  -3.5257  -3.4997  -3.3052  -3.2819  -3.2674
    -3.2454  -3.2024  -3.1560  -3.1104  -2.9949  -2.9422  -2.8851  -2.8512
    -2.8264  -2.7803  -2.7583  -2.6786  -2.6231  -2.6112  -2.5769  -2.5471
    -2.4626  -2.4594  -2.4270  -2.3655  -2.3135  -2.2061  -2.1981  -2.1196
    -2.0862  -1.9912  -1.9389  -1.9318  -1.8419  -1.8175  -1.8010  -1.7142
    -1.6355  -1.5740  -1.5578  -1.5549  -1.4862  -1.4779  -1.4429  -1.4003
    -1.3514  -1.3330  -1.3039  -1.2120  -1.1188  -1.1053  -1.0877  -1.0678
    -0.9865  -0.9535  -0.8883  -0.8147  -0.8080  -0.7929  -0.7570  -0.5322
    -0.5238  -0.2678  -0.2236  -0.0470   0.0931   0.1191   0.1374   1.6422
     1.8186   2.0005   2.0970   2.1009   2.1794   2.1970   2.2811   2.2937
     2.4542   2.4578   2.4708   2.5591   2.5638   2.5854   2.6263   2.6787
     2.7073   2.8226   2.8704   2.8737   2.8993   2.9237   3.0836   3.1082
     3.1477   3.1639   3.2010   3.2016   3.2869   3.2889   3.3316   3.4085
     3.4386   3.4481   3.5003   3.5529   3.5770   3.5859   3.7002   3.7111
     3.7595   3.7629   3.7988   3.8938   3.9249   4.0820   4.1576   4.2112
     4.3476   4.4657   4.5746   4.6514   4.7681   4.7978   4.8609   4.8915
     4.9106   5.1005   5.2090   5.4392   5.6433   5.7590   5.7607   5.8790
     5.8874   5.9185   5.9317   5.9647   6.0277   6.0952   6.1385   6.1581
     6.2406   6.4199   6.5136   6.5972   6.6050   6.6316   6.6844   6.7225
     6.8516   6.8535   7.0308   7.0445   7.2926   7.3026   7.4987   8.0110
     8.1402   8.3594   8.4717   8.7438   8.8116   8.9560   9.0418   9.2715
     9.3386   9.3743   9.6227

          k = 0.0506 0.0280 0.0000 ( 34685 PWs)   bands (ev):

   -57.6962 -57.6659 -57.3151 -57.2836 -57.2318 -57.1071 -57.0752 -57.0704
   -57.0509 -57.0399 -56.9878 -56.9570 -56.7286 -56.6960 -56.1467 -56.1162
   -34.1102 -33.9787 -33.9541 -33.8913 -33.8442 -33.8116 -33.7718 -33.6324
   -33.6113 -33.5850 -33.5430 -33.5353 -33.5272 -33.5194 -33.4924 -33.4716
   -33.4581 -33.4486 -33.4288 -33.3688 -33.3175 -33.2904 -33.2787 -33.2651
   -33.2638 -33.2613 -33.2586 -33.2529 -33.2374 -33.2360 -33.2337 -33.2144
   -33.2030 -33.1855 -33.1772 -33.1447 -33.1416 -32.9933 -32.9840 -32.9571
   -32.9137 -32.8338 -32.5410 -32.5024 -32.4757 -32.3650 -32.2857 -32.1986
   -20.2981 -17.8601 -17.6509 -17.3685 -17.3411 -17.2493 -17.2241 -17.2142
   -17.1217 -17.0436 -16.9631 -16.9198 -16.8701 -16.8573 -16.8545 -16.8328
   -16.7628 -16.7446 -16.5588 -16.5281 -16.5037 -16.4376 -16.4150 -16.3759
   -16.3684 -16.3113 -16.1911 -16.1719 -16.1520 -16.0124 -15.9664 -14.7408
   -14.6735 -11.4463  -7.2245  -5.4578  -5.2303  -5.1807  -4.8919  -4.8338
    -4.7184  -4.7033  -4.6752  -4.6554  -4.6298  -4.5090  -4.4272  -4.3456
    -4.3177  -4.3014  -4.1560  -4.1342  -4.0553  -4.0261  -4.0095  -3.9916
    -3.9830  -3.9094  -3.8601  -3.8149  -3.7735  -3.7609  -3.7178  -3.6901
    -3.6549  -3.6315  -3.5827  -3.5511  -3.4484  -3.3147  -3.2848  -3.2628
    -3.2303  -3.1729  -3.1047  -3.0631  -2.9541  -2.9385  -2.8775  -2.8422
    -2.7428  -2.6934  -2.6586  -2.6497  -2.6000  -2.5909  -2.5365  -2.4982
    -2.4361  -2.3858  -2.3807  -2.3407  -2.3091  -2.2519  -2.1773  -2.1370
    -2.1087  -2.0647  -2.0242  -1.9768  -1.9431  -1.8995  -1.8628  -1.8216
    -1.7525  -1.7372  -1.7109  -1.6302  -1.5366  -1.5054  -1.4795  -1.4317
    -1.3778  -1.3384  -1.2791  -1.2571  -1.2365  -1.1430  -1.1122  -1.0131
    -0.9696  -0.8845  -0.8570  -0.8043  -0.7836  -0.7650  -0.7029  -0.6880
    -0.5116  -0.3111  -0.2589  -0.0728   0.1100   0.1394   0.1629   1.7048
     1.9056   2.0609   2.1228   2.1277   2.1744   2.2514   2.3584   2.3728
     2.4085   2.4373   2.5142   2.5575   2.5751   2.6038   2.6726   2.6941
     2.7453   2.8041   2.8537   2.8977   2.9563   2.9741   3.0421   3.0592
     3.0988   3.1620   3.1718   3.2000   3.3006   3.3610   3.3760   3.4075
     3.4461   3.4780   3.5454   3.5805   3.6039   3.6474   3.6775   3.6867
     3.7190   3.7706   3.8192   3.8707   3.9344   4.0583   4.1694   4.2825
     4.2933   4.4235   4.6207   4.6897   4.7650   4.8123   4.8579   4.9808
     5.0130   5.1280   5.2245   5.4713   5.5959   5.6397   5.7330   5.8059
     5.8626   5.8711   5.9179   5.9476   5.9819   6.0891   6.1186   6.1399
     6.2309   6.4355   6.4735   6.5372   6.5777   6.6138   6.6868   6.7384
     6.7993   6.8181   6.9745   7.1159   7.1679   7.3943   7.5680   7.7014
     8.1336   8.1638   8.2445   8.3940   8.7449   8.9637   9.0108   9.0457
     9.3718   9.4418   9.6040

          k = 0.0506 0.0560 0.0000 ( 34596 PWs)   bands (ev):

   -57.6898 -57.6723 -57.3085 -57.2902 -57.2310 -57.1011 -57.0813 -57.0640
   -57.0517 -57.0463 -56.9813 -56.9635 -56.7220 -56.7027 -56.1403 -56.1226
   -34.0403 -33.9734 -33.9591 -33.8746 -33.8450 -33.8285 -33.7730 -33.5957
   -33.5743 -33.5717 -33.5351 -33.5211 -33.5150 -33.5106 -33.4764 -33.4732
   -33.4530 -33.4260 -33.4039 -33.3533 -33.3177 -33.3171 -33.3008 -33.2986
   -33.2862 -33.2763 -33.2674 -33.2599 -33.2534 -33.2532 -33.2473 -33.2393
   -33.2105 -33.2005 -33.1707 -33.1648 -33.1261 -32.9883 -32.9782 -32.9622
   -32.9266 -32.9033 -32.4967 -32.4812 -32.4702 -32.3484 -32.3026 -32.2726
   -20.2978 -17.7056 -17.5002 -17.2909 -17.2390 -17.1975 -17.1734 -17.1614
   -17.0896 -17.0366 -17.0058 -16.9130 -16.8558 -16.8482 -16.8439 -16.8060
   -16.7760 -16.7214 -16.6624 -16.6225 -16.6123 -16.5504 -16.5122 -16.3986
   -16.3431 -16.2632 -16.2260 -16.1929 -16.1561 -16.1138 -16.0384 -14.7601
   -14.7245 -11.4454  -7.2232  -5.4323  -5.1947  -5.0221  -4.6588  -4.6169
    -4.5140  -4.4989  -4.4855  -4.4560  -4.4312  -4.3674  -4.3234  -4.2993
    -4.2231  -4.2048  -4.1458  -4.1330  -4.0801  -4.0655  -4.0466  -4.0390
    -4.0141  -3.9980  -3.9653  -3.9174  -3.8954  -3.8878  -3.8212  -3.7830
    -3.7305  -3.6604  -3.6289  -3.5255  -3.4915  -3.3748  -3.3293  -3.2668
    -3.2573  -3.2423  -3.1465  -3.0225  -2.9317  -2.9062  -2.8486  -2.8333
    -2.7577  -2.7268  -2.6867  -2.6094  -2.5891  -2.5730  -2.5265  -2.4881
[...]
    -1.2967  -1.2663  -1.2447  -1.1897  -1.1477  -1.0310  -1.0196  -1.0114
    -0.9880  -0.9482  -0.9057  -0.8377  -0.7563  -0.7013  -0.6450  -0.5936
    -0.5895  -0.5345  -0.5171   0.0664   0.0665   0.2111   0.2128   2.1539
     2.1547   2.2013   2.2031   2.2386   2.2395   2.2667   2.2982   2.4883
     2.4938   2.5257   2.5555   2.6093   2.6169   2.6798   2.6818   2.6911
     2.6923   2.8443   2.9101   2.9832   2.9982   3.0344   3.0420   3.0987
     3.2201   3.2496   3.2726   3.3331   3.3738   3.3904   3.4451   3.4929
     3.5004   3.5227   3.5493   3.5811   3.6038   3.6800   3.6998   3.7451
     3.8349   3.8909   3.9071   3.9532   3.9535   4.0965   4.1034   4.1121
     4.1126   4.6146   4.7837   4.7875   4.8030   4.8708   4.9208   4.9258
     4.9422   4.9847   5.0272   5.2493   5.3401   5.3588   5.3695   5.7277
     5.7998   5.9098   5.9273   5.9788   6.0387   6.1493   6.2997   6.3495
     6.3650   6.3748   6.4092   6.5756   6.6181   6.6654   6.6655   6.7031
     6.7622   6.8448   6.8458   6.8527   6.8536   7.3598   7.4069   7.5230
     7.6625   7.8255   8.0110   8.1697   8.2216   8.3188   8.3840   8.8255
     8.9124   9.0442   9.0812

          k =-0.0253 0.0280 0.0000 ( 34687 PWs)   bands (ev):

   -57.6963 -57.6660 -57.3150 -57.2836 -57.2318 -57.1072 -57.0752 -57.0702
   -57.0508 -57.0398 -56.9877 -56.9570 -56.7286 -56.6960 -56.1470 -56.1164
   -34.1096 -33.9789 -33.9542 -33.8927 -33.8439 -33.8117 -33.7719 -33.6310
   -33.6113 -33.5817 -33.5424 -33.5342 -33.5216 -33.5159 -33.4924 -33.4719
   -33.4657 -33.4604 -33.4287 -33.3849 -33.3177 -33.2902 -33.2831 -33.2638
   -33.2585 -33.2541 -33.2524 -33.2473 -33.2373 -33.2359 -33.2348 -33.2168
   -33.2025 -33.1852 -33.1771 -33.1447 -33.1416 -32.9933 -32.9796 -32.9585
   -32.9137 -32.8338 -32.5414 -32.5008 -32.4768 -32.3652 -32.2859 -32.1988
   -20.2985 -17.9224 -17.7445 -17.4633 -17.3831 -17.3090 -17.2318 -17.1279
   -17.0978 -17.0055 -16.9628 -16.8588 -16.8299 -16.8063 -16.7834 -16.7697
   -16.7125 -16.7000 -16.5998 -16.5790 -16.5061 -16.4749 -16.3814 -16.3649
   -16.3560 -16.3291 -16.2003 -16.1736 -16.1531 -16.0112 -15.9667 -14.7423
   -14.6729 -11.4488  -7.2301  -5.4441  -5.2454  -5.1852  -5.1785  -5.0214
    -4.9659  -4.9363  -4.7585  -4.7000  -4.5619  -4.4025  -4.3708  -4.3456
    -4.2607  -4.2495  -4.1876  -4.1168  -4.0912  -4.0641  -4.0361  -4.0202
    -3.9747  -3.9404  -3.9140  -3.8682  -3.8219  -3.8112  -3.7839  -3.7198
    -3.7006  -3.6628  -3.6146  -3.6040  -3.5391  -3.5258  -3.3628  -3.2961
    -3.2532  -3.2226  -3.1496  -3.0723  -2.9824  -2.9458  -2.7841  -2.7055
    -2.6798  -2.6364  -2.6103  -2.5318  -2.5039  -2.4512  -2.4471  -2.4222
    -2.4054  -2.3845  -2.3392  -2.3010  -2.2174  -2.1750  -2.1210  -2.1034
    -2.0622  -1.9899  -1.9503  -1.8946  -1.8628  -1.8262  -1.7428  -1.7070
    -1.6523  -1.5989  -1.5927  -1.5596  -1.5154  -1.4702  -1.4358  -1.3923
    -1.3443  -1.3324  -1.2807  -1.2420  -1.1954  -1.1070  -1.0955  -1.0585
    -1.0086  -0.8912  -0.8403  -0.8281  -0.7552  -0.7380  -0.7083  -0.6592
    -0.4328  -0.2810  -0.1344  -0.0852   0.1498   0.1792   0.1894   1.7212
     1.8454   2.0167   2.1008   2.1959   2.2464   2.2856   2.3195   2.4043
     2.4159   2.4504   2.4863   2.5303   2.5331   2.5477   2.6082   2.6690
     2.7058   2.7394   2.7760   2.8126   2.9391   2.9863   3.0046   3.0276
     3.1076   3.1361   3.1467   3.1746   3.2091   3.2397   3.3477   3.3729
     3.4042   3.4203   3.4646   3.5066   3.5618   3.5709   3.6374   3.6613
     3.6735   3.7094   3.7493   3.8937   3.9925   4.1402   4.1859   4.2535
     4.3070   4.4530   4.5101   4.7689   4.9373   4.9513   4.9843   5.0784
     5.1593   5.1754   5.2234   5.3862   5.6447   5.6750   5.7284   5.7875
     5.8526   5.8654   5.8727   6.0065   6.0741   6.0788   6.1243   6.1458
     6.1973   6.2079   6.2158   6.2438   6.4289   6.5275   6.6122   6.6665
     6.7913   6.8590   6.9635   7.1505   7.2263   7.4894   7.9292   8.0285
     8.0940   8.2490   8.4373   8.5793   8.6467   8.7758   8.9462   9.2737
     9.3575   9.4637   9.5057

          k =-0.0253 0.0560 0.0000 ( 34699 PWs)   bands (ev):

   -57.6899 -57.6724 -57.3085 -57.2901 -57.2309 -57.1012 -57.0813 -57.0638
   -57.0517 -57.0463 -56.9812 -56.9635 -56.7220 -56.7027 -56.1405 -56.1229
   -34.0398 -33.9735 -33.9593 -33.8758 -33.8449 -33.8290 -33.7728 -33.5957
   -33.5731 -33.5717 -33.5347 -33.5250 -33.5084 -33.5073 -33.4763 -33.4724
   -33.4550 -33.4259 -33.4134 -33.3668 -33.3161 -33.3134 -33.3082 -33.3011
   -33.2859 -33.2764 -33.2675 -33.2622 -33.2533 -33.2487 -33.2380 -33.2342
   -33.2102 -33.1989 -33.1706 -33.1651 -33.1265 -32.9882 -32.9753 -32.9625
   -32.9266 -32.9034 -32.4958 -32.4819 -32.4706 -32.3487 -32.3028 -32.2729
   -20.2982 -17.7561 -17.5891 -17.3431 -17.2640 -17.2447 -17.1935 -17.1675
   -17.1390 -16.9955 -16.9699 -16.8803 -16.8761 -16.8296 -16.7967 -16.7722
   -16.7474 -16.6700 -16.6226 -16.6042 -16.5791 -16.5304 -16.4266 -16.4121
   -16.3559 -16.2846 -16.2338 -16.1944 -16.1567 -16.1122 -16.0393 -14.7609
   -14.7237 -11.4480  -7.2292  -5.4171  -5.1956  -5.0313  -4.9484  -4.8133
    -4.7566  -4.7146  -4.5580  -4.4965  -4.4912  -4.4130  -4.3940  -4.3441
    -4.2709  -4.2322  -4.2149  -4.1918  -4.1473  -4.1403  -4.1074  -4.0614
    -4.0313  -4.0098  -3.9942  -3.9364  -3.9239  -3.8729  -3.8630  -3.8221
    -3.7740  -3.7138  -3.6558  -3.5716  -3.4729  -3.4020  -3.3359  -3.2832
    -3.2378  -3.2167  -3.1825  -3.0133  -2.9382  -2.8647  -2.8260  -2.7828
    -2.7557  -2.6449  -2.5919  -2.5097  -2.4871  -2.4388  -2.3939  -2.3624
    -2.3429  -2.3238  -2.2905  -2.2652  -2.1890  -2.1404  -2.1263  -2.0363
    -2.0200  -2.0023  -1.9448  -1.9424  -1.9038  -1.8613  -1.8300  -1.8065
    -1.7424  -1.7102  -1.6720  -1.6418  -1.5789  -1.5390  -1.5047  -1.4600
    -1.4305  -1.3721  -1.3471  -1.3004  -1.2230  -1.2050  -1.1263  -1.1034
    -1.0574  -1.0122  -0.9237  -0.8734  -0.8137  -0.7993  -0.7372  -0.6801
    -0.6065  -0.4666  -0.2572   0.0925   0.1291   0.1563   0.1887   1.8620
     2.0483   2.1355   2.1793   2.2286   2.2702   2.3069   2.3336   2.3842
     2.4448   2.4593   2.4860   2.5137   2.5212   2.5839   2.6932   2.7247
     2.7450   2.7762   2.8281   2.8413   2.8934   2.9500   2.9711   2.9870
     3.0243   3.0351   3.1707   3.2083   3.2906   3.3170   3.3344   3.3711
     3.4119   3.4370   3.4604   3.5434   3.5597   3.6350   3.6575   3.7348
     3.7931   3.8171   3.8626   3.8989   3.9070   4.0727   4.1171   4.1658
     4.3432   4.3849   4.6171   4.9661   5.0197   5.1231   5.1371   5.1565
     5.2598   5.2873   5.3152   5.4285   5.5120   5.5614   5.6403   5.7630
     5.8248   5.8485   5.8954   5.9366   5.9560   5.9965   6.0526   6.0636
     6.1361   6.1557   6.2297   6.3222   6.3797   6.4084   6.4781   6.6466
     6.6940   6.7966   6.8388   7.0362   7.1464   7.3640   7.4798   7.5789
     7.9755   8.1771   8.3501   8.5216   8.6481   8.8600   9.0562   9.1166
     9.1786   9.4996   9.6224

          k =-0.0506 0.0280 0.0000 ( 34685 PWs)   bands (ev):

   -57.6963 -57.6660 -57.3150 -57.2836 -57.2318 -57.1071 -57.0752 -57.0703
   -57.0508 -57.0398 -56.9877 -56.9570 -56.7286 -56.6960 -56.1470 -56.1164
   -34.1103 -33.9788 -33.9542 -33.8914 -33.8441 -33.8117 -33.7719 -33.6324
   -33.6113 -33.5850 -33.5430 -33.5353 -33.5272 -33.5193 -33.4923 -33.4715
   -33.4580 -33.4485 -33.4287 -33.3688 -33.3174 -33.2904 -33.2787 -33.2650
   -33.2638 -33.2612 -33.2583 -33.2531 -33.2374 -33.2359 -33.2337 -33.2144
   -33.2030 -33.1854 -33.1771 -33.1446 -33.1415 -32.9933 -32.9839 -32.9571
   -32.9137 -32.8338 -32.5412 -32.5026 -32.4759 -32.3652 -32.2859 -32.1988
   -20.2981 -17.8602 -17.6508 -17.3685 -17.3411 -17.2494 -17.2241 -17.2142
   -17.1221 -17.0429 -16.9631 -16.9204 -16.8704 -16.8572 -16.8545 -16.8326
   -16.7630 -16.7445 -16.5590 -16.5278 -16.5035 -16.4377 -16.4151 -16.3759
   -16.3686 -16.3113 -16.1912 -16.1720 -16.1520 -16.0125 -15.9665 -14.7403
   -14.6730 -11.4463  -7.2245  -5.4577  -5.2301  -5.1808  -4.8919  -4.8337
    -4.7198  -4.7042  -4.6750  -4.6548  -4.6298  -4.5090  -4.4275  -4.3451
    -4.3181  -4.3014  -4.1591  -4.1272  -4.0605  -4.0264  -4.0083  -3.9929
    -3.9825  -3.9093  -3.8594  -3.8155  -3.7730  -3.7607  -3.7187  -3.6907
    -3.6560  -3.6330  -3.5829  -3.5510  -3.4480  -3.3221  -3.2885  -3.2624
    -3.2259  -3.1699  -3.1011  -3.0580  -2.9531  -2.9372  -2.8743  -2.8399
    -2.7426  -2.6934  -2.6596  -2.6503  -2.6036  -2.5901  -2.5353  -2.4946
    -2.4365  -2.3870  -2.3805  -2.3351  -2.3082  -2.2538  -2.1788  -2.1351
    -2.1128  -2.0621  -2.0252  -1.9739  -1.9394  -1.9043  -1.8594  -1.8308
    -1.7541  -1.7397  -1.7113  -1.6405  -1.5394  -1.5063  -1.4846  -1.4170
    -1.3667  -1.3469  -1.2789  -1.2592  -1.2370  -1.1463  -1.1062  -1.0127
    -0.9746  -0.8790  -0.8549  -0.8127  -0.7775  -0.7630  -0.7048  -0.6894
    -0.5123  -0.3115  -0.2591  -0.0726   0.1104   0.1398   0.1631   1.7047
     1.9055   2.0609   2.1234   2.1280   2.1731   2.2414   2.3617   2.3727
     2.4068   2.4388   2.5184   2.5681   2.5751   2.6033   2.6843   2.6971
     2.7437   2.8033   2.8337   2.9033   2.9564   2.9821   3.0421   3.0608
     3.0916   3.1609   3.1717   3.2011   3.3029   3.3569   3.3767   3.4107
     3.4461   3.4583   3.5475   3.5864   3.6047   3.6540   3.6766   3.6853
     3.7177   3.7714   3.8190   3.8698   3.9325   4.0591   4.1692   4.2826
     4.2937   4.4233   4.6227   4.6901   4.7649   4.8116   4.8558   4.9835
     5.0127   5.1269   5.2244   5.4700   5.5951   5.6413   5.7217   5.8054
     5.8618   5.8730   5.9258   5.9471   5.9812   6.0932   6.1175   6.1396
     6.2320   6.4324   6.4828   6.5407   6.5782   6.6074   6.6854   6.7409
     6.7971   6.8179   6.9744   7.1155   7.1677   7.3953   7.5621   7.6921
     8.1325   8.1639   8.2447   8.3878   8.7626   8.9681   9.0133   9.0457
     9.3785   9.4426   9.6057

          k =-0.0506 0.0560 0.0000 ( 34596 PWs)   bands (ev):

   -57.6899 -57.6724 -57.3085 -57.2901 -57.2309 -57.1011 -57.0813 -57.0639
   -57.0517 -57.0463 -56.9813 -56.9635 -56.7220 -56.7027 -56.1405 -56.1229
   -34.0403 -33.9735 -33.9592 -33.8746 -33.8451 -33.8286 -33.7729 -33.5956
   -33.5743 -33.5717 -33.5350 -33.5211 -33.5149 -33.5106 -33.4763 -33.4732
   -33.4529 -33.4259 -33.4038 -33.3532 -33.3177 -33.3170 -33.3008 -33.2986
   -33.2862 -33.2763 -33.2674 -33.2599 -33.2534 -33.2532 -33.2473 -33.2393
   -33.2103 -33.2005 -33.1706 -33.1647 -33.1261 -32.9882 -32.9781 -32.9623
   -32.9266 -32.9033 -32.4969 -32.4815 -32.4705 -32.3487 -32.3028 -32.2728
   -20.2979 -17.7057 -17.5002 -17.2908 -17.2393 -17.1974 -17.1733 -17.1615
   -17.0895 -17.0366 -17.0056 -16.9131 -16.8562 -16.8487 -16.8441 -16.8060
   -16.7759 -16.7217 -16.6623 -16.6220 -16.6123 -16.5504 -16.5122 -16.3987
   -16.3432 -16.2632 -16.2260 -16.1930 -16.1560 -16.1139 -16.0384 -14.7596
   -14.7241 -11.4454  -7.2232  -5.4323  -5.1947  -5.0219  -4.6588  -4.6168
    -4.5152  -4.4991  -4.4837  -4.4565  -4.4319  -4.3670  -4.3245  -4.3014
    -4.2254  -4.2054  -4.1460  -4.1317  -4.0825  -4.0670  -4.0458  -4.0362
    -4.0141  -3.9960  -3.9684  -3.9142  -3.8940  -3.8880  -3.8219  -3.7870
    -3.7305  -3.6601  -3.6305  -3.5226  -3.4897  -3.3812  -3.3286  -3.2614
    -3.2566  -3.2454  -3.1444  -3.0157  -2.9336  -2.9045  -2.8506  -2.8303
    -2.7561  -2.7264  -2.6846  -2.6093  -2.5912  -2.5674  -2.5289  -2.4896
    -2.4281  -2.4056  -2.3655  -2.3290  -2.3161  -2.2998  -2.2550  -2.1776
    -2.1519  -2.1208  -2.1137  -2.0771  -2.0471  -2.0018  -1.9837  -1.9014
    -1.8912  -1.8513  -1.8326  -1.7241  -1.6371  -1.6058  -1.5728  -1.4782
    -1.4080  -1.3747  -1.3072  -1.2443  -1.2055  -1.1085  -1.0717  -1.0163
    -1.0010  -0.9363  -0.8516  -0.8194  -0.7696  -0.7561  -0.6917  -0.6566
    -0.6513  -0.5169  -0.3242   0.0785   0.1126   0.1306   0.1942   1.8673
     2.0772   2.1661   2.1999   2.2215   2.2442   2.2989   2.3485   2.3937
     2.4042   2.5380   2.5708   2.5798   2.6080   2.6288   2.6840   2.7552
     2.7826   2.8048   2.8392   2.8816   2.9640   3.0049   3.0288   3.0626
     3.0978   3.1367   3.1682   3.2573   3.3360   3.3677   3.3974   3.4414
     3.4793   3.5002   3.5222   3.5430   3.6155   3.6478   3.7120   3.7447
     3.7802   3.8515   3.8805   3.9199   3.9258   3.9545   4.1122   4.1754
     4.2899   4.4739   4.7261   4.8074   4.8171   4.8968   4.9426   5.0925
     5.1658   5.2323   5.2724   5.3251   5.3725   5.4352   5.4961   5.6265
     5.7815   5.8309   5.8817   5.9524   6.0410   6.1245   6.2172   6.2595
     6.2868   6.3470   6.4165   6.4507   6.5027   6.5780   6.6482   6.7163
     6.7310   6.8241   6.8459   6.9845   7.0459   7.4110   7.4282   7.5767
     7.7442   7.9421   8.0713   8.3893   8.5702   8.6097   8.7414   9.0092
     9.2246   9.3235   9.4540

     the Fermi energy is     0.9975 ev

!    total energy              =   -3021.41999222 Ry
     Harris-Foulkes estimate   =   -3021.41999265 Ry
     estimated scf accuracy    <       0.00000068 Ry

     The total energy is the sum of the following terms:

     one-electron contribution =  -41241.38045841 Ry
     hartree contribution      =   20694.94184940 Ry
     xc contribution           =    -553.68777975 Ry
     ewald contribution        =   18078.70660763 Ry
     smearing contrib. (-TS)   =      -0.00021109 Ry

     total magnetization       =     0.00 Bohr mag/cell
     absolute magnetization    =     0.00 Bohr mag/cell

     convergence has been achieved in   7 iterations

     Forces acting on atoms (Ry/au):


     negative rho (up, down):  1.209E-02 1.209E-02
     atom    1 type  1   force =     0.00001984   -0.00035532   -0.13378606
     atom    2 type  2   force =     0.00000621    0.00003089    0.07212265
     atom    3 type  1   force =    -0.00135662    0.00031061   -0.06097038
     atom    4 type  2   force =     0.00290618    0.00048825    0.00637874
     atom    5 type  1   force =     0.00026296    0.00185829    0.00352379
     atom    6 type  2   force =     0.00006641    0.00001883   -0.00291837
     atom    7 type  1   force =    -0.00029622   -0.00073045    0.00474926
     atom    8 type  2   force =     0.00092448   -0.00021138   -0.00066411
     atom    9 type  1   force =    -0.00002612    0.00002050   -0.13354256
     atom   10 type  2   force =    -0.00006564    0.00006662    0.07130661
     atom   11 type  1   force =    -0.00131872   -0.00023972   -0.05588321
     atom   12 type  2   force =     0.00299909   -0.00006712    0.00609553
     atom   13 type  1   force =     0.00028696   -0.00148687    0.00346192
     atom   14 type  2   force =    -0.00120085   -0.00038414   -0.00291662
     atom   15 type  1   force =    -0.00054034    0.00019686    0.00449763
     atom   16 type  2   force =     0.00053818   -0.00016848   -0.00003138
     atom   17 type  2   force =    -0.00006707   -0.00006945    0.07938760
     atom   18 type  1   force =     0.00013806   -0.00017042    0.11912779
     atom   19 type  2   force =    -0.00010412   -0.00017284   -0.06668943
     atom   20 type  2   force =    -0.06322318    0.00014975   -0.03224238
     atom   21 type  2   force =     0.06320503    0.00001623   -0.03244741
     atom   22 type  1   force =     0.00072991    0.00108102    0.05973366
     atom   23 type  2   force =    -0.00017485    0.00005736   -0.00176019
     atom   24 type  2   force =    -0.00142885   -0.00000209   -0.02325977
     atom   25 type  2   force =    -0.00312864    0.00059169    0.00786429
     atom   26 type  1   force =     0.00064751    0.00029327    0.00459010
     atom   27 type  2   force =     0.00053020    0.00059447   -0.00379685
     atom   28 type  2   force =     0.00014106   -0.00008757   -0.00120136
     atom   29 type  2   force =     0.00022791   -0.00034327   -0.00058679
     atom   30 type  1   force =     0.00034407   -0.00075692    0.00383260
     atom   31 type  2   force =     0.00012674    0.00013376   -0.00250404
     atom   32 type  2   force =     0.00005830   -0.00006402   -0.00118126
     atom   33 type  2   force =    -0.00011616    0.00003914    0.07898939
     atom   34 type  1   force =     0.00007074   -0.00021766    0.11904062
     atom   35 type  2   force =    -0.00029981   -0.00005267   -0.06638653
     atom   36 type  2   force =    -0.06318275   -0.00005166   -0.03233067
     atom   37 type  2   force =     0.06333406   -0.00020090   -0.03248558
     atom   38 type  1   force =     0.00066706   -0.00097878    0.05995110
     atom   39 type  2   force =    -0.00045844    0.00010754   -0.00250606
     atom   40 type  2   force =    -0.00118443    0.00030734   -0.02217104
     atom   41 type  2   force =    -0.00316894   -0.00014962    0.00789062
     atom   42 type  1   force =     0.00052393    0.00006541    0.00371593
     atom   43 type  2   force =     0.00070211    0.00023907   -0.00297106
     atom   44 type  2   force =     0.00022635    0.00010196   -0.00116168
     atom   45 type  2   force =     0.00020255    0.00031293   -0.00062142
     atom   46 type  1   force =     0.00055268    0.00035613    0.00389768
     atom   47 type  2   force =     0.00007548   -0.00033210   -0.00132757
     atom   48 type  2   force =     0.00015018    0.00015961   -0.00098329
     atom   49 type  3   force =     0.00591835   -0.00594902    0.00664086
     atom   50 type  2   force =     0.00122232    0.00164836   -0.00587410
     atom   51 type  4   force =     0.00023250   -0.00281594    0.00149313
     atom   52 type  4   force =     0.00012814    0.00047417    0.00072184
     atom   53 type  4   force =    -0.00688784    0.00616311   -0.00311832
     atom   54 type  4   force =     0.00006408    0.00017523   -0.00069383

     Total force =     0.362933     Total SCF correction =     0.001847
 !ASE

     Writing output data file calc.save
 
     init_run     :     57.51s CPU     72.91s WALL (       1 calls)
     electrons    :   1732.98s CPU   2157.23s WALL (       1 calls)
     forces       :     40.21s CPU     41.89s WALL (       1 calls)

     Called by init_run:
     wfcinit      :     49.17s CPU     63.37s WALL (       1 calls)
     potinit      :      1.31s CPU      1.60s WALL (       1 calls)

     Called by electrons:
     c_bands      :   1516.08s CPU   1883.38s WALL (       8 calls)
     sum_band     :    185.72s CPU    238.24s WALL (       8 calls)
     v_of_rho     :      7.82s CPU      9.84s WALL (       8 calls)
     newd         :     27.28s CPU     30.04s WALL (       8 calls)
     mix_rho      :      0.26s CPU      0.38s WALL (       8 calls)
     vdW_energy   :      1.47s CPU      1.86s WALL (       9 calls)
     vdW_ffts     :      2.30s CPU      3.04s WALL (      18 calls)
     vdW_v        :      0.84s CPU      0.97s WALL (       9 calls)

     Called by c_bands:
     init_us_2    :      4.92s CPU      5.34s WALL (     720 calls)
     cegterg      :   1487.75s CPU   1853.19s WALL (     320 calls)

     Called by *egterg:
     h_psi        :    624.04s CPU    927.83s WALL (    1667 calls)
     s_psi        :     75.69s CPU     79.86s WALL (    1667 calls)
     g_psi        :      4.16s CPU      4.26s WALL (    1307 calls)
     cdiaghg      :    506.84s CPU    519.18s WALL (    1587 calls)

     Called by h_psi:
     add_vuspsi   :     76.15s CPU     80.17s WALL (    1667 calls)

     General routines
     calbec       :    115.35s CPU    118.88s WALL (    2027 calls)
     fft          :      4.58s CPU      6.04s WALL (     713 calls)
     ffts         :      0.05s CPU      0.07s WALL (      32 calls)
     fftw         :    412.34s CPU    748.04s WALL (  602148 calls)
     interpolate  :      0.28s CPU      0.44s WALL (      32 calls)
     davcio       :      0.14s CPU      3.42s WALL (      40 calls)
 
     Parallel routines
     fft_scatter  :    224.29s CPU    396.07s WALL (  602893 calls)
 
     PWSCF        : 30m31.74s CPU    37m57.21s WALL

 
   This run was terminated on:   3:27:32  13Feb2018            

=------------------------------------------------------------------------------=
   JOB DONE.
=------------------------------------------------------------------------------=
