  python dir          : /home/vossj/suncat/lib/python2.7/site-packages/espresso
  espresso dir        : /home/vossj/suncat/esdld/espresso-dynpy-beef/bin
  pseudo dir          : /home/alatimer/bin/psp/esp_psp_w_gbrvRu/
  ase-espresso py git : ffa2778-git



     Program PWSCF v.5.1rc2 (svn rev. ) starts on 10Mar2018 at 17:13:28 

     This program is part of the open-source Quantum ESPRESSO suite
     for quantum simulation of materials; please cite
         "P. Giannozzi et al., J. Phys.:Condens. Matter 21 395502 (2009);
          URL http://www.quantum-espresso.org", 
     in publications or presentations arising from this work. More details at
     http://www.quantum-espresso.org/quote

     Parallel version (MPI), running on    16 processors
     R & G space division:  proc/nbgrp/npool/nimage =      16
     Reading input from pw.inp
     Message from routine read_cards :
     DEPRECATED: no units specified in CELL_PARAMETERS card

     Current dimensions of program PWSCF are:
     Max number of different atomic species (ntypx) = 10
     Max number of k-points (npk) =  40000
     Max angular momentum in pseudopotentials (lmaxx) =  3

     **************************************************************************
     Initializing libbeef V0.1.1 with the BEEF-vdW functional.
     Citation: Wellendorff et al., PRB 85, 235149 (2012).
     **************************************************************************


     IMPORTANT: XC functional enforced from input :
     Exchange-correlation      = BEEF ( 1  4 27 13 2)
     Any further DFT definition will be discarded
     Please, verify this is what you really want


     Subspace diagonalization in iterative solution of the eigenvalue problem:
     a serial algorithm will be used

 
     Parallelization info
     --------------------
     sticks:   dense  smooth     PW     G-vecs:    dense   smooth      PW
     Min         281     112     31                68535    17318    2565
     Max         282     113     32                68545    17369    2582
     Sum        4501    1795    503              1096637   277353   41113
 
     Generating pointlists ...
     new r_m :   0.4125 (alat units)  0.7795 (a.u.) for type    1
     new r_m :   0.4125 (alat units)  0.7795 (a.u.) for type    2
     new r_m :   0.4125 (alat units)  0.7795 (a.u.) for type    3


     bravais-lattice index     =            0
     lattice parameter (alat)  =       1.8897  a.u.
     unit-cell volume          =    7990.9933 (a.u.)^3
     number of atoms/cell      =           51
     number of atomic types    =            3
     number of electrons       =       400.00
     number of Kohn-Sham states=          300
     kinetic-energy cutoff     =      40.4243  Ry
     charge density cutoff     =     404.2426  Ry
     convergence threshold     =      7.3E-07
     mixing beta               =       0.1000
     number of iterations used =           10  plain     mixing
     Exchange-correlation      = BEEF ( 1  4 27 13 2)
     nstep                     =           50


     celldm(1)=   1.889726  celldm(2)=   0.000000  celldm(3)=   0.000000
     celldm(4)=   0.000000  celldm(5)=   0.000000  celldm(6)=   0.000000

     crystal axes: (cart. coord. in units of alat)
               a(1) = (   6.590708   0.000000   0.000000 )  
               a(2) = (   0.000000   5.950229   0.000000 )  
               a(3) = (   0.000000   0.000000  30.195235 )  

     reciprocal axes: (cart. coord. in units 2 pi/alat)
               b(1) = (  0.151729  0.000000  0.000000 )  
               b(2) = (  0.000000  0.168061  0.000000 )  
               b(3) = (  0.000000  0.000000  0.033118 )  


     PseudoPot. # 1 for Ti read from file:
     /home/alatimer/bin/psp/esp_psp_w_gbrvRu/Ti.UPF
     MD5 check sum: 8e4df49b7f0d34bbd5052bf3f5ea0213
     Pseudo is Ultrasoft, Zval = 12.0
     Generated by new atomic code, or converted to UPF format
     Using radial grid of  851 points,  6 beta functions with: 
                l(1) =   0
                l(2) =   0
                l(3) =   1
                l(4) =   1
                l(5) =   2
                l(6) =   2
     Q(r) pseudized with  8 coefficients,  rinner =    1.000   1.000   1.000
                                                       1.000   1.000

     PseudoPot. # 2 for  O read from file:
     /home/alatimer/bin/psp/esp_psp_w_gbrvRu/O.UPF
     MD5 check sum: e057bbcf3229fb5d8c36c0c92f9568b4
     Pseudo is Ultrasoft + core correction, Zval =  6.0
     Generated using "atomic" code by A. Dal Corso  v.5.0.2 svn rev. 9415
     Using radial grid of 1095 points,  4 beta functions with: 
                l(1) =   0
                l(2) =   0
                l(3) =   1
                l(4) =   1
     Q(r) pseudized with 0 coefficients 


     PseudoPot. # 3 for  N read from file:
     /home/alatimer/bin/psp/esp_psp_w_gbrvRu/N.UPF
     MD5 check sum: ed8b6a90f28a53b7d71920e7015d2dd6
     Pseudo is Ultrasoft + core correction, Zval =  5.0
     Generated using "atomic" code by A. Dal Corso  v.5.0.2 svn rev. 9415
     Using radial grid of 1085 points,  4 beta functions with: 
                l(1) =   0
                l(2) =   0
                l(3) =   1
                l(4) =   1
     Q(r) pseudized with 0 coefficients 


     vdW kernel table read from file vdW_kernel_table
     MD5 check sum: 095c7af220d748ca6e76c0b4c6cfb241

     atomic species   valence    mass     pseudopotential
        Ti1           12.00    47.88000     Ti( 1.00)
        O1             6.00    15.99940      O( 1.00)
        N1             5.00    14.00670      N( 1.00)

     Starting magnetic structure 
     atomic species   magnetization
        Ti1          0.250
        O1           0.500
        N1           0.600

     No symmetry found



   Cartesian axes

     site n.     atom                  positions (alat units)
         1           Ti1 tau(   1) = (   1.6476770   0.7437786   2.6545865  )
         2           O1  tau(   2) = (   1.6476770   2.2313359   3.9361215  )
         3           Ti1 tau(   3) = (   1.6476770   2.2313359   5.9499405  )
         4           O1  tau(   4) = (   0.3661420   0.7437786   5.9499405  )
         5           Ti1 tau(   5) = (   1.5280591   0.7315068   9.1973351  )
         6           O1  tau(   6) = (   1.6613943   2.1836906  10.6091769  )
         7           Ti1 tau(   7) = (   1.6665780   2.2096385  12.4157880  )
         8           O1  tau(   8) = (   0.4439715   0.7264440  12.7601561  )
         9           Ti1 tau(   9) = (   1.6476770   3.7188931   2.6545865  )
        10           O1  tau(  10) = (   1.6476770   5.2064503   3.9361215  )
        11           Ti1 tau(  11) = (   1.6476770   5.2064503   5.9499405  )
        12           O1  tau(  12) = (   0.3661420   3.7188931   5.9499405  )
        13           Ti1 tau(  13) = (   1.5319291   3.7072436   9.2118370  )
        14           O1  tau(  14) = (   1.6575607   5.2126413  10.6087893  )
        15           Ti1 tau(  15) = (   1.6606453   5.1916961  12.4165775  )
        16           O1  tau(  16) = (   0.4123725   3.7022030  12.5882193  )
        17           O1  tau(  17) = (   1.6476770   2.2313359   1.3730516  )
        18           Ti1 tau(  18) = (   4.9430310   2.2313359   2.6545865  )
        19           O1  tau(  19) = (   4.9430310   2.2313359   4.6684056  )
        20           O1  tau(  20) = (   6.2245660   0.7437786   2.6545865  )
        21           O1  tau(  21) = (   3.6614961   0.7437786   2.6545865  )
        22           Ti1 tau(  22) = (   4.9430310   0.7437786   5.9499405  )
        23           O1  tau(  23) = (   1.6517842   2.2287041   8.0298356  )
        24           O1  tau(  24) = (   4.9430310   2.2313359   7.2314755  )
        25           O1  tau(  25) = (   2.9292120   0.7437786   5.9499405  )
        26           Ti1 tau(  26) = (   4.8605205   2.2076595   9.4238065  )
        27           O1  tau(  27) = (   4.9553550   2.1639423  11.2756624  )
        28           O1  tau(  28) = (   6.2690671   0.7288246   9.2688367  )
        29           O1  tau(  29) = (   3.6660957   0.7249325   9.2867299  )
        30           Ti1 tau(  30) = (   4.9284588   0.7282168  12.7798302  )
        31           O1  tau(  31) = (   4.9953437   2.2216212  13.8477397  )
        32           O1  tau(  32) = (   2.9112183   0.7266397  12.7651274  )
        33           O1  tau(  33) = (   1.6476770   5.2064503   1.3730516  )
        34           Ti1 tau(  34) = (   4.9430310   5.2064503   2.6545865  )
        35           O1  tau(  35) = (   4.9430310   5.2064503   4.6684056  )
        36           O1  tau(  36) = (   6.2245660   3.7188931   2.6545865  )
        37           O1  tau(  37) = (   3.6614961   3.7188931   2.6545865  )
        38           Ti1 tau(  38) = (   4.9430310   3.7188931   5.9499405  )
        39           O1  tau(  39) = (   1.6524867   5.1852222   8.0294571  )
        40           O1  tau(  40) = (   4.9430310   5.2064503   7.2314755  )
        41           O1  tau(  41) = (   2.9292120   3.7188931   5.9499405  )
        42           Ti1 tau(  42) = (   4.8610151   5.1886528   9.4241876  )
        43           O1  tau(  43) = (   4.9550983   5.2107439  11.2753448  )
        44           O1  tau(  44) = (   6.2713562   3.7024388   9.3047907  )
        45           O1  tau(  45) = (   3.6650622   3.7005085   9.3135888  )
        46           Ti1 tau(  46) = (   5.0160509   3.7038162  12.7585864  )
        47           O1  tau(  47) = (   4.9984032   5.1727849  13.8485277  )
        48           O1  tau(  48) = (   2.9655234   3.7049164  12.5317472  )
        49           O1  tau(  49) = (   2.2548149   3.7063572  14.5693114  )
        50           N1  tau(  50) = (   2.4020298   3.6667063  16.9651815  )
        51           N1  tau(  51) = (   2.1425646   3.7219273  15.8611024  )

     number of k points=    40  Fermi-Dirac smearing, width (Ry)=  0.0073
                       cart. coord. in units 2pi/alat
        k(    1) = (   0.0000000   0.0000000   0.0000000), wk =   0.0277778
        k(    2) = (   0.0000000   0.0280101   0.0000000), wk =   0.0555556
        k(    3) = (   0.0000000   0.0560203   0.0000000), wk =   0.0555556
        k(    4) = (   0.0000000  -0.0840304   0.0000000), wk =   0.0277778
        k(    5) = (   0.0252881   0.0000000   0.0000000), wk =   0.0555556
        k(    6) = (   0.0252881   0.0280101   0.0000000), wk =   0.0555556
        k(    7) = (   0.0252881   0.0560203   0.0000000), wk =   0.0555556
        k(    8) = (   0.0252881  -0.0840304   0.0000000), wk =   0.0555556
        k(    9) = (   0.0505763   0.0000000   0.0000000), wk =   0.0555556
        k(   10) = (   0.0505763   0.0280101   0.0000000), wk =   0.0555556
        k(   11) = (   0.0505763   0.0560203   0.0000000), wk =   0.0555556
        k(   12) = (   0.0505763  -0.0840304   0.0000000), wk =   0.0555556
        k(   13) = (  -0.0758644   0.0000000   0.0000000), wk =   0.0277778
        k(   14) = (  -0.0758644   0.0280101   0.0000000), wk =   0.0555556
        k(   15) = (  -0.0758644   0.0560203   0.0000000), wk =   0.0555556
        k(   16) = (  -0.0758644  -0.0840304   0.0000000), wk =   0.0277778
        k(   17) = (  -0.0252881   0.0280101   0.0000000), wk =   0.0555556
        k(   18) = (  -0.0252881   0.0560203   0.0000000), wk =   0.0555556
        k(   19) = (  -0.0505763   0.0280101   0.0000000), wk =   0.0555556
        k(   20) = (  -0.0505763   0.0560203   0.0000000), wk =   0.0555556
        k(   21) = (   0.0000000   0.0000000   0.0000000), wk =   0.0277778
        k(   22) = (   0.0000000   0.0280101   0.0000000), wk =   0.0555556
        k(   23) = (   0.0000000   0.0560203   0.0000000), wk =   0.0555556
        k(   24) = (   0.0000000  -0.0840304   0.0000000), wk =   0.0277778
        k(   25) = (   0.0252881   0.0000000   0.0000000), wk =   0.0555556
        k(   26) = (   0.0252881   0.0280101   0.0000000), wk =   0.0555556
        k(   27) = (   0.0252881   0.0560203   0.0000000), wk =   0.0555556
        k(   28) = (   0.0252881  -0.0840304   0.0000000), wk =   0.0555556
        k(   29) = (   0.0505763   0.0000000   0.0000000), wk =   0.0555556
        k(   30) = (   0.0505763   0.0280101   0.0000000), wk =   0.0555556
        k(   31) = (   0.0505763   0.0560203   0.0000000), wk =   0.0555556
        k(   32) = (   0.0505763  -0.0840304   0.0000000), wk =   0.0555556
        k(   33) = (  -0.0758644   0.0000000   0.0000000), wk =   0.0277778
        k(   34) = (  -0.0758644   0.0280101   0.0000000), wk =   0.0555556
        k(   35) = (  -0.0758644   0.0560203   0.0000000), wk =   0.0555556
        k(   36) = (  -0.0758644  -0.0840304   0.0000000), wk =   0.0277778
        k(   37) = (  -0.0252881   0.0280101   0.0000000), wk =   0.0555556
        k(   38) = (  -0.0252881   0.0560203   0.0000000), wk =   0.0555556
        k(   39) = (  -0.0505763   0.0280101   0.0000000), wk =   0.0555556
        k(   40) = (  -0.0505763   0.0560203   0.0000000), wk =   0.0555556

     Dense  grid:  1096637 G-vectors     FFT dimensions: (  80,  72, 375)

     Smooth grid:   277353 G-vectors     FFT dimensions: (  54,  45, 240)

     Largest allocated arrays     est. size (Mb)     dimensions
        Kohn-Sham Wavefunctions         9.98 Mb     (    2180,  300)
        NL pseudopotentials            18.89 Mb     (    2180,  568)
        Each V/rho on FFT grid          4.22 Mb     (  138240,   2)
        Each G-vector array             0.52 Mb     (   68538)
        G-vector shells                 0.25 Mb     (   33046)
     Largest temporary arrays     est. size (Mb)     dimensions
        Auxiliary wavefunctions        39.92 Mb     (    2180, 1200)
        Each subspace H/S matrix       21.97 Mb     (    1200, 1200)
        Each <psi_i|beta_j> matrix      2.60 Mb     (     568,  300)
        Arrays for rho mixing          21.09 Mb     (  138240,   10)

     Check: negative/imaginary core charge=   -0.000049    0.000000

     The initial density is read from file :
     ./calc.save/charge-density.dat


     negative rho (up, down):  1.158E-02 1.158E-02


     ************************************************************************
     *
     * You are using vdW-DF for exchange-correlation in this calculation.
     * Please cite the following three references that made this development
     * possible:
     *
     *   M. Dion, H. Rydberg, E. Schroder, D. C. Langreth, and
     *   B. I. Lundqvist, Phys. Rev. Lett. 92, 246401 (2004).
     *
     *   T. Thonhauser, V. R. Cooper, S. Li, A. Puzder, P. Hyldgaard, and
     *   D. C. Langreth, Phys. Rev. B 76, 125112 (2007).
     *
     *   G. Roman-Perez and J. M. Soler, Phys. Rev. Lett. 103, 096102 (2009).
     *
     *
     * If you are using vdW-DF2, please also cite:
     *
     *   K. Lee, E. D. Murray, L. Kong, B. I. Lundqvist, and
     *   D. C. Langreth, Phys. Rev. B 82, 081101(R) (2010).
     *
     *
     * If you are calculating the stress with vdW-DF, please also cite:
     *
     *   R. Sabatini, E. Kucukbenli, B. Kolb, T. Thonhauser, and
     *   S. de Gironcoli, J. Phys.: Condens. Matter 24, 424209 (2012).
     *
     ************************************************************************

     Carrying out vdW-DF run using the following parameters:

     Nqs =      20    Nr_points =    1024   r_max =   100.000
     q_mesh =
               0.00001000     0.04494208     0.09755937     0.15916263
               0.23128650     0.31572767     0.41458969     0.53033537
               0.66584808     0.82450364     1.01025438     1.22772762
               1.48234092     1.78043706     2.12944203     2.53805004
               3.01644009     3.57652955     4.23227104     5.00000000

     Gradients computed in reciprocal space

     ************************************************************************


     Starting wfc are  300 randomized atomic wfcs

     total cpu time spent up to now is       71.0 secs

     Self-consistent Calculation

     iteration #  1     ecut=    40.42 Ry     beta=0.10
     Davidson diagonalization with overlap
     ethr =  1.00E-05,  avg # of iterations = 14.9

     negative rho (up, down):  1.158E-02 1.158E-02
 
     Magnetic moment per site:
     atom:    1    charge:    3.1250    magn:   -0.0002    constr:    0.0000
     atom:    2    charge:    2.0894    magn:    0.0001    constr:    0.0000
     atom:    3    charge:    3.1196    magn:   -0.0001    constr:    0.0000
     atom:    4    charge:    2.0870    magn:    0.0000    constr:    0.0000
     atom:    5    charge:    3.1170    magn:   -0.0001    constr:    0.0000
     atom:    6    charge:    2.0917    magn:    0.0001    constr:    0.0000
     atom:    7    charge:    3.1182    magn:   -0.0000    constr:    0.0000
     atom:    8    charge:    2.0816    magn:    0.0001    constr:    0.0000
     atom:    9    charge:    3.1250    magn:   -0.0002    constr:    0.0000
     atom:   10    charge:    2.0894    magn:    0.0001    constr:    0.0000
     atom:   11    charge:    3.1196    magn:   -0.0001    constr:    0.0000
     atom:   12    charge:    2.0870    magn:    0.0000    constr:    0.0000
     atom:   13    charge:    3.1148    magn:   -0.0001    constr:    0.0000
     atom:   14    charge:    2.0911    magn:    0.0001    constr:    0.0000
     atom:   15    charge:    3.1196    magn:   -0.0000    constr:    0.0000
     atom:   16    charge:    2.0883    magn:    0.0001    constr:    0.0000
     atom:   17    charge:    2.0624    magn:    0.0004    constr:    0.0000
     atom:   18    charge:    3.1239    magn:   -0.0000    constr:    0.0000
     atom:   19    charge:    2.0878    magn:   -0.0000    constr:    0.0000
     atom:   20    charge:    2.0847    magn:   -0.0001    constr:    0.0000
     atom:   21    charge:    2.0847    magn:   -0.0001    constr:    0.0000
     atom:   22    charge:    3.1197    magn:   -0.0000    constr:    0.0000
     atom:   23    charge:    2.0908    magn:    0.0001    constr:    0.0000
     atom:   24    charge:    2.0777    magn:    0.0001    constr:    0.0000
     atom:   25    charge:    2.0869    magn:    0.0000    constr:    0.0000
     atom:   26    charge:    3.1165    magn:   -0.0001    constr:    0.0000
     atom:   27    charge:    2.0823    magn:    0.0002    constr:    0.0000
     atom:   28    charge:    2.0879    magn:    0.0001    constr:    0.0000
     atom:   29    charge:    2.0877    magn:    0.0001    constr:    0.0000
     atom:   30    charge:    3.1168    magn:   -0.0001    constr:    0.0000
     atom:   31    charge:    2.0813    magn:    0.0003    constr:    0.0000
     atom:   32    charge:    2.0843    magn:    0.0001    constr:    0.0000
     atom:   33    charge:    2.0624    magn:    0.0004    constr:    0.0000
     atom:   34    charge:    3.1239    magn:   -0.0000    constr:    0.0000
     atom:   35    charge:    2.0878    magn:   -0.0000    constr:    0.0000
     atom:   36    charge:    2.0847    magn:   -0.0001    constr:    0.0000
     atom:   37    charge:    2.0847    magn:   -0.0001    constr:    0.0000
     atom:   38    charge:    3.1197    magn:   -0.0000    constr:    0.0000
     atom:   39    charge:    2.0912    magn:    0.0001    constr:    0.0000
     atom:   40    charge:    2.0777    magn:    0.0001    constr:    0.0000
     atom:   41    charge:    2.0869    magn:    0.0000    constr:    0.0000
     atom:   42    charge:    3.1181    magn:   -0.0001    constr:    0.0000
     atom:   43    charge:    2.0838    magn:    0.0002    constr:    0.0000
     atom:   44    charge:    2.0865    magn:    0.0001    constr:    0.0000
     atom:   45    charge:    2.0871    magn:    0.0001    constr:    0.0000
     atom:   46    charge:    3.1171    magn:   -0.0001    constr:    0.0000
     atom:   47    charge:    2.0800    magn:    0.0003    constr:    0.0000
     atom:   48    charge:    2.0834    magn:    0.0002    constr:    0.0000
     atom:   49    charge:    2.0520    magn:   -0.0000    constr:    0.0000
     atom:   50    charge:    1.2584    magn:   -0.0000    constr:    0.0000
     atom:   51    charge:    1.2856    magn:    0.0000    constr:    0.0000

     total cpu time spent up to now is      833.3 secs

     total energy              =   -3044.96712385 Ry
     Harris-Foulkes estimate   =   -3044.97250093 Ry
     estimated scf accuracy    <       0.03837712 Ry

     total magnetization       =     0.00 Bohr mag/cell
     absolute magnetization    =     0.01 Bohr mag/cell

     iteration #  2     ecut=    40.42 Ry     beta=0.10
     Davidson diagonalization with overlap
     ethr =  9.59E-06,  avg # of iterations =  2.0

     negative rho (up, down):  1.158E-02 1.158E-02
 
     Magnetic moment per site:
     atom:    1    charge:    3.1250    magn:   -0.0001    constr:    0.0000
     atom:    2    charge:    2.0894    magn:    0.0001    constr:    0.0000
     atom:    3    charge:    3.1196    magn:   -0.0000    constr:    0.0000
     atom:    4    charge:    2.0870    magn:    0.0000    constr:    0.0000
     atom:    5    charge:    3.1170    magn:   -0.0000    constr:    0.0000
     atom:    6    charge:    2.0917    magn:    0.0000    constr:    0.0000
     atom:    7    charge:    3.1182    magn:   -0.0000    constr:    0.0000
     atom:    8    charge:    2.0815    magn:    0.0001    constr:    0.0000
     atom:    9    charge:    3.1250    magn:   -0.0001    constr:    0.0000
     atom:   10    charge:    2.0894    magn:    0.0001    constr:    0.0000
     atom:   11    charge:    3.1196    magn:   -0.0000    constr:    0.0000
     atom:   12    charge:    2.0870    magn:    0.0000    constr:    0.0000
     atom:   13    charge:    3.1148    magn:   -0.0000    constr:    0.0000
     atom:   14    charge:    2.0911    magn:    0.0000    constr:    0.0000
     atom:   15    charge:    3.1196    magn:   -0.0000    constr:    0.0000
     atom:   16    charge:    2.0883    magn:    0.0000    constr:    0.0000
     atom:   17    charge:    2.0624    magn:    0.0003    constr:    0.0000
     atom:   18    charge:    3.1239    magn:   -0.0000    constr:    0.0000
     atom:   19    charge:    2.0878    magn:   -0.0000    constr:    0.0000
     atom:   20    charge:    2.0847    magn:   -0.0000    constr:    0.0000
     atom:   21    charge:    2.0847    magn:   -0.0000    constr:    0.0000
     atom:   22    charge:    3.1197    magn:   -0.0000    constr:    0.0000
     atom:   23    charge:    2.0909    magn:    0.0001    constr:    0.0000
     atom:   24    charge:    2.0777    magn:    0.0000    constr:    0.0000
     atom:   25    charge:    2.0869    magn:    0.0000    constr:    0.0000
     atom:   26    charge:    3.1165    magn:   -0.0001    constr:    0.0000
     atom:   27    charge:    2.0823    magn:    0.0001    constr:    0.0000
     atom:   28    charge:    2.0879    magn:    0.0001    constr:    0.0000
     atom:   29    charge:    2.0878    magn:    0.0001    constr:    0.0000
     atom:   30    charge:    3.1168    magn:   -0.0001    constr:    0.0000
     atom:   31    charge:    2.0810    magn:    0.0002    constr:    0.0000
     atom:   32    charge:    2.0843    magn:    0.0001    constr:    0.0000
     atom:   33    charge:    2.0624    magn:    0.0003    constr:    0.0000
     atom:   34    charge:    3.1239    magn:   -0.0000    constr:    0.0000
     atom:   35    charge:    2.0878    magn:   -0.0000    constr:    0.0000
     atom:   36    charge:    2.0847    magn:   -0.0000    constr:    0.0000
     atom:   37    charge:    2.0847    magn:   -0.0000    constr:    0.0000
     atom:   38    charge:    3.1197    magn:   -0.0000    constr:    0.0000
     atom:   39    charge:    2.0912    magn:    0.0001    constr:    0.0000
     atom:   40    charge:    2.0777    magn:    0.0000    constr:    0.0000
     atom:   41    charge:    2.0869    magn:    0.0000    constr:    0.0000
     atom:   42    charge:    3.1181    magn:   -0.0001    constr:    0.0000
     atom:   43    charge:    2.0838    magn:    0.0001    constr:    0.0000
     atom:   44    charge:    2.0865    magn:    0.0001    constr:    0.0000
     atom:   45    charge:    2.0871    magn:    0.0001    constr:    0.0000
     atom:   46    charge:    3.1171    magn:   -0.0001    constr:    0.0000
     atom:   47    charge:    2.0802    magn:    0.0002    constr:    0.0000
     atom:   48    charge:    2.0833    magn:    0.0001    constr:    0.0000
     atom:   49    charge:    2.0517    magn:   -0.0000    constr:    0.0000
     atom:   50    charge:    1.2572    magn:   -0.0000    constr:    0.0000
     atom:   51    charge:    1.2886    magn:    0.0000    constr:    0.0000

     total cpu time spent up to now is     1023.1 secs

     total energy              =   -3044.95313977 Ry
     Harris-Foulkes estimate   =   -3044.96738350 Ry
     estimated scf accuracy    <       0.02601105 Ry

     total magnetization       =     0.00 Bohr mag/cell
     absolute magnetization    =     0.01 Bohr mag/cell

     iteration #  3     ecut=    40.42 Ry     beta=0.10
     Davidson diagonalization with overlap
     ethr =  6.50E-06,  avg # of iterations =  2.5

     negative rho (up, down):  1.158E-02 1.158E-02
 
     Magnetic moment per site:
     atom:    1    charge:    3.1250    magn:   -0.0001    constr:    0.0000
     atom:    2    charge:    2.0894    magn:    0.0001    constr:    0.0000
     atom:    3    charge:    3.1196    magn:   -0.0000    constr:    0.0000
     atom:    4    charge:    2.0870    magn:    0.0000    constr:    0.0000
     atom:    5    charge:    3.1170    magn:   -0.0000    constr:    0.0000
     atom:    6    charge:    2.0916    magn:    0.0000    constr:    0.0000
     atom:    7    charge:    3.1189    magn:   -0.0000    constr:    0.0000
     atom:    8    charge:    2.0815    magn:    0.0000    constr:    0.0000
     atom:    9    charge:    3.1250    magn:   -0.0001    constr:    0.0000
     atom:   10    charge:    2.0894    magn:    0.0001    constr:    0.0000
     atom:   11    charge:    3.1196    magn:   -0.0000    constr:    0.0000
     atom:   12    charge:    2.0870    magn:    0.0000    constr:    0.0000
     atom:   13    charge:    3.1148    magn:   -0.0000    constr:    0.0000
     atom:   14    charge:    2.0913    magn:    0.0000    constr:    0.0000
     atom:   15    charge:    3.1190    magn:   -0.0000    constr:    0.0000
     atom:   16    charge:    2.0883    magn:    0.0000    constr:    0.0000
     atom:   17    charge:    2.0624    magn:    0.0003    constr:    0.0000
     atom:   18    charge:    3.1239    magn:   -0.0000    constr:    0.0000
     atom:   19    charge:    2.0878    magn:   -0.0000    constr:    0.0000
     atom:   20    charge:    2.0847    magn:   -0.0000    constr:    0.0000
     atom:   21    charge:    2.0847    magn:   -0.0000    constr:    0.0000
     atom:   22    charge:    3.1197    magn:   -0.0000    constr:    0.0000
     atom:   23    charge:    2.0909    magn:    0.0000    constr:    0.0000
     atom:   24    charge:    2.0777    magn:    0.0000    constr:    0.0000
     atom:   25    charge:    2.0869    magn:    0.0000    constr:    0.0000
     atom:   26    charge:    3.1165    magn:   -0.0000    constr:    0.0000
     atom:   27    charge:    2.0825    magn:    0.0001    constr:    0.0000
     atom:   28    charge:    2.0879    magn:    0.0001    constr:    0.0000
     atom:   29    charge:    2.0877    magn:    0.0001    constr:    0.0000
     atom:   30    charge:    3.1168    magn:   -0.0001    constr:    0.0000
     atom:   31    charge:    2.0818    magn:    0.0002    constr:    0.0000
     atom:   32    charge:    2.0842    magn:    0.0000    constr:    0.0000
     atom:   33    charge:    2.0624    magn:    0.0003    constr:    0.0000
     atom:   34    charge:    3.1239    magn:   -0.0000    constr:    0.0000
     atom:   35    charge:    2.0878    magn:   -0.0000    constr:    0.0000
     atom:   36    charge:    2.0847    magn:   -0.0000    constr:    0.0000
     atom:   37    charge:    2.0847    magn:   -0.0000    constr:    0.0000
     atom:   38    charge:    3.1197    magn:   -0.0000    constr:    0.0000
     atom:   39    charge:    2.0912    magn:    0.0000    constr:    0.0000
     atom:   40    charge:    2.0777    magn:    0.0000    constr:    0.0000
     atom:   41    charge:    2.0869    magn:    0.0000    constr:    0.0000
     atom:   42    charge:    3.1181    magn:   -0.0000    constr:    0.0000
     atom:   43    charge:    2.0837    magn:    0.0001    constr:    0.0000
     atom:   44    charge:    2.0865    magn:    0.0001    constr:    0.0000
     atom:   45    charge:    2.0871    magn:    0.0000    constr:    0.0000
     atom:   46    charge:    3.1171    magn:   -0.0001    constr:    0.0000
     atom:   47    charge:    2.0793    magn:    0.0002    constr:    0.0000
     atom:   48    charge:    2.0835    magn:    0.0001    constr:    0.0000
     atom:   49    charge:    2.0515    magn:   -0.0000    constr:    0.0000
     atom:   50    charge:    1.2582    magn:   -0.0000    constr:    0.0000
     atom:   51    charge:    1.2879    magn:    0.0000    constr:    0.0000

     total cpu time spent up to now is     1227.2 secs

     total energy              =   -3044.95623860 Ry
     Harris-Foulkes estimate   =   -3044.95676056 Ry
     estimated scf accuracy    <       0.00150723 Ry

     total magnetization       =     0.00 Bohr mag/cell
     absolute magnetization    =     0.00 Bohr mag/cell

     iteration #  4     ecut=    40.42 Ry     beta=0.10
     Davidson diagonalization with overlap
     ethr =  3.77E-07,  avg # of iterations =  3.6

     negative rho (up, down):  1.158E-02 1.158E-02
 
     Magnetic moment per site:
     atom:    1    charge:    3.1250    magn:   -0.0001    constr:    0.0000
     atom:    2    charge:    2.0894    magn:    0.0001    constr:    0.0000
     atom:    3    charge:    3.1196    magn:   -0.0000    constr:    0.0000
     atom:    4    charge:    2.0870    magn:    0.0000    constr:    0.0000
     atom:    5    charge:    3.1170    magn:   -0.0000    constr:    0.0000
     atom:    6    charge:    2.0917    magn:    0.0000    constr:    0.0000
     atom:    7    charge:    3.1187    magn:   -0.0000    constr:    0.0000
     atom:    8    charge:    2.0816    magn:    0.0000    constr:    0.0000
     atom:    9    charge:    3.1250    magn:   -0.0001    constr:    0.0000
     atom:   10    charge:    2.0894    magn:    0.0001    constr:    0.0000
     atom:   11    charge:    3.1196    magn:   -0.0000    constr:    0.0000
     atom:   12    charge:    2.0870    magn:    0.0000    constr:    0.0000
     atom:   13    charge:    3.1148    magn:   -0.0000    constr:    0.0000
     atom:   14    charge:    2.0911    magn:    0.0000    constr:    0.0000
     atom:   15    charge:    3.1192    magn:   -0.0000    constr:    0.0000
     atom:   16    charge:    2.0883    magn:    0.0000    constr:    0.0000
     atom:   17    charge:    2.0624    magn:    0.0002    constr:    0.0000
     atom:   18    charge:    3.1239    magn:   -0.0000    constr:    0.0000
     atom:   19    charge:    2.0878    magn:   -0.0000    constr:    0.0000
     atom:   20    charge:    2.0847    magn:   -0.0000    constr:    0.0000
     atom:   21    charge:    2.0847    magn:   -0.0000    constr:    0.0000
     atom:   22    charge:    3.1197    magn:   -0.0000    constr:    0.0000
     atom:   23    charge:    2.0909    magn:    0.0000    constr:    0.0000
     atom:   24    charge:    2.0777    magn:    0.0000    constr:    0.0000
     atom:   25    charge:    2.0869    magn:    0.0000    constr:    0.0000
     atom:   26    charge:    3.1165    magn:   -0.0000    constr:    0.0000
     atom:   27    charge:    2.0824    magn:    0.0001    constr:    0.0000
     atom:   28    charge:    2.0879    magn:    0.0001    constr:    0.0000
     atom:   29    charge:    2.0877    magn:    0.0000    constr:    0.0000
     atom:   30    charge:    3.1168    magn:   -0.0001    constr:    0.0000
     atom:   31    charge:    2.0817    magn:    0.0001    constr:    0.0000
     atom:   32    charge:    2.0843    magn:    0.0000    constr:    0.0000
     atom:   33    charge:    2.0624    magn:    0.0002    constr:    0.0000
     atom:   34    charge:    3.1239    magn:   -0.0000    constr:    0.0000
     atom:   35    charge:    2.0878    magn:   -0.0000    constr:    0.0000
     atom:   36    charge:    2.0847    magn:   -0.0000    constr:    0.0000
     atom:   37    charge:    2.0847    magn:   -0.0000    constr:    0.0000
     atom:   38    charge:    3.1197    magn:   -0.0000    constr:    0.0000
     atom:   39    charge:    2.0912    magn:    0.0000    constr:    0.0000
     atom:   40    charge:    2.0777    magn:    0.0000    constr:    0.0000
     atom:   41    charge:    2.0869    magn:    0.0000    constr:    0.0000
     atom:   42    charge:    3.1181    magn:   -0.0000    constr:    0.0000
     atom:   43    charge:    2.0838    magn:    0.0001    constr:    0.0000
     atom:   44    charge:    2.0865    magn:    0.0001    constr:    0.0000
     atom:   45    charge:    2.0871    magn:    0.0000    constr:    0.0000
     atom:   46    charge:    3.1171    magn:   -0.0001    constr:    0.0000
     atom:   47    charge:    2.0794    magn:    0.0001    constr:    0.0000
     atom:   48    charge:    2.0836    magn:    0.0001    constr:    0.0000
     atom:   49    charge:    2.0520    magn:   -0.0000    constr:    0.0000
     atom:   50    charge:    1.2584    magn:   -0.0000    constr:    0.0000
     atom:   51    charge:    1.2875    magn:    0.0000    constr:    0.0000

     total cpu time spent up to now is     1441.6 secs

     total energy              =   -3044.95631380 Ry
     Harris-Foulkes estimate   =   -3044.95639068 Ry
     estimated scf accuracy    <       0.00028954 Ry

     total magnetization       =     0.00 Bohr mag/cell
     absolute magnetization    =     0.00 Bohr mag/cell

     iteration #  5     ecut=    40.42 Ry     beta=0.10
     Davidson diagonalization with overlap
     ethr =  7.24E-08,  avg # of iterations =  2.0

     negative rho (up, down):  1.158E-02 1.158E-02
 
     Magnetic moment per site:
     atom:    1    charge:    3.1250    magn:   -0.0001    constr:    0.0000
     atom:    2    charge:    2.0894    magn:    0.0000    constr:    0.0000
     atom:    3    charge:    3.1196    magn:   -0.0000    constr:    0.0000
     atom:    4    charge:    2.0870    magn:    0.0000    constr:    0.0000
     atom:    5    charge:    3.1170    magn:   -0.0000    constr:    0.0000
     atom:    6    charge:    2.0917    magn:    0.0000    constr:    0.0000
     atom:    7    charge:    3.1185    magn:   -0.0000    constr:    0.0000
     atom:    8    charge:    2.0816    magn:    0.0000    constr:    0.0000
     atom:    9    charge:    3.1250    magn:   -0.0001    constr:    0.0000
     atom:   10    charge:    2.0894    magn:    0.0000    constr:    0.0000
     atom:   11    charge:    3.1196    magn:   -0.0000    constr:    0.0000
     atom:   12    charge:    2.0870    magn:    0.0000    constr:    0.0000
     atom:   13    charge:    3.1148    magn:   -0.0000    constr:    0.0000
     atom:   14    charge:    2.0911    magn:    0.0000    constr:    0.0000
     atom:   15    charge:    3.1194    magn:   -0.0000    constr:    0.0000
     atom:   16    charge:    2.0883    magn:    0.0000    constr:    0.0000
     atom:   17    charge:    2.0624    magn:    0.0002    constr:    0.0000
     atom:   18    charge:    3.1239    magn:   -0.0000    constr:    0.0000
     atom:   19    charge:    2.0878    magn:   -0.0000    constr:    0.0000
     atom:   20    charge:    2.0847    magn:   -0.0000    constr:    0.0000
     atom:   21    charge:    2.0847    magn:   -0.0000    constr:    0.0000
     atom:   22    charge:    3.1197    magn:   -0.0000    constr:    0.0000
     atom:   23    charge:    2.0909    magn:    0.0000    constr:    0.0000
     atom:   24    charge:    2.0777    magn:    0.0000    constr:    0.0000
     atom:   25    charge:    2.0869    magn:    0.0000    constr:    0.0000
     atom:   26    charge:    3.1165    magn:   -0.0000    constr:    0.0000
     atom:   27    charge:    2.0823    magn:    0.0001    constr:    0.0000
     atom:   28    charge:    2.0879    magn:    0.0000    constr:    0.0000
     atom:   29    charge:    2.0877    magn:    0.0000    constr:    0.0000
     atom:   30    charge:    3.1168    magn:   -0.0001    constr:    0.0000
     atom:   31    charge:    2.0816    magn:    0.0001    constr:    0.0000
     atom:   32    charge:    2.0843    magn:    0.0000    constr:    0.0000
     atom:   33    charge:    2.0624    magn:    0.0002    constr:    0.0000
     atom:   34    charge:    3.1239    magn:   -0.0000    constr:    0.0000
     atom:   35    charge:    2.0878    magn:   -0.0000    constr:    0.0000
     atom:   36    charge:    2.0847    magn:   -0.0000    constr:    0.0000
     atom:   37    charge:    2.0847    magn:   -0.0000    constr:    0.0000
     atom:   38    charge:    3.1197    magn:   -0.0000    constr:    0.0000
     atom:   39    charge:    2.0912    magn:    0.0000    constr:    0.0000
     atom:   40    charge:    2.0777    magn:    0.0000    constr:    0.0000
     atom:   41    charge:    2.0869    magn:    0.0000    constr:    0.0000
     atom:   42    charge:    3.1181    magn:   -0.0000    constr:    0.0000
     atom:   43    charge:    2.0838    magn:    0.0001    constr:    0.0000
     atom:   44    charge:    2.0865    magn:    0.0000    constr:    0.0000
     atom:   45    charge:    2.0871    magn:    0.0000    constr:    0.0000
     atom:   46    charge:    3.1171    magn:   -0.0001    constr:    0.0000
     atom:   47    charge:    2.0796    magn:    0.0001    constr:    0.0000
     atom:   48    charge:    2.0835    magn:    0.0001    constr:    0.0000
     atom:   49    charge:    2.0522    magn:    0.0000    constr:    0.0000
     atom:   50    charge:    1.2586    magn:   -0.0000    constr:    0.0000
     atom:   51    charge:    1.2875    magn:    0.0000    constr:    0.0000

     total cpu time spent up to now is     1634.3 secs

     total energy              =   -3044.95629187 Ry
     Harris-Foulkes estimate   =   -3044.95632575 Ry
     estimated scf accuracy    <       0.00009799 Ry

     total magnetization       =     0.00 Bohr mag/cell
     absolute magnetization    =     0.00 Bohr mag/cell

     iteration #  6     ecut=    40.42 Ry     beta=0.10
     Davidson diagonalization with overlap
     ethr =  2.45E-08,  avg # of iterations =  3.0

     negative rho (up, down):  1.158E-02 1.158E-02
 
     Magnetic moment per site:
     atom:    1    charge:    3.1250    magn:   -0.0001    constr:    0.0000
     atom:    2    charge:    2.0894    magn:    0.0000    constr:    0.0000
     atom:    3    charge:    3.1196    magn:   -0.0000    constr:    0.0000
     atom:    4    charge:    2.0870    magn:    0.0000    constr:    0.0000
     atom:    5    charge:    3.1170    magn:   -0.0000    constr:    0.0000
     atom:    6    charge:    2.0917    magn:    0.0000    constr:    0.0000
     atom:    7    charge:    3.1184    magn:   -0.0000    constr:    0.0000
     atom:    8    charge:    2.0816    magn:    0.0000    constr:    0.0000
     atom:    9    charge:    3.1250    magn:   -0.0001    constr:    0.0000
     atom:   10    charge:    2.0894    magn:    0.0000    constr:    0.0000
     atom:   11    charge:    3.1196    magn:   -0.0000    constr:    0.0000
     atom:   12    charge:    2.0870    magn:    0.0000    constr:    0.0000
     atom:   13    charge:    3.1148    magn:   -0.0000    constr:    0.0000
     atom:   14    charge:    2.0911    magn:    0.0000    constr:    0.0000
     atom:   15    charge:    3.1194    magn:   -0.0000    constr:    0.0000
     atom:   16    charge:    2.0883    magn:    0.0000    constr:    0.0000
     atom:   17    charge:    2.0624    magn:    0.0001    constr:    0.0000
     atom:   18    charge:    3.1239    magn:   -0.0000    constr:    0.0000
     atom:   19    charge:    2.0878    magn:   -0.0000    constr:    0.0000
     atom:   20    charge:    2.0847    magn:   -0.0000    constr:    0.0000
     atom:   21    charge:    2.0847    magn:   -0.0000    constr:    0.0000
     atom:   22    charge:    3.1197    magn:   -0.0000    constr:    0.0000
     atom:   23    charge:    2.0909    magn:    0.0000    constr:    0.0000
     atom:   24    charge:    2.0777    magn:    0.0000    constr:    0.0000
     atom:   25    charge:    2.0869    magn:    0.0000    constr:    0.0000
     atom:   26    charge:    3.1165    magn:   -0.0000    constr:    0.0000
     atom:   27    charge:    2.0823    magn:    0.0001    constr:    0.0000
     atom:   28    charge:    2.0879    magn:    0.0000    constr:    0.0000
     atom:   29    charge:    2.0877    magn:    0.0000    constr:    0.0000
     atom:   30    charge:    3.1168    magn:   -0.0000    constr:    0.0000
     atom:   31    charge:    2.0815    magn:    0.0001    constr:    0.0000
     atom:   32    charge:    2.0843    magn:    0.0000    constr:    0.0000
     atom:   33    charge:    2.0624    magn:    0.0001    constr:    0.0000
     atom:   34    charge:    3.1239    magn:   -0.0000    constr:    0.0000
     atom:   35    charge:    2.0878    magn:   -0.0000    constr:    0.0000
     atom:   36    charge:    2.0847    magn:   -0.0000    constr:    0.0000
     atom:   37    charge:    2.0847    magn:   -0.0000    constr:    0.0000
     atom:   38    charge:    3.1197    magn:   -0.0000    constr:    0.0000
     atom:   39    charge:    2.0912    magn:    0.0000    constr:    0.0000
     atom:   40    charge:    2.0777    magn:    0.0000    constr:    0.0000
     atom:   41    charge:    2.0869    magn:    0.0000    constr:    0.0000
     atom:   42    charge:    3.1181    magn:   -0.0000    constr:    0.0000
     atom:   43    charge:    2.0838    magn:    0.0001    constr:    0.0000
     atom:   44    charge:    2.0865    magn:    0.0000    constr:    0.0000
     atom:   45    charge:    2.0871    magn:    0.0000    constr:    0.0000
     atom:   46    charge:    3.1171    magn:   -0.0000    constr:    0.0000
     atom:   47    charge:    2.0797    magn:    0.0001    constr:    0.0000
     atom:   48    charge:    2.0835    magn:    0.0000    constr:    0.0000
     atom:   49    charge:    2.0520    magn:    0.0000    constr:    0.0000
     atom:   50    charge:    1.2585    magn:   -0.0000    constr:    0.0000
     atom:   51    charge:    1.2878    magn:    0.0000    constr:    0.0000

     total cpu time spent up to now is     1842.0 secs

     total energy              =   -3044.95629580 Ry
     Harris-Foulkes estimate   =   -3044.95630015 Ry
     estimated scf accuracy    <       0.00001974 Ry

     total magnetization       =     0.00 Bohr mag/cell
     absolute magnetization    =     0.00 Bohr mag/cell

     iteration #  7     ecut=    40.42 Ry     beta=0.10
     Davidson diagonalization with overlap
     ethr =  4.94E-09,  avg # of iterations =  2.0

     negative rho (up, down):  1.158E-02 1.158E-02
 
     Magnetic moment per site:
     atom:    1    charge:    3.1250    magn:   -0.0000    constr:    0.0000
     atom:    2    charge:    2.0894    magn:    0.0000    constr:    0.0000
     atom:    3    charge:    3.1196    magn:   -0.0000    constr:    0.0000
     atom:    4    charge:    2.0870    magn:    0.0000    constr:    0.0000
     atom:    5    charge:    3.1170    magn:   -0.0000    constr:    0.0000
     atom:    6    charge:    2.0917    magn:    0.0000    constr:    0.0000
     atom:    7    charge:    3.1185    magn:   -0.0000    constr:    0.0000
     atom:    8    charge:    2.0816    magn:    0.0000    constr:    0.0000
     atom:    9    charge:    3.1250    magn:   -0.0000    constr:    0.0000
     atom:   10    charge:    2.0894    magn:    0.0000    constr:    0.0000
     atom:   11    charge:    3.1196    magn:   -0.0000    constr:    0.0000
     atom:   12    charge:    2.0870    magn:    0.0000    constr:    0.0000
     atom:   13    charge:    3.1148    magn:   -0.0000    constr:    0.0000
     atom:   14    charge:    2.0911    magn:    0.0000    constr:    0.0000
     atom:   15    charge:    3.1194    magn:   -0.0000    constr:    0.0000
     atom:   16    charge:    2.0883    magn:    0.0000    constr:    0.0000
     atom:   17    charge:    2.0624    magn:    0.0001    constr:    0.0000
     atom:   18    charge:    3.1239    magn:   -0.0000    constr:    0.0000
     atom:   19    charge:    2.0878    magn:   -0.0000    constr:    0.0000
     atom:   20    charge:    2.0847    magn:   -0.0000    constr:    0.0000
     atom:   21    charge:    2.0847    magn:   -0.0000    constr:    0.0000
     atom:   22    charge:    3.1197    magn:   -0.0000    constr:    0.0000
     atom:   23    charge:    2.0909    magn:    0.0000    constr:    0.0000
     atom:   24    charge:    2.0777    magn:    0.0000    constr:    0.0000
     atom:   25    charge:    2.0869    magn:    0.0000    constr:    0.0000
     atom:   26    charge:    3.1165    magn:   -0.0000    constr:    0.0000
     atom:   27    charge:    2.0824    magn:    0.0000    constr:    0.0000
     atom:   28    charge:    2.0879    magn:    0.0000    constr:    0.0000
     atom:   29    charge:    2.0877    magn:    0.0000    constr:    0.0000
     atom:   30    charge:    3.1168    magn:   -0.0000    constr:    0.0000
     atom:   31    charge:    2.0815    magn:    0.0001    constr:    0.0000
     atom:   32    charge:    2.0843    magn:    0.0000    constr:    0.0000
     atom:   33    charge:    2.0624    magn:    0.0001    constr:    0.0000
     atom:   34    charge:    3.1239    magn:   -0.0000    constr:    0.0000
     atom:   35    charge:    2.0878    magn:   -0.0000    constr:    0.0000
     atom:   36    charge:    2.0847    magn:   -0.0000    constr:    0.0000
     atom:   37    charge:    2.0847    magn:   -0.0000    constr:    0.0000
     atom:   38    charge:    3.1197    magn:   -0.0000    constr:    0.0000
     atom:   39    charge:    2.0912    magn:    0.0000    constr:    0.0000
     atom:   40    charge:    2.0777    magn:    0.0000    constr:    0.0000
     atom:   41    charge:    2.0869    magn:    0.0000    constr:    0.0000
     atom:   42    charge:    3.1181    magn:   -0.0000    constr:    0.0000
     atom:   43    charge:    2.0838    magn:    0.0000    constr:    0.0000
     atom:   44    charge:    2.0865    magn:    0.0000    constr:    0.0000
     atom:   45    charge:    2.0871    magn:    0.0000    constr:    0.0000
     atom:   46    charge:    3.1171    magn:   -0.0000    constr:    0.0000
     atom:   47    charge:    2.0797    magn:    0.0001    constr:    0.0000
     atom:   48    charge:    2.0835    magn:    0.0000    constr:    0.0000
     atom:   49    charge:    2.0519    magn:    0.0000    constr:    0.0000
     atom:   50    charge:    1.2585    magn:   -0.0000    constr:    0.0000
     atom:   51    charge:    1.2879    magn:    0.0000    constr:    0.0000

     total cpu time spent up to now is     2034.1 secs

     total energy              =   -3044.95629715 Ry
     Harris-Foulkes estimate   =   -3044.95629733 Ry
     estimated scf accuracy    <       0.00000353 Ry

     total magnetization       =     0.00 Bohr mag/cell
     absolute magnetization    =     0.00 Bohr mag/cell

     iteration #  8     ecut=    40.42 Ry     beta=0.10
     Davidson diagonalization with overlap
     ethr =  8.83E-10,  avg # of iterations =  3.0

     negative rho (up, down):  1.158E-02 1.158E-02
 
     Magnetic moment per site:
     atom:    1    charge:    3.1250    magn:   -0.0000    constr:    0.0000
     atom:    2    charge:    2.0894    magn:    0.0000    constr:    0.0000
     atom:    3    charge:    3.1196    magn:   -0.0000    constr:    0.0000
     atom:    4    charge:    2.0870    magn:    0.0000    constr:    0.0000
     atom:    5    charge:    3.1170    magn:   -0.0000    constr:    0.0000
     atom:    6    charge:    2.0917    magn:    0.0000    constr:    0.0000
     atom:    7    charge:    3.1185    magn:   -0.0000    constr:    0.0000
     atom:    8    charge:    2.0815    magn:    0.0000    constr:    0.0000
     atom:    9    charge:    3.1250    magn:   -0.0000    constr:    0.0000
     atom:   10    charge:    2.0894    magn:    0.0000    constr:    0.0000
     atom:   11    charge:    3.1196    magn:   -0.0000    constr:    0.0000
     atom:   12    charge:    2.0870    magn:    0.0000    constr:    0.0000
     atom:   13    charge:    3.1148    magn:   -0.0000    constr:    0.0000
     atom:   14    charge:    2.0911    magn:    0.0000    constr:    0.0000
     atom:   15    charge:    3.1194    magn:   -0.0000    constr:    0.0000
     atom:   16    charge:    2.0883    magn:    0.0000    constr:    0.0000
     atom:   17    charge:    2.0624    magn:    0.0001    constr:    0.0000
     atom:   18    charge:    3.1239    magn:   -0.0000    constr:    0.0000
     atom:   19    charge:    2.0878    magn:   -0.0000    constr:    0.0000
     atom:   20    charge:    2.0847    magn:   -0.0000    constr:    0.0000
     atom:   21    charge:    2.0847    magn:   -0.0000    constr:    0.0000
     atom:   22    charge:    3.1197    magn:   -0.0000    constr:    0.0000
     atom:   23    charge:    2.0909    magn:    0.0000    constr:    0.0000
     atom:   24    charge:    2.0777    magn:    0.0000    constr:    0.0000
     atom:   25    charge:    2.0869    magn:    0.0000    constr:    0.0000
     atom:   26    charge:    3.1165    magn:   -0.0000    constr:    0.0000
     atom:   27    charge:    2.0824    magn:    0.0000    constr:    0.0000
     atom:   28    charge:    2.0879    magn:    0.0000    constr:    0.0000
     atom:   29    charge:    2.0877    magn:    0.0000    constr:    0.0000
     atom:   30    charge:    3.1168    magn:   -0.0000    constr:    0.0000
     atom:   31    charge:    2.0815    magn:    0.0001    constr:    0.0000
     atom:   32    charge:    2.0843    magn:    0.0000    constr:    0.0000
     atom:   33    charge:    2.0624    magn:    0.0001    constr:    0.0000
     atom:   34    charge:    3.1239    magn:   -0.0000    constr:    0.0000
     atom:   35    charge:    2.0878    magn:   -0.0000    constr:    0.0000
     atom:   36    charge:    2.0847    magn:   -0.0000    constr:    0.0000
     atom:   37    charge:    2.0847    magn:   -0.0000    constr:    0.0000
     atom:   38    charge:    3.1197    magn:   -0.0000    constr:    0.0000
     atom:   39    charge:    2.0912    magn:    0.0000    constr:    0.0000
     atom:   40    charge:    2.0777    magn:    0.0000    constr:    0.0000
     atom:   41    charge:    2.0869    magn:    0.0000    constr:    0.0000
     atom:   42    charge:    3.1181    magn:   -0.0000    constr:    0.0000
     atom:   43    charge:    2.0838    magn:    0.0000    constr:    0.0000
     atom:   44    charge:    2.0865    magn:    0.0000    constr:    0.0000
     atom:   45    charge:    2.0871    magn:    0.0000    constr:    0.0000
     atom:   46    charge:    3.1171    magn:   -0.0000    constr:    0.0000
     atom:   47    charge:    2.0797    magn:    0.0001    constr:    0.0000
     atom:   48    charge:    2.0835    magn:    0.0000    constr:    0.0000
     atom:   49    charge:    2.0519    magn:    0.0000    constr:    0.0000
     atom:   50    charge:    1.2584    magn:   -0.0000    constr:    0.0000
     atom:   51    charge:    1.2879    magn:    0.0000    constr:    0.0000

     total cpu time spent up to now is     2240.1 secs

     total energy              =   -3044.95629740 Ry
     Harris-Foulkes estimate   =   -3044.95629738 Ry
     estimated scf accuracy    <       0.00000128 Ry

     total magnetization       =     0.00 Bohr mag/cell
     absolute magnetization    =     0.00 Bohr mag/cell

     iteration #  9     ecut=    40.42 Ry     beta=0.10
     Davidson diagonalization with overlap
     ethr =  3.19E-10,  avg # of iterations =  2.0

     negative rho (up, down):  1.158E-02 1.158E-02
 
     Magnetic moment per site:
     atom:    1    charge:    3.1250    magn:   -0.0000    constr:    0.0000
     atom:    2    charge:    2.0894    magn:    0.0000    constr:    0.0000
     atom:    3    charge:    3.1196    magn:   -0.0000    constr:    0.0000
     atom:    4    charge:    2.0870    magn:    0.0000    constr:    0.0000
     atom:    5    charge:    3.1170    magn:   -0.0000    constr:    0.0000
     atom:    6    charge:    2.0917    magn:    0.0000    constr:    0.0000
     atom:    7    charge:    3.1185    magn:   -0.0000    constr:    0.0000
     atom:    8    charge:    2.0816    magn:    0.0000    constr:    0.0000
     atom:    9    charge:    3.1250    magn:   -0.0000    constr:    0.0000
     atom:   10    charge:    2.0894    magn:    0.0000    constr:    0.0000
     atom:   11    charge:    3.1196    magn:   -0.0000    constr:    0.0000
     atom:   12    charge:    2.0870    magn:    0.0000    constr:    0.0000
     atom:   13    charge:    3.1148    magn:   -0.0000    constr:    0.0000
     atom:   14    charge:    2.0911    magn:    0.0000    constr:    0.0000
     atom:   15    charge:    3.1194    magn:   -0.0000    constr:    0.0000
     atom:   16    charge:    2.0883    magn:    0.0000    constr:    0.0000
     atom:   17    charge:    2.0624    magn:    0.0001    constr:    0.0000
     atom:   18    charge:    3.1239    magn:   -0.0000    constr:    0.0000
     atom:   19    charge:    2.0878    magn:   -0.0000    constr:    0.0000
     atom:   20    charge:    2.0847    magn:   -0.0000    constr:    0.0000
     atom:   21    charge:    2.0847    magn:   -0.0000    constr:    0.0000
     atom:   22    charge:    3.1197    magn:   -0.0000    constr:    0.0000
     atom:   23    charge:    2.0909    magn:    0.0000    constr:    0.0000
     atom:   24    charge:    2.0777    magn:    0.0000    constr:    0.0000
     atom:   25    charge:    2.0869    magn:    0.0000    constr:    0.0000
     atom:   26    charge:    3.1165    magn:   -0.0000    constr:    0.0000
     atom:   27    charge:    2.0823    magn:    0.0000    constr:    0.0000
     atom:   28    charge:    2.0879    magn:    0.0000    constr:    0.0000
     atom:   29    charge:    2.0877    magn:    0.0000    constr:    0.0000
     atom:   30    charge:    3.1168    magn:   -0.0000    constr:    0.0000
     atom:   31    charge:    2.0815    magn:    0.0000    constr:    0.0000
     atom:   32    charge:    2.0843    magn:    0.0000    constr:    0.0000
     atom:   33    charge:    2.0624    magn:    0.0001    constr:    0.0000
     atom:   34    charge:    3.1239    magn:   -0.0000    constr:    0.0000
     atom:   35    charge:    2.0878    magn:   -0.0000    constr:    0.0000
     atom:   36    charge:    2.0847    magn:   -0.0000    constr:    0.0000
     atom:   37    charge:    2.0847    magn:   -0.0000    constr:    0.0000
     atom:   38    charge:    3.1197    magn:   -0.0000    constr:    0.0000
     atom:   39    charge:    2.0912    magn:    0.0000    constr:    0.0000
     atom:   40    charge:    2.0777    magn:    0.0000    constr:    0.0000
     atom:   41    charge:    2.0869    magn:    0.0000    constr:    0.0000
     atom:   42    charge:    3.1181    magn:   -0.0000    constr:    0.0000
     atom:   43    charge:    2.0838    magn:    0.0000    constr:    0.0000
     atom:   44    charge:    2.0865    magn:    0.0000    constr:    0.0000
     atom:   45    charge:    2.0871    magn:    0.0000    constr:    0.0000
     atom:   46    charge:    3.1171    magn:   -0.0000    constr:    0.0000
     atom:   47    charge:    2.0797    magn:    0.0000    constr:    0.0000
     atom:   48    charge:    2.0835    magn:    0.0000    constr:    0.0000
     atom:   49    charge:    2.0520    magn:    0.0000    constr:    0.0000
     atom:   50    charge:    1.2585    magn:   -0.0000    constr:    0.0000
     atom:   51    charge:    1.2879    magn:    0.0000    constr:    0.0000

     total cpu time spent up to now is     2431.4 secs

     End of self-consistent calculation

 ------ SPIN UP ------------


          k = 0.0000 0.0000 0.0000 ( 34665 PWs)   bands (ev):

   -57.8240 -57.7890 -57.5141 -57.4585 -57.3901 -57.3541 -57.2794 -57.2441
   -57.1818 -57.1465 -57.1185 -57.0832 -56.8851 -56.8129 -56.2860 -56.2507
   -34.2603 -34.1051 -34.0765 -34.0610 -34.0255 -33.9312 -33.8704 -33.8660
   -33.8284 -33.7729 -33.7341 -33.7240 -33.7203 -33.6889 -33.6731 -33.6695
   -33.6503 -33.6408 -33.6196 -33.5579 -33.5269 -33.4611 -33.4608 -33.4401
   -33.4331 -33.4306 -33.3889 -33.3843 -33.3797 -33.3618 -33.3573 -33.3371
   -33.3144 -33.3084 -33.2808 -33.2753 -33.2498 -33.1464 -33.1415 -33.0847
   -33.0403 -32.9395 -32.7047 -32.6372 -32.6111 -32.5087 -32.4169 -32.3087
   -24.2360 -20.9928 -18.1775 -17.9764 -17.7534 -17.6313 -17.4972 -17.4955
   -17.2137 -17.1928 -17.1477 -17.0554 -17.0528 -17.0109 -16.9955 -16.9224
   -16.8750 -16.8631 -16.8410 -16.8003 -16.7379 -16.6914 -16.5738 -16.5505
   -16.5221 -16.5103 -16.4229 -16.3128 -16.2773 -16.2459 -16.1091 -16.0793
   -14.8683 -14.7834  -9.7936  -7.4811  -7.4599  -5.9971  -5.5693  -5.5125
    -5.3619  -5.3537  -5.2963  -4.9989  -4.9395  -4.5895  -4.5855  -4.5501
    -4.5408  -4.4931  -4.3685  -4.2722  -4.2237  -4.2062  -4.1714  -4.1686
    -4.1644  -4.1565  -4.0918  -4.0871  -4.0106  -3.9878  -3.9569  -3.9152
    -3.8817  -3.8088  -3.7747  -3.7504  -3.7211  -3.6448  -3.6237  -3.5475
    -3.5460  -3.5203  -3.4528  -3.3342  -3.2034  -3.1682  -3.0646  -3.0060
    -2.9623  -2.8778  -2.8223  -2.8148  -2.7438  -2.7424  -2.7264  -2.6009
    -2.5636  -2.5083  -2.4363  -2.4004  -2.3725  -2.3537  -2.3254  -2.2837
    -2.2783  -2.2490  -2.2123  -2.1806  -2.1765  -2.0512  -1.9940  -1.8949
    -1.7524  -1.7502  -1.7235  -1.6819  -1.6544  -1.6429  -1.5656  -1.5441
    -1.4439  -1.4345  -1.4110  -1.3999  -1.3865  -1.2851  -1.2340  -1.2241
    -1.2031  -1.1342  -1.0737  -1.0180  -0.9189  -0.7448  -0.7150  -0.7108
    -0.6476  -0.5201  -0.3727  -0.2361  -0.1736  -0.0094   0.1173   0.1324
     1.5180   1.5469   1.8317   1.8686   1.8802   1.9001   2.0676   2.0872
     2.1217   2.2381   2.3572   2.3711   2.4064   2.4254   2.4620   2.4773
     2.5253   2.5627   2.6062   2.6525   2.6664   2.6773   2.7615   2.8042
     2.8668   2.8938   2.9858   2.9942   2.9955   3.0160   3.0637   3.0810
     3.0918   3.0957   3.1039   3.1383   3.2328   3.2969   3.3011   3.3190
     3.3531   3.3825   3.4165   3.5298   3.5330   3.6697   3.8770   3.9829
     3.9893   4.0421   4.0660   4.1790   4.2518   4.4587   4.5351   4.6563
     4.9041   4.9356   5.0104   5.1264   5.2050   5.3886   5.3941   5.4207
     5.4956   5.5814   5.6274   5.6359   5.7138   5.7311   5.7364   5.7561
     5.9209   5.9600   6.0102   6.0191   6.0969   6.1414   6.2041   6.2188
     6.4735   6.6168   6.7685   6.7840   6.8800   7.1627   7.2776   7.3053
     7.9111   7.9878   8.1607   8.4060   8.7023   8.9115   8.9144   8.9537
     9.2124   9.2587   9.2850   9.3539

          k = 0.0000 0.0280 0.0000 ( 34717 PWs)   bands (ev):

   -57.8216 -57.7914 -57.5126 -57.4601 -57.3878 -57.3565 -57.2771 -57.2465
   -57.1795 -57.1489 -57.1162 -57.0856 -56.8839 -56.8142 -56.2836 -56.2531
   -34.2349 -34.1031 -34.0784 -34.0352 -34.0193 -33.9377 -33.8974 -33.8409
   -33.8220 -33.7488 -33.7367 -33.7285 -33.7191 -33.6895 -33.6740 -33.6706
   -33.6477 -33.6168 -33.6131 -33.5509 -33.5358 -33.4864 -33.4586 -33.4498
   -33.4349 -33.4246 -33.4069 -33.3802 -33.3627 -33.3608 -33.3561 -33.3435
   -33.3141 -33.3135 -33.3059 -33.2771 -33.2754 -33.1458 -33.1384 -33.0853
   -33.0446 -32.9677 -32.6790 -32.6354 -32.6129 -32.5025 -32.4232 -32.3362
   -24.2360 -20.9927 -18.1159 -17.9184 -17.7005 -17.5779 -17.4762 -17.4487
   -17.2306 -17.1906 -17.1626 -17.1216 -17.0579 -17.0074 -16.9848 -16.9081
   -16.8924 -16.8466 -16.8311 -16.8006 -16.7686 -16.7489 -16.5979 -16.5407
   -16.5202 -16.5014 -16.4525 -16.3089 -16.2950 -16.2634 -16.1345 -16.1217
   -14.8781 -14.8067  -9.7935  -7.4824  -7.4600  -5.9961  -5.4812  -5.4282
    -5.2844  -5.2736  -5.2189  -4.8810  -4.8644  -4.6137  -4.5844  -4.5167
    -4.4894  -4.4551  -4.3186  -4.2940  -4.2892  -4.2405  -4.2338  -4.1965
    -4.1591  -4.1453  -4.1097  -4.0975  -4.0800  -4.0540  -4.0105  -3.9880
    -3.9303  -3.9240  -3.8633  -3.8048  -3.7382  -3.7231  -3.7023  -3.5679
    -3.4877  -3.4721  -3.3815  -3.3134  -3.1306  -3.0835  -2.9929  -2.9585
    -2.8379  -2.8059  -2.7577  -2.7512  -2.6722  -2.6410  -2.6354  -2.6175
    -2.5709  -2.5593  -2.5211  -2.4555  -2.4155  -2.3485  -2.3235  -2.2824
    -2.2377  -2.2189  -2.2032  -2.1266  -2.0534  -2.0201  -1.9415  -1.8740
    -1.8426  -1.8205  -1.7902  -1.7744  -1.6997  -1.6749  -1.6331  -1.5998
    -1.5589  -1.4963  -1.4665  -1.4100  -1.3900  -1.3586  -1.2776  -1.2382
    -1.1918  -1.1549  -1.0686  -1.0325  -0.9486  -0.9138  -0.8466  -0.7610
    -0.7322  -0.5348  -0.4135  -0.2290  -0.2251   0.0014   0.0719   0.0968
     1.6036   1.6505   1.8608   1.8704   1.9247   2.0006   2.0455   2.1133
     2.1708   2.2663   2.3198   2.3749   2.3770   2.4400   2.4506   2.4823
     2.5139   2.5356   2.5898   2.6233   2.6779   2.7279   2.7685   2.7855
     2.8247   2.8749   2.9389   2.9556   2.9869   3.0182   3.0427   3.0709
     3.0918   3.1021   3.1870   3.2012   3.2540   3.3140   3.3479   3.3987
     3.4156   3.4669   3.5014   3.5063   3.5678   3.6366   3.8273   3.9421
     3.9897   4.0534   4.1305   4.1617   4.1836   4.4016   4.5931   4.7545
     4.9112   5.0129   5.1085   5.1891   5.2092   5.4057   5.4281   5.4788
     5.4901   5.5632   5.5969   5.6214   5.6694   5.6943   5.7327   5.8206
     5.8587   5.9306   5.9762   6.0151   6.0233   6.0271   6.1159   6.2872
     6.4532   6.5429   6.7168   6.7868   6.8085   7.0683   7.2305   7.3728
     7.6869   7.9808   8.1029   8.2897   8.4134   8.7077   8.9975   9.0251
     9.0795   9.2977   9.3588   9.4078

          k = 0.0000 0.0560 0.0000 ( 34721 PWs)   bands (ev):

   -57.8152 -57.7978 -57.5093 -57.4634 -57.3816 -57.3628 -57.2706 -57.2529
   -57.1731 -57.1553 -57.1098 -57.0920 -56.8813 -56.8168 -56.2772 -56.2596
   -34.1651 -34.0978 -34.0835 -34.0022 -33.9704 -33.9646 -33.9551 -33.8060
   -33.7754 -33.7655 -33.7523 -33.7166 -33.7065 -33.6933 -33.6756 -33.6726
   -33.5956 -33.5778 -33.5762 -33.5482 -33.5374 -33.5314 -33.4802 -33.4737
   -33.4533 -33.4396 -33.4082 -33.3822 -33.3758 -33.3612 -33.3584 -33.3543
   -33.3410 -33.3266 -33.3047 -33.3027 -33.2677 -33.1451 -33.1347 -33.0866
   -33.0581 -33.0353 -32.6307 -32.6177 -32.6082 -32.4860 -32.4401 -32.4103
   -24.2360 -20.9926 -17.9445 -17.7583 -17.5607 -17.4488 -17.4288 -17.4234
   -17.3206 -17.2932 -17.1816 -17.0801 -17.0798 -17.0469 -17.0235 -16.9825
   -16.8638 -16.8595 -16.8523 -16.8149 -16.7525 -16.6869 -16.6619 -16.6181
   -16.5333 -16.4735 -16.4478 -16.3321 -16.3226 -16.2824 -16.2467 -16.1842
   -14.8957 -14.8570  -9.7932  -7.4849  -7.4600  -5.9943  -5.2385  -5.1929
    -5.0771  -5.0444  -5.0104  -4.7380  -4.6652  -4.6283  -4.5530  -4.5435
    -4.5154  -4.4993  -4.4698  -4.3922  -4.3600  -4.3524  -4.3291  -4.3247
    -4.2578  -4.2203  -4.1992  -4.1489  -4.1352  -4.0951  -4.0698  -4.0185
    -3.9564  -3.9287  -3.8585  -3.7833  -3.7271  -3.6052  -3.5773  -3.4834
    -3.4213  -3.3878  -3.3671  -3.2706  -3.1749  -3.0261  -2.9780  -2.9647
    -2.9478  -2.8813  -2.7884  -2.7371  -2.6874  -2.6528  -2.6084  -2.4706
    -2.4562  -2.4492  -2.4157  -2.3931  -2.3401  -2.3043  -2.2816  -2.2772
    -2.2053  -2.1822  -2.1009  -2.0703  -2.0477  -2.0385  -2.0117  -1.9897
    -1.9420  -1.9043  -1.8680  -1.7920  -1.7166  -1.6842  -1.6706  -1.6577
    -1.6416  -1.5730  -1.5192  -1.5033  -1.4832  -1.4443  -1.3735  -1.3583
    -1.2826  -1.2418  -1.1684  -1.1428  -1.0647  -0.9999  -0.9296  -0.8966
    -0.7997  -0.7154  -0.5970  -0.3940  -0.0442   0.0120   0.0429   0.0460
     1.7404   1.8850   1.9029   1.9825   2.0129   2.0558   2.1337   2.1996
     2.2198   2.2566   2.2611   2.2745   2.3018   2.3545   2.3775   2.5099
     2.5214   2.5537   2.6361   2.6488   2.6719   2.7364   2.7537   2.7982
     2.8041   2.8258   2.8465   2.9399   2.9598   3.0099   3.0840   3.0937
     3.1096   3.1711   3.1947   3.2198   3.3236   3.3668   3.4078   3.4610
     3.4860   3.5549   3.6136   3.6652   3.6857   3.7204   3.7408   3.8476
     3.9817   3.9946   4.0104   4.0981   4.2367   4.3237   4.7177   4.8431
     5.0291   5.1641   5.2516   5.2999   5.3298   5.3976   5.4049   5.4761
     5.5235   5.5967   5.6098   5.6185   5.6423   5.6913   5.7263   5.7377
     5.7541   5.7922   5.8297   5.8949   5.9792   6.0224   6.1909   6.2996
     6.3709   6.4073   6.6412   6.6482   6.7451   6.9084   7.0170   7.2645
     7.5088   7.6713   7.7754   8.2693   8.4226   8.6008   8.8927   9.0369
     9.1971   9.3501   9.4465   9.5772

          k = 0.0000-0.0840 0.0000 ( 34678 PWs)   bands (ev):

   -57.8065 -57.8065 -57.5075 -57.4653 -57.3753 -57.3690 -57.2619 -57.2617
   -57.1656 -57.1628 -57.1017 -57.1001 -56.8799 -56.8183 -56.2684 -56.2684
   -34.0906 -34.0906 -34.0685 -34.0685 -33.9787 -33.9787 -33.8819 -33.8490
   -33.7890 -33.7707 -33.7185 -33.7117 -33.6962 -33.6789 -33.6715 -33.6603
   -33.5786 -33.5784 -33.5720 -33.5661 -33.5038 -33.5033 -33.4819 -33.4795
   -33.4572 -33.4495 -33.4465 -33.4461 -33.3858 -33.3835 -33.3570 -33.3540
   -33.3445 -33.3429 -33.2981 -33.2966 -33.2007 -33.1672 -33.1418 -33.0913
   -33.0865 -33.0550 -32.6242 -32.6241 -32.5103 -32.5102 -32.4630 -32.4630
   -24.2359 -20.9925 -17.7065 -17.6948 -17.5377 -17.5369 -17.4219 -17.4033
   -17.2481 -17.2419 -17.1805 -17.1799 -17.1455 -17.1422 -16.9663 -16.9662
   -16.9429 -16.9388 -16.7765 -16.7485 -16.7214 -16.7183 -16.6467 -16.6398
   -16.5532 -16.5084 -16.3799 -16.3783 -16.3334 -16.3323 -16.2520 -16.2514
   -14.8938 -14.8938  -9.7931  -7.4861  -7.4600  -5.9934  -4.9273  -4.9244
    -4.8597  -4.8596  -4.8075  -4.7927  -4.7665  -4.7598  -4.7229  -4.7012
    -4.5299  -4.5114  -4.4974  -4.4952  -4.4259  -4.4243  -4.4199  -4.4172
    -4.2616  -4.2226  -4.1599  -4.1585  -4.1464  -4.1243  -4.0113  -3.9551
    -3.9545  -3.9184  -3.8430  -3.7999  -3.6568  -3.6174  -3.4653  -3.4538
    -3.3020  -3.2922  -3.2321  -3.1548  -3.1352  -3.1060  -2.9714  -2.9555
    -2.9471  -2.8862  -2.8616  -2.8216  -2.7166  -2.6909  -2.6697  -2.6521
    -2.6272  -2.6186  -2.5753  -2.4580  -2.4504  -2.4217  -2.1612  -2.1262
    -2.1034  -2.0561  -2.0167  -1.9848  -1.9363  -1.9360  -1.9299  -1.8811
    -1.8722  -1.8680  -1.8499  -1.7935  -1.7791  -1.7130  -1.6332  -1.6326
    -1.5932  -1.5755  -1.5587  -1.5574  -1.5494  -1.5451  -1.5249  -1.4185
    -1.3763  -1.2666  -1.2535  -1.2250  -1.1311  -1.1254  -1.1018  -1.0964
    -0.6859  -0.6363  -0.5987  -0.5934   0.0117   0.0120   0.0488   0.0491
     1.9056   1.9093   2.0062   2.0103   2.0980   2.0982   2.1028   2.1244
     2.2202   2.2203   2.2249   2.2405   2.3383   2.3796   2.4287   2.4312
     2.5225   2.5272   2.5910   2.5920   2.6527   2.7484   2.7591   2.8208
     2.8286   2.8624   2.9024   2.9449   2.9719   2.9921   3.0478   3.0657
     3.0783   3.2096   3.2517   3.3214   3.3283   3.3298   3.3309   3.4741
     3.6155   3.6182   3.6852   3.6988   3.7262   3.7856   3.7871   3.8676
     3.9209   3.9233   3.9867   3.9871   4.1313   4.4110   4.7913   4.8159
     5.1503   5.1681   5.2860   5.3231   5.3812   5.3812   5.4911   5.5171
     5.5515   5.5679   5.5811   5.6390   5.6570   5.6956   5.7035   5.7040
     5.7476   5.8282   5.8373   5.8546   5.9982   6.0013   6.0360   6.0828
     6.4160   6.4206   6.5517   6.5869   6.8546   6.8600   6.9695   6.9776
     7.4592   7.5011   7.6311   8.1943   8.3331   8.6540   9.0406   9.1221
     9.3655   9.4267   9.6102   9.6607

          k = 0.0253 0.0000 0.0000 ( 34707 PWs)   bands (ev):

   -57.8240 -57.7890 -57.5141 -57.4585 -57.3901 -57.3541 -57.2794 -57.2441
   -57.1819 -57.1465 -57.1185 -57.0832 -56.8851 -56.8129 -56.2860 -56.2507
   -34.2606 -34.1051 -34.0766 -34.0611 -34.0248 -33.9312 -33.8705 -33.8667
   -33.8284 -33.7743 -33.7338 -33.7236 -33.7195 -33.6900 -33.6808 -33.6734
   -33.6504 -33.6269 -33.6178 -33.5523 -33.5274 -33.4612 -33.4606 -33.4397
   -33.4331 -33.4307 -33.3884 -33.3877 -33.3797 -33.3673 -33.3561 -33.3371
   -33.3144 -33.3083 -33.2810 -33.2753 -33.2499 -33.1474 -33.1416 -33.0848
   -33.0404 -32.9396 -32.7046 -32.6382 -32.6106 -32.5087 -32.4170 -32.3088
   -24.2360 -20.9927 -18.1493 -17.9349 -17.7129 -17.5934 -17.4965 -17.4922
   -17.2709 -17.2326 -17.1469 -17.0628 -17.0549 -17.0467 -17.0195 -16.9629
   -16.9178 -16.8989 -16.8221 -16.7900 -16.7052 -16.6099 -16.6082 -16.5228
   -16.5192 -16.5164 -16.4658 -16.3132 -16.2677 -16.2465 -16.1086 -16.0793
   -14.8671 -14.7833  -9.7929  -7.4813  -7.4598  -5.9965  -5.5392  -5.3965
    -5.2526  -5.2401  -5.1888  -4.9907  -4.9381  -4.7828  -4.5819  -4.5692
    -4.5172  -4.4944  -4.4460  -4.4385  -4.3356  -4.1999  -4.1894  -4.1695
    -4.0934  -4.0767  -4.0713  -3.9879  -3.9712  -3.9378  -3.8777  -3.8423
    -3.8352  -3.8125  -3.7753  -3.7315  -3.7028  -3.6219  -3.5819  -3.4925
    -3.4628  -3.4253  -3.3372  -3.2618  -3.2191  -3.1580  -3.1383  -3.0399
    -3.0220  -2.9251  -2.8928  -2.8096  -2.7590  -2.7256  -2.7030  -2.6770
    -2.6526  -2.6124  -2.5033  -2.4962  -2.4516  -2.3776  -2.3614  -2.3176
    -2.2547  -2.2178  -2.2146  -2.1298  -2.0998  -2.0322  -1.9379  -1.8972
    -1.8033  -1.7788  -1.7541  -1.7279  -1.7055  -1.6361  -1.6113  -1.4974
    -1.4871  -1.4767  -1.4333  -1.4087  -1.3655  -1.3418  -1.2737  -1.2572
    -1.2320  -1.1192  -1.0973  -0.9962  -0.9614  -0.9002  -0.8122  -0.7732
    -0.6936  -0.5641  -0.3671  -0.2635  -0.2040  -0.0235   0.0748   0.0757
     1.5353   1.6023   1.8794   1.8983   1.9922   2.0084   2.0562   2.1347
     2.2160   2.2453   2.3151   2.3239   2.3674   2.4168   2.4346   2.4504
     2.4646   2.5348   2.5443   2.6054   2.6562   2.6769   2.7064   2.8290
     2.8435   2.8991   2.9959   3.0021   3.0104   3.0767   3.0871   3.0966
     3.1471   3.1875   3.2048   3.2371   3.2939   3.3217   3.3334   3.3868
     3.3935   3.4327   3.4637   3.4952   3.5925   3.6155   3.8076   3.8917
     4.0364   4.0568   4.0808   4.1703   4.2367   4.4121   4.6408   4.6822
     4.7675   4.9267   4.9405   4.9906   5.0107   5.0528   5.2185   5.4942
     5.5671   5.6366   5.7286   5.7386   5.7901   5.8320   5.9419   5.9520
     5.9781   6.0360   6.0391   6.0710   6.1343   6.1491   6.2453   6.3154
     6.4878   6.6318   6.7405   6.7762   6.8840   7.0834   7.1625   7.3217
     7.6242   8.0344   8.1530   8.3446   8.4009   8.7530   8.8282   8.9236
     8.9686   9.2480   9.2916   9.4216

          k = 0.0253 0.0280 0.0000 ( 34687 PWs)   bands (ev):

   -57.8216 -57.7914 -57.5126 -57.4601 -57.3878 -57.3565 -57.2770 -57.2464
   -57.1795 -57.1489 -57.1162 -57.0856 -56.8839 -56.8142 -56.2836 -56.2531
   -34.2352 -34.1031 -34.0784 -34.0353 -34.0186 -33.9376 -33.8975 -33.8415
   -33.8221 -33.7501 -33.7367 -33.7282 -33.7180 -33.6899 -33.6774 -33.6740
   -33.6481 -33.6114 -33.6079 -33.5455 -33.5359 -33.4865 -33.4586 -33.4484
   -33.4349 -33.4247 -33.4077 -33.3834 -33.3652 -33.3623 -33.3555 -33.3435
   -33.3142 -33.3135 -33.3060 -33.2771 -33.2754 -33.1467 -33.1385 -33.0854
   -33.0446 -32.9677 -32.6789 -32.6364 -32.6124 -32.5026 -32.4232 -32.3362
   -24.2360 -20.9926 -18.0891 -17.8778 -17.6615 -17.5416 -17.4757 -17.4435
   -17.2551 -17.2330 -17.2065 -17.0852 -17.0613 -17.0425 -16.9908 -16.9546
   -16.9262 -16.8613 -16.8408 -16.8225 -16.7493 -16.6609 -16.6302 -16.5440
   -16.5096 -16.4989 -16.4827 -16.3087 -16.2859 -16.2639 -16.1342 -16.1221
   -14.8771 -14.8067  -9.7927  -7.4824  -7.4599  -5.9956  -5.4548  -5.3117
    -5.1728  -5.1610  -5.1107  -4.8757  -4.8628  -4.7293  -4.5707  -4.5226
    -4.4763  -4.4461  -4.4159  -4.3565  -4.3236  -4.2865  -4.2248  -4.1962
    -4.1558  -4.1229  -4.0917  -4.0738  -4.0334  -3.9739  -3.9619  -3.9300
    -3.9143  -3.8574  -3.8458  -3.7577  -3.7376  -3.6823  -3.6771  -3.4822
    -3.4543  -3.3896  -3.3401  -3.2807  -3.1646  -3.1064  -3.0695  -2.9348
    -2.8561  -2.8284  -2.8026  -2.7894  -2.7521  -2.6777  -2.6339  -2.6142
    -2.5907  -2.5761  -2.5488  -2.5184  -2.4571  -2.4004  -2.3529  -2.3271
    -2.2661  -2.2478  -2.1958  -2.1052  -2.0639  -2.0340  -1.9938  -1.9090
    -1.8790  -1.8514  -1.7896  -1.7640  -1.7398  -1.7195  -1.6637  -1.6245
    -1.5682  -1.5102  -1.4826  -1.4644  -1.4179  -1.3768  -1.3261  -1.2325
    -1.2073  -1.2010  -1.0560  -0.9975  -0.9772  -0.9092  -0.8883  -0.8704
    -0.7846  -0.5741  -0.4246  -0.2818  -0.2190   0.0060   0.0478   0.0568
     1.5968   1.7234   1.8920   1.9031   2.0191   2.0354   2.1360   2.1713
     2.2330   2.2777   2.3147   2.3288   2.3778   2.3912   2.4082   2.4273
     2.5070   2.5407   2.5777   2.6112   2.6271   2.6618   2.7765   2.8077
     2.8458   2.8897   2.9754   2.9860   2.9941   2.9997   3.0534   3.0907
     3.1667   3.2231   3.2619   3.2680   3.2991   3.3235   3.3755   3.4302
     3.4580   3.4881   3.5157   3.5319   3.5813   3.6290   3.7626   3.8839
     4.0172   4.0468   4.0944   4.1672   4.2217   4.3614   4.6848   4.7687
     4.8197   4.9383   4.9845   5.0286   5.0382   5.1212   5.2730   5.5237
     5.5625   5.5969   5.6445   5.7252   5.7388   5.8201   5.8789   5.9229
     5.9547   5.9966   6.0239   6.0337   6.0496   6.0866   6.2953   6.3136
     6.4721   6.5507   6.7360   6.7694   6.8138   7.0584   7.1158   7.3543
     7.5441   8.0135   8.1433   8.2318   8.3211   8.5241   8.5764   8.8335
     9.0204   9.2758   9.3972   9.4749

          k = 0.0253 0.0560 0.0000 ( 34699 PWs)   bands (ev):

   -57.8152 -57.7978 -57.5093 -57.4634 -57.3816 -57.3628 -57.2706 -57.2529
   -57.1731 -57.1553 -57.1098 -57.0920 -56.8813 -56.8168 -56.2772 -56.2596
   -34.1654 -34.0978 -34.0835 -34.0017 -33.9705 -33.9647 -33.9549 -33.8060
   -33.7757 -33.7658 -33.7523 -33.7158 -33.7065 -33.6935 -33.6771 -33.6739
   -33.5944 -33.5783 -33.5761 -33.5447 -33.5372 -33.5271 -33.4810 -33.4706
   -33.4532 -33.4396 -33.4082 -33.3823 -33.3777 -33.3618 -33.3613 -33.3554
   -33.3411 -33.3272 -33.3047 -33.3026 -33.2677 -33.1457 -33.1348 -33.0870
   -33.0582 -33.0352 -32.6313 -32.6175 -32.6081 -32.4860 -32.4401 -32.4103
   -24.2360 -20.9925 -17.9221 -17.7212 -17.5279 -17.4426 -17.4205 -17.3996
   -17.3117 -17.2958 -17.1852 -17.1229 -17.0850 -17.0328 -17.0079 -16.9901
   -16.9005 -16.8919 -16.8549 -16.8085 -16.7720 -16.7350 -16.6831 -16.5910
   -16.5763 -16.4681 -16.4335 -16.3253 -16.3202 -16.2834 -16.2475 -16.1838
   -14.8950 -14.8572  -9.7925  -7.4849  -7.4599  -5.9939  -5.2236  -5.0772
    -4.9639  -4.9351  -4.9045  -4.7322  -4.6646  -4.6478  -4.5315  -4.5242
    -4.5044  -4.4957  -4.3939  -4.3547  -4.3489  -4.3174  -4.2873  -4.2706
    -4.2263  -4.2117  -4.1918  -4.1563  -4.0890  -4.0738  -4.0628  -4.0080
    -3.9722  -3.9163  -3.8470  -3.8090  -3.7256  -3.6318  -3.5441  -3.4736
    -3.4333  -3.4151  -3.3780  -3.2046  -3.1727  -3.0405  -2.9926  -2.9724
    -2.9441  -2.8718  -2.8004  -2.7682  -2.7115  -2.6712  -2.6329  -2.5832
    -2.5586  -2.5165  -2.4712  -2.4554  -2.4139  -2.3981  -2.3171  -2.2731
    -2.2577  -2.2291  -2.1732  -2.1362  -2.0912  -2.0777  -2.0139  -1.9999
    -1.9479  -1.9263  -1.8741  -1.8371  -1.8199  -1.7788  -1.7251  -1.6938
    -1.6649  -1.5875  -1.5666  -1.4938  -1.4704  -1.4184  -1.3823  -1.3443
    -1.2586  -1.2307  -1.1602  -1.0955  -1.0700  -0.9701  -0.9450  -0.8747
    -0.8211  -0.7360  -0.6026  -0.4056  -0.0428  -0.0020   0.0231   0.0462
     1.7367   1.9109   1.9277   2.0504   2.0565   2.0793   2.1650   2.1766
     2.2513   2.2693   2.2913   2.3059   2.3493   2.3949   2.4250   2.5083
     2.5544   2.5797   2.6455   2.6511   2.6709   2.6804   2.7451   2.7851
     2.8059   2.8209   2.8695   2.8801   2.9886   3.0611   3.1212   3.1437
     3.1985   3.2098   3.2417   3.2711   3.3230   3.3656   3.4205   3.4381
     3.5080   3.5366   3.6363   3.6631   3.6959   3.7331   3.7546   3.8211
     3.9374   3.9758   4.0123   4.1384   4.2066   4.3667   4.7759   4.8474
     4.9898   5.0246   5.0995   5.1181   5.1388   5.2235   5.3263   5.4294
     5.4540   5.5102   5.5948   5.6269   5.7166   5.7296   5.7934   5.8205
     5.8785   5.9065   5.9499   6.0128   6.0499   6.2209   6.2475   6.3612
     6.4058   6.4444   6.6516   6.6547   6.7750   6.9055   7.0423   7.2874
     7.3765   7.7257   7.8377   8.1198   8.3671   8.5582   8.6317   8.8999
     9.0260   9.0649   9.2831   9.3873

          k = 0.0253-0.0840 0.0000 ( 34722 PWs)   bands (ev):

   -57.8065 -57.8065 -57.5075 -57.4653 -57.3753 -57.3690 -57.2619 -57.2617
   -57.1656 -57.1629 -57.1017 -57.1001 -56.8799 -56.8183 -56.2684 -56.2684
   -34.0906 -34.0906 -34.0688 -34.0688 -33.9784 -33.9784 -33.8820 -33.8492
   -33.7890 -33.7707 -33.7186 -33.7115 -33.6963 -33.6788 -33.6719 -33.6606
   -33.5804 -33.5802 -33.5711 -33.5652 -33.5011 -33.5010 -33.4802 -33.4780
   -33.4559 -33.4484 -33.4464 -33.4461 -33.3858 -33.3835 -33.3596 -33.3565
   -33.3460 -33.3444 -33.2981 -33.2966 -33.2007 -33.1673 -33.1423 -33.0913
   -33.0870 -33.0550 -32.6244 -32.6244 -32.5103 -32.5102 -32.4630 -32.4630
   -24.2359 -20.9924 -17.6924 -17.6793 -17.5096 -17.5088 -17.4064 -17.3884
   -17.2329 -17.2203 -17.1763 -17.1748 -17.1299 -17.1274 -17.0126 -17.0115
   -16.9263 -16.9227 -16.8118 -16.7923 -16.7548 -16.7528 -16.6796 -16.6730
   -16.5382 -16.4982 -16.3715 -16.3703 -16.3326 -16.3311 -16.2523 -16.2513
   -14.8937 -14.8937  -9.7924  -7.4862  -7.4599  -5.9931  -4.9272  -4.9246
    -4.7629  -4.7629  -4.7207  -4.7005  -4.6911  -4.6888  -4.6354  -4.6000
    -4.5026  -4.4875  -4.4557  -4.4493  -4.4116  -4.4065  -4.3730  -4.3696
    -4.2374  -4.2004  -4.1508  -4.1499  -4.1257  -4.1059  -4.0332  -3.9954
    -3.9902  -3.9227  -3.8463  -3.7909  -3.5695  -3.5639  -3.4703  -3.4488
    -3.2934  -3.2493  -3.2226  -3.2133  -3.1886  -3.1746  -3.0851  -3.0714
    -2.9720  -2.9677  -2.9406  -2.8624  -2.7490  -2.7410  -2.7205  -2.7146
    -2.6633  -2.6130  -2.5037  -2.4946  -2.4464  -2.3969  -2.2524  -2.1923
    -2.1877  -2.1606  -2.0647  -2.0536  -2.0205  -2.0069  -1.9853  -1.9829
    -1.9570  -1.9394  -1.9060  -1.8937  -1.8056  -1.7954  -1.7632  -1.7409
    -1.7311  -1.5935  -1.5451  -1.5143  -1.4179  -1.4134  -1.4021  -1.3409
    -1.3054  -1.2460  -1.2083  -1.1981  -1.1829  -1.1401  -1.0340  -1.0286
    -0.7057  -0.6474  -0.5981  -0.5931  -0.0144  -0.0142   0.0596   0.0600
     1.9171   1.9209   2.0065   2.0144   2.0981   2.1047   2.1169   2.1190
     2.2706   2.2765   2.3098   2.3103   2.4044   2.4275   2.4422   2.4450
     2.5714   2.5752   2.6404   2.6667   2.6692   2.7162   2.7374   2.7675
     2.7744   2.8649   2.8906   2.9353   2.9794   3.0451   3.0790   3.1167
     3.1398   3.2418   3.2905   3.3180   3.3199   3.3550   3.3558   3.4688
     3.5978   3.6074   3.6763   3.7099   3.7326   3.7747   3.7811   3.8339
     3.9291   3.9336   3.9784   3.9784   4.1747   4.4484   4.8156   4.8399
     5.1390   5.1501   5.1809   5.1854   5.2109   5.2236   5.2726   5.2917
     5.3576   5.3762   5.5769   5.5908   5.7199   5.7257   5.8055   5.8649
     5.8891   5.9294   5.9723   6.0029   6.1030   6.1236   6.1575   6.1696
     6.4458   6.4509   6.5685   6.6037   6.8838   6.8860   7.0124   7.0244
     7.4432   7.5561   7.6648   8.0430   8.3245   8.3924   8.8647   9.0452
     9.1990   9.2026   9.2670   9.4974

          k = 0.0506 0.0000 0.0000 ( 34729 PWs)   bands (ev):

   -57.8239 -57.7890 -57.5141 -57.4585 -57.3901 -57.3541 -57.2793 -57.2441
   -57.1819 -57.1465 -57.1186 -57.0832 -56.8851 -56.8129 -56.2860 -56.2507
   -34.2613 -34.1050 -34.0766 -34.0613 -34.0234 -33.9313 -33.8705 -33.8680
   -33.8284 -33.7772 -33.7333 -33.7234 -33.7193 -33.6949 -33.6865 -33.6741
   -33.6504 -33.6142 -33.6103 -33.5397 -33.5283 -33.4613 -33.4603 -33.4390
   -33.4331 -33.4310 -33.3949 -33.3873 -33.3804 -33.3795 -33.3529 -33.3372
   -33.3143 -33.3080 -33.2813 -33.2754 -33.2500 -33.1499 -33.1416 -33.0847
   -33.0404 -32.9397 -32.7045 -32.6404 -32.6094 -32.5086 -32.4170 -32.3089
   -24.2360 -20.9926 -18.0873 -17.8347 -17.6159 -17.5292 -17.4959 -17.4505
[...]
    -2.6751  -2.6308  -2.6231  -2.6160  -2.5826  -2.5414  -2.5052  -2.4887
    -2.4879  -2.4249  -2.3847  -2.3718  -2.3344  -2.3036  -2.2597  -2.2574
    -2.2338  -2.1470  -2.1424  -2.1407  -2.0144  -1.9767  -1.8253  -1.7971
    -1.7359  -1.6879  -1.4340  -1.3885  -1.3245  -1.3234  -1.1670  -1.1530
    -1.1460  -1.1443  -1.1190  -1.0877  -1.0424  -0.9072  -0.8905  -0.7597
    -0.7481  -0.7330  -0.6659  -0.6651  -0.0638  -0.0638   0.0738   0.0741
     1.9867   2.0011   2.0436   2.0502   2.0732   2.0759   2.0875   2.0909
     2.3565   2.3687   2.3744   2.3883   2.4509   2.4576   2.5233   2.5380
     2.5590   2.5595   2.6147   2.6992   2.7271   2.8366   2.8494   2.8670
     2.8779   2.9558   3.0296   3.1039   3.1100   3.1633   3.1932   3.2578
     3.2821   3.2982   3.3343   3.3622   3.3955   3.3988   3.4415   3.4760
     3.5585   3.5818   3.6814   3.7289   3.7926   3.8148   3.8169   3.8177
     3.9485   3.9535   3.9731   3.9731   4.2931   4.5496   4.6594   4.6598
     4.7156   4.7375   4.7751   4.7829   4.7846   4.8077   5.0765   5.1060
     5.2292   5.2616   5.6204   5.6351   5.8104   5.8246   5.9403   6.0457
     6.1661   6.2082   6.2147   6.2451   6.4046   6.4224   6.4753   6.5305
     6.5320   6.5452   6.7081   6.7089   6.7640   6.7654   7.0276   7.0928
     7.6427   7.6772   7.8025   7.8139   8.0417   8.0940   8.3313   8.4009
     8.5440   8.6081   8.6864   9.1856

          k =-0.0253 0.0280 0.0000 ( 34687 PWs)   bands (ev):

   -57.8216 -57.7914 -57.5127 -57.4601 -57.3878 -57.3565 -57.2771 -57.2465
   -57.1795 -57.1489 -57.1163 -57.0856 -56.8840 -56.8143 -56.2838 -56.2533
   -34.2352 -34.1031 -34.0784 -34.0353 -34.0186 -33.9376 -33.8975 -33.8415
   -33.8221 -33.7501 -33.7368 -33.7283 -33.7181 -33.6900 -33.6775 -33.6740
   -33.6481 -33.6114 -33.6079 -33.5455 -33.5360 -33.4865 -33.4586 -33.4485
   -33.4349 -33.4247 -33.4078 -33.3834 -33.3652 -33.3624 -33.3556 -33.3435
   -33.3143 -33.3135 -33.3060 -33.2771 -33.2755 -33.1468 -33.1387 -33.0856
   -33.0448 -32.9678 -32.6791 -32.6365 -32.6126 -32.5028 -32.4234 -32.3363
   -24.2360 -20.9926 -18.0890 -17.8778 -17.6614 -17.5415 -17.4756 -17.4433
   -17.2551 -17.2333 -17.2064 -17.0852 -17.0614 -17.0426 -16.9913 -16.9546
   -16.9263 -16.8612 -16.8409 -16.8220 -16.7483 -16.6608 -16.6304 -16.5442
   -16.5096 -16.4986 -16.4827 -16.3086 -16.2858 -16.2638 -16.1340 -16.1220
   -14.8767 -14.8063  -9.7927  -7.4825  -7.4598  -5.9956  -5.4547  -5.3117
    -5.1726  -5.1606  -5.1107  -4.8759  -4.8628  -4.7301  -4.5697  -4.5230
    -4.4762  -4.4460  -4.4160  -4.3565  -4.3238  -4.2864  -4.2272  -4.1959
    -4.1560  -4.1235  -4.0919  -4.0738  -4.0331  -3.9738  -3.9616  -3.9307
    -3.9134  -3.8573  -3.8467  -3.7578  -3.7377  -3.6826  -3.6762  -3.4806
    -3.4529  -3.3869  -3.3375  -3.2827  -3.1641  -3.1064  -3.0695  -2.9374
    -2.8478  -2.8404  -2.8000  -2.7883  -2.7522  -2.6771  -2.6319  -2.6125
    -2.5939  -2.5753  -2.5493  -2.5166  -2.4585  -2.4009  -2.3509  -2.3282
    -2.2643  -2.2478  -2.1965  -2.1080  -2.0634  -2.0336  -1.9934  -1.9133
    -1.8745  -1.8553  -1.7931  -1.7632  -1.7408  -1.7181  -1.6636  -1.6250
    -1.5648  -1.5079  -1.4826  -1.4623  -1.4191  -1.3789  -1.3284  -1.2327
    -1.2091  -1.2019  -1.0558  -0.9952  -0.9743  -0.9116  -0.8880  -0.8667
    -0.7848  -0.5742  -0.4245  -0.2818  -0.2188   0.0062   0.0481   0.0571
     1.5968   1.7234   1.8919   1.9036   2.0188   2.0377   2.1367   2.1730
     2.2354   2.2766   2.3131   2.3245   2.3795   2.3929   2.4080   2.4306
     2.5052   2.5395   2.5757   2.6053   2.6302   2.6651   2.7710   2.8085
     2.8494   2.8897   2.9744   2.9845   2.9926   2.9979   3.0538   3.0890
     3.1698   3.2267   3.2620   3.2685   3.2996   3.3236   3.3742   3.4228
     3.4613   3.4920   3.5156   3.5320   3.5798   3.6277   3.7635   3.8875
     4.0178   4.0470   4.0898   4.1671   4.2212   4.3613   4.6845   4.7656
     4.8215   4.9376   4.9831   5.0282   5.0387   5.1181   5.2695   5.5233
     5.5615   5.5974   5.6447   5.7250   5.7387   5.8187   5.8851   5.9249
     5.9539   5.9957   6.0231   6.0337   6.0499   6.0859   6.2952   6.3140
     6.4739   6.5508   6.7359   6.7697   6.8138   7.0588   7.1433   7.3474
     7.5361   8.0135   8.1436   8.2234   8.3148   8.5240   8.5731   8.8351
     9.0222   9.2735   9.4063   9.4703

          k =-0.0253 0.0560 0.0000 ( 34699 PWs)   bands (ev):

   -57.8153 -57.7978 -57.5094 -57.4635 -57.3816 -57.3628 -57.2706 -57.2530
   -57.1732 -57.1553 -57.1098 -57.0921 -56.8814 -56.8170 -56.2774 -56.2597
   -34.1654 -34.0978 -34.0835 -34.0017 -33.9705 -33.9647 -33.9549 -33.8061
   -33.7758 -33.7658 -33.7524 -33.7159 -33.7065 -33.6936 -33.6772 -33.6739
   -33.5942 -33.5783 -33.5764 -33.5447 -33.5372 -33.5271 -33.4810 -33.4707
   -33.4533 -33.4397 -33.4082 -33.3823 -33.3778 -33.3618 -33.3613 -33.3555
   -33.3412 -33.3273 -33.3048 -33.3028 -33.2678 -33.1458 -33.1350 -33.0871
   -33.0583 -33.0354 -32.6315 -32.6176 -32.6083 -32.4862 -32.4403 -32.4105
   -24.2359 -20.9925 -17.9219 -17.7212 -17.5277 -17.4427 -17.4205 -17.3995
   -17.3112 -17.2958 -17.1853 -17.1229 -17.0855 -17.0327 -17.0079 -16.9917
   -16.9005 -16.8917 -16.8539 -16.8063 -16.7725 -16.7350 -16.6837 -16.5908
   -16.5763 -16.4680 -16.4334 -16.3252 -16.3201 -16.2833 -16.2474 -16.1836
   -14.8947 -14.8568  -9.7925  -7.4849  -7.4598  -5.9939  -5.2235  -5.0772
    -4.9628  -4.9347  -4.9045  -4.7318  -4.6648  -4.6488  -4.5321  -4.5264
    -4.5032  -4.4951  -4.3960  -4.3557  -4.3487  -4.3177  -4.2854  -4.2704
    -4.2265  -4.2122  -4.1909  -4.1568  -4.0882  -4.0756  -4.0631  -4.0089
    -3.9730  -3.9163  -3.8473  -3.8082  -3.7253  -3.6309  -3.5455  -3.4695
    -3.4320  -3.4126  -3.3749  -3.2068  -3.1739  -3.0391  -2.9920  -2.9725
    -2.9450  -2.8744  -2.7998  -2.7656  -2.7124  -2.6717  -2.6321  -2.5819
    -2.5585  -2.5162  -2.4715  -2.4561  -2.4130  -2.3993  -2.3177  -2.2741
    -2.2585  -2.2293  -2.1731  -2.1374  -2.0907  -2.0799  -2.0114  -1.9989
    -1.9509  -1.9281  -1.8758  -1.8378  -1.8199  -1.7787  -1.7227  -1.6950
    -1.6624  -1.5874  -1.5663  -1.4910  -1.4693  -1.4237  -1.3824  -1.3434
    -1.2590  -1.2305  -1.1587  -1.0952  -1.0691  -0.9698  -0.9443  -0.8753
    -0.8213  -0.7352  -0.6022  -0.4058  -0.0426  -0.0017   0.0234   0.0464
     1.7366   1.9119   1.9277   2.0504   2.0559   2.0815   2.1677   2.1769
     2.2512   2.2686   2.2912   2.3064   2.3503   2.3949   2.4246   2.5053
     2.5587   2.5775   2.6360   2.6508   2.6687   2.6847   2.7484   2.7843
     2.8053   2.8207   2.8719   2.8795   2.9891   3.0543   3.1224   3.1419
     3.1993   3.2122   3.2435   3.2750   3.3239   3.3635   3.4156   3.4381
     3.5128   3.5346   3.6351   3.6639   3.6987   3.7328   3.7542   3.8201
     3.9381   3.9758   4.0117   4.1371   4.2064   4.3662   4.7760   4.8460
     4.9892   5.0245   5.0984   5.1160   5.1395   5.2231   5.3259   5.4277
     5.4485   5.5060   5.5953   5.6264   5.7172   5.7302   5.7930   5.8233
     5.8787   5.9059   5.9503   6.0130   6.0506   6.2213   6.2475   6.3605
     6.4090   6.4470   6.6501   6.6547   6.7882   6.9070   7.0513   7.2874
     7.3867   7.7156   7.8364   8.0848   8.3677   8.5592   8.6337   8.9050
     9.0247   9.0639   9.2987   9.3898

          k =-0.0506 0.0280 0.0000 ( 34685 PWs)   bands (ev):

   -57.8216 -57.7914 -57.5127 -57.4601 -57.3878 -57.3565 -57.2770 -57.2465
   -57.1796 -57.1489 -57.1163 -57.0856 -56.8840 -56.8143 -56.2838 -56.2533
   -34.2359 -34.1031 -34.0784 -34.0355 -34.0172 -33.9376 -33.8975 -33.8428
   -33.8221 -33.7528 -33.7368 -33.7280 -33.7171 -33.6916 -33.6844 -33.6740
   -33.6489 -33.6080 -33.5944 -33.5364 -33.5334 -33.4867 -33.4584 -33.4460
   -33.4349 -33.4249 -33.4108 -33.3899 -33.3745 -33.3617 -33.3541 -33.3435
   -33.3143 -33.3137 -33.3061 -33.2771 -33.2754 -33.1489 -33.1387 -33.0857
   -33.0448 -32.9679 -32.6790 -32.6384 -32.6116 -32.5027 -32.4234 -32.3364
   -24.2360 -20.9925 -18.0304 -17.7792 -17.5683 -17.4785 -17.4741 -17.4003
   -17.3414 -17.2574 -17.2423 -17.1119 -17.0912 -17.0640 -17.0604 -17.0015
   -16.9825 -16.9686 -16.8708 -16.7620 -16.7192 -16.6715 -16.5871 -16.5703
   -16.5343 -16.4915 -16.4618 -16.3074 -16.2745 -16.2649 -16.1339 -16.1229
   -14.8747 -14.8064  -9.7913  -7.4827  -7.4595  -5.9948  -5.4382  -5.0181
    -4.9448  -4.9332  -4.8635  -4.8399  -4.8200  -4.7791  -4.6422  -4.5802
    -4.5633  -4.5098  -4.4519  -4.3602  -4.3128  -4.2274  -4.1758  -4.1561
    -4.1368  -4.1273  -4.0552  -4.0115  -3.9787  -3.9511  -3.9101  -3.8851
    -3.8641  -3.8298  -3.7830  -3.7242  -3.7067  -3.5888  -3.4531  -3.4192
    -3.3930  -3.3342  -3.3052  -3.2572  -3.1875  -3.1043  -3.0604  -3.0051
    -2.9393  -2.9173  -2.8706  -2.8635  -2.8068  -2.7561  -2.7381  -2.6866
    -2.6452  -2.6197  -2.5886  -2.5406  -2.5020  -2.4786  -2.4340  -2.4079
    -2.3437  -2.3134  -2.2328  -2.2047  -2.1376  -2.1067  -2.0936  -2.0493
    -1.9988  -1.9362  -1.9071  -1.8763  -1.8490  -1.7801  -1.6943  -1.6388
    -1.6033  -1.5720  -1.4984  -1.4706  -1.4299  -1.4085  -1.3246  -1.2711
    -1.1869  -1.1475  -1.0369  -1.0227  -0.9549  -0.9267  -0.8929  -0.8581
    -0.8186  -0.6545  -0.4559  -0.4018  -0.2057  -0.0230   0.0077   0.0213
     1.5812   1.7874   1.9199   1.9376   1.9567   2.0325   2.0662   2.1438
     2.2400   2.2556   2.2969   2.3574   2.4067   2.4491   2.4507   2.5180
     2.5338   2.5683   2.6029   2.6469   2.6771   2.7667   2.8201   2.8273
     2.8706   2.9222   2.9474   3.0093   3.0172   3.0642   3.1395   3.1633
     3.2285   3.2616   3.2956   3.3101   3.3774   3.3982   3.4400   3.4748
     3.4946   3.5283   3.5419   3.5911   3.6361   3.6856   3.7351   3.8220
     3.9272   4.0273   4.1335   4.1451   4.2804   4.3491   4.5240   4.6322
     4.6545   4.6806   4.8468   4.8977   4.9926   5.3100   5.3626   5.4705
     5.5126   5.5741   5.6530   5.7075   5.7335   5.7504   5.8813   5.9292
     5.9795   6.0205   6.2559   6.2707   6.3052   6.3699   6.4306   6.5138
     6.5404   6.6215   6.6847   6.7323   6.8240   6.9587   7.0262   7.3466
     7.4350   7.6902   7.8131   8.0794   8.3139   8.3967   8.5253   8.9199
     9.0858   9.1657   9.3744   9.4663

          k =-0.0506 0.0560 0.0000 ( 34596 PWs)   bands (ev):

   -57.8153 -57.7978 -57.5094 -57.4634 -57.3816 -57.3628 -57.2706 -57.2530
   -57.1732 -57.1553 -57.1098 -57.0921 -56.8814 -56.8170 -56.2774 -56.2597
   -34.1660 -34.0978 -34.0835 -34.0005 -33.9707 -33.9649 -33.9545 -33.8061
   -33.7765 -33.7662 -33.7524 -33.7147 -33.7065 -33.6941 -33.6796 -33.6762
   -33.5914 -33.5794 -33.5765 -33.5381 -33.5367 -33.5168 -33.4837 -33.4643
   -33.4532 -33.4396 -33.4084 -33.3825 -33.3813 -33.3692 -33.3613 -33.3575
   -33.3414 -33.3285 -33.3048 -33.3025 -33.2676 -33.1470 -33.1351 -33.0877
   -33.0582 -33.0352 -32.6326 -32.6172 -32.6082 -32.4862 -32.4403 -32.4104
   -24.2359 -20.9923 -17.8735 -17.6281 -17.4536 -17.4318 -17.4136 -17.3410
   -17.3016 -17.2696 -17.1974 -17.1644 -17.0935 -17.0738 -17.0082 -16.9865
   -16.9841 -16.9154 -16.9054 -16.8409 -16.8012 -16.7746 -16.7077 -16.6620
   -16.5596 -16.4576 -16.4144 -16.3157 -16.3144 -16.2860 -16.2491 -16.1831
   -14.8935 -14.8572  -9.7910  -7.4851  -7.4595  -5.9932  -5.2155  -4.7835
    -4.7327  -4.7231  -4.6854  -4.6490  -4.6386  -4.6018  -4.4969  -4.4787
    -4.4537  -4.4377  -4.3462  -4.2937  -4.2769  -4.2715  -4.2295  -4.2091
    -4.1846  -4.1723  -4.1584  -4.1314  -4.0784  -4.0413  -4.0303  -4.0004
    -3.9451  -3.8853  -3.8199  -3.7842  -3.6814  -3.6528  -3.5093  -3.4831
    -3.4655  -3.3981  -3.3797  -3.2033  -3.1147  -3.0768  -3.0283  -2.9856
    -2.9633  -2.9117  -2.8918  -2.8561  -2.8071  -2.7659  -2.7132  -2.7079
    -2.6350  -2.6196  -2.5908  -2.5164  -2.4851  -2.4666  -2.4499  -2.4282
    -2.4000  -2.3576  -2.2874  -2.2752  -2.2507  -2.2249  -2.1770  -2.1648
    -2.0930  -2.0533  -2.0230  -1.9805  -1.9358  -1.8547  -1.7869  -1.7705
    -1.7026  -1.6025  -1.5290  -1.4837  -1.4499  -1.3716  -1.3351  -1.2278
    -1.1745  -1.1363  -1.0924  -1.0310  -0.9871  -0.9230  -0.9104  -0.8326
    -0.7991  -0.7847  -0.6560  -0.4655  -0.0543  -0.0172  -0.0038   0.0522
     1.7395   1.9356   1.9566   2.0176   2.0743   2.1137   2.1235   2.1767
     2.2236   2.2710   2.3861   2.4228   2.4309   2.4563   2.4764   2.5020
     2.5947   2.6107   2.6430   2.6663   2.6836   2.7271   2.7931   2.8221
     2.8944   2.9064   2.9462   2.9777   3.0259   3.0650   3.1914   3.2193
     3.2379   3.2666   3.3153   3.3284   3.3713   3.3891   3.4076   3.4679
     3.5465   3.5805   3.6100   3.6907   3.7405   3.7711   3.7812   3.7979
     3.8398   3.9719   4.0241   4.1507   4.2113   4.4527   4.6478   4.6784
     4.7504   4.7530   4.8980   5.0024   5.0742   5.1420   5.2115   5.2369
     5.3082   5.4660   5.5677   5.6357   5.6976   5.7412   5.8324   5.9723
     6.0156   6.1168   6.1669   6.2117   6.2568   6.3052   6.4679   6.4866
     6.5513   6.5925   6.6540   6.6826   6.8430   6.8770   6.9797   7.3056
     7.3293   7.7258   7.7632   8.0196   8.1002   8.1779   8.5839   8.6732
     8.8421   8.9145   9.1438   9.3673

     the Fermi energy is     0.8658 ev

!    total energy              =   -3044.95629757 Ry
     Harris-Foulkes estimate   =   -3044.95629743 Ry
     estimated scf accuracy    <       0.00000055 Ry

     The total energy is the sum of the following terms:

     one-electron contribution =  -40855.48651151 Ry
     hartree contribution      =   20500.06044137 Ry
     xc contribution           =    -557.16150614 Ry
     ewald contribution        =   17867.63148430 Ry
     smearing contrib. (-TS)   =      -0.00020560 Ry

     total magnetization       =     0.00 Bohr mag/cell
     absolute magnetization    =     0.00 Bohr mag/cell

     convergence has been achieved in   9 iterations

     Forces acting on atoms (Ry/au):


     negative rho (up, down):  1.158E-02 1.158E-02
     atom    1 type  1   force =    -0.00008538    0.00030362   -0.13600791
     atom    2 type  2   force =     0.00010430   -0.00008267    0.07518133
     atom    3 type  1   force =     0.00126896    0.00108724   -0.05987494
     atom    4 type  2   force =     0.00660917   -0.00007060    0.00968755
     atom    5 type  1   force =    -0.00131884   -0.00012409   -0.00002384
     atom    6 type  2   force =    -0.00184496   -0.00353495   -0.00898311
     atom    7 type  1   force =     0.01097471    0.00779731   -0.01693944
     atom    8 type  2   force =     0.00048764   -0.00016692    0.00063931
     atom    9 type  1   force =     0.00013013    0.00034899   -0.13607795
     atom   10 type  2   force =     0.00016713   -0.00003402    0.07512835
     atom   11 type  1   force =     0.00126259   -0.00086573   -0.06000719
     atom   12 type  2   force =     0.00604725   -0.00011551    0.00855401
     atom   13 type  1   force =     0.00013070   -0.00017575   -0.00037918
     atom   14 type  2   force =    -0.00198819    0.00293514   -0.00902233
     atom   15 type  1   force =     0.01122978   -0.00794845   -0.01641189
     atom   16 type  2   force =     0.00707388    0.00001125    0.01070234
     atom   17 type  2   force =    -0.00002602   -0.00005706    0.08000936
     atom   18 type  1   force =    -0.00006222    0.00022625    0.11908214
     atom   19 type  2   force =     0.00039040    0.00018357   -0.06811093
     atom   20 type  2   force =    -0.06269130    0.00004560   -0.03209931
     atom   21 type  2   force =     0.06273985    0.00014883   -0.03257283
     atom   22 type  1   force =    -0.00049140   -0.00012523    0.06427867
     atom   23 type  2   force =     0.00015678    0.00061616   -0.00264032
     atom   24 type  2   force =     0.00049647    0.00003684   -0.02241136
     atom   25 type  2   force =    -0.00645299   -0.00025939    0.00824399
     atom   26 type  1   force =    -0.00011389   -0.00005607    0.00254488
     atom   27 type  2   force =     0.00253914   -0.00144952   -0.00243210
     atom   28 type  2   force =    -0.00003935   -0.00002541   -0.00147466
     atom   29 type  2   force =     0.00011890   -0.00007132   -0.00052902
     atom   30 type  1   force =     0.00576330    0.00043769   -0.00067886
     atom   31 type  2   force =    -0.00212437    0.00159725    0.00104112
     atom   32 type  2   force =     0.00158213   -0.00009876    0.00185855
     atom   33 type  2   force =    -0.00000197    0.00015091    0.08007953
     atom   34 type  1   force =    -0.00007759    0.00023227    0.11909021
     atom   35 type  2   force =     0.00035794    0.00032219   -0.06806167
     atom   36 type  2   force =    -0.06268788    0.00009531   -0.03230866
     atom   37 type  2   force =     0.06285333    0.00017223   -0.03206190
     atom   38 type  1   force =    -0.00069700    0.00000425    0.06411518
     atom   39 type  2   force =     0.00019484   -0.00082167   -0.00262223
     atom   40 type  2   force =     0.00060453   -0.00228015   -0.02256305
     atom   41 type  2   force =    -0.00619455   -0.00031492    0.00764644
     atom   42 type  1   force =    -0.00010637   -0.00009507    0.00249402
     atom   43 type  2   force =     0.00253098    0.00138454   -0.00240311
     atom   44 type  2   force =     0.00035923   -0.00012611   -0.00071515
     atom   45 type  2   force =    -0.00022523   -0.00005018   -0.00094330
     atom   46 type  1   force =    -0.01908369    0.00033417   -0.00503010
     atom   47 type  2   force =    -0.00211748   -0.00144220    0.00114912
     atom   48 type  2   force =    -0.00083378   -0.00155964   -0.02807096
     atom   49 type  2   force =    -0.04851843    0.01081806    0.17888909
     atom   50 type  3   force =    -0.03279466    0.00811910   -0.03616842
     atom   51 type  3   force =     0.06440349   -0.01545740   -0.07278944

     Total force =     0.429843     Total SCF correction =     0.001545
 !ASE

     Writing output data file calc.save
 
     init_run     :     55.29s CPU     70.53s WALL (       1 calls)
     electrons    :   1868.18s CPU   2360.73s WALL (       1 calls)
     forces       :     40.91s CPU     42.37s WALL (       1 calls)

     Called by init_run:
     wfcinit      :     47.40s CPU     61.99s WALL (       1 calls)
     potinit      :      1.25s CPU      1.56s WALL (       1 calls)

     Called by electrons:
     c_bands      :   1618.19s CPU   2045.51s WALL (       9 calls)
     sum_band     :    209.82s CPU    269.06s WALL (       9 calls)
     v_of_rho     :      9.61s CPU     12.15s WALL (      10 calls)
     newd         :     34.29s CPU     37.96s WALL (      10 calls)
     mix_rho      :      0.31s CPU      0.46s WALL (       9 calls)
     vdW_energy   :      1.78s CPU      2.18s WALL (      11 calls)
     vdW_ffts     :      2.52s CPU      3.50s WALL (      22 calls)
     vdW_v        :      1.03s CPU      1.19s WALL (      11 calls)

     Called by c_bands:
     init_us_2    :      5.28s CPU      5.81s WALL (     800 calls)
     cegterg      :   1585.34s CPU   2010.46s WALL (     360 calls)

     Called by *egterg:
     h_psi        :    658.25s CPU   1014.46s WALL (    1802 calls)
     s_psi        :     84.89s CPU     89.25s WALL (    1802 calls)
     g_psi        :      4.51s CPU      4.65s WALL (    1402 calls)
     cdiaghg      :    529.51s CPU    541.01s WALL (    1762 calls)

     Called by h_psi:
     add_vuspsi   :     85.42s CPU     89.80s WALL (    1802 calls)

     General routines
     calbec       :    129.14s CPU    132.89s WALL (    2202 calls)
     fft          :      5.32s CPU      7.11s WALL (     867 calls)
     ffts         :      0.04s CPU      0.06s WALL (      38 calls)
     fftw         :    433.16s CPU    817.29s WALL (  660284 calls)
     interpolate  :      0.30s CPU      0.50s WALL (      38 calls)
     davcio       :      0.11s CPU      3.37s WALL (      40 calls)
 
     Parallel routines
     fft_scatter  :    229.57s CPU    432.38s WALL (  661189 calls)
 
     PWSCF        : 32m45.32s CPU    41m18.69s WALL

 
   This run was terminated on:  17:54:47  10Mar2018            

=------------------------------------------------------------------------------=
   JOB DONE.
=------------------------------------------------------------------------------=
