  python dir          : /home/vossj/suncat/lib/python2.7/site-packages/espresso
  espresso dir        : /home/vossj/suncat/esdld/espresso-dynpy-beef/bin
  pseudo dir          : /home/alatimer/bin/psp/esp_psp_w_gbrvRu/
  ase-espresso py git : ffa2778-git



     Program PWSCF v.5.1rc2 (svn rev. ) starts on 12Feb2018 at 22:11:58 

     This program is part of the open-source Quantum ESPRESSO suite
     for quantum simulation of materials; please cite
         "P. Giannozzi et al., J. Phys.:Condens. Matter 21 395502 (2009);
          URL http://www.quantum-espresso.org", 
     in publications or presentations arising from this work. More details at
     http://www.quantum-espresso.org/quote

     Parallel version (MPI), running on    16 processors
     R & G space division:  proc/nbgrp/npool/nimage =      16
     Reading input from pw.inp
     Message from routine read_cards :
     DEPRECATED: no units specified in CELL_PARAMETERS card

     Current dimensions of program PWSCF are:
     Max number of different atomic species (ntypx) = 10
     Max number of k-points (npk) =  40000
     Max angular momentum in pseudopotentials (lmaxx) =  3

     **************************************************************************
     Initializing libbeef V0.1.1 with the BEEF-vdW functional.
     Citation: Wellendorff et al., PRB 85, 235149 (2012).
     **************************************************************************


     IMPORTANT: XC functional enforced from input :
     Exchange-correlation      = BEEF ( 1  4 27 13 2)
     Any further DFT definition will be discarded
     Please, verify this is what you really want


     Subspace diagonalization in iterative solution of the eigenvalue problem:
     a serial algorithm will be used

 
     Parallelization info
     --------------------
     sticks:   dense  smooth     PW     G-vecs:    dense   smooth      PW
     Min         281     112     31                68535    17318    2565
     Max         282     113     32                68545    17369    2582
     Sum        4501    1795    503              1096637   277353   41113
 
     Generating pointlists ...
     new r_m :   0.4125 (alat units)  0.7795 (a.u.) for type    1
     new r_m :   0.3874 (alat units)  0.7321 (a.u.) for type    2
     new r_m :   0.4125 (alat units)  0.7795 (a.u.) for type    3
     new r_m :   0.3874 (alat units)  0.7321 (a.u.) for type    4


     bravais-lattice index     =            0
     lattice parameter (alat)  =       1.8897  a.u.
     unit-cell volume          =    7990.9933 (a.u.)^3
     number of atoms/cell      =           54
     number of atomic types    =            4
     number of electrons       =       398.00
     number of Kohn-Sham states=          299
     kinetic-energy cutoff     =      40.4243  Ry
     charge density cutoff     =     404.2426  Ry
     convergence threshold     =      7.3E-07
     mixing beta               =       0.1000
     number of iterations used =           10  plain     mixing
     Exchange-correlation      = BEEF ( 1  4 27 13 2)
     nstep                     =           50


     celldm(1)=   1.889726  celldm(2)=   0.000000  celldm(3)=   0.000000
     celldm(4)=   0.000000  celldm(5)=   0.000000  celldm(6)=   0.000000

     crystal axes: (cart. coord. in units of alat)
               a(1) = (   6.590708   0.000000   0.000000 )  
               a(2) = (   0.000000   5.950229   0.000000 )  
               a(3) = (   0.000000   0.000000  30.195235 )  

     reciprocal axes: (cart. coord. in units 2 pi/alat)
               b(1) = (  0.151729  0.000000  0.000000 )  
               b(2) = (  0.000000  0.168061  0.000000 )  
               b(3) = (  0.000000  0.000000  0.033118 )  


     PseudoPot. # 1 for Ti read from file:
     /home/alatimer/bin/psp/esp_psp_w_gbrvRu/Ti.UPF
     MD5 check sum: 8e4df49b7f0d34bbd5052bf3f5ea0213
     Pseudo is Ultrasoft, Zval = 12.0
     Generated by new atomic code, or converted to UPF format
     Using radial grid of  851 points,  6 beta functions with: 
                l(1) =   0
                l(2) =   0
                l(3) =   1
                l(4) =   1
                l(5) =   2
                l(6) =   2
     Q(r) pseudized with  8 coefficients,  rinner =    1.000   1.000   1.000
                                                       1.000   1.000

     PseudoPot. # 2 for  O read from file:
     /home/alatimer/bin/psp/esp_psp_w_gbrvRu/O.UPF
     MD5 check sum: e057bbcf3229fb5d8c36c0c92f9568b4
     Pseudo is Ultrasoft + core correction, Zval =  6.0
     Generated using "atomic" code by A. Dal Corso  v.5.0.2 svn rev. 9415
     Using radial grid of 1095 points,  4 beta functions with: 
                l(1) =   0
                l(2) =   0
                l(3) =   1
                l(4) =   1
     Q(r) pseudized with 0 coefficients 


     PseudoPot. # 3 for  C read from file:
     /home/alatimer/bin/psp/esp_psp_w_gbrvRu/C.UPF
     MD5 check sum: ab446d787031eba755f1d5ee46644bb0
     Pseudo is Ultrasoft + core correction, Zval =  4.0
     Generated using "atomic" code by A. Dal Corso  v.5.0.2 svn rev. 9415
     Using radial grid of 1073 points,  4 beta functions with: 
                l(1) =   0
                l(2) =   0
                l(3) =   1
                l(4) =   1
     Q(r) pseudized with 0 coefficients 


     PseudoPot. # 4 for  H read from file:
     /home/alatimer/bin/psp/esp_psp_w_gbrvRu/H.UPF
     MD5 check sum: bd57da0722753ddfd9833a65b40bb853
     Pseudo is Ultrasoft, Zval =  1.0
     Generated using "atomic" code by A. Dal Corso  v.5.0.2 svn rev. 9415
     Using radial grid of  929 points,  2 beta functions with: 
                l(1) =   0
                l(2) =   0
     Q(r) pseudized with 0 coefficients 


     vdW kernel table read from file vdW_kernel_table
     MD5 check sum: 095c7af220d748ca6e76c0b4c6cfb241

     atomic species   valence    mass     pseudopotential
        Ti1           12.00    47.88000     Ti( 1.00)
        O1             6.00    15.99940      O( 1.00)
        C1             4.00    12.01100      C( 1.00)
        H1             1.00     1.00794      H( 1.00)

     Starting magnetic structure 
     atomic species   magnetization
        Ti1          0.250
        O1           0.500
        C1           0.750
        H1           0.000

     No symmetry found



   Cartesian axes

     site n.     atom                  positions (alat units)
         1           Ti1 tau(   1) = (   1.6476770   0.7437786   2.6545865  )
         2           O1  tau(   2) = (   1.6476770   2.2313359   3.9361215  )
         3           Ti1 tau(   3) = (   1.6476770   2.2313359   5.9499405  )
         4           O1  tau(   4) = (   0.3661420   0.7437786   5.9499405  )
         5           Ti1 tau(   5) = (   1.7592931   0.7557636   9.1813031  )
         6           O1  tau(   6) = (   1.6162490   2.2572048  10.5951269  )
         7           Ti1 tau(   7) = (   1.5595004   2.2680265  12.4668274  )
         8           O1  tau(   8) = (   0.3709531   0.7738127  12.6996540  )
         9           Ti1 tau(   9) = (   1.6476770   3.7188931   2.6545865  )
        10           O1  tau(  10) = (   1.6476770   5.2064503   3.9361215  )
        11           Ti1 tau(  11) = (   1.6476770   5.2064503   5.9499405  )
        12           O1  tau(  12) = (   0.3661420   3.7188931   5.9499405  )
        13           Ti1 tau(  13) = (   1.7607536   3.7112867   9.1949733  )
        14           O1  tau(  14) = (   1.6133076   5.2250699  10.5465640  )
        15           Ti1 tau(  15) = (   1.6492307   5.2431137  12.3448001  )
        16           O1  tau(  16) = (   0.3719744   3.7598389  12.7007434  )
        17           O1  tau(  17) = (   1.6476770   2.2313359   1.3730516  )
        18           Ti1 tau(  18) = (   4.9430310   2.2313359   2.6545865  )
        19           O1  tau(  19) = (   4.9430310   2.2313359   4.6684056  )
        20           O1  tau(  20) = (   6.2245660   0.7437786   2.6545865  )
        21           O1  tau(  21) = (   3.6614961   0.7437786   2.6545865  )
        22           Ti1 tau(  22) = (   4.9430310   0.7437786   5.9499405  )
        23           O1  tau(  23) = (   1.6387103   2.2391978   8.0037664  )
        24           O1  tau(  24) = (   4.9430310   2.2313359   7.2314755  )
        25           O1  tau(  25) = (   2.9292120   0.7437786   5.9499405  )
        26           Ti1 tau(  26) = (   5.0158092   2.2383949   9.3973727  )
        27           O1  tau(  27) = (   4.9391445   2.2276729  11.2675731  )
        28           O1  tau(  28) = (   6.2094020   0.7514556   9.2742047  )
        29           O1  tau(  29) = (   3.6131301   0.7515640   9.2682932  )
        30           Ti1 tau(  30) = (   4.8940083   0.8207741  12.7348365  )
        31           O1  tau(  31) = (   4.8487174   2.2703822  13.8475395  )
        32           O1  tau(  32) = (   2.8766274   0.7418004  12.6316555  )
        33           O1  tau(  33) = (   1.6476770   5.2064503   1.3730516  )
        34           Ti1 tau(  34) = (   4.9430310   5.2064503   2.6545865  )
        35           O1  tau(  35) = (   4.9430310   5.2064503   4.6684056  )
        36           O1  tau(  36) = (   6.2245660   3.7188931   2.6545865  )
        37           O1  tau(  37) = (   3.6614961   3.7188931   2.6545865  )
        38           Ti1 tau(  38) = (   4.9430310   3.7188931   5.9499405  )
        39           O1  tau(  39) = (   1.6418458   5.2133935   8.0066417  )
        40           O1  tau(  40) = (   4.9430310   5.2064503   7.2314755  )
        41           O1  tau(  41) = (   2.9292120   3.7188931   5.9499405  )
        42           Ti1 tau(  42) = (   5.0218241   5.2139137   9.3870600  )
        43           O1  tau(  43) = (   4.9399496   5.2040061  11.2598200  )
        44           O1  tau(  44) = (   6.2073000   3.7245411   9.2731052  )
        45           O1  tau(  45) = (   3.6137513   3.7232133   9.2682466  )
        46           Ti1 tau(  46) = (   4.8936935   3.8094630  12.7397413  )
        47           O1  tau(  47) = (   4.9051259   5.2510468  13.8339921  )
        48           O1  tau(  48) = (   2.8743370   3.7938830  12.6403791  )
        49           C1  tau(  49) = (   1.0587210   2.2268971  15.9066084  )
        50           O1  tau(  50) = (   1.8917182   2.2355032  14.7378010  )
        51           H1  tau(  51) = (   0.0310076   2.2200215  15.5603933  )
        52           H1  tau(  52) = (   2.8055400   2.2288152  14.9543747  )
        53           H1  tau(  53) = (   1.2478062   1.3326534  16.5039879  )
        54           H1  tau(  54) = (   1.2341453   3.1195140  16.5098874  )

     number of k points=    40  Fermi-Dirac smearing, width (Ry)=  0.0073
                       cart. coord. in units 2pi/alat
        k(    1) = (   0.0000000   0.0000000   0.0000000), wk =   0.0277778
        k(    2) = (   0.0000000   0.0280101   0.0000000), wk =   0.0555556
        k(    3) = (   0.0000000   0.0560203   0.0000000), wk =   0.0555556
        k(    4) = (   0.0000000  -0.0840304   0.0000000), wk =   0.0277778
        k(    5) = (   0.0252881   0.0000000   0.0000000), wk =   0.0555556
        k(    6) = (   0.0252881   0.0280101   0.0000000), wk =   0.0555556
        k(    7) = (   0.0252881   0.0560203   0.0000000), wk =   0.0555556
        k(    8) = (   0.0252881  -0.0840304   0.0000000), wk =   0.0555556
        k(    9) = (   0.0505763   0.0000000   0.0000000), wk =   0.0555556
        k(   10) = (   0.0505763   0.0280101   0.0000000), wk =   0.0555556
        k(   11) = (   0.0505763   0.0560203   0.0000000), wk =   0.0555556
        k(   12) = (   0.0505763  -0.0840304   0.0000000), wk =   0.0555556
        k(   13) = (  -0.0758644   0.0000000   0.0000000), wk =   0.0277778
        k(   14) = (  -0.0758644   0.0280101   0.0000000), wk =   0.0555556
        k(   15) = (  -0.0758644   0.0560203   0.0000000), wk =   0.0555556
        k(   16) = (  -0.0758644  -0.0840304   0.0000000), wk =   0.0277778
        k(   17) = (  -0.0252881   0.0280101   0.0000000), wk =   0.0555556
        k(   18) = (  -0.0252881   0.0560203   0.0000000), wk =   0.0555556
        k(   19) = (  -0.0505763   0.0280101   0.0000000), wk =   0.0555556
        k(   20) = (  -0.0505763   0.0560203   0.0000000), wk =   0.0555556
        k(   21) = (   0.0000000   0.0000000   0.0000000), wk =   0.0277778
        k(   22) = (   0.0000000   0.0280101   0.0000000), wk =   0.0555556
        k(   23) = (   0.0000000   0.0560203   0.0000000), wk =   0.0555556
        k(   24) = (   0.0000000  -0.0840304   0.0000000), wk =   0.0277778
        k(   25) = (   0.0252881   0.0000000   0.0000000), wk =   0.0555556
        k(   26) = (   0.0252881   0.0280101   0.0000000), wk =   0.0555556
        k(   27) = (   0.0252881   0.0560203   0.0000000), wk =   0.0555556
        k(   28) = (   0.0252881  -0.0840304   0.0000000), wk =   0.0555556
        k(   29) = (   0.0505763   0.0000000   0.0000000), wk =   0.0555556
        k(   30) = (   0.0505763   0.0280101   0.0000000), wk =   0.0555556
        k(   31) = (   0.0505763   0.0560203   0.0000000), wk =   0.0555556
        k(   32) = (   0.0505763  -0.0840304   0.0000000), wk =   0.0555556
        k(   33) = (  -0.0758644   0.0000000   0.0000000), wk =   0.0277778
        k(   34) = (  -0.0758644   0.0280101   0.0000000), wk =   0.0555556
        k(   35) = (  -0.0758644   0.0560203   0.0000000), wk =   0.0555556
        k(   36) = (  -0.0758644  -0.0840304   0.0000000), wk =   0.0277778
        k(   37) = (  -0.0252881   0.0280101   0.0000000), wk =   0.0555556
        k(   38) = (  -0.0252881   0.0560203   0.0000000), wk =   0.0555556
        k(   39) = (  -0.0505763   0.0280101   0.0000000), wk =   0.0555556
        k(   40) = (  -0.0505763   0.0560203   0.0000000), wk =   0.0555556

     Dense  grid:  1096637 G-vectors     FFT dimensions: (  80,  72, 375)

     Smooth grid:   277353 G-vectors     FFT dimensions: (  54,  45, 240)

     Largest allocated arrays     est. size (Mb)     dimensions
        Kohn-Sham Wavefunctions         9.95 Mb     (    2180,  299)
        NL pseudopotentials            18.89 Mb     (    2180,  568)
        Each V/rho on FFT grid          4.22 Mb     (  138240,   2)
        Each G-vector array             0.52 Mb     (   68538)
        G-vector shells                 0.25 Mb     (   33046)
     Largest temporary arrays     est. size (Mb)     dimensions
        Auxiliary wavefunctions        39.78 Mb     (    2180, 1196)
        Each subspace H/S matrix       21.83 Mb     (    1196, 1196)
        Each <psi_i|beta_j> matrix      2.59 Mb     (     568,  299)
        Arrays for rho mixing          21.09 Mb     (  138240,   10)

     Check: negative/imaginary core charge=   -0.000049    0.000000

     The initial density is read from file :
     ./calc.save/charge-density.dat


     negative rho (up, down):  1.209E-02 1.209E-02


     ************************************************************************
     *
     * You are using vdW-DF for exchange-correlation in this calculation.
     * Please cite the following three references that made this development
     * possible:
     *
     *   M. Dion, H. Rydberg, E. Schroder, D. C. Langreth, and
     *   B. I. Lundqvist, Phys. Rev. Lett. 92, 246401 (2004).
     *
     *   T. Thonhauser, V. R. Cooper, S. Li, A. Puzder, P. Hyldgaard, and
     *   D. C. Langreth, Phys. Rev. B 76, 125112 (2007).
     *
     *   G. Roman-Perez and J. M. Soler, Phys. Rev. Lett. 103, 096102 (2009).
     *
     *
     * If you are using vdW-DF2, please also cite:
     *
     *   K. Lee, E. D. Murray, L. Kong, B. I. Lundqvist, and
     *   D. C. Langreth, Phys. Rev. B 82, 081101(R) (2010).
     *
     *
     * If you are calculating the stress with vdW-DF, please also cite:
     *
     *   R. Sabatini, E. Kucukbenli, B. Kolb, T. Thonhauser, and
     *   S. de Gironcoli, J. Phys.: Condens. Matter 24, 424209 (2012).
     *
     ************************************************************************

     Carrying out vdW-DF run using the following parameters:

     Nqs =      20    Nr_points =    1024   r_max =   100.000
     q_mesh =
               0.00001000     0.04494208     0.09755937     0.15916263
               0.23128650     0.31572767     0.41458969     0.53033537
               0.66584808     0.82450364     1.01025438     1.22772762
               1.48234092     1.78043706     2.12944203     2.53805004
               3.01644009     3.57652955     4.23227104     5.00000000

     Gradients computed in reciprocal space

     ************************************************************************


     Starting wfc are  300 randomized atomic wfcs

     total cpu time spent up to now is       73.7 secs

     Self-consistent Calculation

     iteration #  1     ecut=    40.42 Ry     beta=0.10
     Davidson diagonalization with overlap
     ethr =  1.00E-05,  avg # of iterations = 14.8

     Threshold (ethr) on eigenvalues was too large:
     Diagonalizing with lowered threshold

     Davidson diagonalization with overlap
     ethr =  8.00E-07,  avg # of iterations =  1.0

     negative rho (up, down):  1.209E-02 1.209E-02
 
     Magnetic moment per site:
     atom:    1    charge:    3.1250    magn:   -0.0002    constr:    0.0000
     atom:    2    charge:    1.8227    magn:    0.0000    constr:    0.0000
     atom:    3    charge:    3.1198    magn:    0.0000    constr:    0.0000
     atom:    4    charge:    1.8225    magn:   -0.0001    constr:    0.0000
     atom:    5    charge:    3.1166    magn:    0.0000    constr:    0.0000
     atom:    6    charge:    1.8223    magn:   -0.0001    constr:    0.0000
     atom:    7    charge:    3.1158    magn:    0.0001    constr:    0.0000
     atom:    8    charge:    1.8215    magn:   -0.0001    constr:    0.0000
     atom:    9    charge:    3.1250    magn:   -0.0002    constr:    0.0000
     atom:   10    charge:    1.8227    magn:    0.0000    constr:    0.0000
     atom:   11    charge:    3.1197    magn:    0.0000    constr:    0.0000
     atom:   12    charge:    1.8225    magn:   -0.0001    constr:    0.0000
     atom:   13    charge:    3.1158    magn:    0.0000    constr:    0.0000
     atom:   14    charge:    1.8323    magn:   -0.0001    constr:    0.0000
     atom:   15    charge:    3.1189    magn:    0.0001    constr:    0.0000
     atom:   16    charge:    1.8213    magn:   -0.0001    constr:    0.0000
     atom:   17    charge:    1.7984    magn:    0.0004    constr:    0.0000
     atom:   18    charge:    3.1239    magn:   -0.0001    constr:    0.0000
     atom:   19    charge:    1.8195    magn:   -0.0000    constr:    0.0000
     atom:   20    charge:    1.8206    magn:    0.0000    constr:    0.0000
     atom:   21    charge:    1.8206    magn:    0.0000    constr:    0.0000
     atom:   22    charge:    3.1196    magn:    0.0000    constr:    0.0000
     atom:   23    charge:    1.8292    magn:   -0.0001    constr:    0.0000
     atom:   24    charge:    1.8155    magn:   -0.0001    constr:    0.0000
     atom:   25    charge:    1.8227    magn:   -0.0001    constr:    0.0000
     atom:   26    charge:    3.1145    magn:    0.0001    constr:    0.0000
     atom:   27    charge:    1.8179    magn:   -0.0001    constr:    0.0000
     atom:   28    charge:    1.8243    magn:   -0.0001    constr:    0.0000
     atom:   29    charge:    1.8225    magn:   -0.0001    constr:    0.0000
     atom:   30    charge:    3.1167    magn:    0.0000    constr:    0.0000
     atom:   31    charge:    1.8182    magn:   -0.0000    constr:    0.0000
     atom:   32    charge:    1.8212    magn:   -0.0001    constr:    0.0000
     atom:   33    charge:    1.7984    magn:    0.0004    constr:    0.0000
     atom:   34    charge:    3.1239    magn:   -0.0001    constr:    0.0000
     atom:   35    charge:    1.8195    magn:   -0.0000    constr:    0.0000
     atom:   36    charge:    1.8206    magn:    0.0000    constr:    0.0000
     atom:   37    charge:    1.8206    magn:    0.0000    constr:    0.0000
     atom:   38    charge:    3.1196    magn:    0.0000    constr:    0.0000
     atom:   39    charge:    1.8271    magn:   -0.0001    constr:    0.0000
     atom:   40    charge:    1.8158    magn:   -0.0001    constr:    0.0000
     atom:   41    charge:    1.8226    magn:   -0.0001    constr:    0.0000
     atom:   42    charge:    3.1141    magn:    0.0001    constr:    0.0000
     atom:   43    charge:    1.8188    magn:   -0.0001    constr:    0.0000
     atom:   44    charge:    1.8239    magn:   -0.0001    constr:    0.0000
     atom:   45    charge:    1.8227    magn:   -0.0001    constr:    0.0000
     atom:   46    charge:    3.1165    magn:    0.0000    constr:    0.0000
     atom:   47    charge:    1.8207    magn:   -0.0000    constr:    0.0000
     atom:   48    charge:    1.8204    magn:   -0.0001    constr:    0.0000
     atom:   49    charge:    0.6581    magn:   -0.0001    constr:    0.0000
     atom:   50    charge:    1.8370    magn:   -0.0001    constr:    0.0000
     atom:   51    charge:    0.3774    magn:    0.0000    constr:    0.0000
     atom:   52    charge:    0.3973    magn:    0.0000    constr:    0.0000
     atom:   53    charge:    0.3784    magn:    0.0000    constr:    0.0000
     atom:   54    charge:    0.3784    magn:    0.0000    constr:    0.0000

     total cpu time spent up to now is     1009.2 secs

     total energy              =   -3021.41891325 Ry
     Harris-Foulkes estimate   =   -3021.41934476 Ry
     estimated scf accuracy    <       0.00319039 Ry

     total magnetization       =     0.00 Bohr mag/cell
     absolute magnetization    =     0.01 Bohr mag/cell

     iteration #  2     ecut=    40.42 Ry     beta=0.10
     Davidson diagonalization with overlap
     ethr =  8.02E-07,  avg # of iterations =  2.0

     negative rho (up, down):  1.209E-02 1.209E-02
 
     Magnetic moment per site:
     atom:    1    charge:    3.1250    magn:   -0.0001    constr:    0.0000
     atom:    2    charge:    1.8227    magn:    0.0000    constr:    0.0000
     atom:    3    charge:    3.1198    magn:    0.0000    constr:    0.0000
     atom:    4    charge:    1.8226    magn:   -0.0000    constr:    0.0000
     atom:    5    charge:    3.1166    magn:    0.0000    constr:    0.0000
     atom:    6    charge:    1.8223    magn:   -0.0001    constr:    0.0000
     atom:    7    charge:    3.1158    magn:    0.0000    constr:    0.0000
     atom:    8    charge:    1.8215    magn:   -0.0001    constr:    0.0000
     atom:    9    charge:    3.1250    magn:   -0.0001    constr:    0.0000
     atom:   10    charge:    1.8227    magn:    0.0000    constr:    0.0000
     atom:   11    charge:    3.1197    magn:    0.0000    constr:    0.0000
     atom:   12    charge:    1.8225    magn:   -0.0000    constr:    0.0000
     atom:   13    charge:    3.1158    magn:    0.0000    constr:    0.0000
     atom:   14    charge:    1.8323    magn:   -0.0001    constr:    0.0000
     atom:   15    charge:    3.1189    magn:    0.0001    constr:    0.0000
     atom:   16    charge:    1.8213    magn:   -0.0001    constr:    0.0000
     atom:   17    charge:    1.7985    magn:    0.0004    constr:    0.0000
     atom:   18    charge:    3.1240    magn:   -0.0001    constr:    0.0000
     atom:   19    charge:    1.8195    magn:   -0.0000    constr:    0.0000
     atom:   20    charge:    1.8206    magn:    0.0000    constr:    0.0000
     atom:   21    charge:    1.8206    magn:    0.0000    constr:    0.0000
     atom:   22    charge:    3.1196    magn:    0.0000    constr:    0.0000
     atom:   23    charge:    1.8293    magn:   -0.0001    constr:    0.0000
     atom:   24    charge:    1.8155    magn:   -0.0000    constr:    0.0000
     atom:   25    charge:    1.8227    magn:   -0.0000    constr:    0.0000
     atom:   26    charge:    3.1145    magn:    0.0000    constr:    0.0000
     atom:   27    charge:    1.8180    magn:   -0.0001    constr:    0.0000
     atom:   28    charge:    1.8243    magn:   -0.0001    constr:    0.0000
     atom:   29    charge:    1.8225    magn:   -0.0001    constr:    0.0000
     atom:   30    charge:    3.1167    magn:    0.0000    constr:    0.0000
     atom:   31    charge:    1.8179    magn:   -0.0000    constr:    0.0000
     atom:   32    charge:    1.8212    magn:   -0.0001    constr:    0.0000
     atom:   33    charge:    1.7985    magn:    0.0004    constr:    0.0000
     atom:   34    charge:    3.1239    magn:   -0.0001    constr:    0.0000
     atom:   35    charge:    1.8195    magn:   -0.0000    constr:    0.0000
     atom:   36    charge:    1.8206    magn:    0.0000    constr:    0.0000
     atom:   37    charge:    1.8206    magn:    0.0000    constr:    0.0000
     atom:   38    charge:    3.1196    magn:    0.0000    constr:    0.0000
     atom:   39    charge:    1.8271    magn:   -0.0001    constr:    0.0000
     atom:   40    charge:    1.8159    magn:   -0.0000    constr:    0.0000
     atom:   41    charge:    1.8227    magn:   -0.0000    constr:    0.0000
     atom:   42    charge:    3.1141    magn:    0.0000    constr:    0.0000
     atom:   43    charge:    1.8188    magn:   -0.0000    constr:    0.0000
     atom:   44    charge:    1.8239    magn:   -0.0001    constr:    0.0000
     atom:   45    charge:    1.8227    magn:   -0.0001    constr:    0.0000
     atom:   46    charge:    3.1165    magn:    0.0000    constr:    0.0000
     atom:   47    charge:    1.8207    magn:   -0.0000    constr:    0.0000
     atom:   48    charge:    1.8204    magn:   -0.0001    constr:    0.0000
     atom:   49    charge:    0.6581    magn:   -0.0000    constr:    0.0000
     atom:   50    charge:    1.8428    magn:   -0.0001    constr:    0.0000
     atom:   51    charge:    0.3773    magn:    0.0000    constr:    0.0000
     atom:   52    charge:    0.3977    magn:    0.0000    constr:    0.0000
     atom:   53    charge:    0.3783    magn:    0.0000    constr:    0.0000
     atom:   54    charge:    0.3782    magn:    0.0000    constr:    0.0000

     total cpu time spent up to now is     1198.3 secs

     total energy              =   -3021.41833675 Ry
     Harris-Foulkes estimate   =   -3021.41896038 Ry
     estimated scf accuracy    <       0.00175296 Ry

     total magnetization       =     0.00 Bohr mag/cell
     absolute magnetization    =     0.01 Bohr mag/cell

     iteration #  3     ecut=    40.42 Ry     beta=0.10
     Davidson diagonalization with overlap
     ethr =  4.40E-07,  avg # of iterations =  3.0

     negative rho (up, down):  1.209E-02 1.209E-02
 
     Magnetic moment per site:
     atom:    1    charge:    3.1250    magn:   -0.0001    constr:    0.0000
     atom:    2    charge:    1.8227    magn:    0.0000    constr:    0.0000
     atom:    3    charge:    3.1198    magn:    0.0000    constr:    0.0000
     atom:    4    charge:    1.8226    magn:   -0.0000    constr:    0.0000
     atom:    5    charge:    3.1166    magn:    0.0000    constr:    0.0000
     atom:    6    charge:    1.8224    magn:   -0.0001    constr:    0.0000
     atom:    7    charge:    3.1156    magn:    0.0000    constr:    0.0000
     atom:    8    charge:    1.8215    magn:   -0.0001    constr:    0.0000
     atom:    9    charge:    3.1250    magn:   -0.0001    constr:    0.0000
     atom:   10    charge:    1.8227    magn:    0.0000    constr:    0.0000
     atom:   11    charge:    3.1197    magn:    0.0000    constr:    0.0000
     atom:   12    charge:    1.8225    magn:   -0.0000    constr:    0.0000
     atom:   13    charge:    3.1158    magn:    0.0000    constr:    0.0000
     atom:   14    charge:    1.8323    magn:   -0.0001    constr:    0.0000
     atom:   15    charge:    3.1188    magn:    0.0000    constr:    0.0000
     atom:   16    charge:    1.8213    magn:   -0.0001    constr:    0.0000
     atom:   17    charge:    1.7984    magn:    0.0003    constr:    0.0000
     atom:   18    charge:    3.1239    magn:   -0.0001    constr:    0.0000
     atom:   19    charge:    1.8195    magn:   -0.0000    constr:    0.0000
     atom:   20    charge:    1.8206    magn:    0.0000    constr:    0.0000
     atom:   21    charge:    1.8206    magn:    0.0000    constr:    0.0000
     atom:   22    charge:    3.1196    magn:    0.0000    constr:    0.0000
     atom:   23    charge:    1.8293    magn:   -0.0001    constr:    0.0000
     atom:   24    charge:    1.8155    magn:   -0.0000    constr:    0.0000
     atom:   25    charge:    1.8227    magn:   -0.0000    constr:    0.0000
     atom:   26    charge:    3.1145    magn:    0.0000    constr:    0.0000
     atom:   27    charge:    1.8179    magn:   -0.0000    constr:    0.0000
     atom:   28    charge:    1.8242    magn:   -0.0001    constr:    0.0000
     atom:   29    charge:    1.8225    magn:   -0.0001    constr:    0.0000
     atom:   30    charge:    3.1166    magn:    0.0000    constr:    0.0000
     atom:   31    charge:    1.8185    magn:   -0.0000    constr:    0.0000
     atom:   32    charge:    1.8213    magn:   -0.0001    constr:    0.0000
     atom:   33    charge:    1.7984    magn:    0.0003    constr:    0.0000
     atom:   34    charge:    3.1239    magn:   -0.0001    constr:    0.0000
     atom:   35    charge:    1.8195    magn:   -0.0000    constr:    0.0000
     atom:   36    charge:    1.8206    magn:    0.0000    constr:    0.0000
     atom:   37    charge:    1.8206    magn:    0.0000    constr:    0.0000
     atom:   38    charge:    3.1196    magn:    0.0000    constr:    0.0000
     atom:   39    charge:    1.8271    magn:   -0.0001    constr:    0.0000
     atom:   40    charge:    1.8158    magn:   -0.0000    constr:    0.0000
     atom:   41    charge:    1.8227    magn:   -0.0000    constr:    0.0000
     atom:   42    charge:    3.1141    magn:    0.0000    constr:    0.0000
     atom:   43    charge:    1.8188    magn:   -0.0000    constr:    0.0000
     atom:   44    charge:    1.8239    magn:   -0.0001    constr:    0.0000
     atom:   45    charge:    1.8227    magn:   -0.0001    constr:    0.0000
     atom:   46    charge:    3.1165    magn:    0.0000    constr:    0.0000
     atom:   47    charge:    1.8207    magn:   -0.0000    constr:    0.0000
     atom:   48    charge:    1.8205    magn:   -0.0001    constr:    0.0000
     atom:   49    charge:    0.6582    magn:   -0.0000    constr:    0.0000
     atom:   50    charge:    1.8422    magn:   -0.0000    constr:    0.0000
     atom:   51    charge:    0.3773    magn:    0.0000    constr:    0.0000
     atom:   52    charge:    0.3983    magn:    0.0000    constr:    0.0000
     atom:   53    charge:    0.3783    magn:    0.0000    constr:    0.0000
     atom:   54    charge:    0.3783    magn:    0.0000    constr:    0.0000

     total cpu time spent up to now is     1407.1 secs

     total energy              =   -3021.41855904 Ry
     Harris-Foulkes estimate   =   -3021.41858090 Ry
     estimated scf accuracy    <       0.00024248 Ry

     total magnetization       =     0.00 Bohr mag/cell
     absolute magnetization    =     0.00 Bohr mag/cell

     iteration #  4     ecut=    40.42 Ry     beta=0.10
     Davidson diagonalization with overlap
     ethr =  6.09E-08,  avg # of iterations =  2.0

     negative rho (up, down):  1.209E-02 1.209E-02
 
     Magnetic moment per site:
     atom:    1    charge:    3.1250    magn:   -0.0001    constr:    0.0000
     atom:    2    charge:    1.8227    magn:    0.0000    constr:    0.0000
     atom:    3    charge:    3.1198    magn:    0.0000    constr:    0.0000
     atom:    4    charge:    1.8226    magn:   -0.0000    constr:    0.0000
     atom:    5    charge:    3.1166    magn:    0.0000    constr:    0.0000
     atom:    6    charge:    1.8224    magn:   -0.0000    constr:    0.0000
     atom:    7    charge:    3.1157    magn:    0.0000    constr:    0.0000
     atom:    8    charge:    1.8215    magn:   -0.0000    constr:    0.0000
     atom:    9    charge:    3.1250    magn:   -0.0001    constr:    0.0000
     atom:   10    charge:    1.8227    magn:    0.0000    constr:    0.0000
     atom:   11    charge:    3.1197    magn:    0.0000    constr:    0.0000
     atom:   12    charge:    1.8225    magn:   -0.0000    constr:    0.0000
     atom:   13    charge:    3.1158    magn:    0.0000    constr:    0.0000
     atom:   14    charge:    1.8323    magn:   -0.0000    constr:    0.0000
     atom:   15    charge:    3.1188    magn:    0.0000    constr:    0.0000
     atom:   16    charge:    1.8212    magn:   -0.0000    constr:    0.0000
     atom:   17    charge:    1.7984    magn:    0.0002    constr:    0.0000
     atom:   18    charge:    3.1239    magn:   -0.0000    constr:    0.0000
     atom:   19    charge:    1.8194    magn:   -0.0000    constr:    0.0000
     atom:   20    charge:    1.8206    magn:    0.0000    constr:    0.0000
     atom:   21    charge:    1.8206    magn:    0.0000    constr:    0.0000
     atom:   22    charge:    3.1196    magn:    0.0000    constr:    0.0000
     atom:   23    charge:    1.8293    magn:   -0.0000    constr:    0.0000
     atom:   24    charge:    1.8155    magn:   -0.0000    constr:    0.0000
     atom:   25    charge:    1.8227    magn:   -0.0000    constr:    0.0000
     atom:   26    charge:    3.1145    magn:    0.0000    constr:    0.0000
     atom:   27    charge:    1.8179    magn:   -0.0000    constr:    0.0000
     atom:   28    charge:    1.8242    magn:   -0.0000    constr:    0.0000
     atom:   29    charge:    1.8225    magn:   -0.0000    constr:    0.0000
     atom:   30    charge:    3.1167    magn:    0.0000    constr:    0.0000
     atom:   31    charge:    1.8187    magn:   -0.0000    constr:    0.0000
     atom:   32    charge:    1.8213    magn:   -0.0000    constr:    0.0000
     atom:   33    charge:    1.7984    magn:    0.0002    constr:    0.0000
     atom:   34    charge:    3.1239    magn:   -0.0000    constr:    0.0000
     atom:   35    charge:    1.8195    magn:   -0.0000    constr:    0.0000
     atom:   36    charge:    1.8206    magn:    0.0000    constr:    0.0000
     atom:   37    charge:    1.8206    magn:    0.0000    constr:    0.0000
     atom:   38    charge:    3.1196    magn:    0.0000    constr:    0.0000
     atom:   39    charge:    1.8271    magn:   -0.0000    constr:    0.0000
     atom:   40    charge:    1.8159    magn:   -0.0000    constr:    0.0000
     atom:   41    charge:    1.8227    magn:   -0.0000    constr:    0.0000
     atom:   42    charge:    3.1141    magn:    0.0000    constr:    0.0000
     atom:   43    charge:    1.8188    magn:   -0.0000    constr:    0.0000
     atom:   44    charge:    1.8239    magn:   -0.0000    constr:    0.0000
     atom:   45    charge:    1.8227    magn:   -0.0000    constr:    0.0000
     atom:   46    charge:    3.1165    magn:    0.0000    constr:    0.0000
     atom:   47    charge:    1.8207    magn:   -0.0000    constr:    0.0000
     atom:   48    charge:    1.8205    magn:   -0.0000    constr:    0.0000
     atom:   49    charge:    0.6583    magn:   -0.0000    constr:    0.0000
     atom:   50    charge:    1.8412    magn:   -0.0000    constr:    0.0000
     atom:   51    charge:    0.3774    magn:    0.0000    constr:    0.0000
     atom:   52    charge:    0.3993    magn:    0.0000    constr:    0.0000
     atom:   53    charge:    0.3784    magn:    0.0000    constr:    0.0000
     atom:   54    charge:    0.3784    magn:    0.0000    constr:    0.0000

     total cpu time spent up to now is     1596.2 secs

     total energy              =   -3021.41856212 Ry
     Harris-Foulkes estimate   =   -3021.41856639 Ry
     estimated scf accuracy    <       0.00010142 Ry

     total magnetization       =     0.00 Bohr mag/cell
     absolute magnetization    =     0.00 Bohr mag/cell

     iteration #  5     ecut=    40.42 Ry     beta=0.10
     Davidson diagonalization with overlap
     ethr =  2.55E-08,  avg # of iterations =  3.0

     negative rho (up, down):  1.209E-02 1.209E-02
 
     Magnetic moment per site:
     atom:    1    charge:    3.1250    magn:   -0.0001    constr:    0.0000
     atom:    2    charge:    1.8227    magn:    0.0000    constr:    0.0000
     atom:    3    charge:    3.1198    magn:    0.0000    constr:    0.0000
     atom:    4    charge:    1.8226    magn:   -0.0000    constr:    0.0000
     atom:    5    charge:    3.1166    magn:    0.0000    constr:    0.0000
     atom:    6    charge:    1.8223    magn:   -0.0000    constr:    0.0000
     atom:    7    charge:    3.1157    magn:    0.0000    constr:    0.0000
     atom:    8    charge:    1.8215    magn:   -0.0000    constr:    0.0000
     atom:    9    charge:    3.1250    magn:   -0.0001    constr:    0.0000
     atom:   10    charge:    1.8227    magn:    0.0000    constr:    0.0000
     atom:   11    charge:    3.1197    magn:    0.0000    constr:    0.0000
     atom:   12    charge:    1.8225    magn:   -0.0000    constr:    0.0000
     atom:   13    charge:    3.1158    magn:    0.0000    constr:    0.0000
     atom:   14    charge:    1.8323    magn:   -0.0000    constr:    0.0000
     atom:   15    charge:    3.1188    magn:    0.0000    constr:    0.0000
     atom:   16    charge:    1.8213    magn:   -0.0000    constr:    0.0000
     atom:   17    charge:    1.7984    magn:    0.0002    constr:    0.0000
     atom:   18    charge:    3.1239    magn:   -0.0000    constr:    0.0000
     atom:   19    charge:    1.8194    magn:   -0.0000    constr:    0.0000
     atom:   20    charge:    1.8206    magn:    0.0000    constr:    0.0000
     atom:   21    charge:    1.8206    magn:    0.0000    constr:    0.0000
     atom:   22    charge:    3.1196    magn:    0.0000    constr:    0.0000
     atom:   23    charge:    1.8293    magn:   -0.0000    constr:    0.0000
     atom:   24    charge:    1.8155    magn:   -0.0000    constr:    0.0000
     atom:   25    charge:    1.8227    magn:   -0.0000    constr:    0.0000
     atom:   26    charge:    3.1145    magn:    0.0000    constr:    0.0000
     atom:   27    charge:    1.8179    magn:   -0.0000    constr:    0.0000
     atom:   28    charge:    1.8242    magn:   -0.0000    constr:    0.0000
     atom:   29    charge:    1.8225    magn:   -0.0000    constr:    0.0000
     atom:   30    charge:    3.1167    magn:    0.0000    constr:    0.0000
     atom:   31    charge:    1.8187    magn:   -0.0000    constr:    0.0000
     atom:   32    charge:    1.8213    magn:   -0.0000    constr:    0.0000
     atom:   33    charge:    1.7984    magn:    0.0002    constr:    0.0000
     atom:   34    charge:    3.1239    magn:   -0.0000    constr:    0.0000
     atom:   35    charge:    1.8195    magn:   -0.0000    constr:    0.0000
     atom:   36    charge:    1.8206    magn:    0.0000    constr:    0.0000
     atom:   37    charge:    1.8206    magn:    0.0000    constr:    0.0000
     atom:   38    charge:    3.1196    magn:    0.0000    constr:    0.0000
     atom:   39    charge:    1.8271    magn:   -0.0000    constr:    0.0000
     atom:   40    charge:    1.8159    magn:   -0.0000    constr:    0.0000
     atom:   41    charge:    1.8227    magn:   -0.0000    constr:    0.0000
     atom:   42    charge:    3.1141    magn:    0.0000    constr:    0.0000
     atom:   43    charge:    1.8188    magn:   -0.0000    constr:    0.0000
     atom:   44    charge:    1.8239    magn:   -0.0000    constr:    0.0000
     atom:   45    charge:    1.8227    magn:   -0.0000    constr:    0.0000
     atom:   46    charge:    3.1165    magn:    0.0000    constr:    0.0000
     atom:   47    charge:    1.8207    magn:   -0.0000    constr:    0.0000
     atom:   48    charge:    1.8205    magn:   -0.0000    constr:    0.0000
     atom:   49    charge:    0.6582    magn:   -0.0000    constr:    0.0000
     atom:   50    charge:    1.8403    magn:   -0.0000    constr:    0.0000
     atom:   51    charge:    0.3774    magn:    0.0000    constr:    0.0000
     atom:   52    charge:    0.3996    magn:    0.0000    constr:    0.0000
     atom:   53    charge:    0.3784    magn:    0.0000    constr:    0.0000
     atom:   54    charge:    0.3784    magn:    0.0000    constr:    0.0000

     total cpu time spent up to now is     1822.8 secs

     total energy              =   -3021.41856587 Ry
     Harris-Foulkes estimate   =   -3021.41856855 Ry
     estimated scf accuracy    <       0.00001580 Ry

     total magnetization       =     0.00 Bohr mag/cell
     absolute magnetization    =     0.00 Bohr mag/cell

     iteration #  6     ecut=    40.42 Ry     beta=0.10
     Davidson diagonalization with overlap
     ethr =  3.97E-09,  avg # of iterations =  3.0

     negative rho (up, down):  1.209E-02 1.209E-02
 
     Magnetic moment per site:
     atom:    1    charge:    3.1250    magn:   -0.0001    constr:    0.0000
     atom:    2    charge:    1.8227    magn:    0.0000    constr:    0.0000
     atom:    3    charge:    3.1198    magn:    0.0000    constr:    0.0000
     atom:    4    charge:    1.8226    magn:   -0.0000    constr:    0.0000
     atom:    5    charge:    3.1166    magn:    0.0000    constr:    0.0000
     atom:    6    charge:    1.8223    magn:   -0.0000    constr:    0.0000
     atom:    7    charge:    3.1157    magn:    0.0000    constr:    0.0000
     atom:    8    charge:    1.8215    magn:   -0.0000    constr:    0.0000
     atom:    9    charge:    3.1250    magn:   -0.0001    constr:    0.0000
     atom:   10    charge:    1.8227    magn:    0.0000    constr:    0.0000
     atom:   11    charge:    3.1197    magn:    0.0000    constr:    0.0000
     atom:   12    charge:    1.8225    magn:   -0.0000    constr:    0.0000
     atom:   13    charge:    3.1158    magn:    0.0000    constr:    0.0000
     atom:   14    charge:    1.8323    magn:   -0.0000    constr:    0.0000
     atom:   15    charge:    3.1188    magn:    0.0000    constr:    0.0000
     atom:   16    charge:    1.8213    magn:   -0.0000    constr:    0.0000
     atom:   17    charge:    1.7984    magn:    0.0002    constr:    0.0000
     atom:   18    charge:    3.1239    magn:   -0.0000    constr:    0.0000
     atom:   19    charge:    1.8194    magn:   -0.0000    constr:    0.0000
     atom:   20    charge:    1.8206    magn:    0.0000    constr:    0.0000
     atom:   21    charge:    1.8206    magn:    0.0000    constr:    0.0000
     atom:   22    charge:    3.1196    magn:    0.0000    constr:    0.0000
     atom:   23    charge:    1.8293    magn:   -0.0000    constr:    0.0000
     atom:   24    charge:    1.8155    magn:   -0.0000    constr:    0.0000
     atom:   25    charge:    1.8227    magn:   -0.0000    constr:    0.0000
     atom:   26    charge:    3.1145    magn:    0.0000    constr:    0.0000
     atom:   27    charge:    1.8180    magn:   -0.0000    constr:    0.0000
     atom:   28    charge:    1.8242    magn:   -0.0000    constr:    0.0000
     atom:   29    charge:    1.8225    magn:   -0.0000    constr:    0.0000
     atom:   30    charge:    3.1167    magn:    0.0000    constr:    0.0000
     atom:   31    charge:    1.8186    magn:   -0.0000    constr:    0.0000
     atom:   32    charge:    1.8213    magn:   -0.0000    constr:    0.0000
     atom:   33    charge:    1.7984    magn:    0.0002    constr:    0.0000
     atom:   34    charge:    3.1239    magn:   -0.0000    constr:    0.0000
     atom:   35    charge:    1.8195    magn:   -0.0000    constr:    0.0000
     atom:   36    charge:    1.8206    magn:    0.0000    constr:    0.0000
     atom:   37    charge:    1.8206    magn:    0.0000    constr:    0.0000
     atom:   38    charge:    3.1196    magn:    0.0000    constr:    0.0000
     atom:   39    charge:    1.8271    magn:   -0.0000    constr:    0.0000
     atom:   40    charge:    1.8158    magn:   -0.0000    constr:    0.0000
     atom:   41    charge:    1.8227    magn:   -0.0000    constr:    0.0000
     atom:   42    charge:    3.1141    magn:    0.0000    constr:    0.0000
     atom:   43    charge:    1.8188    magn:   -0.0000    constr:    0.0000
     atom:   44    charge:    1.8239    magn:   -0.0000    constr:    0.0000
     atom:   45    charge:    1.8227    magn:   -0.0000    constr:    0.0000
     atom:   46    charge:    3.1165    magn:    0.0000    constr:    0.0000
     atom:   47    charge:    1.8207    magn:   -0.0000    constr:    0.0000
     atom:   48    charge:    1.8204    magn:   -0.0000    constr:    0.0000
     atom:   49    charge:    0.6582    magn:   -0.0000    constr:    0.0000
     atom:   50    charge:    1.8404    magn:   -0.0000    constr:    0.0000
     atom:   51    charge:    0.3774    magn:    0.0000    constr:    0.0000
     atom:   52    charge:    0.3996    magn:    0.0000    constr:    0.0000
     atom:   53    charge:    0.3784    magn:    0.0000    constr:    0.0000
     atom:   54    charge:    0.3784    magn:    0.0000    constr:    0.0000

     total cpu time spent up to now is     2031.6 secs

     total energy              =   -3021.41856805 Ry
     Harris-Foulkes estimate   =   -3021.41856798 Ry
     estimated scf accuracy    <       0.00000396 Ry

     total magnetization       =     0.00 Bohr mag/cell
     absolute magnetization    =     0.00 Bohr mag/cell

     iteration #  7     ecut=    40.42 Ry     beta=0.10
     Davidson diagonalization with overlap
     ethr =  9.95E-10,  avg # of iterations =  3.0

     negative rho (up, down):  1.209E-02 1.209E-02
 
     Magnetic moment per site:
     atom:    1    charge:    3.1250    magn:   -0.0001    constr:    0.0000
     atom:    2    charge:    1.8227    magn:    0.0000    constr:    0.0000
     atom:    3    charge:    3.1198    magn:    0.0000    constr:    0.0000
     atom:    4    charge:    1.8225    magn:   -0.0000    constr:    0.0000
     atom:    5    charge:    3.1166    magn:    0.0000    constr:    0.0000
     atom:    6    charge:    1.8223    magn:   -0.0000    constr:    0.0000
     atom:    7    charge:    3.1157    magn:    0.0000    constr:    0.0000
     atom:    8    charge:    1.8215    magn:   -0.0000    constr:    0.0000
     atom:    9    charge:    3.1250    magn:   -0.0001    constr:    0.0000
     atom:   10    charge:    1.8227    magn:    0.0000    constr:    0.0000
     atom:   11    charge:    3.1197    magn:    0.0000    constr:    0.0000
     atom:   12    charge:    1.8225    magn:   -0.0000    constr:    0.0000
     atom:   13    charge:    3.1158    magn:    0.0000    constr:    0.0000
     atom:   14    charge:    1.8323    magn:   -0.0000    constr:    0.0000
     atom:   15    charge:    3.1188    magn:    0.0000    constr:    0.0000
     atom:   16    charge:    1.8213    magn:   -0.0000    constr:    0.0000
     atom:   17    charge:    1.7984    magn:    0.0001    constr:    0.0000
     atom:   18    charge:    3.1239    magn:   -0.0000    constr:    0.0000
     atom:   19    charge:    1.8194    magn:   -0.0000    constr:    0.0000
     atom:   20    charge:    1.8206    magn:    0.0000    constr:    0.0000
     atom:   21    charge:    1.8206    magn:    0.0000    constr:    0.0000
     atom:   22    charge:    3.1196    magn:    0.0000    constr:    0.0000
     atom:   23    charge:    1.8293    magn:   -0.0000    constr:    0.0000
     atom:   24    charge:    1.8155    magn:   -0.0000    constr:    0.0000
     atom:   25    charge:    1.8227    magn:   -0.0000    constr:    0.0000
     atom:   26    charge:    3.1145    magn:    0.0000    constr:    0.0000
     atom:   27    charge:    1.8180    magn:   -0.0000    constr:    0.0000
     atom:   28    charge:    1.8242    magn:   -0.0000    constr:    0.0000
     atom:   29    charge:    1.8225    magn:   -0.0000    constr:    0.0000
     atom:   30    charge:    3.1167    magn:    0.0000    constr:    0.0000
     atom:   31    charge:    1.8185    magn:   -0.0000    constr:    0.0000
     atom:   32    charge:    1.8213    magn:   -0.0000    constr:    0.0000
     atom:   33    charge:    1.7984    magn:    0.0001    constr:    0.0000
     atom:   34    charge:    3.1239    magn:   -0.0000    constr:    0.0000
     atom:   35    charge:    1.8195    magn:   -0.0000    constr:    0.0000
     atom:   36    charge:    1.8206    magn:    0.0000    constr:    0.0000
     atom:   37    charge:    1.8206    magn:    0.0000    constr:    0.0000
     atom:   38    charge:    3.1196    magn:    0.0000    constr:    0.0000
     atom:   39    charge:    1.8271    magn:   -0.0000    constr:    0.0000
     atom:   40    charge:    1.8158    magn:   -0.0000    constr:    0.0000
     atom:   41    charge:    1.8227    magn:   -0.0000    constr:    0.0000
     atom:   42    charge:    3.1141    magn:    0.0000    constr:    0.0000
     atom:   43    charge:    1.8188    magn:   -0.0000    constr:    0.0000
     atom:   44    charge:    1.8239    magn:   -0.0000    constr:    0.0000
     atom:   45    charge:    1.8227    magn:   -0.0000    constr:    0.0000
     atom:   46    charge:    3.1165    magn:    0.0000    constr:    0.0000
     atom:   47    charge:    1.8207    magn:   -0.0000    constr:    0.0000
     atom:   48    charge:    1.8204    magn:   -0.0000    constr:    0.0000
     atom:   49    charge:    0.6581    magn:   -0.0000    constr:    0.0000
     atom:   50    charge:    1.8402    magn:   -0.0000    constr:    0.0000
     atom:   51    charge:    0.3775    magn:    0.0000    constr:    0.0000
     atom:   52    charge:    0.3997    magn:    0.0000    constr:    0.0000
     atom:   53    charge:    0.3784    magn:    0.0000    constr:    0.0000
     atom:   54    charge:    0.3784    magn:    0.0000    constr:    0.0000

     total cpu time spent up to now is     2243.4 secs

     total energy              =   -3021.41856815 Ry
     Harris-Foulkes estimate   =   -3021.41856835 Ry
     estimated scf accuracy    <       0.00000164 Ry

     total magnetization       =     0.00 Bohr mag/cell
     absolute magnetization    =     0.00 Bohr mag/cell

     iteration #  8     ecut=    40.42 Ry     beta=0.10
     Davidson diagonalization with overlap
     ethr =  4.12E-10,  avg # of iterations =  3.0

     negative rho (up, down):  1.209E-02 1.209E-02
 
     Magnetic moment per site:
     atom:    1    charge:    3.1250    magn:   -0.0000    constr:    0.0000
     atom:    2    charge:    1.8227    magn:    0.0000    constr:    0.0000
     atom:    3    charge:    3.1198    magn:    0.0000    constr:    0.0000
     atom:    4    charge:    1.8226    magn:   -0.0000    constr:    0.0000
     atom:    5    charge:    3.1166    magn:    0.0000    constr:    0.0000
     atom:    6    charge:    1.8224    magn:   -0.0000    constr:    0.0000
     atom:    7    charge:    3.1157    magn:    0.0000    constr:    0.0000
     atom:    8    charge:    1.8215    magn:   -0.0000    constr:    0.0000
     atom:    9    charge:    3.1250    magn:   -0.0000    constr:    0.0000
     atom:   10    charge:    1.8227    magn:    0.0000    constr:    0.0000
     atom:   11    charge:    3.1197    magn:    0.0000    constr:    0.0000
     atom:   12    charge:    1.8225    magn:   -0.0000    constr:    0.0000
     atom:   13    charge:    3.1158    magn:    0.0000    constr:    0.0000
     atom:   14    charge:    1.8323    magn:   -0.0000    constr:    0.0000
     atom:   15    charge:    3.1189    magn:    0.0000    constr:    0.0000
     atom:   16    charge:    1.8212    magn:   -0.0000    constr:    0.0000
     atom:   17    charge:    1.7984    magn:    0.0001    constr:    0.0000
     atom:   18    charge:    3.1239    magn:   -0.0000    constr:    0.0000
     atom:   19    charge:    1.8194    magn:   -0.0000    constr:    0.0000
     atom:   20    charge:    1.8206    magn:    0.0000    constr:    0.0000
     atom:   21    charge:    1.8206    magn:    0.0000    constr:    0.0000
     atom:   22    charge:    3.1196    magn:    0.0000    constr:    0.0000
     atom:   23    charge:    1.8293    magn:   -0.0000    constr:    0.0000
     atom:   24    charge:    1.8155    magn:   -0.0000    constr:    0.0000
     atom:   25    charge:    1.8227    magn:   -0.0000    constr:    0.0000
     atom:   26    charge:    3.1145    magn:    0.0000    constr:    0.0000
     atom:   27    charge:    1.8179    magn:   -0.0000    constr:    0.0000
     atom:   28    charge:    1.8242    magn:   -0.0000    constr:    0.0000
     atom:   29    charge:    1.8225    magn:   -0.0000    constr:    0.0000
     atom:   30    charge:    3.1167    magn:    0.0000    constr:    0.0000
     atom:   31    charge:    1.8185    magn:   -0.0000    constr:    0.0000
     atom:   32    charge:    1.8213    magn:   -0.0000    constr:    0.0000
     atom:   33    charge:    1.7984    magn:    0.0001    constr:    0.0000
     atom:   34    charge:    3.1239    magn:   -0.0000    constr:    0.0000
     atom:   35    charge:    1.8195    magn:   -0.0000    constr:    0.0000
     atom:   36    charge:    1.8206    magn:    0.0000    constr:    0.0000
     atom:   37    charge:    1.8206    magn:    0.0000    constr:    0.0000
     atom:   38    charge:    3.1196    magn:    0.0000    constr:    0.0000
     atom:   39    charge:    1.8271    magn:   -0.0000    constr:    0.0000
     atom:   40    charge:    1.8158    magn:   -0.0000    constr:    0.0000
     atom:   41    charge:    1.8226    magn:   -0.0000    constr:    0.0000
     atom:   42    charge:    3.1141    magn:    0.0000    constr:    0.0000
     atom:   43    charge:    1.8188    magn:   -0.0000    constr:    0.0000
     atom:   44    charge:    1.8239    magn:   -0.0000    constr:    0.0000
     atom:   45    charge:    1.8227    magn:   -0.0000    constr:    0.0000
     atom:   46    charge:    3.1165    magn:    0.0000    constr:    0.0000
     atom:   47    charge:    1.8207    magn:   -0.0000    constr:    0.0000
     atom:   48    charge:    1.8204    magn:   -0.0000    constr:    0.0000
     atom:   49    charge:    0.6582    magn:   -0.0000    constr:    0.0000
     atom:   50    charge:    1.8403    magn:   -0.0000    constr:    0.0000
     atom:   51    charge:    0.3774    magn:    0.0000    constr:    0.0000
     atom:   52    charge:    0.3997    magn:    0.0000    constr:    0.0000
     atom:   53    charge:    0.3784    magn:    0.0000    constr:    0.0000
     atom:   54    charge:    0.3784    magn:    0.0000    constr:    0.0000

     total cpu time spent up to now is     2452.4 secs

     End of self-consistent calculation

 ------ SPIN UP ------------


          k = 0.0000 0.0000 0.0000 ( 34665 PWs)   bands (ev):

   -57.6960 -57.6611 -57.3145 -57.2782 -57.2307 -57.1067 -57.0703 -57.0693
   -57.0483 -57.0345 -56.9859 -56.9504 -56.7238 -56.6864 -56.1466 -56.1114
   -34.1321 -33.9782 -33.9497 -33.8970 -33.8668 -33.8027 -33.7422 -33.6511
   -33.6153 -33.6021 -33.5645 -33.5373 -33.5147 -33.5043 -33.4863 -33.4842
   -33.4625 -33.4511 -33.4286 -33.3957 -33.3209 -33.2889 -33.2687 -33.2595
   -33.2521 -33.2502 -33.2400 -33.2362 -33.2339 -33.2268 -33.2264 -33.2094
   -33.1762 -33.1757 -33.1715 -33.1364 -33.1141 -32.9899 -32.9722 -32.9513
   -32.9014 -32.7982 -32.5645 -32.4989 -32.4729 -32.3686 -32.2770 -32.1687
   -20.4794 -18.0094 -17.8386 -17.5541 -17.4589 -17.3692 -17.2488 -17.0745
   -17.0636 -16.9715 -16.9357 -16.8815 -16.7804 -16.7743 -16.7265 -16.7043
   -16.6977 -16.6589 -16.6084 -16.6019 -16.5329 -16.4119 -16.3976 -16.3952
   -16.3187 -16.2646 -16.1906 -16.1638 -16.1466 -15.9704 -15.9240 -14.7312
   -14.6475 -11.5443  -7.3356  -5.4875  -5.3949  -5.3224  -5.2276  -5.2020
    -5.1428  -5.1242  -4.8360  -4.8150  -4.4689  -4.4396  -4.3561  -4.3522
    -4.3188  -4.2298  -4.0867  -4.0561  -4.0502  -4.0148  -3.9962  -3.9881
    -3.9579  -3.9496  -3.9482  -3.8369  -3.7857  -3.7627  -3.7354  -3.7170
    -3.6288  -3.6134  -3.5843  -3.5747  -3.5167  -3.5051  -3.4057  -3.3938
    -3.3788  -3.2805  -3.2340  -3.1917  -3.0104  -2.9308  -2.8761  -2.8364
    -2.6931  -2.6039  -2.5868  -2.5773  -2.5697  -2.5650  -2.4265  -2.4112
    -2.3331  -2.2663  -2.2439  -2.2015  -2.1967  -2.1660  -2.1355  -2.0896
    -2.0447  -2.0264  -2.0170  -1.8850  -1.8641  -1.7644  -1.7327  -1.6214
    -1.5401  -1.5388  -1.4880  -1.4778  -1.4602  -1.4203  -1.3145  -1.3063
    -1.3002  -1.2766  -1.2393  -1.1328  -1.0956  -1.0831  -1.0642  -1.0123
    -0.9508  -0.9116  -0.8259  -0.7644  -0.6071  -0.5841  -0.5666  -0.4743
    -0.3728  -0.2396  -0.0821  -0.0232   0.1340   0.2508   0.2645   1.6455
     1.6780   1.9888   2.0049   2.0687   2.0982   2.2082   2.2467   2.2907
     2.4332   2.5004   2.5293   2.5336   2.5452   2.6344   2.6519   2.6602
     2.7187   2.8032   2.8320   2.8432   2.9153   3.0029   3.0377   3.1020
     3.1082   3.1175   3.1642   3.2055   3.2118   3.2294   3.2435   3.2557
     3.2635   3.2920   3.4037   3.4344   3.4608   3.4706   3.5312   3.5890
     3.6581   3.6983   3.8119   3.9830   4.0199   4.0977   4.1827   4.3268
     4.3433   4.3947   4.5880   4.6021   4.8122   4.8436   5.0905   5.1706
     5.2497   5.3335   5.4801   5.5208   5.5299   5.5981   5.6816   5.7153
     5.8030   5.8697   5.8809   5.8910   5.9579   6.0438   6.0509   6.0742
     6.1473   6.2326   6.2463   6.3010   6.3813   6.5867   6.6411   6.7589
     6.8482   7.0210   7.0486   7.1660   7.3052   7.5764   7.9076   8.2547
     8.3286   8.6835   8.7968   8.8771   8.9391   9.0192   9.1716   9.2527
     9.3539   9.3810   9.5472

          k = 0.0000 0.0280 0.0000 ( 34717 PWs)   bands (ev):

   -57.6937 -57.6634 -57.3121 -57.2806 -57.2303 -57.1044 -57.0724 -57.0671
   -57.0487 -57.0368 -56.9835 -56.9528 -56.7213 -56.6888 -56.1443 -56.1137
   -34.1068 -33.9762 -33.9516 -33.8908 -33.8409 -33.8092 -33.7693 -33.6284
   -33.6085 -33.5771 -33.5391 -33.5343 -33.5174 -33.4971 -33.4906 -33.4803
   -33.4690 -33.4597 -33.4266 -33.3888 -33.3148 -33.2872 -33.2825 -33.2610
   -33.2565 -33.2500 -33.2463 -33.2366 -33.2348 -33.2330 -33.2327 -33.2108
   -33.1994 -33.1810 -33.1728 -33.1407 -33.1371 -32.9860 -32.9709 -32.9526
   -32.9065 -32.8262 -32.5388 -32.4972 -32.4747 -32.3625 -32.2833 -32.1962
   -20.4793 -17.9477 -17.7809 -17.5011 -17.4067 -17.3256 -17.2221 -17.0884
   -17.0333 -16.9954 -16.9899 -16.8830 -16.8165 -16.7580 -16.7043 -16.6859
   -16.6725 -16.6611 -16.6522 -16.6391 -16.5919 -16.4357 -16.3791 -16.3654
   -16.3453 -16.2942 -16.2077 -16.1696 -16.1508 -16.0007 -15.9614 -14.7413
   -14.6710 -11.5440  -7.3352  -5.4598  -5.3128  -5.2551  -5.2322  -5.1271
    -5.0655  -5.0446  -4.7604  -4.7005  -4.4323  -4.3973  -4.3911  -4.3088
    -4.2982  -4.1572  -4.1204  -4.1111  -4.0886  -4.0676  -4.0291  -4.0246
    -3.9629  -3.9582  -3.9468  -3.8887  -3.8502  -3.8440  -3.8356  -3.7637
    -3.7191  -3.7044  -3.6630  -3.6128  -3.5723  -3.5544  -3.4291  -3.3612
    -3.3198  -3.2318  -3.2113  -3.1016  -2.9313  -2.8663  -2.7485  -2.7218
    -2.6110  -2.5989  -2.5228  -2.5061  -2.4745  -2.4360  -2.4091  -2.4055
    -2.3837  -2.3592  -2.2852  -2.2736  -2.1646  -2.1391  -2.1329  -2.0900
    -2.0190  -1.9959  -1.9511  -1.8745  -1.8077  -1.7688  -1.7042  -1.6794
    -1.6397  -1.6233  -1.5605  -1.5225  -1.4777  -1.4350  -1.4322  -1.3930
    -1.3485  -1.2683  -1.2149  -1.2117  -1.1590  -1.0923  -1.0739  -1.0187
    -1.0061  -0.9010  -0.8728  -0.7873  -0.7605  -0.7031  -0.6047  -0.5864
    -0.3912  -0.2676  -0.0890  -0.0774   0.1489   0.2044   0.2310   1.7318
     1.7777   1.9888   2.0681   2.1335   2.1547   2.2214   2.2774   2.3163
     2.4278   2.4644   2.5018   2.5390   2.5893   2.6059   2.6335   2.6945
     2.7362   2.7739   2.8009   2.9164   2.9264   2.9550   2.9807   3.0131
     3.1138   3.1204   3.1377   3.1780   3.1956   3.2094   3.2618   3.3079
     3.3385   3.3740   3.4108   3.4770   3.5113   3.5549   3.5667   3.6518
     3.6686   3.6908   3.7755   3.9644   4.0394   4.1160   4.1937   4.2907
     4.3260   4.4028   4.5437   4.6916   4.8653   4.9301   5.0949   5.2619
     5.3081   5.3380   5.5405   5.5691   5.6079   5.6275   5.6894   5.7241
     5.7875   5.7955   5.8556   5.8824   5.9044   5.9506   6.0726   6.1264
     6.1522   6.1602   6.1788   6.2108   6.2784   6.5643   6.6088   6.6989
     6.8507   6.9551   7.0001   7.0832   7.2336   7.5811   7.9164   8.0088
     8.0621   8.4580   8.5663   8.8416   8.9172   8.9980   9.0943   9.1312
     9.2727   9.4324   9.4925

          k = 0.0000 0.0560 0.0000 ( 34721 PWs)   bands (ev):

   -57.6873 -57.6698 -57.3055 -57.2871 -57.2295 -57.0984 -57.0785 -57.0608
   -57.0495 -57.0433 -56.9770 -56.9593 -56.7147 -56.6955 -56.1379 -56.1202
   -34.0370 -33.9709 -33.9566 -33.8738 -33.8422 -33.8266 -33.7698 -33.5928
   -33.5707 -33.5688 -33.5319 -33.5240 -33.5033 -33.5008 -33.4751 -33.4691
   -33.4541 -33.4237 -33.4147 -33.3694 -33.3136 -33.3099 -33.3097 -33.2983
   -33.2829 -33.2730 -33.2647 -33.2611 -33.2502 -33.2422 -33.2310 -33.2289
   -33.2060 -33.1941 -33.1663 -33.1600 -33.1200 -32.9809 -32.9672 -32.9560
   -32.9194 -32.8960 -32.4925 -32.4795 -32.4681 -32.3460 -32.3001 -32.2703
   -20.4791 -17.7766 -17.6223 -17.3697 -17.2728 -17.2572 -17.2158 -17.1641
   -17.1331 -16.9595 -16.9505 -16.9157 -16.8706 -16.8167 -16.7852 -16.7229
   -16.7129 -16.6804 -16.6224 -16.5938 -16.5340 -16.5011 -16.4202 -16.3749
   -16.3582 -16.2988 -16.2368 -16.1909 -16.1541 -16.1011 -16.0336 -14.7595
   -14.7215 -11.5432  -7.3343  -5.4322  -5.2434  -5.0739  -5.0359  -4.9208
    -4.8554  -4.8215  -4.5586  -4.5029  -4.4699  -4.4147  -4.4066  -4.3633
    -4.3282  -4.2570  -4.2319  -4.2089  -4.1932  -4.1833  -4.1536  -4.0726
    -4.0545  -4.0012  -3.9842  -3.9651  -3.9276  -3.8889  -3.8557  -3.8142
    -3.7937  -3.7279  -3.6327  -3.5829  -3.4317  -3.4244  -3.3573  -3.2652
    -3.2362  -3.2089  -3.1900  -3.0806  -2.8968  -2.8397  -2.8349  -2.7959
    -2.7189  -2.6659  -2.5454  -2.4709  -2.4422  -2.3199  -2.3125  -2.3078
    -2.3002  -2.2453  -2.2037  -2.1759  -2.1452  -2.1147  -2.0286  -2.0069
    -1.9585  -1.9447  -1.9130  -1.9022  -1.8809  -1.8468  -1.8134  -1.7801
    -1.7422  -1.6934  -1.6220  -1.5388  -1.5239  -1.5065  -1.4516  -1.4169
    -1.3760  -1.3613  -1.3457  -1.2876  -1.2354  -1.2133  -1.1565  -1.1114
    -1.0870  -1.0206  -0.9256  -0.8917  -0.8464  -0.7824  -0.7596  -0.6574
    -0.5838  -0.4599  -0.2387   0.0937   0.1461   0.1811   0.1878   1.8674
     2.0274   2.1005   2.1118   2.2124   2.2375   2.2723   2.3698   2.3923
     2.3986   2.4145   2.4377   2.4791   2.5059   2.5404   2.6774   2.6984
     2.7368   2.7781   2.8332   2.9070   2.9187   2.9421   2.9747   2.9777
     3.0194   3.1023   3.1406   3.1603   3.2538   3.2649   3.2894   3.3324
     3.3712   3.3894   3.4437   3.5403   3.5465   3.6409   3.6814   3.7330
     3.7657   3.8264   3.8623   3.8929   3.9366   4.1338   4.1452   4.1610
     4.3284   4.3782   4.5691   4.9104   5.0189   5.0623   5.1800   5.3809
     5.3849   5.4818   5.5213   5.5529   5.6511   5.7266   5.7271   5.7371
     5.7823   5.7908   5.8020   5.8597   5.8897   5.9478   5.9818   5.9977
     6.0052   6.0575   6.1580   6.1740   6.3128   6.3776   6.4191   6.6176
     6.6653   6.7835   6.8785   7.0457   7.2235   7.3356   7.4434   7.7268
     8.0805   8.2032   8.3389   8.6146   8.8864   8.9930   9.3105   9.3405
     9.4331   9.4509   9.5567

          k = 0.0000-0.0840 0.0000 ( 34678 PWs)   bands (ev):

   -57.6787 -57.6785 -57.2980 -57.2947 -57.2291 -57.0929 -57.0840 -57.0521
   -57.0520 -57.0500 -56.9688 -56.9676 -56.7075 -56.7027 -56.1291 -56.1290
   -33.9638 -33.9636 -33.9404 -33.9403 -33.8503 -33.8502 -33.6829 -33.6589
   -33.5629 -33.5598 -33.5266 -33.5147 -33.5103 -33.4755 -33.4512 -33.4214
   -33.4110 -33.4044 -33.3720 -33.3717 -33.3600 -33.3440 -33.3381 -33.3201
   -33.3186 -33.2818 -33.2748 -33.2727 -33.2660 -33.2645 -33.2295 -33.2277
   -33.2116 -33.2096 -33.1595 -33.1585 -33.0423 -33.0209 -32.9640 -32.9590
   -32.9331 -32.9305 -32.4859 -32.4859 -32.3701 -32.3701 -32.3230 -32.3230
   -20.4789 -17.5659 -17.5023 -17.4076 -17.3872 -17.2263 -17.1726 -17.0630
   -17.0589 -17.0128 -17.0000 -16.9862 -16.8691 -16.8369 -16.8369 -16.7979
   -16.7912 -16.5927 -16.5907 -16.5231 -16.5207 -16.4854 -16.4840 -16.4006
   -16.3972 -16.2588 -16.2560 -16.1974 -16.1942 -16.1225 -16.0965 -14.7583
   -14.7581 -11.5429  -7.3337  -5.4245  -5.2493  -4.7968  -4.7306  -4.7295
    -4.6529  -4.6387  -4.6343  -4.5988  -4.5710  -4.5069  -4.4993  -4.3976
    -4.3700  -4.3362  -4.3343  -4.3055  -4.2925  -4.2774  -4.2719  -4.0517
    -4.0291  -4.0196  -4.0080  -3.9894  -3.9416  -3.8065  -3.7898  -3.7858
    -3.7132  -3.6914  -3.6374  -3.5071  -3.4710  -3.3369  -3.3238  -3.2734
    -3.1355  -3.1134  -3.0403  -3.0162  -2.9586  -2.9262  -2.8016  -2.7848
    -2.6948  -2.6907  -2.5726  -2.5360  -2.5085  -2.4921  -2.4774  -2.4445
    -2.4356  -2.4156  -2.3271  -2.2428  -2.0272  -2.0043  -1.9668  -1.9398
    -1.9246  -1.8255  -1.8192  -1.8061  -1.7777  -1.7417  -1.7280  -1.6968
    -1.6622  -1.6371  -1.6125  -1.5548  -1.5125  -1.4845  -1.4782  -1.4495
    -1.4223  -1.4144  -1.4070  -1.3750  -1.3557  -1.3223  -1.2238  -1.1842
    -1.1033  -1.0686  -1.0233  -0.9751  -0.9680  -0.9565  -0.9468  -0.5204
    -0.5161  -0.4538  -0.4392   0.1461   0.1462   0.1887   0.1905   2.0419
     2.0451   2.2214   2.2227   2.2236   2.2395   2.2880   2.3431   2.3498
     2.3499   2.3754   2.3861   2.5307   2.5569   2.5579   2.6044   2.6676
     2.7182   2.7400   2.7531   2.8949   2.9260   2.9929   3.0008   3.0616
     3.0632   3.1056   3.1167   3.1833   3.2209   3.2366   3.2493   3.4069
     3.4295   3.4403   3.4429   3.4763   3.4874   3.7328   3.7701   3.8094
     3.8132   3.8365   3.9122   3.9346   3.9729   4.0762   4.0785   4.1286
     4.1292   4.4197   4.6768   4.9637   5.0040   5.2631   5.3382   5.4606
     5.4925   5.5110   5.5111   5.5702   5.6115   5.6500   5.6692   5.6742
     5.8033   5.8082   5.8299   5.8566   5.8649   5.8698   5.8862   5.9773
     6.0243   6.0629   6.0746   6.1615   6.2013   6.4169   6.4676   6.5703
     6.6058   6.7464   6.7788   6.9915   7.0333   7.1081   7.3255   7.7008
     7.8810   8.1648   8.4089   8.7781   8.8381   8.8553   9.1418   9.7017
     9.7307   9.7666   9.8283

          k = 0.0253 0.0000 0.0000 ( 34707 PWs)   bands (ev):

   -57.6960 -57.6611 -57.3144 -57.2782 -57.2307 -57.1066 -57.0702 -57.0694
   -57.0483 -57.0345 -56.9859 -56.9504 -56.7238 -56.6864 -56.1466 -56.1114
   -34.1324 -33.9782 -33.9497 -33.8963 -33.8669 -33.8028 -33.7423 -33.6518
   -33.6153 -33.6038 -33.5648 -33.5339 -33.5285 -33.5053 -33.4842 -33.4713
   -33.4613 -33.4511 -33.4287 -33.3888 -33.3208 -33.2891 -33.2684 -33.2595
   -33.2543 -33.2539 -33.2411 -33.2381 -33.2333 -33.2269 -33.2264 -33.2092
   -33.1761 -33.1757 -33.1719 -33.1364 -33.1142 -32.9900 -32.9747 -32.9504
   -32.9015 -32.7983 -32.5644 -32.5000 -32.4724 -32.3686 -32.2770 -32.1688
   -20.4793 -17.9797 -17.7986 -17.5118 -17.4299 -17.3527 -17.2554 -17.1417
   -17.0891 -16.9723 -16.9353 -16.8676 -16.8160 -16.8031 -16.7852 -16.7774
   -16.7252 -16.6900 -16.5528 -16.5314 -16.4508 -16.4487 -16.3983 -16.3672
   -16.3361 -16.3093 -16.1790 -16.1618 -16.1479 -15.9701 -15.9238 -14.7301
   -14.6474 -11.5431  -7.3332  -5.4859  -5.3114  -5.2622  -5.2267  -5.0939
    -5.0412  -5.0134  -4.8306  -4.8103  -4.6145  -4.4659  -4.4328  -4.3275
    -4.3081  -4.2982  -4.2447  -4.0956  -4.0320  -4.0284  -3.9933  -3.9421
    -3.9348  -3.9072  -3.8275  -3.7985  -3.7485  -3.7179  -3.6916  -3.6888
    -3.6175  -3.5943  -3.5672  -3.5595  -3.5133  -3.4453  -3.3518  -3.3075
    -3.2479  -3.2344  -3.1840  -3.1033  -3.0292  -2.9730  -2.9222  -2.8931
    -2.7537  -2.6712  -2.6281  -2.5957  -2.5765  -2.5263  -2.5163  -2.5003
    -2.4273  -2.3324  -2.3189  -2.2329  -2.2171  -2.1789  -2.1581  -2.0674
    -2.0065  -1.9981  -1.9602  -1.8805  -1.8507  -1.7502  -1.7354  -1.6479
    -1.5835  -1.5792  -1.5352  -1.4607  -1.4551  -1.3652  -1.3553  -1.3359
    -1.3335  -1.2866  -1.2711  -1.1861  -1.1231  -1.1145  -1.0853  -1.0491
    -0.9711  -0.9113  -0.8277  -0.7893  -0.7711  -0.6474  -0.6378  -0.5480
    -0.4176  -0.2340  -0.1126  -0.0509   0.1199   0.2081   0.2089   1.6649
     1.7279   2.0041   2.0747   2.1518   2.2262   2.2410   2.2730   2.3814
     2.3891   2.4611   2.5078   2.5256   2.5441   2.5815   2.6008   2.6394
     2.6590   2.7383   2.7611   2.8713   2.8884   2.9734   3.0351   3.1066
     3.1241   3.1475   3.1657   3.2067   3.2123   3.2573   3.2724   3.3425
     3.3832   3.4091   3.4548   3.4764   3.5385   3.5643   3.5951   3.6030
     3.6679   3.7338   3.7515   3.9175   4.0054   4.1007   4.1769   4.2816
     4.3775   4.4013   4.5562   4.6766   4.8685   4.9131   4.9300   5.0726
     5.1254   5.1493   5.1929   5.3549   5.5700   5.6242   5.6973   5.8721
     5.8873   5.9281   5.9620   6.0346   6.0842   6.1173   6.1641   6.2133
     6.2223   6.2555   6.2625   6.3112   6.4514   6.5309   6.6451   6.6696
     6.8257   6.8731   7.0370   7.1471   7.3050   7.7612   7.8577   8.0900
     8.3390   8.3471   8.4317   8.6944   8.8478   8.9637   9.1502   9.3437
     9.3648   9.4626   9.5146

          k = 0.0253 0.0280 0.0000 ( 34687 PWs)   bands (ev):

   -57.6937 -57.6634 -57.3120 -57.2806 -57.2303 -57.1044 -57.0724 -57.0672
   -57.0487 -57.0368 -56.9835 -56.9528 -56.7213 -56.6888 -56.1443 -56.1137
   -34.1071 -33.9762 -33.9515 -33.8901 -33.8410 -33.8091 -33.7693 -33.6291
   -33.6085 -33.5788 -33.5394 -33.5311 -33.5185 -33.5125 -33.4908 -33.4697
   -33.4622 -33.4585 -33.4266 -33.3821 -33.3147 -33.2873 -33.2802 -33.2610
   -33.2565 -33.2502 -33.2499 -33.2444 -33.2344 -33.2329 -33.2319 -33.2096
   -33.1995 -33.1811 -33.1729 -33.1406 -33.1370 -32.9861 -32.9730 -32.9518
   -32.9065 -32.8262 -32.5387 -32.4981 -32.4742 -32.3626 -32.2832 -32.1961
   -20.4791 -17.9194 -17.7419 -17.4606 -17.3801 -17.3056 -17.2289 -17.1254
   -17.0946 -17.0030 -16.9600 -16.8550 -16.8273 -16.8026 -16.7809 -16.7668
   -16.7100 -16.6942 -16.5963 -16.5771 -16.5031 -16.4712 -16.3763 -16.3619
   -16.3531 -16.3263 -16.1961 -16.1693 -16.1506 -16.0011 -15.9612 -14.7403
   -14.6710 -11.5427  -7.3327  -5.4643  -5.2433  -5.2311  -5.1789  -5.0175
    -4.9629  -4.9331  -4.7554  -4.6974  -4.5587  -4.4000  -4.3680  -4.3426
    -4.2564  -4.2497  -4.1834  -4.1153  -4.0835  -4.0608  -4.0304  -4.0153
    -3.9730  -3.9392  -3.9098  -3.8648  -3.8187  -3.8068  -3.7810  -3.7170
    -3.6958  -3.6610  -3.6118  -3.6022  -3.5377  -3.5244  -3.3588  -3.3079
    -3.2487  -3.2152  -3.1501  -3.0712  -2.9788  -2.9448  -2.7848  -2.7053
    -2.6784  -2.6331  -2.6081  -2.5308  -2.4998  -2.4510  -2.4442  -2.4176
    -2.4020  -2.3833  -2.3371  -2.2991  -2.2123  -2.1742  -2.1121  -2.0959
    -2.0638  -1.9934  -1.9467  -1.8893  -1.8627  -1.8245  -1.7585  -1.6718
    -1.6420  -1.6131  -1.5851  -1.5589  -1.5060  -1.4559  -1.4371  -1.3980
    -1.3415  -1.3228  -1.2656  -1.2518  -1.2077  -1.1137  -1.0954  -1.0568
    -1.0137  -0.8873  -0.8402  -0.8321  -0.7605  -0.7369  -0.6913  -0.6553
    -0.4287  -0.2785  -0.1307  -0.0830   0.1520   0.1813   0.1915   1.7239
     1.8480   2.0194   2.1021   2.1988   2.2477   2.2853   2.3197   2.4006
     2.4207   2.4707   2.4924   2.5279   2.5358   2.5565   2.5937   2.6776
     2.7085   2.7309   2.7911   2.8103   2.9350   2.9914   3.0131   3.0380
     3.1102   3.1378   3.1491   3.1758   3.2119   3.2460   3.3494   3.3769
     3.4091   3.4403   3.4663   3.5157   3.5559   3.5739   3.6399   3.6641
     3.6767   3.7122   3.7548   3.8990   3.9996   4.1406   4.1885   4.2571
     4.3095   4.4580   4.5132   4.7724   4.9340   4.9534   4.9974   5.0811
     5.1640   5.1788   5.2277   5.3908   5.6463   5.6845   5.7347   5.7806
     5.8605   5.8682   5.8763   6.0109   6.0744   6.0892   6.1234   6.1486
     6.2003   6.2121   6.2245   6.2380   6.4315   6.5361   6.6178   6.6645
     6.7910   6.8709   6.9660   7.1514   7.2279   7.5097   7.9316   8.0329
     8.0958   8.2551   8.4486   8.5790   8.6505   8.7806   8.9412   9.2650
     9.3627   9.4641   9.5092

          k = 0.0253 0.0560 0.0000 ( 34699 PWs)   bands (ev):

   -57.6873 -57.6698 -57.3055 -57.2871 -57.2295 -57.0983 -57.0785 -57.0608
   -57.0495 -57.0433 -56.9771 -56.9593 -56.7147 -56.6955 -56.1379 -56.1202
   -34.0372 -33.9709 -33.9566 -33.8732 -33.8423 -33.8264 -33.7699 -33.5928
   -33.5713 -33.5688 -33.5320 -33.5220 -33.5054 -33.5044 -33.4752 -33.4694
   -33.4531 -33.4238 -33.4094 -33.3640 -33.3141 -33.3106 -33.3054 -33.2981
   -33.2830 -33.2734 -33.2646 -33.2600 -33.2503 -33.2444 -33.2350 -33.2312
   -33.2062 -33.1948 -33.1663 -33.1599 -33.1198 -32.9809 -32.9687 -32.9559
   -32.9195 -32.8959 -32.4931 -32.4792 -32.4680 -32.3460 -32.3002 -32.2703
   -20.4789 -17.7531 -17.5865 -17.3404 -17.2610 -17.2416 -17.1904 -17.1649
   -17.1361 -16.9928 -16.9671 -16.8775 -16.8730 -16.8262 -16.7932 -16.7696
   -16.7446 -16.6667 -16.6202 -16.5998 -16.5761 -16.5262 -16.4235 -16.4086
   -16.3515 -16.2818 -16.2298 -16.1902 -16.1538 -16.1019 -16.0330 -14.7589
   -14.7217 -11.5420  -7.3317  -5.4396  -5.2426  -5.0297  -4.9459  -4.8091
    -4.7536  -4.7115  -4.5549  -4.4950  -4.4875  -4.4106  -4.3912  -4.3363
    -4.2674  -4.2282  -4.2125  -4.1888  -4.1444  -4.1379  -4.1035  -4.0586
    -4.0292  -4.0076  -3.9898  -3.9322  -3.9211  -3.8723  -3.8568  -3.8180
    -3.7717  -3.7128  -3.6514  -3.5687  -3.4713  -3.4029  -3.3330  -3.2798
    -3.2339  -3.2191  -3.1886  -3.0095  -2.9399  -2.8584  -2.8265  -2.7764
    -2.7572  -2.6428  -2.5901  -2.5066  -2.4866  -2.4349  -2.3900  -2.3614
    -2.3395  -2.3212  -2.2850  -2.2596  -2.1865  -2.1381  -2.1244  -2.0372
    -2.0078  -2.0062  -1.9436  -1.9346  -1.8996  -1.8582  -1.8312  -1.8080
    -1.7427  -1.7010  -1.6754  -1.6342  -1.5704  -1.5348  -1.4910  -1.4718
    -1.4280  -1.3679  -1.3346  -1.3016  -1.2197  -1.2021  -1.1373  -1.1026
    -1.0671  -1.0120  -0.9075  -0.8775  -0.8166  -0.7973  -0.7405  -0.6778
    -0.6035  -0.4620  -0.2526   0.0947   0.1313   0.1583   0.1909   1.8648
     2.0510   2.1351   2.1818   2.2345   2.2751   2.3090   2.3512   2.3878
     2.4296   2.4653   2.4842   2.5110   2.5233   2.5869   2.6972   2.7248
     2.7424   2.7795   2.8273   2.8432   2.9077   2.9570   2.9785   2.9896
     3.0310   3.0370   3.1596   3.2111   3.2908   3.3330   3.3440   3.3867
     3.4110   3.4425   3.4642   3.5446   3.5630   3.6354   3.6600   3.7407
     3.7984   3.8245   3.8648   3.9049   3.9086   4.0763   4.1197   4.1682
     4.3459   4.3866   4.6210   4.9692   5.0163   5.1278   5.1461   5.1618
     5.2657   5.2935   5.3176   5.4400   5.5134   5.5642   5.6411   5.7620
     5.8291   5.8543   5.8950   5.9375   5.9633   6.0071   6.0526   6.0643
     6.1408   6.1612   6.2272   6.3353   6.3826   6.4100   6.4867   6.6449
     6.6955   6.7992   6.8566   7.0378   7.1512   7.3656   7.4811   7.5920
     7.9807   8.1761   8.3510   8.5174   8.6439   8.8589   9.0483   9.1162
     9.1883   9.4939   9.6303

          k = 0.0253-0.0840 0.0000 ( 34722 PWs)   bands (ev):

   -57.6787 -57.6785 -57.2980 -57.2947 -57.2291 -57.0928 -57.0839 -57.0521
   -57.0520 -57.0500 -56.9688 -56.9676 -56.7075 -56.7027 -56.1291 -56.1290
   -33.9638 -33.9636 -33.9407 -33.9405 -33.8500 -33.8499 -33.6830 -33.6591
   -33.5628 -33.5598 -33.5272 -33.5145 -33.5102 -33.4755 -33.4504 -33.4216
   -33.4131 -33.4069 -33.3729 -33.3728 -33.3607 -33.3372 -33.3312 -33.3187
   -33.3172 -33.2815 -33.2746 -33.2729 -33.2663 -33.2631 -33.2330 -33.2316
   -33.2132 -33.2113 -33.1594 -33.1585 -33.0422 -33.0209 -32.9646 -32.9598
   -32.9331 -32.9305 -32.4862 -32.4862 -32.3701 -32.3701 -32.3231 -32.3230
   -20.4788 -17.5526 -17.4842 -17.3793 -17.3608 -17.2103 -17.1515 -17.0562
   -17.0467 -17.0010 -16.9765 -16.9720 -16.8860 -16.8765 -16.8661 -16.7827
   -16.7773 -16.6310 -16.6252 -16.5656 -16.5618 -16.5191 -16.5177 -16.3843
   -16.3819 -16.2503 -16.2473 -16.1958 -16.1927 -16.1229 -16.0958 -14.7582
   -14.7580 -11.5416  -7.3312  -5.4318  -5.2487  -4.7969  -4.6428  -4.6327
    -4.6216  -4.5447  -4.5439  -4.5288  -4.5212  -4.4153  -4.4061  -4.3667
    -4.3435  -4.3129  -4.2949  -4.2815  -4.2601  -4.2285  -4.2248  -4.0387
    -4.0348  -4.0112  -3.9804  -3.9614  -3.9187  -3.8437  -3.8394  -3.8123
    -3.7354  -3.6586  -3.6424  -3.4113  -3.3986  -3.3454  -3.3161  -3.2670
    -3.1163  -3.0922  -3.0570  -3.0481  -3.0048  -2.9614  -2.9159  -2.8924
    -2.8061  -2.8020  -2.6182  -2.5988  -2.5725  -2.5554  -2.5269  -2.4643
    -2.4317  -2.3387  -2.3118  -2.2732  -2.1203  -2.0705  -2.0522  -2.0051
    -1.9200  -1.9175  -1.8762  -1.8639  -1.8540  -1.8122  -1.8023  -1.7915
    -1.7640  -1.7257  -1.6831  -1.6557  -1.6175  -1.6043  -1.5917  -1.4722
    -1.3992  -1.3855  -1.2776  -1.2580  -1.2388  -1.2217  -1.1888  -1.1252
    -1.0889  -1.0489  -1.0404  -1.0079  -0.9681  -0.8876  -0.8768  -0.5335
    -0.5269  -0.4544  -0.4414   0.1199   0.1200   0.1993   0.2009   2.0536
     2.0559   2.2210   2.2363   2.2393   2.2428   2.2814   2.3197   2.4267
     2.4287   2.4434   2.4456   2.5610   2.5624   2.5812   2.6590   2.7253
     2.7593   2.8235   2.8323   2.8838   2.9038   2.9419   2.9519   3.0296
     3.0434   3.0888   3.1184   3.2252   3.2729   3.2936   3.3104   3.4259
     3.4314   3.4555   3.4728   3.4978   3.5268   3.7216   3.7448   3.8144
     3.8310   3.8422   3.8899   3.9171   3.9243   4.0838   4.0863   4.1201
     4.1205   4.4754   4.7188   4.9882   5.0273   5.2731   5.3055   5.3130
     5.3334   5.3640   5.3894   5.4302   5.4840   5.5134   5.5579   5.6406
     5.6574   5.7659   5.8365   5.8797   5.8949   6.0201   6.0811   6.0924
     6.1352   6.1888   6.2217   6.2836   6.3058   6.4790   6.5223   6.6010
     6.6400   6.7920   6.7993   6.9963   7.0363   7.1254   7.3821   7.5805
     7.7419   8.0010   8.2758   8.7220   8.7385   8.9649   9.0109   9.2979
     9.3467   9.4640   9.5416

          k = 0.0506 0.0000 0.0000 ( 34729 PWs)   bands (ev):

   -57.6960 -57.6611 -57.3144 -57.2782 -57.2307 -57.1065 -57.0701 -57.0696
   -57.0482 -57.0345 -56.9859 -56.9504 -56.7238 -56.6864 -56.1466 -56.1114
   -34.1331 -33.9782 -33.9498 -33.8949 -33.8671 -33.8028 -33.7423 -33.6533
   -33.6152 -33.6071 -33.5653 -33.5454 -33.5260 -33.5055 -33.4841 -33.4588
   -33.4549 -33.4503 -33.4287 -33.3721 -33.3205 -33.2893 -33.2678 -33.2628
   -33.2595 -33.2583 -33.2566 -33.2343 -33.2286 -33.2270 -33.2265 -33.2087
   -33.1758 -33.1755 -33.1725 -33.1364 -33.1143 -32.9899 -32.9797 -32.9485
   -32.9015 -32.7984 -32.5642 -32.5022 -32.4712 -32.3686 -32.2771 -32.1688
   -20.4789 -17.9137 -17.7037 -17.4130 -17.3870 -17.2799 -17.2628 -17.2346
   -17.1365 -16.9753 -16.9639 -16.9345 -16.8920 -16.8832 -16.8628 -16.8429
   -16.7481 -16.6982 -16.5329 -16.4526 -16.4458 -16.4074 -16.3996 -16.3556
   -16.3510 -16.3248 -16.1708 -16.1572 -16.1503 -15.9702 -15.9234 -14.7279
   -14.6471 -11.5407  -7.3281  -5.4964  -5.2956  -5.2249  -4.9771  -4.9104
    -4.8006  -4.7945  -4.7678  -4.7452  -4.7108  -4.6303  -4.5220  -4.4616
    -4.4157  -4.2448  -4.1282  -4.0382  -4.0205  -4.0159  -3.9706  -3.9268
    -3.9092  -3.8257  -3.7857  -3.7588  -3.7504  -3.6557  -3.6340  -3.6139
    -3.5519  -3.5501  -3.5378  -3.5233  -3.4967  -3.3174  -3.2792  -3.2642
    -3.2388  -3.1975  -3.1529  -3.1077  -2.9921  -2.9395  -2.8851  -2.8483
    -2.8250  -2.7796  -2.7565  -2.6756  -2.6179  -2.6064  -2.5743  -2.5439
    -2.4592  -2.4564  -2.4240  -2.3628  -2.3107  -2.2034  -2.1950  -2.1216
    -2.0823  -1.9882  -1.9364  -1.9291  -1.8427  -1.8139  -1.7966  -1.7115
    -1.6341  -1.5723  -1.5548  -1.5521  -1.4833  -1.4745  -1.4361  -1.3973
    -1.3504  -1.3307  -1.2956  -1.2065  -1.1208  -1.1032  -1.0887  -1.0771
    -0.9967  -0.9501  -0.8841  -0.8142  -0.8085  -0.7907  -0.7533  -0.5296
    -0.5208  -0.2646  -0.2212  -0.0444   0.0956   0.1216   0.1399   1.6448
     1.8213   2.0031   2.0999   2.1038   2.1826   2.1997   2.2844   2.2966
     2.4580   2.4608   2.4734   2.5616   2.5675   2.5885   2.6292   2.6819
     2.7099   2.8258   2.8734   2.8768   2.9030   2.9271   3.0876   3.1112
     3.1503   3.1668   3.2041   3.2055   3.2895   3.2933   3.3345   3.4161
     3.4447   3.4525   3.5049   3.5555   3.5800   3.5884   3.7031   3.7141
     3.7629   3.7665   3.8015   3.8976   3.9297   4.0858   4.1600   4.2159
     4.3500   4.4686   4.5828   4.6550   4.7707   4.8007   4.8649   4.8971
[...]
    -1.2978  -1.2691  -1.2587  -1.1867  -1.1586  -1.0272  -1.0166  -1.0085
    -0.9855  -0.9447  -0.9003  -0.8344  -0.7533  -0.6969  -0.6479  -0.5908
    -0.5867  -0.5310  -0.5164   0.0689   0.0690   0.2136   0.2153   2.1566
     2.1574   2.2039   2.2058   2.2417   2.2424   2.2695   2.3011   2.4912
     2.4965   2.5291   2.5593   2.6125   2.6201   2.6825   2.6844   2.6943
     2.6955   2.8475   2.9131   2.9862   3.0013   3.0379   3.0453   3.1008
     3.2234   3.2526   3.2758   3.3362   3.3774   3.3952   3.4479   3.4964
     3.5039   3.5266   3.5530   3.5848   3.6074   3.6842   3.7070   3.7505
     3.8399   3.8967   3.9124   3.9556   3.9560   4.0990   4.1059   4.1147
     4.1152   4.6165   4.7866   4.7900   4.8074   4.8742   4.9239   4.9288
     4.9455   4.9881   5.0315   5.2521   5.3442   5.3634   5.3758   5.7598
     5.8025   5.9149   5.9306   5.9869   6.0448   6.1457   6.3122   6.3533
     6.3683   6.3781   6.4140   6.5778   6.6102   6.6678   6.6680   6.7079
     6.7643   6.8466   6.8475   6.8553   6.8561   7.3552   7.4171   7.5213
     7.6589   7.8228   8.0192   8.1691   8.2267   8.3171   8.3862   8.8451
     8.9115   9.0437   9.0799

          k =-0.0253 0.0280 0.0000 ( 34687 PWs)   bands (ev):

   -57.6938 -57.6635 -57.3120 -57.2805 -57.2302 -57.1043 -57.0724 -57.0672
   -57.0486 -57.0368 -56.9835 -56.9527 -56.7213 -56.6888 -56.1445 -56.1140
   -34.1071 -33.9763 -33.9516 -33.8902 -33.8409 -33.8092 -33.7694 -33.6291
   -33.6085 -33.5788 -33.5394 -33.5311 -33.5185 -33.5125 -33.4908 -33.4696
   -33.4621 -33.4585 -33.4266 -33.3820 -33.3147 -33.2873 -33.2802 -33.2610
   -33.2562 -33.2503 -33.2499 -33.2443 -33.2343 -33.2329 -33.2319 -33.2096
   -33.1995 -33.1810 -33.1728 -33.1405 -33.1370 -32.9860 -32.9729 -32.9518
   -32.9065 -32.8262 -32.5389 -32.4984 -32.4744 -32.3628 -32.2835 -32.1964
   -20.4792 -17.9194 -17.7419 -17.4606 -17.3802 -17.3057 -17.2289 -17.1254
   -17.0948 -17.0027 -16.9600 -16.8554 -16.8272 -16.8035 -16.7805 -16.7667
   -16.7099 -16.6945 -16.5961 -16.5767 -16.5032 -16.4712 -16.3763 -16.3620
   -16.3531 -16.3263 -16.1962 -16.1694 -16.1505 -16.0011 -15.9612 -14.7398
   -14.6705 -11.5427  -7.3326  -5.4642  -5.2431  -5.2312  -5.1789  -5.0178
    -4.9629  -4.9334  -4.7555  -4.6982  -4.5586  -4.3997  -4.3680  -4.3429
    -4.2577  -4.2464  -4.1847  -4.1137  -4.0879  -4.0606  -4.0329  -4.0152
    -3.9718  -3.9375  -3.9111  -3.8657  -3.8188  -3.8084  -3.7811  -3.7171
    -3.6986  -3.6593  -3.6116  -3.6014  -3.5361  -3.5237  -3.3653  -3.2985
    -3.2505  -3.2173  -3.1474  -3.0694  -2.9799  -2.9411  -2.7838  -2.7046
    -2.6778  -2.6336  -2.6079  -2.5284  -2.5008  -2.4482  -2.4438  -2.4196
    -2.4028  -2.3814  -2.3365  -2.2981  -2.2142  -2.1716  -2.1176  -2.0997
    -2.0594  -1.9896  -1.9482  -1.8923  -1.8614  -1.8250  -1.7388  -1.7053
    -1.6495  -1.5957  -1.5895  -1.5568  -1.5125  -1.4644  -1.4326  -1.3909
    -1.3416  -1.3273  -1.2768  -1.2387  -1.1955  -1.1178  -1.0971  -1.0549
    -1.0120  -0.8918  -0.8375  -0.8321  -0.7511  -0.7368  -0.7035  -0.6562
    -0.4296  -0.2785  -0.1312  -0.0828   0.1523   0.1817   0.1919   1.7238
     1.8480   2.0193   2.1035   2.1986   2.2491   2.2885   2.3224   2.4076
     2.4187   2.4537   2.4894   2.5333   2.5358   2.5511   2.6113   2.6722
     2.7087   2.7425   2.7795   2.8159   2.9436   2.9908   3.0074   3.0303
     3.1114   3.1394   3.1496   3.1773   3.2121   3.2433   3.3529   3.3760
     3.4069   3.4237   3.4680   3.5121   3.5651   3.5755   3.6408   3.6639
     3.6765   3.7132   3.7541   3.8979   3.9983   4.1425   4.1885   4.2576
     4.3095   4.4583   4.5135   4.7733   4.9420   4.9529   4.9880   5.0810
     5.1629   5.1784   5.2275   5.3897   5.6479   5.6779   5.7319   5.7902
     5.8587   5.8680   5.8773   6.0098   6.0772   6.0822   6.1279   6.1494
     6.2004   6.2109   6.2197   6.2473   6.4314   6.5336   6.6174   6.6700
     6.7960   6.8637   6.9660   7.1515   7.2281   7.5093   7.9311   8.0320
     8.0958   8.2533   8.4439   8.5806   8.6472   8.7816   8.9470   9.2700
     9.3597   9.4659   9.5065

          k =-0.0253 0.0560 0.0000 ( 34699 PWs)   bands (ev):

   -57.6874 -57.6699 -57.3055 -57.2871 -57.2294 -57.0983 -57.0784 -57.0608
   -57.0495 -57.0433 -56.9770 -56.9592 -56.7146 -56.6955 -56.1381 -56.1204
   -34.0373 -33.9710 -33.9567 -33.8733 -33.8424 -33.8265 -33.7698 -33.5928
   -33.5712 -33.5688 -33.5320 -33.5219 -33.5054 -33.5044 -33.4751 -33.4694
   -33.4531 -33.4237 -33.4093 -33.3639 -33.3140 -33.3106 -33.3053 -33.2981
   -33.2830 -33.2733 -33.2646 -33.2599 -33.2502 -33.2445 -33.2350 -33.2312
   -33.2060 -33.1948 -33.1663 -33.1599 -33.1198 -32.9809 -32.9685 -32.9559
   -32.9194 -32.8959 -32.4933 -32.4795 -32.4682 -32.3462 -32.3004 -32.2705
   -20.4789 -17.7531 -17.5865 -17.3404 -17.2610 -17.2418 -17.1906 -17.1648
   -17.1359 -16.9928 -16.9671 -16.8775 -16.8732 -16.8268 -16.7937 -16.7696
   -16.7444 -16.6665 -16.6200 -16.5995 -16.5761 -16.5265 -16.4235 -16.4087
   -16.3516 -16.2818 -16.2298 -16.1903 -16.1538 -16.1019 -16.0330 -14.7584
   -14.7213 -11.5420  -7.3317  -5.4395  -5.2426  -5.0293  -4.9459  -4.8097
    -4.7537  -4.7116  -4.5549  -4.4933  -4.4881  -4.4103  -4.3914  -4.3411
    -4.2677  -4.2293  -4.2121  -4.1888  -4.1442  -4.1373  -4.1049  -4.0586
    -4.0281  -4.0050  -3.9909  -3.9334  -3.9209  -3.8700  -3.8608  -3.8187
    -3.7711  -3.7109  -3.6525  -3.5688  -3.4709  -3.4036  -3.3371  -3.2808
    -3.2347  -3.2128  -3.1821  -3.0103  -2.9374  -2.8602  -2.8233  -2.7802
    -2.7541  -2.6422  -2.5893  -2.5072  -2.4850  -2.4361  -2.3913  -2.3583
    -2.3397  -2.3206  -2.2874  -2.2622  -2.1862  -2.1380  -2.1235  -2.0339
    -2.0163  -1.9991  -1.9422  -1.9391  -1.9014  -1.8585  -1.8269  -1.8027
    -1.7405  -1.7076  -1.6692  -1.6391  -1.5767  -1.5362  -1.5016  -1.4567
    -1.4277  -1.3670  -1.3434  -1.2991  -1.2213  -1.2025  -1.1363  -1.1007
    -1.0671  -1.0129  -0.9193  -0.8785  -0.8093  -0.7972  -0.7346  -0.6774
    -0.6035  -0.4636  -0.2540   0.0949   0.1316   0.1587   0.1912   1.8646
     2.0509   2.1380   2.1818   2.2314   2.2734   2.3096   2.3370   2.3868
     2.4478   2.4626   2.4891   2.5163   2.5237   2.5869   2.6963   2.7278
     2.7483   2.7790   2.8313   2.8443   2.8972   2.9542   2.9748   2.9905
     3.0278   3.0381   3.1739   3.2116   3.2948   3.3206   3.3375   3.3744
     3.4152   3.4402   3.4635   3.5472   3.5627   3.6392   3.6614   3.7413
     3.7986   3.8221   3.8657   3.9032   3.9107   4.0771   4.1196   4.1683
     4.3457   4.3867   4.6218   4.9702   5.0231   5.1259   5.1422   5.1596
     5.2632   5.2913   5.3196   5.4317   5.5152   5.5640   5.6442   5.7665
     5.8302   5.8524   5.8987   5.9404   5.9586   6.0004   6.0567   6.0671
     6.1404   6.1595   6.2338   6.3272   6.3826   6.4172   6.4833   6.6484
     6.6986   6.7991   6.8503   7.0383   7.1489   7.3656   7.4817   7.5905
     7.9793   8.1755   8.3515   8.5193   8.6447   8.8622   9.0535   9.1179
     9.1849   9.4982   9.6291

          k =-0.0506 0.0280 0.0000 ( 34685 PWs)   bands (ev):

   -57.6938 -57.6635 -57.3120 -57.2805 -57.2302 -57.1042 -57.0723 -57.0673
   -57.0486 -57.0368 -56.9835 -56.9527 -56.7213 -56.6888 -56.1445 -56.1140
   -34.1078 -33.9763 -33.9517 -33.8888 -33.8411 -33.8092 -33.7694 -33.6305
   -33.6084 -33.5821 -33.5400 -33.5317 -33.5240 -33.5163 -33.4907 -33.4693
   -33.4561 -33.4448 -33.4266 -33.3659 -33.3144 -33.2876 -33.2759 -33.2620
   -33.2609 -33.2572 -33.2558 -33.2508 -33.2344 -33.2329 -33.2308 -33.2075
   -33.1999 -33.1812 -33.1727 -33.1404 -33.1369 -32.9861 -32.9772 -32.9504
   -32.9065 -32.8262 -32.5388 -32.5002 -32.4735 -32.3628 -32.2835 -32.1964
   -20.4788 -17.8573 -17.6482 -17.3657 -17.3380 -17.2466 -17.2212 -17.2116
   -17.1190 -17.0400 -16.9603 -16.9170 -16.8679 -16.8544 -16.8518 -16.8278
   -16.7599 -16.7420 -16.5554 -16.5240 -16.5012 -16.4347 -16.4121 -16.3722
   -16.3637 -16.3086 -16.1867 -16.1681 -16.1494 -16.0023 -15.9610 -14.7379
   -14.6705 -11.5403  -7.3275  -5.4784  -5.2301  -5.2261  -4.8893  -4.8306
    -4.7171  -4.7012  -4.6719  -4.6519  -4.6270  -4.5064  -4.4246  -4.3421
    -4.3152  -4.2990  -4.1561  -4.1237  -4.0565  -4.0224  -4.0050  -3.9896
    -3.9795  -3.9064  -3.8562  -3.8126  -3.7699  -3.7577  -3.7159  -3.6878
    -3.6538  -3.6301  -3.5801  -3.5476  -3.4469  -3.3266  -3.2895  -3.2591
    -3.2197  -3.1666  -3.0982  -3.0558  -2.9501  -2.9345  -2.8739  -2.8372
    -2.7399  -2.6931  -2.6553  -2.6478  -2.6011  -2.5876  -2.5324  -2.4914
    -2.4332  -2.3841  -2.3778  -2.3324  -2.3058  -2.2510  -2.1754  -2.1324
    -2.1095  -2.0586  -2.0244  -1.9710  -1.9370  -1.9027  -1.8567  -1.8275
    -1.7510  -1.7359  -1.7082  -1.6373  -1.5373  -1.5028  -1.4794  -1.4137
    -1.3611  -1.3441  -1.2750  -1.2605  -1.2342  -1.1446  -1.1246  -1.0095
    -0.9792  -0.8780  -0.8532  -0.8111  -0.7766  -0.7608  -0.7007  -0.6866
    -0.5096  -0.3087  -0.2562  -0.0701   0.1129   0.1423   0.1656   1.7073
     1.9082   2.0634   2.1261   2.1308   2.1759   2.2449   2.3655   2.3759
     2.4095   2.4412   2.5215   2.5712   2.5776   2.6062   2.6876   2.7003
     2.7468   2.8063   2.8372   2.9065   2.9599   2.9856   3.0450   3.0648
     3.0946   3.1646   3.1746   3.2039   3.3058   3.3610   3.3800   3.4150
     3.4513   3.4637   3.5508   3.5923   3.6077   3.6569   3.6794   3.6884
     3.7207   3.7751   3.8217   3.8740   3.9388   4.0634   4.1718   4.2851
     4.2964   4.4259   4.6298   4.6938   4.7675   4.8147   4.8598   4.9900
     5.0175   5.1304   5.2277   5.4746   5.5977   5.6448   5.7275   5.8115
     5.8660   5.8774   5.9292   5.9493   5.9831   6.0950   6.1196   6.1420
     6.2326   6.4362   6.4852   6.5447   6.5816   6.6104   6.6906   6.7417
     6.8021   6.8204   6.9769   7.1188   7.1705   7.3954   7.5830   7.7040
     8.1345   8.1657   8.2475   8.3964   8.7564   8.9689   9.0130   9.0626
     9.3723   9.4427   9.6102

          k =-0.0506 0.0560 0.0000 ( 34596 PWs)   bands (ev):

   -57.6874 -57.6699 -57.3055 -57.2871 -57.2294 -57.0982 -57.0784 -57.0609
   -57.0495 -57.0433 -56.9770 -56.9592 -56.7147 -56.6955 -56.1381 -56.1204
   -34.0378 -33.9710 -33.9567 -33.8721 -33.8426 -33.8261 -33.7700 -33.5927
   -33.5724 -33.5688 -33.5323 -33.5179 -33.5117 -33.5078 -33.4752 -33.4702
   -33.4511 -33.4237 -33.3997 -33.3504 -33.3149 -33.3147 -33.2977 -33.2957
   -33.2833 -33.2733 -33.2645 -33.2576 -33.2503 -33.2491 -33.2443 -33.2363
   -33.2061 -33.1963 -33.1662 -33.1596 -33.1193 -32.9809 -32.9713 -32.9556
   -32.9194 -32.8957 -32.4944 -32.4790 -32.4680 -32.3462 -32.3003 -32.2704
   -20.4786 -17.7028 -17.4975 -17.2880 -17.2363 -17.1943 -17.1707 -17.1589
   -17.0865 -17.0339 -17.0027 -16.9103 -16.8533 -16.8458 -16.8414 -16.8029
   -16.7730 -16.7176 -16.6587 -16.6190 -16.6093 -16.5475 -16.5093 -16.3945
   -16.3389 -16.2605 -16.2218 -16.1887 -16.1533 -16.1035 -16.0321 -14.7572
   -14.7216 -11.5394  -7.3263  -5.4546  -5.2414  -5.0197  -4.6561  -4.6138
    -4.5119  -4.4959  -4.4805  -4.4532  -4.4291  -4.3643  -4.3216  -4.2985
    -4.2228  -4.2028  -4.1434  -4.1287  -4.0791  -4.0630  -4.0428  -4.0330
    -4.0101  -3.9928  -3.9652  -3.9114  -3.8905  -3.8851  -3.8191  -3.7839
    -3.7278  -3.6576  -3.6268  -3.5203  -3.4886  -3.3845  -3.3251  -3.2586
    -3.2546  -3.2420  -3.1489  -3.0122  -2.9307  -2.8999  -2.8481  -2.8279
    -2.7533  -2.7237  -2.6818  -2.6057  -2.5888  -2.5644  -2.5255  -2.4868
    -2.4245  -2.4025  -2.3626  -2.3261  -2.3131  -2.2971  -2.2520  -2.1752
    -2.1495  -2.1182  -2.1110  -2.0742  -2.0438  -1.9992  -1.9808  -1.8983
    -1.8875  -1.8481  -1.8279  -1.7220  -1.6348  -1.6025  -1.5688  -1.4750
    -1.4060  -1.3699  -1.3028  -1.2606  -1.2037  -1.1110  -1.0745  -1.0165
    -1.0011  -0.9337  -0.8517  -0.8154  -0.7672  -0.7519  -0.6904  -0.6539
    -0.6485  -0.5151  -0.3212   0.0809   0.1151   0.1330   0.1966   1.8699
     2.0798   2.1685   2.2031   2.2244   2.2468   2.3019   2.3516   2.3969
     2.4068   2.5407   2.5737   2.5827   2.6108   2.6322   2.6872   2.7584
     2.7853   2.8081   2.8430   2.8846   2.9673   3.0079   3.0321   3.0660
     3.1009   3.1403   3.1715   3.2602   3.3398   3.3716   3.4014   3.4451
     3.4828   3.5039   3.5264   3.5465   3.6188   3.6520   3.7158   3.7487
     3.7860   3.8577   3.8851   3.9225   3.9286   3.9591   4.1147   4.1779
     4.2925   4.4759   4.7315   4.8100   4.8208   4.8998   4.9464   5.0962
     5.1701   5.2368   5.2752   5.3358   5.3761   5.4388   5.4992   5.6301
     5.7849   5.8380   5.8857   5.9561   6.0471   6.1278   6.2217   6.2619
     6.2903   6.3493   6.4203   6.4549   6.5089   6.5808   6.6524   6.7199
     6.7342   6.8270   6.8503   6.9874   7.0567   7.4129   7.4304   7.5788
     7.7444   7.9440   8.0691   8.3923   8.5765   8.6099   8.7386   9.0107
     9.2298   9.3298   9.4559

     the Fermi energy is     1.0000 ev

!    total energy              =   -3021.41856843 Ry
     Harris-Foulkes estimate   =   -3021.41856832 Ry
     estimated scf accuracy    <       0.00000034 Ry

     The total energy is the sum of the following terms:

     one-electron contribution =  -41241.80101764 Ry
     hartree contribution      =   20695.17516518 Ry
     xc contribution           =    -553.71942379 Ry
     ewald contribution        =   18078.92691880 Ry
     smearing contrib. (-TS)   =      -0.00021097 Ry

     total magnetization       =     0.00 Bohr mag/cell
     absolute magnetization    =     0.00 Bohr mag/cell

     convergence has been achieved in   8 iterations

     Forces acting on atoms (Ry/au):


     negative rho (up, down):  1.209E-02 1.209E-02
     atom    1 type  1   force =     0.00001624   -0.00035379   -0.13376833
     atom    2 type  2   force =     0.00000390    0.00003002    0.07210884
     atom    3 type  1   force =    -0.00135743    0.00030983   -0.06094356
     atom    4 type  2   force =     0.00290686    0.00048709    0.00638128
     atom    5 type  1   force =     0.00027755    0.00183493    0.00349805
     atom    6 type  2   force =     0.00004654    0.00001350   -0.00274290
     atom    7 type  1   force =    -0.00045777   -0.00075197    0.00367184
     atom    8 type  2   force =     0.00115453   -0.00017649   -0.00059937
     atom    9 type  1   force =    -0.00002666    0.00002108   -0.13352394
     atom   10 type  2   force =    -0.00006721    0.00006681    0.07129056
     atom   11 type  1   force =    -0.00131932   -0.00024138   -0.05585613
     atom   12 type  2   force =     0.00299980   -0.00006834    0.00609751
     atom   13 type  1   force =     0.00029871   -0.00146065    0.00343116
     atom   14 type  2   force =    -0.00120172   -0.00038500   -0.00285944
     atom   15 type  1   force =    -0.00058596    0.00021566    0.00431773
     atom   16 type  2   force =     0.00076946   -0.00021845    0.00001052
     atom   17 type  2   force =    -0.00007227   -0.00007094    0.07937339
     atom   18 type  1   force =     0.00013388   -0.00017288    0.11915474
     atom   19 type  2   force =    -0.00010884   -0.00017444   -0.06671143
     atom   20 type  2   force =    -0.06322181    0.00014657   -0.03224938
     atom   21 type  2   force =     0.06319904    0.00001640   -0.03244928
     atom   22 type  1   force =     0.00072397    0.00108291    0.05978252
     atom   23 type  2   force =    -0.00017387    0.00005906   -0.00174567
     atom   24 type  2   force =    -0.00143366   -0.00000448   -0.02330152
     atom   25 type  2   force =    -0.00313738    0.00058996    0.00786305
     atom   26 type  1   force =     0.00064994    0.00029346    0.00471388
     atom   27 type  2   force =     0.00051229    0.00061349   -0.00399048
     atom   28 type  2   force =     0.00016056   -0.00008989   -0.00121218
     atom   29 type  2   force =     0.00017683   -0.00034675   -0.00059906
     atom   30 type  1   force =     0.00026459   -0.00013205    0.00430794
     atom   31 type  2   force =     0.00055022    0.00005963   -0.00342453
     atom   32 type  2   force =    -0.00018580    0.00002778   -0.00104619
     atom   33 type  2   force =    -0.00011950    0.00003721    0.07897081
     atom   34 type  1   force =     0.00006668   -0.00021816    0.11906792
     atom   35 type  2   force =    -0.00030481   -0.00005421   -0.06641035
     atom   36 type  2   force =    -0.06318077   -0.00005065   -0.03233390
     atom   37 type  2   force =     0.06332780   -0.00020342   -0.03248865
     atom   38 type  1   force =     0.00066108   -0.00098406    0.05999767
     atom   39 type  2   force =    -0.00045640    0.00010538   -0.00249727
     atom   40 type  2   force =    -0.00118927    0.00030590   -0.02221111
     atom   41 type  2   force =    -0.00317617   -0.00015114    0.00789318
     atom   42 type  1   force =     0.00052840    0.00006346    0.00381486
     atom   43 type  2   force =     0.00069683    0.00023767   -0.00313193
     atom   44 type  2   force =     0.00024474    0.00010546   -0.00117132
     atom   45 type  2   force =     0.00015435    0.00030900   -0.00062686
     atom   46 type  1   force =     0.00053367   -0.00020776    0.00430599
     atom   47 type  2   force =     0.00008966   -0.00033593   -0.00127727
     atom   48 type  2   force =    -0.00008772    0.00001308   -0.00079069
     atom   49 type  3   force =    -0.00310971   -0.00069406    0.00238281
     atom   50 type  2   force =    -0.05550117    0.00018469   -0.01465820
     atom   51 type  4   force =     0.00012263    0.00005216    0.00027609
     atom   52 type  4   force =     0.05847341   -0.00009093    0.01336894
     atom   53 type  4   force =     0.00024821    0.00097891   -0.00079659
     atom   54 type  4   force =     0.00048283   -0.00062328   -0.00066377

     Total force =     0.372001     Total SCF correction =     0.001497
 !ASE

     Writing output data file calc.save
 
     init_run     :     57.01s CPU     73.24s WALL (       1 calls)
     electrons    :   1905.82s CPU   2379.06s WALL (       1 calls)
     forces       :     39.60s CPU     41.57s WALL (       1 calls)

     Called by init_run:
     wfcinit      :     48.86s CPU     64.20s WALL (       1 calls)
     potinit      :      1.50s CPU      1.85s WALL (       1 calls)

     Called by electrons:
     c_bands      :   1658.02s CPU   2070.37s WALL (       9 calls)
     sum_band     :    211.85s CPU    267.94s WALL (       9 calls)
     v_of_rho     :      9.10s CPU     11.46s WALL (       9 calls)
     newd         :     30.67s CPU     33.47s WALL (       9 calls)
     mix_rho      :      0.27s CPU      0.40s WALL (       9 calls)
     vdW_energy   :      1.61s CPU      1.95s WALL (      10 calls)
     vdW_ffts     :      2.52s CPU      3.35s WALL (      20 calls)
     vdW_v        :      1.04s CPU      1.19s WALL (      10 calls)

     Called by c_bands:
     init_us_2    :      5.46s CPU      5.96s WALL (     800 calls)
     cegterg      :   1624.41s CPU   2034.84s WALL (     360 calls)

     Called by *egterg:
     h_psi        :    697.12s CPU   1044.04s WALL (    1790 calls)
     s_psi        :     82.64s CPU     85.76s WALL (    1790 calls)
     g_psi        :      4.50s CPU      4.61s WALL (    1390 calls)
     cdiaghg      :    533.85s CPU    544.34s WALL (    1710 calls)

     Called by h_psi:
     add_vuspsi   :     83.03s CPU     86.66s WALL (    1790 calls)

     General routines
     calbec       :    127.32s CPU    129.72s WALL (    2190 calls)
     fft          :      5.76s CPU      7.47s WALL (     794 calls)
     ffts         :      0.06s CPU      0.08s WALL (      36 calls)
     fftw         :    467.82s CPU    852.84s WALL (  663680 calls)
     interpolate  :      0.35s CPU      0.51s WALL (      36 calls)
     davcio       :      0.14s CPU      3.81s WALL (      40 calls)
 
     Parallel routines
     fft_scatter  :    261.71s CPU    465.31s WALL (  664510 calls)
 
     PWSCF        : 33m23.50s CPU    41m39.53s WALL

 
   This run was terminated on:  22:53:38  12Feb2018            

=------------------------------------------------------------------------------=
   JOB DONE.
=------------------------------------------------------------------------------=
