  python dir          : /home/vossj/suncat/lib/python2.7/site-packages/espresso
  espresso dir        : /home/vossj/suncat/esdld/espresso-dynpy-beef/bin
  pseudo dir          : /home/alatimer/bin/psp/esp_psp_w_gbrvRu/
  ase-espresso py git : ffa2778-git



     Program PWSCF v.5.1rc2 (svn rev. ) starts on 25Feb2018 at 17:36:44 

     This program is part of the open-source Quantum ESPRESSO suite
     for quantum simulation of materials; please cite
         "P. Giannozzi et al., J. Phys.:Condens. Matter 21 395502 (2009);
          URL http://www.quantum-espresso.org", 
     in publications or presentations arising from this work. More details at
     http://www.quantum-espresso.org/quote

     Parallel version (MPI), running on    16 processors
     R & G space division:  proc/nbgrp/npool/nimage =      16
     Reading input from pw.inp
     Message from routine read_cards :
     DEPRECATED: no units specified in CELL_PARAMETERS card

     Current dimensions of program PWSCF are:
     Max number of different atomic species (ntypx) = 10
     Max number of k-points (npk) =  40000
     Max angular momentum in pseudopotentials (lmaxx) =  3

     **************************************************************************
     Initializing libbeef V0.1.1 with the BEEF-vdW functional.
     Citation: Wellendorff et al., PRB 85, 235149 (2012).
     **************************************************************************


     IMPORTANT: XC functional enforced from input :
     Exchange-correlation      = BEEF ( 1  4 27 13 2)
     Any further DFT definition will be discarded
     Please, verify this is what you really want


     Subspace diagonalization in iterative solution of the eigenvalue problem:
     a serial algorithm will be used

 
     Parallelization info
     --------------------
     sticks:   dense  smooth     PW     G-vecs:    dense   smooth      PW
     Min         281     112     31                68535    17318    2565
     Max         282     113     32                68545    17369    2582
     Sum        4501    1795    503              1096637   277353   41113
 
     Generating pointlists ...
     new r_m :   0.4125 (alat units)  0.7795 (a.u.) for type    1
     new r_m :   0.4125 (alat units)  0.7795 (a.u.) for type    2
     new r_m :   0.4125 (alat units)  0.7795 (a.u.) for type    3
     new r_m :   0.4125 (alat units)  0.7795 (a.u.) for type    4


     bravais-lattice index     =            0
     lattice parameter (alat)  =       1.8897  a.u.
     unit-cell volume          =    7990.9933 (a.u.)^3
     number of atoms/cell      =           54
     number of atomic types    =            4
     number of electrons       =       398.00
     number of Kohn-Sham states=          299
     kinetic-energy cutoff     =      40.4243  Ry
     charge density cutoff     =     404.2426  Ry
     convergence threshold     =      7.3E-07
     mixing beta               =       0.1000
     number of iterations used =           10  plain     mixing
     Exchange-correlation      = BEEF ( 1  4 27 13 2)
     nstep                     =           50


     celldm(1)=   1.889726  celldm(2)=   0.000000  celldm(3)=   0.000000
     celldm(4)=   0.000000  celldm(5)=   0.000000  celldm(6)=   0.000000

     crystal axes: (cart. coord. in units of alat)
               a(1) = (   6.590708   0.000000   0.000000 )  
               a(2) = (   0.000000   5.950229   0.000000 )  
               a(3) = (   0.000000   0.000000  30.195235 )  

     reciprocal axes: (cart. coord. in units 2 pi/alat)
               b(1) = (  0.151729  0.000000  0.000000 )  
               b(2) = (  0.000000  0.168061  0.000000 )  
               b(3) = (  0.000000  0.000000  0.033118 )  


     PseudoPot. # 1 for Ti read from file:
     /home/alatimer/bin/psp/esp_psp_w_gbrvRu/Ti.UPF
     MD5 check sum: 8e4df49b7f0d34bbd5052bf3f5ea0213
     Pseudo is Ultrasoft, Zval = 12.0
     Generated by new atomic code, or converted to UPF format
     Using radial grid of  851 points,  6 beta functions with: 
                l(1) =   0
                l(2) =   0
                l(3) =   1
                l(4) =   1
                l(5) =   2
                l(6) =   2
     Q(r) pseudized with  8 coefficients,  rinner =    1.000   1.000   1.000
                                                       1.000   1.000

     PseudoPot. # 2 for  O read from file:
     /home/alatimer/bin/psp/esp_psp_w_gbrvRu/O.UPF
     MD5 check sum: e057bbcf3229fb5d8c36c0c92f9568b4
     Pseudo is Ultrasoft + core correction, Zval =  6.0
     Generated using "atomic" code by A. Dal Corso  v.5.0.2 svn rev. 9415
     Using radial grid of 1095 points,  4 beta functions with: 
                l(1) =   0
                l(2) =   0
                l(3) =   1
                l(4) =   1
     Q(r) pseudized with 0 coefficients 


     PseudoPot. # 3 for  C read from file:
     /home/alatimer/bin/psp/esp_psp_w_gbrvRu/C.UPF
     MD5 check sum: ab446d787031eba755f1d5ee46644bb0
     Pseudo is Ultrasoft + core correction, Zval =  4.0
     Generated using "atomic" code by A. Dal Corso  v.5.0.2 svn rev. 9415
     Using radial grid of 1073 points,  4 beta functions with: 
                l(1) =   0
                l(2) =   0
                l(3) =   1
                l(4) =   1
     Q(r) pseudized with 0 coefficients 


     PseudoPot. # 4 for  H read from file:
     /home/alatimer/bin/psp/esp_psp_w_gbrvRu/H.UPF
     MD5 check sum: bd57da0722753ddfd9833a65b40bb853
     Pseudo is Ultrasoft, Zval =  1.0
     Generated using "atomic" code by A. Dal Corso  v.5.0.2 svn rev. 9415
     Using radial grid of  929 points,  2 beta functions with: 
                l(1) =   0
                l(2) =   0
     Q(r) pseudized with 0 coefficients 


     vdW kernel table read from file vdW_kernel_table
     MD5 check sum: 095c7af220d748ca6e76c0b4c6cfb241

     atomic species   valence    mass     pseudopotential
        Ti1           12.00    47.88000     Ti( 1.00)
        O1             6.00    15.99940      O( 1.00)
        C1             4.00    12.01100      C( 1.00)
        H1             1.00     1.00794      H( 1.00)

     Starting magnetic structure 
     atomic species   magnetization
        Ti1          0.250
        O1           0.500
        C1           0.750
        H1           0.000

     No symmetry found



   Cartesian axes

     site n.     atom                  positions (alat units)
         1           Ti1 tau(   1) = (   1.6476770   0.7437786   2.6545865  )
         2           O1  tau(   2) = (   1.6476770   2.2313359   3.9361215  )
         3           Ti1 tau(   3) = (   1.6476770   2.2313359   5.9499405  )
         4           O1  tau(   4) = (   0.3661420   0.7437786   5.9499405  )
         5           Ti1 tau(   5) = (   1.6407309   0.9134410   9.3139491  )
         6           O1  tau(   6) = (   1.6648823   2.2608486  10.4895904  )
         7           Ti1 tau(   7) = (   1.7578240   2.2899216  13.0472362  )
         8           O1  tau(   8) = (   0.4801583   0.7600008  12.7739736  )
         9           Ti1 tau(   9) = (   1.6476770   3.7188931   2.6545865  )
        10           O1  tau(  10) = (   1.6476770   5.2064503   3.9361215  )
        11           Ti1 tau(  11) = (   1.6476770   5.2064503   5.9499405  )
        12           O1  tau(  12) = (   0.3661420   3.7188931   5.9499405  )
        13           Ti1 tau(  13) = (   1.6336050   3.7786827   9.1566831  )
        14           O1  tau(  14) = (   1.6678212   5.2513959  10.5409436  )
        15           Ti1 tau(  15) = (   1.7144009   5.2558216  12.3462911  )
        16           O1  tau(  16) = (   0.4635505   3.7986228  12.7318280  )
        17           O1  tau(  17) = (   1.6476770   2.2313359   1.3730516  )
        18           Ti1 tau(  18) = (   4.9430310   2.2313359   2.6545865  )
        19           O1  tau(  19) = (   4.9430310   2.2313359   4.6684056  )
        20           O1  tau(  20) = (   6.2245660   0.7437786   2.6545865  )
        21           O1  tau(  21) = (   3.6614961   0.7437786   2.6545865  )
        22           Ti1 tau(  22) = (   4.9430310   0.7437786   5.9499405  )
        23           O1  tau(  23) = (   1.6683653   2.2752577   7.9427336  )
        24           O1  tau(  24) = (   4.9430310   2.2313359   7.2314755  )
        25           O1  tau(  25) = (   2.9292120   0.7437786   5.9499405  )
        26           Ti1 tau(  26) = (   4.9404121   2.2664794   9.4552217  )
        27           O1  tau(  27) = (   5.0099888   2.2616732  11.2946145  )
        28           O1  tau(  28) = (   6.2612001   0.7714827   9.2659748  )
        29           O1  tau(  29) = (   3.6791272   0.7744986   9.2965846  )
        30           Ti1 tau(  30) = (   5.0117873   0.7976728  12.8161605  )
        31           O1  tau(  31) = (   4.9963122   2.2836652  13.8750618  )
        32           O1  tau(  32) = (   2.9819382   0.7448324  12.7109220  )
        33           O1  tau(  33) = (   1.6476770   5.2064503   1.3730516  )
        34           Ti1 tau(  34) = (   4.9430310   5.2064503   2.6545865  )
        35           O1  tau(  35) = (   4.9430310   5.2064503   4.6684056  )
        36           O1  tau(  36) = (   6.2245660   3.7188931   2.6545865  )
        37           O1  tau(  37) = (   3.6614961   3.7188931   2.6545865  )
        38           Ti1 tau(  38) = (   4.9430310   3.7188931   5.9499405  )
        39           O1  tau(  39) = (   1.6664207   5.2035600   7.9365221  )
        40           O1  tau(  40) = (   4.9430310   5.2064503   7.2314755  )
        41           O1  tau(  41) = (   2.9292120   3.7188931   5.9499405  )
        42           Ti1 tau(  42) = (   4.9524353   5.2460635   9.4426343  )
        43           O1  tau(  43) = (   5.0107556   5.2394944  11.2927493  )
        44           O1  tau(  44) = (   6.2663940   3.7551737   9.2646230  )
        45           O1  tau(  45) = (   3.6780957   3.7542261   9.2971476  )
        46           Ti1 tau(  46) = (   5.0587989   3.7766986  12.8010349  )
        47           O1  tau(  47) = (   5.0196089   5.2502198  13.8813978  )
        48           O1  tau(  48) = (   2.9624133   3.7943242  12.7299881  )
        49           O1  tau(  49) = (   1.7127453   2.2533568  14.8370015  )
        50           C1  tau(  50) = (   2.7196098   4.2826273  16.2318421  )
        51           H1  tau(  51) = (   3.3037454   4.9255546  15.5827400  )
        52           H1  tau(  52) = (   3.3286606   3.7870117  16.9822022  )
        53           H1  tau(  53) = (   2.3125587   3.4026405  15.5729816  )
        54           H1  tau(  54) = (   1.8391288   4.7650601  16.6448379  )

     number of k points=    40  Fermi-Dirac smearing, width (Ry)=  0.0073
                       cart. coord. in units 2pi/alat
        k(    1) = (   0.0000000   0.0000000   0.0000000), wk =   0.0277778
        k(    2) = (   0.0000000   0.0280101   0.0000000), wk =   0.0555556
        k(    3) = (   0.0000000   0.0560203   0.0000000), wk =   0.0555556
        k(    4) = (   0.0000000  -0.0840304   0.0000000), wk =   0.0277778
        k(    5) = (   0.0252881   0.0000000   0.0000000), wk =   0.0555556
        k(    6) = (   0.0252881   0.0280101   0.0000000), wk =   0.0555556
        k(    7) = (   0.0252881   0.0560203   0.0000000), wk =   0.0555556
        k(    8) = (   0.0252881  -0.0840304   0.0000000), wk =   0.0555556
        k(    9) = (   0.0505763   0.0000000   0.0000000), wk =   0.0555556
        k(   10) = (   0.0505763   0.0280101   0.0000000), wk =   0.0555556
        k(   11) = (   0.0505763   0.0560203   0.0000000), wk =   0.0555556
        k(   12) = (   0.0505763  -0.0840304   0.0000000), wk =   0.0555556
        k(   13) = (  -0.0758644   0.0000000   0.0000000), wk =   0.0277778
        k(   14) = (  -0.0758644   0.0280101   0.0000000), wk =   0.0555556
        k(   15) = (  -0.0758644   0.0560203   0.0000000), wk =   0.0555556
        k(   16) = (  -0.0758644  -0.0840304   0.0000000), wk =   0.0277778
        k(   17) = (  -0.0252881   0.0280101   0.0000000), wk =   0.0555556
        k(   18) = (  -0.0252881   0.0560203   0.0000000), wk =   0.0555556
        k(   19) = (  -0.0505763   0.0280101   0.0000000), wk =   0.0555556
        k(   20) = (  -0.0505763   0.0560203   0.0000000), wk =   0.0555556
        k(   21) = (   0.0000000   0.0000000   0.0000000), wk =   0.0277778
        k(   22) = (   0.0000000   0.0280101   0.0000000), wk =   0.0555556
        k(   23) = (   0.0000000   0.0560203   0.0000000), wk =   0.0555556
        k(   24) = (   0.0000000  -0.0840304   0.0000000), wk =   0.0277778
        k(   25) = (   0.0252881   0.0000000   0.0000000), wk =   0.0555556
        k(   26) = (   0.0252881   0.0280101   0.0000000), wk =   0.0555556
        k(   27) = (   0.0252881   0.0560203   0.0000000), wk =   0.0555556
        k(   28) = (   0.0252881  -0.0840304   0.0000000), wk =   0.0555556
        k(   29) = (   0.0505763   0.0000000   0.0000000), wk =   0.0555556
        k(   30) = (   0.0505763   0.0280101   0.0000000), wk =   0.0555556
        k(   31) = (   0.0505763   0.0560203   0.0000000), wk =   0.0555556
        k(   32) = (   0.0505763  -0.0840304   0.0000000), wk =   0.0555556
        k(   33) = (  -0.0758644   0.0000000   0.0000000), wk =   0.0277778
        k(   34) = (  -0.0758644   0.0280101   0.0000000), wk =   0.0555556
        k(   35) = (  -0.0758644   0.0560203   0.0000000), wk =   0.0555556
        k(   36) = (  -0.0758644  -0.0840304   0.0000000), wk =   0.0277778
        k(   37) = (  -0.0252881   0.0280101   0.0000000), wk =   0.0555556
        k(   38) = (  -0.0252881   0.0560203   0.0000000), wk =   0.0555556
        k(   39) = (  -0.0505763   0.0280101   0.0000000), wk =   0.0555556
        k(   40) = (  -0.0505763   0.0560203   0.0000000), wk =   0.0555556

     Dense  grid:  1096637 G-vectors     FFT dimensions: (  80,  72, 375)

     Smooth grid:   277353 G-vectors     FFT dimensions: (  54,  45, 240)

     Largest allocated arrays     est. size (Mb)     dimensions
        Kohn-Sham Wavefunctions         9.95 Mb     (    2180,  299)
        NL pseudopotentials            18.89 Mb     (    2180,  568)
        Each V/rho on FFT grid          4.22 Mb     (  138240,   2)
        Each G-vector array             0.52 Mb     (   68538)
        G-vector shells                 0.25 Mb     (   33046)
     Largest temporary arrays     est. size (Mb)     dimensions
        Auxiliary wavefunctions        39.78 Mb     (    2180, 1196)
        Each subspace H/S matrix       21.83 Mb     (    1196, 1196)
        Each <psi_i|beta_j> matrix      2.59 Mb     (     568,  299)
        Arrays for rho mixing          21.09 Mb     (  138240,   10)

     Check: negative/imaginary core charge=   -0.000049    0.000000

     The initial density is read from file :
     ./calc.save/charge-density.dat


     negative rho (up, down):  1.189E-02 1.196E-02


     ************************************************************************
     *
     * You are using vdW-DF for exchange-correlation in this calculation.
     * Please cite the following three references that made this development
     * possible:
     *
     *   M. Dion, H. Rydberg, E. Schroder, D. C. Langreth, and
     *   B. I. Lundqvist, Phys. Rev. Lett. 92, 246401 (2004).
     *
     *   T. Thonhauser, V. R. Cooper, S. Li, A. Puzder, P. Hyldgaard, and
     *   D. C. Langreth, Phys. Rev. B 76, 125112 (2007).
     *
     *   G. Roman-Perez and J. M. Soler, Phys. Rev. Lett. 103, 096102 (2009).
     *
     *
     * If you are using vdW-DF2, please also cite:
     *
     *   K. Lee, E. D. Murray, L. Kong, B. I. Lundqvist, and
     *   D. C. Langreth, Phys. Rev. B 82, 081101(R) (2010).
     *
     *
     * If you are calculating the stress with vdW-DF, please also cite:
     *
     *   R. Sabatini, E. Kucukbenli, B. Kolb, T. Thonhauser, and
     *   S. de Gironcoli, J. Phys.: Condens. Matter 24, 424209 (2012).
     *
     ************************************************************************

     Carrying out vdW-DF run using the following parameters:

     Nqs =      20    Nr_points =    1024   r_max =   100.000
     q_mesh =
               0.00001000     0.04494208     0.09755937     0.15916263
               0.23128650     0.31572767     0.41458969     0.53033537
               0.66584808     0.82450364     1.01025438     1.22772762
               1.48234092     1.78043706     2.12944203     2.53805004
               3.01644009     3.57652955     4.23227104     5.00000000

     Gradients computed in reciprocal space

     ************************************************************************


     Starting wfc are  300 randomized atomic wfcs

     total cpu time spent up to now is       76.7 secs

     Self-consistent Calculation

     iteration #  1     ecut=    40.42 Ry     beta=0.10
     Davidson diagonalization with overlap
     ethr =  1.00E-05,  avg # of iterations = 14.9

     negative rho (up, down):  1.189E-02 1.196E-02
 
     Magnetic moment per site:
     atom:    1    charge:    3.1244    magn:   -0.0003    constr:    0.0000
     atom:    2    charge:    2.0897    magn:    0.0003    constr:    0.0000
     atom:    3    charge:    3.1198    magn:   -0.0000    constr:    0.0000
     atom:    4    charge:    2.0867    magn:   -0.0001    constr:    0.0000
     atom:    5    charge:    3.1161    magn:   -0.0002    constr:    0.0000
     atom:    6    charge:    2.0796    magn:    0.0020    constr:    0.0000
     atom:    7    charge:    3.1166    magn:   -0.0053    constr:    0.0000
     atom:    8    charge:    2.0802    magn:    0.0248    constr:    0.0000
     atom:    9    charge:    3.1244    magn:   -0.0003    constr:    0.0000
     atom:   10    charge:    2.0898    magn:    0.0003    constr:    0.0000
     atom:   11    charge:    3.1198    magn:   -0.0000    constr:    0.0000
     atom:   12    charge:    2.0871    magn:   -0.0000    constr:    0.0000
     atom:   13    charge:    3.1150    magn:   -0.0002    constr:    0.0000
     atom:   14    charge:    2.0939    magn:    0.0022    constr:    0.0000
     atom:   15    charge:    3.1184    magn:   -0.0008    constr:    0.0000
     atom:   16    charge:    2.0837    magn:    0.0046    constr:    0.0000
     atom:   17    charge:    2.0624    magn:    0.0018    constr:    0.0000
     atom:   18    charge:    3.1239    magn:   -0.0001    constr:    0.0000
     atom:   19    charge:    2.0876    magn:    0.0001    constr:    0.0000
     atom:   20    charge:    2.0847    magn:    0.0002    constr:    0.0000
     atom:   21    charge:    2.0847    magn:    0.0002    constr:    0.0000
     atom:   22    charge:    3.1199    magn:    0.0000    constr:    0.0000
     atom:   23    charge:    2.0908    magn:    0.0002    constr:    0.0000
     atom:   24    charge:    2.0754    magn:   -0.0002    constr:    0.0000
     atom:   25    charge:    2.0867    magn:    0.0000    constr:    0.0000
     atom:   26    charge:    3.1127    magn:   -0.0002    constr:    0.0000
     atom:   27    charge:    2.0803    magn:    0.0024    constr:    0.0000
     atom:   28    charge:    2.0839    magn:    0.0006    constr:    0.0000
     atom:   29    charge:    2.0860    magn:    0.0008    constr:    0.0000
     atom:   30    charge:    3.1171    magn:   -0.0008    constr:    0.0000
     atom:   31    charge:    2.0825    magn:    0.0006    constr:    0.0000
     atom:   32    charge:    2.0821    magn:    0.0064    constr:    0.0000
     atom:   33    charge:    2.0624    magn:    0.0018    constr:    0.0000
     atom:   34    charge:    3.1239    magn:   -0.0001    constr:    0.0000
     atom:   35    charge:    2.0876    magn:    0.0001    constr:    0.0000
     atom:   36    charge:    2.0847    magn:    0.0002    constr:    0.0000
     atom:   37    charge:    2.0847    magn:    0.0002    constr:    0.0000
     atom:   38    charge:    3.1200    magn:    0.0000    constr:    0.0000
     atom:   39    charge:    2.0839    magn:    0.0002    constr:    0.0000
     atom:   40    charge:    2.0757    magn:   -0.0003    constr:    0.0000
     atom:   41    charge:    2.0870    magn:   -0.0000    constr:    0.0000
     atom:   42    charge:    3.1151    magn:   -0.0002    constr:    0.0000
     atom:   43    charge:    2.0803    magn:    0.0030    constr:    0.0000
     atom:   44    charge:    2.0851    magn:    0.0008    constr:    0.0000
     atom:   45    charge:    2.0858    magn:    0.0004    constr:    0.0000
     atom:   46    charge:    3.1148    magn:   -0.0007    constr:    0.0000
     atom:   47    charge:    2.0807    magn:    0.0046    constr:    0.0000
     atom:   48    charge:    2.0829    magn:    0.0136    constr:    0.0000
     atom:   49    charge:    2.0475    magn:    0.2376    constr:    0.0000
     atom:   50    charge:    0.6710    magn:    0.0549    constr:    0.0000
     atom:   51    charge:    0.4219    magn:    0.0009    constr:    0.0000
     atom:   52    charge:    0.4227    magn:    0.0008    constr:    0.0000
     atom:   53    charge:    0.3666    magn:    0.0235    constr:    0.0000
     atom:   54    charge:    0.4232    magn:    0.0007    constr:    0.0000

     total cpu time spent up to now is     1013.2 secs

     total energy              =   -3021.17618601 Ry
     Harris-Foulkes estimate   =   -3021.18899392 Ry
     estimated scf accuracy    <       0.08795302 Ry

     total magnetization       =     1.06 Bohr mag/cell
     absolute magnetization    =     1.23 Bohr mag/cell

     iteration #  2     ecut=    40.42 Ry     beta=0.10
     Davidson diagonalization with overlap
     ethr =  2.21E-05,  avg # of iterations =  1.0

     negative rho (up, down):  1.189E-02 1.196E-02
 
     Magnetic moment per site:
     atom:    1    charge:    3.1244    magn:   -0.0003    constr:    0.0000
     atom:    2    charge:    2.0898    magn:    0.0003    constr:    0.0000
     atom:    3    charge:    3.1198    magn:   -0.0000    constr:    0.0000
     atom:    4    charge:    2.0867    magn:   -0.0001    constr:    0.0000
     atom:    5    charge:    3.1161    magn:   -0.0003    constr:    0.0000
     atom:    6    charge:    2.0795    magn:    0.0019    constr:    0.0000
     atom:    7    charge:    3.1164    magn:   -0.0054    constr:    0.0000
     atom:    8    charge:    2.0804    magn:    0.0249    constr:    0.0000
     atom:    9    charge:    3.1244    magn:   -0.0003    constr:    0.0000
     atom:   10    charge:    2.0899    magn:    0.0003    constr:    0.0000
     atom:   11    charge:    3.1198    magn:   -0.0000    constr:    0.0000
     atom:   12    charge:    2.0870    magn:   -0.0000    constr:    0.0000
     atom:   13    charge:    3.1150    magn:   -0.0002    constr:    0.0000
     atom:   14    charge:    2.0938    magn:    0.0022    constr:    0.0000
     atom:   15    charge:    3.1184    magn:   -0.0008    constr:    0.0000
     atom:   16    charge:    2.0842    magn:    0.0044    constr:    0.0000
     atom:   17    charge:    2.0631    magn:    0.0016    constr:    0.0000
     atom:   18    charge:    3.1240    magn:   -0.0001    constr:    0.0000
     atom:   19    charge:    2.0875    magn:    0.0001    constr:    0.0000
     atom:   20    charge:    2.0848    magn:    0.0001    constr:    0.0000
     atom:   21    charge:    2.0848    magn:    0.0001    constr:    0.0000
     atom:   22    charge:    3.1199    magn:    0.0000    constr:    0.0000
     atom:   23    charge:    2.0907    magn:    0.0002    constr:    0.0000
     atom:   24    charge:    2.0752    magn:   -0.0001    constr:    0.0000
     atom:   25    charge:    2.0867    magn:    0.0000    constr:    0.0000
     atom:   26    charge:    3.1126    magn:   -0.0002    constr:    0.0000
     atom:   27    charge:    2.0801    magn:    0.0024    constr:    0.0000
     atom:   28    charge:    2.0837    magn:    0.0006    constr:    0.0000
     atom:   29    charge:    2.0859    magn:    0.0008    constr:    0.0000
     atom:   30    charge:    3.1171    magn:   -0.0008    constr:    0.0000
     atom:   31    charge:    2.0826    magn:    0.0006    constr:    0.0000
     atom:   32    charge:    2.0818    magn:    0.0062    constr:    0.0000
     atom:   33    charge:    2.0631    magn:    0.0016    constr:    0.0000
     atom:   34    charge:    3.1240    magn:   -0.0001    constr:    0.0000
     atom:   35    charge:    2.0875    magn:    0.0001    constr:    0.0000
     atom:   36    charge:    2.0848    magn:    0.0001    constr:    0.0000
     atom:   37    charge:    2.0848    magn:    0.0001    constr:    0.0000
     atom:   38    charge:    3.1200    magn:    0.0000    constr:    0.0000
     atom:   39    charge:    2.0838    magn:    0.0002    constr:    0.0000
     atom:   40    charge:    2.0754    magn:   -0.0002    constr:    0.0000
     atom:   41    charge:    2.0870    magn:   -0.0000    constr:    0.0000
     atom:   42    charge:    3.1151    magn:   -0.0002    constr:    0.0000
     atom:   43    charge:    2.0801    magn:    0.0030    constr:    0.0000
     atom:   44    charge:    2.0849    magn:    0.0008    constr:    0.0000
     atom:   45    charge:    2.0857    magn:    0.0004    constr:    0.0000
     atom:   46    charge:    3.1148    magn:   -0.0007    constr:    0.0000
     atom:   47    charge:    2.0809    magn:    0.0045    constr:    0.0000
     atom:   48    charge:    2.0826    magn:    0.0136    constr:    0.0000
     atom:   49    charge:    2.0511    magn:    0.2375    constr:    0.0000
     atom:   50    charge:    0.6707    magn:    0.0553    constr:    0.0000
     atom:   51    charge:    0.4218    magn:    0.0010    constr:    0.0000
     atom:   52    charge:    0.4227    magn:    0.0008    constr:    0.0000
     atom:   53    charge:    0.3642    magn:    0.0241    constr:    0.0000
     atom:   54    charge:    0.4236    magn:    0.0007    constr:    0.0000

     total cpu time spent up to now is     1207.7 secs

     total energy              =   -3021.14804873 Ry
     Harris-Foulkes estimate   =   -3021.17682615 Ry
     estimated scf accuracy    <       0.05941013 Ry

     total magnetization       =     1.06 Bohr mag/cell
     absolute magnetization    =     1.23 Bohr mag/cell

     iteration #  3     ecut=    40.42 Ry     beta=0.10
     Davidson diagonalization with overlap
     ethr =  1.49E-05,  avg # of iterations =  3.2

     negative rho (up, down):  1.189E-02 1.196E-02
 
     Magnetic moment per site:
     atom:    1    charge:    3.1244    magn:   -0.0003    constr:    0.0000
     atom:    2    charge:    2.0896    magn:    0.0003    constr:    0.0000
     atom:    3    charge:    3.1198    magn:   -0.0000    constr:    0.0000
     atom:    4    charge:    2.0867    magn:   -0.0001    constr:    0.0000
     atom:    5    charge:    3.1161    magn:   -0.0003    constr:    0.0000
     atom:    6    charge:    2.0796    magn:    0.0019    constr:    0.0000
     atom:    7    charge:    3.1164    magn:   -0.0054    constr:    0.0000
     atom:    8    charge:    2.0801    magn:    0.0250    constr:    0.0000
     atom:    9    charge:    3.1244    magn:   -0.0003    constr:    0.0000
     atom:   10    charge:    2.0898    magn:    0.0003    constr:    0.0000
     atom:   11    charge:    3.1198    magn:   -0.0000    constr:    0.0000
     atom:   12    charge:    2.0870    magn:   -0.0000    constr:    0.0000
     atom:   13    charge:    3.1150    magn:   -0.0002    constr:    0.0000
     atom:   14    charge:    2.0939    magn:    0.0022    constr:    0.0000
     atom:   15    charge:    3.1184    magn:   -0.0008    constr:    0.0000
     atom:   16    charge:    2.0840    magn:    0.0043    constr:    0.0000
     atom:   17    charge:    2.0622    magn:    0.0016    constr:    0.0000
     atom:   18    charge:    3.1240    magn:   -0.0001    constr:    0.0000
     atom:   19    charge:    2.0875    magn:    0.0001    constr:    0.0000
     atom:   20    charge:    2.0847    magn:    0.0001    constr:    0.0000
     atom:   21    charge:    2.0847    magn:    0.0001    constr:    0.0000
     atom:   22    charge:    3.1199    magn:    0.0000    constr:    0.0000
     atom:   23    charge:    2.0908    magn:    0.0002    constr:    0.0000
     atom:   24    charge:    2.0754    magn:   -0.0001    constr:    0.0000
     atom:   25    charge:    2.0867    magn:    0.0000    constr:    0.0000
     atom:   26    charge:    3.1126    magn:   -0.0002    constr:    0.0000
     atom:   27    charge:    2.0803    magn:    0.0024    constr:    0.0000
     atom:   28    charge:    2.0839    magn:    0.0006    constr:    0.0000
     atom:   29    charge:    2.0860    magn:    0.0008    constr:    0.0000
     atom:   30    charge:    3.1171    magn:   -0.0008    constr:    0.0000
     atom:   31    charge:    2.0827    magn:    0.0006    constr:    0.0000
     atom:   32    charge:    2.0822    magn:    0.0061    constr:    0.0000
     atom:   33    charge:    2.0622    magn:    0.0016    constr:    0.0000
     atom:   34    charge:    3.1239    magn:   -0.0001    constr:    0.0000
     atom:   35    charge:    2.0875    magn:    0.0001    constr:    0.0000
     atom:   36    charge:    2.0847    magn:    0.0001    constr:    0.0000
     atom:   37    charge:    2.0847    magn:    0.0001    constr:    0.0000
     atom:   38    charge:    3.1200    magn:    0.0000    constr:    0.0000
     atom:   39    charge:    2.0839    magn:    0.0002    constr:    0.0000
     atom:   40    charge:    2.0756    magn:   -0.0002    constr:    0.0000
     atom:   41    charge:    2.0870    magn:   -0.0000    constr:    0.0000
     atom:   42    charge:    3.1151    magn:   -0.0002    constr:    0.0000
     atom:   43    charge:    2.0803    magn:    0.0030    constr:    0.0000
     atom:   44    charge:    2.0850    magn:    0.0008    constr:    0.0000
     atom:   45    charge:    2.0859    magn:    0.0004    constr:    0.0000
     atom:   46    charge:    3.1148    magn:   -0.0007    constr:    0.0000
     atom:   47    charge:    2.0809    magn:    0.0045    constr:    0.0000
     atom:   48    charge:    2.0829    magn:    0.0136    constr:    0.0000
     atom:   49    charge:    2.0515    magn:    0.2376    constr:    0.0000
     atom:   50    charge:    0.6707    magn:    0.0553    constr:    0.0000
     atom:   51    charge:    0.4218    magn:    0.0010    constr:    0.0000
     atom:   52    charge:    0.4227    magn:    0.0008    constr:    0.0000
     atom:   53    charge:    0.3640    magn:    0.0241    constr:    0.0000
     atom:   54    charge:    0.4236    magn:    0.0007    constr:    0.0000

     total cpu time spent up to now is     1449.7 secs

     total energy              =   -3021.14999549 Ry
     Harris-Foulkes estimate   =   -3021.15444553 Ry
     estimated scf accuracy    <       0.04644159 Ry

     total magnetization       =     1.04 Bohr mag/cell
     absolute magnetization    =     1.21 Bohr mag/cell

     iteration #  4     ecut=    40.42 Ry     beta=0.10
     Davidson diagonalization with overlap
     ethr =  1.17E-05,  avg # of iterations =  1.2

     negative rho (up, down):  1.189E-02 1.197E-02
 
     Magnetic moment per site:
     atom:    1    charge:    3.1244    magn:   -0.0003    constr:    0.0000
     atom:    2    charge:    2.0897    magn:    0.0002    constr:    0.0000
     atom:    3    charge:    3.1198    magn:   -0.0000    constr:    0.0000
     atom:    4    charge:    2.0868    magn:   -0.0001    constr:    0.0000
     atom:    5    charge:    3.1161    magn:   -0.0003    constr:    0.0000
     atom:    6    charge:    2.0794    magn:    0.0019    constr:    0.0000
     atom:    7    charge:    3.1166    magn:   -0.0055    constr:    0.0000
     atom:    8    charge:    2.0783    magn:    0.0254    constr:    0.0000
     atom:    9    charge:    3.1244    magn:   -0.0003    constr:    0.0000
     atom:   10    charge:    2.0899    magn:    0.0003    constr:    0.0000
     atom:   11    charge:    3.1198    magn:   -0.0000    constr:    0.0000
     atom:   12    charge:    2.0871    magn:   -0.0000    constr:    0.0000
     atom:   13    charge:    3.1150    magn:   -0.0002    constr:    0.0000
     atom:   14    charge:    2.0939    magn:    0.0022    constr:    0.0000
     atom:   15    charge:    3.1184    magn:   -0.0008    constr:    0.0000
     atom:   16    charge:    2.0822    magn:    0.0044    constr:    0.0000
     atom:   17    charge:    2.0623    magn:    0.0015    constr:    0.0000
     atom:   18    charge:    3.1239    magn:   -0.0001    constr:    0.0000
     atom:   19    charge:    2.0876    magn:    0.0001    constr:    0.0000
     atom:   20    charge:    2.0847    magn:    0.0001    constr:    0.0000
     atom:   21    charge:    2.0847    magn:    0.0001    constr:    0.0000
     atom:   22    charge:    3.1199    magn:    0.0000    constr:    0.0000
     atom:   23    charge:    2.0909    magn:    0.0002    constr:    0.0000
     atom:   24    charge:    2.0755    magn:   -0.0001    constr:    0.0000
     atom:   25    charge:    2.0868    magn:    0.0000    constr:    0.0000
     atom:   26    charge:    3.1127    magn:   -0.0002    constr:    0.0000
     atom:   27    charge:    2.0802    magn:    0.0024    constr:    0.0000
     atom:   28    charge:    2.0839    magn:    0.0006    constr:    0.0000
     atom:   29    charge:    2.0861    magn:    0.0008    constr:    0.0000
     atom:   30    charge:    3.1171    magn:   -0.0008    constr:    0.0000
     atom:   31    charge:    2.0827    magn:    0.0006    constr:    0.0000
     atom:   32    charge:    2.0834    magn:    0.0060    constr:    0.0000
     atom:   33    charge:    2.0623    magn:    0.0015    constr:    0.0000
     atom:   34    charge:    3.1239    magn:   -0.0001    constr:    0.0000
     atom:   35    charge:    2.0876    magn:    0.0001    constr:    0.0000
     atom:   36    charge:    2.0847    magn:    0.0001    constr:    0.0000
     atom:   37    charge:    2.0847    magn:    0.0001    constr:    0.0000
     atom:   38    charge:    3.1200    magn:    0.0000    constr:    0.0000
     atom:   39    charge:    2.0840    magn:    0.0002    constr:    0.0000
     atom:   40    charge:    2.0758    magn:   -0.0002    constr:    0.0000
     atom:   41    charge:    2.0871    magn:   -0.0000    constr:    0.0000
     atom:   42    charge:    3.1152    magn:   -0.0002    constr:    0.0000
     atom:   43    charge:    2.0802    magn:    0.0030    constr:    0.0000
     atom:   44    charge:    2.0851    magn:    0.0009    constr:    0.0000
     atom:   45    charge:    2.0859    magn:    0.0004    constr:    0.0000
     atom:   46    charge:    3.1148    magn:   -0.0007    constr:    0.0000
     atom:   47    charge:    2.0806    magn:    0.0045    constr:    0.0000
     atom:   48    charge:    2.0842    magn:    0.0136    constr:    0.0000
     atom:   49    charge:    2.0509    magn:    0.2383    constr:    0.0000
     atom:   50    charge:    0.6713    magn:    0.0550    constr:    0.0000
     atom:   51    charge:    0.4218    magn:    0.0010    constr:    0.0000
     atom:   52    charge:    0.4227    magn:    0.0007    constr:    0.0000
     atom:   53    charge:    0.3645    magn:    0.0238    constr:    0.0000
     atom:   54    charge:    0.4236    magn:    0.0007    constr:    0.0000

     total cpu time spent up to now is     1647.0 secs

     total energy              =   -3021.14960381 Ry
     Harris-Foulkes estimate   =   -3021.15190142 Ry
     estimated scf accuracy    <       0.01031876 Ry

     total magnetization       =     1.07 Bohr mag/cell
     absolute magnetization    =     1.23 Bohr mag/cell

     iteration #  5     ecut=    40.42 Ry     beta=0.10
     Davidson diagonalization with overlap
     ethr =  2.59E-06,  avg # of iterations =  4.7

     negative rho (up, down):  1.189E-02 1.197E-02
 
     Magnetic moment per site:
     atom:    1    charge:    3.1244    magn:   -0.0002    constr:    0.0000
     atom:    2    charge:    2.0897    magn:    0.0002    constr:    0.0000
     atom:    3    charge:    3.1198    magn:   -0.0000    constr:    0.0000
     atom:    4    charge:    2.0867    magn:   -0.0001    constr:    0.0000
     atom:    5    charge:    3.1161    magn:   -0.0003    constr:    0.0000
     atom:    6    charge:    2.0795    magn:    0.0019    constr:    0.0000
     atom:    7    charge:    3.1167    magn:   -0.0055    constr:    0.0000
     atom:    8    charge:    2.0778    magn:    0.0257    constr:    0.0000
     atom:    9    charge:    3.1244    magn:   -0.0002    constr:    0.0000
     atom:   10    charge:    2.0898    magn:    0.0003    constr:    0.0000
     atom:   11    charge:    3.1198    magn:   -0.0000    constr:    0.0000
     atom:   12    charge:    2.0871    magn:   -0.0000    constr:    0.0000
     atom:   13    charge:    3.1150    magn:   -0.0002    constr:    0.0000
     atom:   14    charge:    2.0939    magn:    0.0022    constr:    0.0000
     atom:   15    charge:    3.1184    magn:   -0.0008    constr:    0.0000
     atom:   16    charge:    2.0818    magn:    0.0045    constr:    0.0000
     atom:   17    charge:    2.0624    magn:    0.0014    constr:    0.0000
     atom:   18    charge:    3.1239    magn:   -0.0001    constr:    0.0000
     atom:   19    charge:    2.0875    magn:    0.0001    constr:    0.0000
     atom:   20    charge:    2.0847    magn:    0.0001    constr:    0.0000
     atom:   21    charge:    2.0847    magn:    0.0001    constr:    0.0000
     atom:   22    charge:    3.1199    magn:    0.0000    constr:    0.0000
     atom:   23    charge:    2.0908    magn:    0.0002    constr:    0.0000
     atom:   24    charge:    2.0754    magn:   -0.0001    constr:    0.0000
     atom:   25    charge:    2.0868    magn:    0.0000    constr:    0.0000
     atom:   26    charge:    3.1127    magn:   -0.0002    constr:    0.0000
     atom:   27    charge:    2.0803    magn:    0.0024    constr:    0.0000
     atom:   28    charge:    2.0838    magn:    0.0006    constr:    0.0000
     atom:   29    charge:    2.0861    magn:    0.0008    constr:    0.0000
     atom:   30    charge:    3.1171    magn:   -0.0008    constr:    0.0000
     atom:   31    charge:    2.0827    magn:    0.0006    constr:    0.0000
     atom:   32    charge:    2.0839    magn:    0.0059    constr:    0.0000
     atom:   33    charge:    2.0624    magn:    0.0014    constr:    0.0000
     atom:   34    charge:    3.1239    magn:   -0.0001    constr:    0.0000
     atom:   35    charge:    2.0875    magn:    0.0001    constr:    0.0000
     atom:   36    charge:    2.0847    magn:    0.0001    constr:    0.0000
     atom:   37    charge:    2.0847    magn:    0.0001    constr:    0.0000
     atom:   38    charge:    3.1200    magn:    0.0000    constr:    0.0000
     atom:   39    charge:    2.0839    magn:    0.0002    constr:    0.0000
     atom:   40    charge:    2.0756    magn:   -0.0002    constr:    0.0000
     atom:   41    charge:    2.0870    magn:   -0.0000    constr:    0.0000
     atom:   42    charge:    3.1151    magn:   -0.0002    constr:    0.0000
     atom:   43    charge:    2.0803    magn:    0.0030    constr:    0.0000
     atom:   44    charge:    2.0850    magn:    0.0009    constr:    0.0000
     atom:   45    charge:    2.0859    magn:    0.0004    constr:    0.0000
     atom:   46    charge:    3.1148    magn:   -0.0007    constr:    0.0000
     atom:   47    charge:    2.0806    magn:    0.0045    constr:    0.0000
     atom:   48    charge:    2.0847    magn:    0.0136    constr:    0.0000
     atom:   49    charge:    2.0508    magn:    0.2387    constr:    0.0000
     atom:   50    charge:    0.6716    magn:    0.0548    constr:    0.0000
     atom:   51    charge:    0.4219    magn:    0.0010    constr:    0.0000
     atom:   52    charge:    0.4227    magn:    0.0007    constr:    0.0000
     atom:   53    charge:    0.3650    magn:    0.0235    constr:    0.0000
     atom:   54    charge:    0.4235    magn:    0.0006    constr:    0.0000

     total cpu time spent up to now is     1908.9 secs

     total energy              =   -3021.14990091 Ry
     Harris-Foulkes estimate   =   -3021.15026466 Ry
     estimated scf accuracy    <       0.00185208 Ry

     total magnetization       =     1.05 Bohr mag/cell
     absolute magnetization    =     1.22 Bohr mag/cell

     iteration #  6     ecut=    40.42 Ry     beta=0.10
     Davidson diagonalization with overlap
     ethr =  4.65E-07,  avg # of iterations =  2.2

     negative rho (up, down):  1.189E-02 1.197E-02
 
     Magnetic moment per site:
     atom:    1    charge:    3.1244    magn:   -0.0002    constr:    0.0000
     atom:    2    charge:    2.0897    magn:    0.0002    constr:    0.0000
     atom:    3    charge:    3.1198    magn:   -0.0000    constr:    0.0000
     atom:    4    charge:    2.0867    magn:   -0.0001    constr:    0.0000
     atom:    5    charge:    3.1161    magn:   -0.0003    constr:    0.0000
     atom:    6    charge:    2.0795    magn:    0.0019    constr:    0.0000
     atom:    7    charge:    3.1167    magn:   -0.0056    constr:    0.0000
     atom:    8    charge:    2.0785    magn:    0.0258    constr:    0.0000
     atom:    9    charge:    3.1244    magn:   -0.0002    constr:    0.0000
     atom:   10    charge:    2.0898    magn:    0.0002    constr:    0.0000
     atom:   11    charge:    3.1198    magn:   -0.0000    constr:    0.0000
     atom:   12    charge:    2.0870    magn:   -0.0000    constr:    0.0000
     atom:   13    charge:    3.1150    magn:   -0.0002    constr:    0.0000
     atom:   14    charge:    2.0939    magn:    0.0022    constr:    0.0000
     atom:   15    charge:    3.1184    magn:   -0.0008    constr:    0.0000
     atom:   16    charge:    2.0822    magn:    0.0045    constr:    0.0000
     atom:   17    charge:    2.0624    magn:    0.0013    constr:    0.0000
     atom:   18    charge:    3.1239    magn:   -0.0001    constr:    0.0000
     atom:   19    charge:    2.0875    magn:    0.0001    constr:    0.0000
     atom:   20    charge:    2.0847    magn:    0.0001    constr:    0.0000
     atom:   21    charge:    2.0847    magn:    0.0001    constr:    0.0000
     atom:   22    charge:    3.1199    magn:    0.0000    constr:    0.0000
     atom:   23    charge:    2.0908    magn:    0.0002    constr:    0.0000
     atom:   24    charge:    2.0754    magn:   -0.0001    constr:    0.0000
     atom:   25    charge:    2.0867    magn:    0.0000    constr:    0.0000
     atom:   26    charge:    3.1127    magn:   -0.0002    constr:    0.0000
     atom:   27    charge:    2.0803    magn:    0.0025    constr:    0.0000
     atom:   28    charge:    2.0839    magn:    0.0006    constr:    0.0000
     atom:   29    charge:    2.0860    magn:    0.0008    constr:    0.0000
     atom:   30    charge:    3.1171    magn:   -0.0008    constr:    0.0000
     atom:   31    charge:    2.0825    magn:    0.0006    constr:    0.0000
     atom:   32    charge:    2.0834    magn:    0.0059    constr:    0.0000
     atom:   33    charge:    2.0624    magn:    0.0014    constr:    0.0000
     atom:   34    charge:    3.1239    magn:   -0.0001    constr:    0.0000
     atom:   35    charge:    2.0876    magn:    0.0000    constr:    0.0000
     atom:   36    charge:    2.0847    magn:    0.0001    constr:    0.0000
     atom:   37    charge:    2.0847    magn:    0.0001    constr:    0.0000
     atom:   38    charge:    3.1200    magn:    0.0000    constr:    0.0000
     atom:   39    charge:    2.0839    magn:    0.0002    constr:    0.0000
     atom:   40    charge:    2.0756    magn:   -0.0002    constr:    0.0000
     atom:   41    charge:    2.0870    magn:   -0.0000    constr:    0.0000
     atom:   42    charge:    3.1151    magn:   -0.0002    constr:    0.0000
     atom:   43    charge:    2.0803    magn:    0.0030    constr:    0.0000
     atom:   44    charge:    2.0851    magn:    0.0009    constr:    0.0000
     atom:   45    charge:    2.0858    magn:    0.0004    constr:    0.0000
     atom:   46    charge:    3.1147    magn:   -0.0007    constr:    0.0000
     atom:   47    charge:    2.0806    magn:    0.0045    constr:    0.0000
     atom:   48    charge:    2.0843    magn:    0.0137    constr:    0.0000
     atom:   49    charge:    2.0507    magn:    0.2393    constr:    0.0000
     atom:   50    charge:    0.6717    magn:    0.0545    constr:    0.0000
     atom:   51    charge:    0.4219    magn:    0.0009    constr:    0.0000
     atom:   52    charge:    0.4227    magn:    0.0007    constr:    0.0000
     atom:   53    charge:    0.3658    magn:    0.0233    constr:    0.0000
     atom:   54    charge:    0.4233    magn:    0.0006    constr:    0.0000

     total cpu time spent up to now is     2124.0 secs

     total energy              =   -3021.14992247 Ry
     Harris-Foulkes estimate   =   -3021.15000505 Ry
     estimated scf accuracy    <       0.00044511 Ry

     total magnetization       =     1.06 Bohr mag/cell
     absolute magnetization    =     1.23 Bohr mag/cell

     iteration #  7     ecut=    40.42 Ry     beta=0.10
     Davidson diagonalization with overlap
     ethr =  1.12E-07,  avg # of iterations =  2.0

     negative rho (up, down):  1.189E-02 1.197E-02
 
     Magnetic moment per site:
     atom:    1    charge:    3.1244    magn:   -0.0002    constr:    0.0000
     atom:    2    charge:    2.0897    magn:    0.0002    constr:    0.0000
     atom:    3    charge:    3.1198    magn:   -0.0000    constr:    0.0000
     atom:    4    charge:    2.0867    magn:   -0.0001    constr:    0.0000
     atom:    5    charge:    3.1161    magn:   -0.0003    constr:    0.0000
     atom:    6    charge:    2.0795    magn:    0.0020    constr:    0.0000
     atom:    7    charge:    3.1167    magn:   -0.0056    constr:    0.0000
     atom:    8    charge:    2.0792    magn:    0.0261    constr:    0.0000
     atom:    9    charge:    3.1244    magn:   -0.0002    constr:    0.0000
     atom:   10    charge:    2.0898    magn:    0.0002    constr:    0.0000
     atom:   11    charge:    3.1198    magn:   -0.0000    constr:    0.0000
     atom:   12    charge:    2.0870    magn:   -0.0000    constr:    0.0000
     atom:   13    charge:    3.1150    magn:   -0.0002    constr:    0.0000
     atom:   14    charge:    2.0939    magn:    0.0022    constr:    0.0000
     atom:   15    charge:    3.1184    magn:   -0.0008    constr:    0.0000
     atom:   16    charge:    2.0826    magn:    0.0045    constr:    0.0000
     atom:   17    charge:    2.0624    magn:    0.0012    constr:    0.0000
     atom:   18    charge:    3.1239    magn:   -0.0000    constr:    0.0000
     atom:   19    charge:    2.0876    magn:    0.0000    constr:    0.0000
     atom:   20    charge:    2.0847    magn:    0.0001    constr:    0.0000
     atom:   21    charge:    2.0847    magn:    0.0001    constr:    0.0000
     atom:   22    charge:    3.1199    magn:    0.0000    constr:    0.0000
     atom:   23    charge:    2.0908    magn:    0.0002    constr:    0.0000
     atom:   24    charge:    2.0754    magn:   -0.0001    constr:    0.0000
     atom:   25    charge:    2.0867    magn:    0.0000    constr:    0.0000
     atom:   26    charge:    3.1127    magn:   -0.0002    constr:    0.0000
     atom:   27    charge:    2.0802    magn:    0.0025    constr:    0.0000
     atom:   28    charge:    2.0839    magn:    0.0006    constr:    0.0000
     atom:   29    charge:    2.0860    magn:    0.0008    constr:    0.0000
     atom:   30    charge:    3.1171    magn:   -0.0008    constr:    0.0000
     atom:   31    charge:    2.0824    magn:    0.0006    constr:    0.0000
     atom:   32    charge:    2.0830    magn:    0.0059    constr:    0.0000
     atom:   33    charge:    2.0624    magn:    0.0012    constr:    0.0000
     atom:   34    charge:    3.1239    magn:   -0.0000    constr:    0.0000
     atom:   35    charge:    2.0876    magn:    0.0000    constr:    0.0000
     atom:   36    charge:    2.0847    magn:    0.0001    constr:    0.0000
     atom:   37    charge:    2.0847    magn:    0.0001    constr:    0.0000
     atom:   38    charge:    3.1200    magn:    0.0000    constr:    0.0000
     atom:   39    charge:    2.0839    magn:    0.0002    constr:    0.0000
     atom:   40    charge:    2.0756    magn:   -0.0002    constr:    0.0000
     atom:   41    charge:    2.0870    magn:   -0.0000    constr:    0.0000
     atom:   42    charge:    3.1151    magn:   -0.0002    constr:    0.0000
     atom:   43    charge:    2.0803    magn:    0.0031    constr:    0.0000
     atom:   44    charge:    2.0851    magn:    0.0009    constr:    0.0000
     atom:   45    charge:    2.0858    magn:    0.0004    constr:    0.0000
     atom:   46    charge:    3.1147    magn:   -0.0007    constr:    0.0000
     atom:   47    charge:    2.0805    magn:    0.0046    constr:    0.0000
     atom:   48    charge:    2.0838    magn:    0.0137    constr:    0.0000
     atom:   49    charge:    2.0507    magn:    0.2401    constr:    0.0000
     atom:   50    charge:    0.6716    magn:    0.0541    constr:    0.0000
     atom:   51    charge:    0.4220    magn:    0.0009    constr:    0.0000
     atom:   52    charge:    0.4227    magn:    0.0007    constr:    0.0000
     atom:   53    charge:    0.3669    magn:    0.0231    constr:    0.0000
     atom:   54    charge:    0.4231    magn:    0.0006    constr:    0.0000

     total cpu time spent up to now is     2336.4 secs

     total energy              =   -3021.14989008 Ry
     Harris-Foulkes estimate   =   -3021.14993826 Ry
     estimated scf accuracy    <       0.00020143 Ry

     total magnetization       =     1.06 Bohr mag/cell
     absolute magnetization    =     1.23 Bohr mag/cell

     iteration #  8     ecut=    40.42 Ry     beta=0.10
     Davidson diagonalization with overlap
     ethr =  5.06E-08,  avg # of iterations =  2.6

     negative rho (up, down):  1.189E-02 1.197E-02
 
     Magnetic moment per site:
     atom:    1    charge:    3.1244    magn:   -0.0002    constr:    0.0000
     atom:    2    charge:    2.0897    magn:    0.0002    constr:    0.0000
     atom:    3    charge:    3.1198    magn:   -0.0000    constr:    0.0000
     atom:    4    charge:    2.0867    magn:   -0.0001    constr:    0.0000
     atom:    5    charge:    3.1161    magn:   -0.0003    constr:    0.0000
     atom:    6    charge:    2.0795    magn:    0.0020    constr:    0.0000
     atom:    7    charge:    3.1167    magn:   -0.0056    constr:    0.0000
     atom:    8    charge:    2.0792    magn:    0.0262    constr:    0.0000
     atom:    9    charge:    3.1244    magn:   -0.0002    constr:    0.0000
     atom:   10    charge:    2.0898    magn:    0.0002    constr:    0.0000
     atom:   11    charge:    3.1198    magn:   -0.0000    constr:    0.0000
     atom:   12    charge:    2.0870    magn:   -0.0000    constr:    0.0000
     atom:   13    charge:    3.1150    magn:   -0.0002    constr:    0.0000
     atom:   14    charge:    2.0939    magn:    0.0022    constr:    0.0000
     atom:   15    charge:    3.1184    magn:   -0.0008    constr:    0.0000
     atom:   16    charge:    2.0828    magn:    0.0046    constr:    0.0000
     atom:   17    charge:    2.0624    magn:    0.0011    constr:    0.0000
     atom:   18    charge:    3.1240    magn:   -0.0000    constr:    0.0000
     atom:   19    charge:    2.0875    magn:    0.0000    constr:    0.0000
     atom:   20    charge:    2.0847    magn:    0.0001    constr:    0.0000
     atom:   21    charge:    2.0847    magn:    0.0001    constr:    0.0000
     atom:   22    charge:    3.1199    magn:    0.0000    constr:    0.0000
     atom:   23    charge:    2.0908    magn:    0.0002    constr:    0.0000
     atom:   24    charge:    2.0754    magn:   -0.0001    constr:    0.0000
     atom:   25    charge:    2.0867    magn:    0.0000    constr:    0.0000
     atom:   26    charge:    3.1127    magn:   -0.0002    constr:    0.0000
     atom:   27    charge:    2.0803    magn:    0.0026    constr:    0.0000
     atom:   28    charge:    2.0839    magn:    0.0006    constr:    0.0000
     atom:   29    charge:    2.0860    magn:    0.0008    constr:    0.0000
     atom:   30    charge:    3.1171    magn:   -0.0008    constr:    0.0000
     atom:   31    charge:    2.0824    magn:    0.0006    constr:    0.0000
     atom:   32    charge:    2.0829    magn:    0.0059    constr:    0.0000
     atom:   33    charge:    2.0624    magn:    0.0011    constr:    0.0000
     atom:   34    charge:    3.1239    magn:   -0.0000    constr:    0.0000
     atom:   35    charge:    2.0875    magn:    0.0000    constr:    0.0000
     atom:   36    charge:    2.0847    magn:    0.0001    constr:    0.0000
     atom:   37    charge:    2.0847    magn:    0.0001    constr:    0.0000
     atom:   38    charge:    3.1200    magn:    0.0000    constr:    0.0000
     atom:   39    charge:    2.0839    magn:    0.0002    constr:    0.0000
     atom:   40    charge:    2.0756    magn:   -0.0001    constr:    0.0000
     atom:   41    charge:    2.0870    magn:   -0.0000    constr:    0.0000
     atom:   42    charge:    3.1151    magn:   -0.0002    constr:    0.0000
     atom:   43    charge:    2.0803    magn:    0.0031    constr:    0.0000
     atom:   44    charge:    2.0851    magn:    0.0009    constr:    0.0000
     atom:   45    charge:    2.0859    magn:    0.0004    constr:    0.0000
     atom:   46    charge:    3.1147    magn:   -0.0007    constr:    0.0000
     atom:   47    charge:    2.0805    magn:    0.0046    constr:    0.0000
     atom:   48    charge:    2.0837    magn:    0.0137    constr:    0.0000
     atom:   49    charge:    2.0510    magn:    0.2405    constr:    0.0000
     atom:   50    charge:    0.6714    magn:    0.0539    constr:    0.0000
     atom:   51    charge:    0.4221    magn:    0.0009    constr:    0.0000
     atom:   52    charge:    0.4227    magn:    0.0007    constr:    0.0000
     atom:   53    charge:    0.3672    magn:    0.0231    constr:    0.0000
     atom:   54    charge:    0.4231    magn:    0.0006    constr:    0.0000

     total cpu time spent up to now is     2570.2 secs

     total energy              =   -3021.14991097 Ry
     Harris-Foulkes estimate   =   -3021.14991124 Ry
     estimated scf accuracy    <       0.00004385 Ry

     total magnetization       =     1.06 Bohr mag/cell
     absolute magnetization    =     1.23 Bohr mag/cell

     iteration #  9     ecut=    40.42 Ry     beta=0.10
     Davidson diagonalization with overlap
     ethr =  1.10E-08,  avg # of iterations =  3.0

     negative rho (up, down):  1.189E-02 1.197E-02
 
     Magnetic moment per site:
     atom:    1    charge:    3.1244    magn:   -0.0002    constr:    0.0000
     atom:    2    charge:    2.0897    magn:    0.0002    constr:    0.0000
     atom:    3    charge:    3.1198    magn:   -0.0000    constr:    0.0000
     atom:    4    charge:    2.0867    magn:   -0.0001    constr:    0.0000
     atom:    5    charge:    3.1161    magn:   -0.0003    constr:    0.0000
     atom:    6    charge:    2.0795    magn:    0.0020    constr:    0.0000
     atom:    7    charge:    3.1167    magn:   -0.0056    constr:    0.0000
     atom:    8    charge:    2.0795    magn:    0.0263    constr:    0.0000
     atom:    9    charge:    3.1244    magn:   -0.0002    constr:    0.0000
     atom:   10    charge:    2.0898    magn:    0.0002    constr:    0.0000
     atom:   11    charge:    3.1198    magn:   -0.0000    constr:    0.0000
     atom:   12    charge:    2.0870    magn:   -0.0000    constr:    0.0000
     atom:   13    charge:    3.1150    magn:   -0.0002    constr:    0.0000
     atom:   14    charge:    2.0939    magn:    0.0022    constr:    0.0000
     atom:   15    charge:    3.1184    magn:   -0.0008    constr:    0.0000
     atom:   16    charge:    2.0830    magn:    0.0046    constr:    0.0000
     atom:   17    charge:    2.0625    magn:    0.0010    constr:    0.0000
     atom:   18    charge:    3.1240    magn:   -0.0000    constr:    0.0000
     atom:   19    charge:    2.0875    magn:    0.0000    constr:    0.0000
     atom:   20    charge:    2.0847    magn:    0.0001    constr:    0.0000
     atom:   21    charge:    2.0847    magn:    0.0001    constr:    0.0000
     atom:   22    charge:    3.1199    magn:    0.0000    constr:    0.0000
     atom:   23    charge:    2.0908    magn:    0.0002    constr:    0.0000
     atom:   24    charge:    2.0754    magn:   -0.0000    constr:    0.0000
     atom:   25    charge:    2.0867    magn:    0.0000    constr:    0.0000
     atom:   26    charge:    3.1127    magn:   -0.0002    constr:    0.0000
     atom:   27    charge:    2.0803    magn:    0.0026    constr:    0.0000
     atom:   28    charge:    2.0839    magn:    0.0007    constr:    0.0000
     atom:   29    charge:    2.0860    magn:    0.0009    constr:    0.0000
     atom:   30    charge:    3.1171    magn:   -0.0008    constr:    0.0000
     atom:   31    charge:    2.0825    magn:    0.0006    constr:    0.0000
     atom:   32    charge:    2.0828    magn:    0.0059    constr:    0.0000
     atom:   33    charge:    2.0624    magn:    0.0010    constr:    0.0000
     atom:   34    charge:    3.1239    magn:   -0.0000    constr:    0.0000
     atom:   35    charge:    2.0875    magn:    0.0000    constr:    0.0000
     atom:   36    charge:    2.0847    magn:    0.0001    constr:    0.0000
     atom:   37    charge:    2.0847    magn:    0.0001    constr:    0.0000
     atom:   38    charge:    3.1200    magn:    0.0000    constr:    0.0000
     atom:   39    charge:    2.0839    magn:    0.0002    constr:    0.0000
     atom:   40    charge:    2.0756    magn:   -0.0001    constr:    0.0000
     atom:   41    charge:    2.0870    magn:   -0.0000    constr:    0.0000
     atom:   42    charge:    3.1151    magn:   -0.0002    constr:    0.0000
     atom:   43    charge:    2.0803    magn:    0.0031    constr:    0.0000
     atom:   44    charge:    2.0851    magn:    0.0010    constr:    0.0000
     atom:   45    charge:    2.0858    magn:    0.0005    constr:    0.0000
     atom:   46    charge:    3.1148    magn:   -0.0007    constr:    0.0000
     atom:   47    charge:    2.0806    magn:    0.0046    constr:    0.0000
     atom:   48    charge:    2.0835    magn:    0.0137    constr:    0.0000
     atom:   49    charge:    2.0512    magn:    0.2410    constr:    0.0000
     atom:   50    charge:    0.6711    magn:    0.0537    constr:    0.0000
     atom:   51    charge:    0.4221    magn:    0.0009    constr:    0.0000
     atom:   52    charge:    0.4227    magn:    0.0008    constr:    0.0000
     atom:   53    charge:    0.3676    magn:    0.0230    constr:    0.0000
     atom:   54    charge:    0.4230    magn:    0.0005    constr:    0.0000

     total cpu time spent up to now is     2800.1 secs

     total energy              =   -3021.14991779 Ry
     Harris-Foulkes estimate   =   -3021.14991365 Ry
     estimated scf accuracy    <       0.00001672 Ry

     total magnetization       =     1.06 Bohr mag/cell
     absolute magnetization    =     1.23 Bohr mag/cell

     iteration # 10     ecut=    40.42 Ry     beta=0.10
     Davidson diagonalization with overlap
     ethr =  4.20E-09,  avg # of iterations =  3.0

     negative rho (up, down):  1.189E-02 1.196E-02
 
     Magnetic moment per site:
     atom:    1    charge:    3.1244    magn:   -0.0002    constr:    0.0000
     atom:    2    charge:    2.0897    magn:    0.0001    constr:    0.0000
     atom:    3    charge:    3.1198    magn:   -0.0000    constr:    0.0000
     atom:    4    charge:    2.0867    magn:   -0.0001    constr:    0.0000
     atom:    5    charge:    3.1161    magn:   -0.0003    constr:    0.0000
     atom:    6    charge:    2.0795    magn:    0.0020    constr:    0.0000
     atom:    7    charge:    3.1167    magn:   -0.0056    constr:    0.0000
     atom:    8    charge:    2.0794    magn:    0.0263    constr:    0.0000
     atom:    9    charge:    3.1244    magn:   -0.0002    constr:    0.0000
     atom:   10    charge:    2.0898    magn:    0.0002    constr:    0.0000
     atom:   11    charge:    3.1198    magn:   -0.0000    constr:    0.0000
     atom:   12    charge:    2.0870    magn:   -0.0000    constr:    0.0000
     atom:   13    charge:    3.1150    magn:   -0.0002    constr:    0.0000
     atom:   14    charge:    2.0939    magn:    0.0023    constr:    0.0000
     atom:   15    charge:    3.1184    magn:   -0.0008    constr:    0.0000
     atom:   16    charge:    2.0829    magn:    0.0046    constr:    0.0000
     atom:   17    charge:    2.0624    magn:    0.0010    constr:    0.0000
     atom:   18    charge:    3.1239    magn:   -0.0000    constr:    0.0000
     atom:   19    charge:    2.0875    magn:    0.0000    constr:    0.0000
     atom:   20    charge:    2.0847    magn:    0.0001    constr:    0.0000
     atom:   21    charge:    2.0847    magn:    0.0001    constr:    0.0000
     atom:   22    charge:    3.1199    magn:    0.0000    constr:    0.0000
     atom:   23    charge:    2.0908    magn:    0.0002    constr:    0.0000
     atom:   24    charge:    2.0754    magn:   -0.0000    constr:    0.0000
     atom:   25    charge:    2.0867    magn:    0.0000    constr:    0.0000
     atom:   26    charge:    3.1127    magn:   -0.0002    constr:    0.0000
     atom:   27    charge:    2.0802    magn:    0.0026    constr:    0.0000
     atom:   28    charge:    2.0839    magn:    0.0007    constr:    0.0000
     atom:   29    charge:    2.0860    magn:    0.0009    constr:    0.0000
     atom:   30    charge:    3.1171    magn:   -0.0008    constr:    0.0000
     atom:   31    charge:    2.0825    magn:    0.0006    constr:    0.0000
     atom:   32    charge:    2.0829    magn:    0.0059    constr:    0.0000
     atom:   33    charge:    2.0624    magn:    0.0010    constr:    0.0000
     atom:   34    charge:    3.1239    magn:   -0.0000    constr:    0.0000
     atom:   35    charge:    2.0876    magn:    0.0000    constr:    0.0000
     atom:   36    charge:    2.0847    magn:    0.0001    constr:    0.0000
     atom:   37    charge:    2.0847    magn:    0.0001    constr:    0.0000
     atom:   38    charge:    3.1200    magn:    0.0000    constr:    0.0000
     atom:   39    charge:    2.0839    magn:    0.0002    constr:    0.0000
     atom:   40    charge:    2.0756    magn:   -0.0001    constr:    0.0000
     atom:   41    charge:    2.0870    magn:   -0.0000    constr:    0.0000
     atom:   42    charge:    3.1151    magn:   -0.0002    constr:    0.0000
     atom:   43    charge:    2.0803    magn:    0.0032    constr:    0.0000
     atom:   44    charge:    2.0851    magn:    0.0010    constr:    0.0000
     atom:   45    charge:    2.0858    magn:    0.0005    constr:    0.0000
     atom:   46    charge:    3.1148    magn:   -0.0007    constr:    0.0000
     atom:   47    charge:    2.0806    magn:    0.0046    constr:    0.0000
     atom:   48    charge:    2.0836    magn:    0.0137    constr:    0.0000
     atom:   49    charge:    2.0512    magn:    0.2411    constr:    0.0000
     atom:   50    charge:    0.6711    magn:    0.0537    constr:    0.0000
     atom:   51    charge:    0.4221    magn:    0.0009    constr:    0.0000
     atom:   52    charge:    0.4227    magn:    0.0008    constr:    0.0000
     atom:   53    charge:    0.3675    magn:    0.0230    constr:    0.0000
     atom:   54    charge:    0.4231    magn:    0.0005    constr:    0.0000

     total cpu time spent up to now is     3049.1 secs

     total energy              =   -3021.14992057 Ry
     Harris-Foulkes estimate   =   -3021.14992057 Ry
     estimated scf accuracy    <       0.00000879 Ry

     total magnetization       =     1.06 Bohr mag/cell
     absolute magnetization    =     1.23 Bohr mag/cell

     iteration # 11     ecut=    40.42 Ry     beta=0.10
     Davidson diagonalization with overlap
     ethr =  2.21E-09,  avg # of iterations =  1.3

     negative rho (up, down):  1.189E-02 1.196E-02
 
     Magnetic moment per site:
     atom:    1    charge:    3.1244    magn:   -0.0001    constr:    0.0000
     atom:    2    charge:    2.0897    magn:    0.0001    constr:    0.0000
     atom:    3    charge:    3.1198    magn:   -0.0000    constr:    0.0000
     atom:    4    charge:    2.0867    magn:   -0.0001    constr:    0.0000
     atom:    5    charge:    3.1161    magn:   -0.0003    constr:    0.0000
     atom:    6    charge:    2.0795    magn:    0.0020    constr:    0.0000
     atom:    7    charge:    3.1167    magn:   -0.0057    constr:    0.0000
     atom:    8    charge:    2.0792    magn:    0.0264    constr:    0.0000
     atom:    9    charge:    3.1244    magn:   -0.0001    constr:    0.0000
     atom:   10    charge:    2.0898    magn:    0.0001    constr:    0.0000
     atom:   11    charge:    3.1198    magn:   -0.0000    constr:    0.0000
     atom:   12    charge:    2.0870    magn:   -0.0000    constr:    0.0000
     atom:   13    charge:    3.1150    magn:   -0.0002    constr:    0.0000
     atom:   14    charge:    2.0939    magn:    0.0023    constr:    0.0000
     atom:   15    charge:    3.1184    magn:   -0.0008    constr:    0.0000
     atom:   16    charge:    2.0828    magn:    0.0046    constr:    0.0000
     atom:   17    charge:    2.0624    magn:    0.0008    constr:    0.0000
     atom:   18    charge:    3.1239    magn:   -0.0000    constr:    0.0000
     atom:   19    charge:    2.0875    magn:    0.0000    constr:    0.0000
     atom:   20    charge:    2.0847    magn:    0.0001    constr:    0.0000
     atom:   21    charge:    2.0847    magn:    0.0001    constr:    0.0000
     atom:   22    charge:    3.1199    magn:    0.0000    constr:    0.0000
     atom:   23    charge:    2.0908    magn:    0.0002    constr:    0.0000
     atom:   24    charge:    2.0754    magn:   -0.0000    constr:    0.0000
     atom:   25    charge:    2.0867    magn:    0.0000    constr:    0.0000
     atom:   26    charge:    3.1127    magn:   -0.0003    constr:    0.0000
     atom:   27    charge:    2.0802    magn:    0.0027    constr:    0.0000
     atom:   28    charge:    2.0839    magn:    0.0007    constr:    0.0000
     atom:   29    charge:    2.0860    magn:    0.0009    constr:    0.0000
     atom:   30    charge:    3.1171    magn:   -0.0008    constr:    0.0000
     atom:   31    charge:    2.0825    magn:    0.0006    constr:    0.0000
     atom:   32    charge:    2.0829    magn:    0.0060    constr:    0.0000
     atom:   33    charge:    2.0624    magn:    0.0008    constr:    0.0000
     atom:   34    charge:    3.1239    magn:   -0.0000    constr:    0.0000
     atom:   35    charge:    2.0876    magn:    0.0000    constr:    0.0000
     atom:   36    charge:    2.0847    magn:    0.0001    constr:    0.0000
     atom:   37    charge:    2.0847    magn:    0.0001    constr:    0.0000
     atom:   38    charge:    3.1200    magn:    0.0000    constr:    0.0000
     atom:   39    charge:    2.0839    magn:    0.0002    constr:    0.0000
     atom:   40    charge:    2.0756    magn:   -0.0001    constr:    0.0000
     atom:   41    charge:    2.0870    magn:   -0.0000    constr:    0.0000
     atom:   42    charge:    3.1151    magn:   -0.0002    constr:    0.0000
     atom:   43    charge:    2.0803    magn:    0.0032    constr:    0.0000
     atom:   44    charge:    2.0851    magn:    0.0010    constr:    0.0000
     atom:   45    charge:    2.0858    magn:    0.0005    constr:    0.0000
     atom:   46    charge:    3.1148    magn:   -0.0007    constr:    0.0000
     atom:   47    charge:    2.0806    magn:    0.0047    constr:    0.0000
     atom:   48    charge:    2.0837    magn:    0.0137    constr:    0.0000
     atom:   49    charge:    2.0513    magn:    0.2415    constr:    0.0000
     atom:   50    charge:    0.6711    magn:    0.0536    constr:    0.0000
     atom:   51    charge:    0.4221    magn:    0.0010    constr:    0.0000
     atom:   52    charge:    0.4227    magn:    0.0008    constr:    0.0000
     atom:   53    charge:    0.3675    magn:    0.0230    constr:    0.0000
     atom:   54    charge:    0.4231    magn:    0.0005    constr:    0.0000

     total cpu time spent up to now is     3247.6 secs

     total energy              =   -3021.14992202 Ry
     Harris-Foulkes estimate   =   -3021.14992085 Ry
     estimated scf accuracy    <       0.00000466 Ry

     total magnetization       =     1.06 Bohr mag/cell
     absolute magnetization    =     1.23 Bohr mag/cell

     iteration # 12     ecut=    40.42 Ry     beta=0.10
     Davidson diagonalization with overlap
     ethr =  1.17E-09,  avg # of iterations =  2.8

     negative rho (up, down):  1.189E-02 1.196E-02
 
     Magnetic moment per site:
     atom:    1    charge:    3.1244    magn:   -0.0001    constr:    0.0000
     atom:    2    charge:    2.0897    magn:    0.0001    constr:    0.0000
     atom:    3    charge:    3.1198    magn:   -0.0000    constr:    0.0000
     atom:    4    charge:    2.0867    magn:   -0.0001    constr:    0.0000
     atom:    5    charge:    3.1161    magn:   -0.0003    constr:    0.0000
     atom:    6    charge:    2.0795    magn:    0.0021    constr:    0.0000
     atom:    7    charge:    3.1167    magn:   -0.0057    constr:    0.0000
     atom:    8    charge:    2.0792    magn:    0.0264    constr:    0.0000
     atom:    9    charge:    3.1244    magn:   -0.0001    constr:    0.0000
     atom:   10    charge:    2.0898    magn:    0.0001    constr:    0.0000
     atom:   11    charge:    3.1198    magn:   -0.0000    constr:    0.0000
     atom:   12    charge:    2.0870    magn:   -0.0000    constr:    0.0000
     atom:   13    charge:    3.1150    magn:   -0.0002    constr:    0.0000
     atom:   14    charge:    2.0939    magn:    0.0023    constr:    0.0000
     atom:   15    charge:    3.1184    magn:   -0.0008    constr:    0.0000
     atom:   16    charge:    2.0828    magn:    0.0047    constr:    0.0000
     atom:   17    charge:    2.0624    magn:    0.0008    constr:    0.0000
     atom:   18    charge:    3.1239    magn:   -0.0000    constr:    0.0000
     atom:   19    charge:    2.0875    magn:    0.0000    constr:    0.0000
     atom:   20    charge:    2.0847    magn:    0.0001    constr:    0.0000
     atom:   21    charge:    2.0847    magn:    0.0001    constr:    0.0000
     atom:   22    charge:    3.1199    magn:    0.0000    constr:    0.0000
     atom:   23    charge:    2.0908    magn:    0.0002    constr:    0.0000
     atom:   24    charge:    2.0754    magn:   -0.0000    constr:    0.0000
     atom:   25    charge:    2.0867    magn:    0.0000    constr:    0.0000
     atom:   26    charge:    3.1127    magn:   -0.0003    constr:    0.0000
     atom:   27    charge:    2.0802    magn:    0.0027    constr:    0.0000
     atom:   28    charge:    2.0839    magn:    0.0007    constr:    0.0000
     atom:   29    charge:    2.0860    magn:    0.0009    constr:    0.0000
     atom:   30    charge:    3.1171    magn:   -0.0008    constr:    0.0000
     atom:   31    charge:    2.0825    magn:    0.0006    constr:    0.0000
     atom:   32    charge:    2.0829    magn:    0.0060    constr:    0.0000
     atom:   33    charge:    2.0624    magn:    0.0008    constr:    0.0000
     atom:   34    charge:    3.1239    magn:   -0.0000    constr:    0.0000
     atom:   35    charge:    2.0876    magn:    0.0000    constr:    0.0000
     atom:   36    charge:    2.0847    magn:    0.0001    constr:    0.0000
     atom:   37    charge:    2.0847    magn:    0.0001    constr:    0.0000
     atom:   38    charge:    3.1200    magn:    0.0000    constr:    0.0000
     atom:   39    charge:    2.0839    magn:    0.0002    constr:    0.0000
     atom:   40    charge:    2.0756    magn:   -0.0001    constr:    0.0000
     atom:   41    charge:    2.0870    magn:   -0.0000    constr:    0.0000
     atom:   42    charge:    3.1151    magn:   -0.0003    constr:    0.0000
     atom:   43    charge:    2.0803    magn:    0.0032    constr:    0.0000
     atom:   44    charge:    2.0851    magn:    0.0010    constr:    0.0000
     atom:   45    charge:    2.0858    magn:    0.0005    constr:    0.0000
     atom:   46    charge:    3.1148    magn:   -0.0007    constr:    0.0000
     atom:   47    charge:    2.0806    magn:    0.0047    constr:    0.0000
     atom:   48    charge:    2.0837    magn:    0.0137    constr:    0.0000
     atom:   49    charge:    2.0513    magn:    0.2415    constr:    0.0000
     atom:   50    charge:    0.6712    magn:    0.0535    constr:    0.0000
     atom:   51    charge:    0.4221    magn:    0.0010    constr:    0.0000
     atom:   52    charge:    0.4227    magn:    0.0008    constr:    0.0000
     atom:   53    charge:    0.3675    magn:    0.0230    constr:    0.0000
     atom:   54    charge:    0.4231    magn:    0.0005    constr:    0.0000

     total cpu time spent up to now is     3485.1 secs

     total energy              =   -3021.14992319 Ry
     Harris-Foulkes estimate   =   -3021.14992280 Ry
     estimated scf accuracy    <       0.00000156 Ry

     total magnetization       =     1.06 Bohr mag/cell
     absolute magnetization    =     1.23 Bohr mag/cell

     iteration # 13     ecut=    40.42 Ry     beta=0.10
     Davidson diagonalization with overlap
     ethr =  3.91E-10,  avg # of iterations =  2.6

     negative rho (up, down):  1.189E-02 1.196E-02
 
     Magnetic moment per site:
     atom:    1    charge:    3.1244    magn:   -0.0001    constr:    0.0000
     atom:    2    charge:    2.0897    magn:    0.0001    constr:    0.0000
     atom:    3    charge:    3.1198    magn:   -0.0000    constr:    0.0000
     atom:    4    charge:    2.0867    magn:   -0.0001    constr:    0.0000
     atom:    5    charge:    3.1161    magn:   -0.0003    constr:    0.0000
     atom:    6    charge:    2.0795    magn:    0.0021    constr:    0.0000
     atom:    7    charge:    3.1167    magn:   -0.0057    constr:    0.0000
     atom:    8    charge:    2.0792    magn:    0.0265    constr:    0.0000
     atom:    9    charge:    3.1244    magn:   -0.0001    constr:    0.0000
     atom:   10    charge:    2.0898    magn:    0.0001    constr:    0.0000
     atom:   11    charge:    3.1198    magn:   -0.0000    constr:    0.0000
     atom:   12    charge:    2.0871    magn:   -0.0000    constr:    0.0000
     atom:   13    charge:    3.1150    magn:   -0.0002    constr:    0.0000
     atom:   14    charge:    2.0939    magn:    0.0023    constr:    0.0000
     atom:   15    charge:    3.1184    magn:   -0.0008    constr:    0.0000
     atom:   16    charge:    2.0828    magn:    0.0047    constr:    0.0000
     atom:   17    charge:    2.0624    magn:    0.0006    constr:    0.0000
     atom:   18    charge:    3.1239    magn:   -0.0000    constr:    0.0000
     atom:   19    charge:    2.0875    magn:    0.0000    constr:    0.0000
     atom:   20    charge:    2.0847    magn:    0.0000    constr:    0.0000
     atom:   21    charge:    2.0847    magn:    0.0000    constr:    0.0000
     atom:   22    charge:    3.1199    magn:    0.0000    constr:    0.0000
     atom:   23    charge:    2.0908    magn:    0.0003    constr:    0.0000
     atom:   24    charge:    2.0754    magn:    0.0000    constr:    0.0000
     atom:   25    charge:    2.0867    magn:    0.0000    constr:    0.0000
     atom:   26    charge:    3.1127    magn:   -0.0003    constr:    0.0000
     atom:   27    charge:    2.0803    magn:    0.0027    constr:    0.0000
     atom:   28    charge:    2.0839    magn:    0.0008    constr:    0.0000
     atom:   29    charge:    2.0860    magn:    0.0009    constr:    0.0000
     atom:   30    charge:    3.1171    magn:   -0.0008    constr:    0.0000
     atom:   31    charge:    2.0825    magn:    0.0006    constr:    0.0000
     atom:   32    charge:    2.0829    magn:    0.0060    constr:    0.0000
     atom:   33    charge:    2.0624    magn:    0.0006    constr:    0.0000
     atom:   34    charge:    3.1239    magn:   -0.0000    constr:    0.0000
     atom:   35    charge:    2.0875    magn:    0.0000    constr:    0.0000
     atom:   36    charge:    2.0847    magn:    0.0000    constr:    0.0000
     atom:   37    charge:    2.0847    magn:    0.0000    constr:    0.0000
     atom:   38    charge:    3.1200    magn:    0.0000    constr:    0.0000
     atom:   39    charge:    2.0839    magn:    0.0002    constr:    0.0000
     atom:   40    charge:    2.0756    magn:   -0.0001    constr:    0.0000
     atom:   41    charge:    2.0870    magn:   -0.0000    constr:    0.0000
     atom:   42    charge:    3.1151    magn:   -0.0003    constr:    0.0000
     atom:   43    charge:    2.0803    magn:    0.0032    constr:    0.0000
     atom:   44    charge:    2.0851    magn:    0.0010    constr:    0.0000
     atom:   45    charge:    2.0858    magn:    0.0005    constr:    0.0000
     atom:   46    charge:    3.1147    magn:   -0.0007    constr:    0.0000
     atom:   47    charge:    2.0806    magn:    0.0047    constr:    0.0000
     atom:   48    charge:    2.0837    magn:    0.0137    constr:    0.0000
     atom:   49    charge:    2.0513    magn:    0.2417    constr:    0.0000
     atom:   50    charge:    0.6712    magn:    0.0534    constr:    0.0000
     atom:   51    charge:    0.4221    magn:    0.0010    constr:    0.0000
     atom:   52    charge:    0.4227    magn:    0.0008    constr:    0.0000
     atom:   53    charge:    0.3675    magn:    0.0230    constr:    0.0000
     atom:   54    charge:    0.4231    magn:    0.0006    constr:    0.0000

     total cpu time spent up to now is     3707.0 secs

     End of self-consistent calculation

 ------ SPIN UP ------------


          k = 0.0000 0.0000 0.0000 ( 34665 PWs)   bands (ev):

   -58.3122 -58.2771 -57.3943 -57.3886 -57.3555 -57.3179 -57.2664 -57.0978
   -57.0708 -57.0652 -57.0268 -56.9284 -56.9003 -56.8931 -56.8062 -56.7679
   -34.7574 -34.5808 -34.5520 -34.5187 -34.4238 -34.3669 -33.8892 -33.8770
   -33.7588 -33.6858 -33.6438 -33.6010 -33.5685 -33.5618 -33.5558 -33.5493
   -33.5377 -33.5229 -33.4975 -33.4961 -33.4815 -33.4791 -33.4772 -33.4582
   -33.3478 -33.3412 -33.3380 -33.3355 -33.3230 -33.2945 -33.2888 -33.2691
   -33.2487 -33.2435 -33.2428 -33.2336 -33.1998 -33.1830 -33.1486 -33.1470
   -33.1053 -33.0842 -33.0571 -33.0339 -33.0213 -32.9951 -32.9554 -32.8874
   -18.4774 -18.0447 -17.8205 -17.7198 -17.5596 -17.5378 -17.4942 -17.3922
   -17.3656 -17.2653 -17.0534 -17.0328 -17.0246 -16.9874 -16.9259 -16.8628
   -16.8422 -16.8061 -16.7483 -16.7173 -16.6976 -16.6655 -16.6007 -16.5970
   -16.4741 -16.4264 -16.4071 -16.3708 -16.3335 -16.1531 -16.0919 -15.6072
   -15.5463 -11.1690  -6.0559  -5.5050  -5.2906  -5.2106  -5.1015  -4.9984
    -4.9897  -4.8880  -4.8851  -4.7392  -4.6580  -4.6076  -4.5937  -4.5178
    -4.4364  -4.4219  -4.3605  -4.3243  -4.2399  -4.2267  -4.2021  -4.1495
    -4.0391  -4.0322  -3.9869  -3.9164  -3.9002  -3.8942  -3.8914  -3.8304
    -3.7849  -3.7599  -3.6859  -3.6488  -3.6372  -3.5901  -3.5493  -3.5358
    -3.5218  -3.4258  -3.4152  -3.3680  -3.2808  -3.2400  -3.1960  -3.0946
    -2.9272  -2.9049  -2.8591  -2.8078  -2.7537  -2.7016  -2.6795  -2.6678
    -2.6411  -2.5445  -2.4915  -2.4467  -2.3856  -2.3415  -2.2530  -2.2370
    -2.2328  -2.1680  -2.0760  -2.0490  -2.0124  -1.9671  -1.9374  -1.9072
    -1.8628  -1.7444  -1.6993  -1.6745  -1.6487  -1.6378  -1.5940  -1.5132
    -1.4288  -1.3760  -1.3606  -1.3455  -1.3205  -1.2752  -1.2310  -1.1779
    -1.1675  -1.1178  -1.1161  -1.1031  -1.0714  -0.9878  -0.8810  -0.8416
    -0.8159  -0.7008  -0.6948  -0.6316  -0.5595  -0.5184  -0.4908  -0.1943
     1.0187   1.1155   1.4103   1.6886   1.7969   1.9149   1.9623   2.0089
[...]
    -1.7353  -1.5115  -1.4708  -1.4590  -1.4419  -1.4039  -1.3261  -1.1623
    -1.1505  -1.0941  -1.0763  -1.0600  -0.9811  -0.9171  -0.8760  -0.7936
    -0.7403  -0.7334  -0.7064  -0.6766  -0.5992  -0.5801  -0.5636   0.2872
     1.5954   1.5989   1.6115   1.6168   1.9593   1.9601   2.0891   2.0901
     2.2726   2.2934   2.3066   2.3884   2.4116   2.4814   2.5687   2.6274
     2.6493   2.6942   2.7771   2.8109   2.8678   2.9195   2.9417   2.9693
     2.9840   2.9927   3.0338   3.0917   3.1058   3.2032   3.2289   3.2376
     3.2533   3.2777   3.3349   3.3806   3.3947   3.3995   3.4565   3.4679
     3.4777   3.5059   3.5202   3.5746   3.6330   3.6490   3.7707   3.8723
     3.9081   3.9183   4.1342   4.1347   4.5854   4.6136   4.6360   4.7216
     4.8770   4.8938   4.9261   5.0754   5.1548   5.1598   5.1788   5.4389
     5.6677   5.6767   5.6876   5.9203   5.9257   5.9594   6.0107   6.0136
     6.0888   6.0997   6.1701   6.2615   6.2645   6.2738   6.3769   6.4542
     6.4944   6.6007   7.0785   7.2414   7.3472   7.4051   7.5551   7.5925
     7.7216   7.7737   7.9256   8.1172   8.3007   8.3422   8.4549   8.8772
     9.0125   9.0693   9.2190

          k =-0.0253 0.0280 0.0000 ( 34687 PWs)   bands (ev):

   -58.3100 -58.2796 -57.3922 -57.3872 -57.3578 -57.3190 -57.2669 -57.1018
   -57.0720 -57.0649 -57.0300 -56.9267 -56.9266 -56.8961 -56.8072 -56.7740
   -34.7324 -34.5790 -34.5541 -34.5119 -34.4303 -34.3941 -33.8640 -33.8535
   -33.7389 -33.6719 -33.6376 -33.5987 -33.5727 -33.5586 -33.5552 -33.5460
   -33.5382 -33.5257 -33.5239 -33.5040 -33.4976 -33.4744 -33.4734 -33.4548
   -33.3430 -33.3336 -33.3263 -33.3233 -33.3164 -33.3122 -33.2878 -33.2690
   -33.2583 -33.2453 -33.2449 -33.2363 -33.2173 -33.2095 -33.1732 -33.1416
   -33.1375 -33.0841 -33.0638 -33.0438 -33.0252 -33.0032 -32.9834 -32.9187
   -18.3752 -17.9462 -17.7806 -17.7387 -17.5277 -17.5214 -17.3800 -17.3732
   -17.3499 -17.3202 -17.1166 -17.0737 -16.9890 -16.9438 -16.8778 -16.8347
   -16.7969 -16.7553 -16.7376 -16.6742 -16.6674 -16.5873 -16.5483 -16.4900
   -16.4660 -16.4099 -16.3711 -16.3528 -16.1595 -16.1246 -15.8642 -15.6174
   -15.5688 -10.7785  -5.8460  -5.3148  -5.1486  -5.1305  -4.9985  -4.9575
    -4.9186  -4.8294  -4.7033  -4.6825  -4.6414  -4.5410  -4.5032  -4.4466
    -4.4126  -4.3185  -4.2951  -4.2540  -4.2035  -4.1859  -4.1462  -4.1316
    -4.0972  -4.0465  -4.0041  -3.9887  -3.9579  -3.9171  -3.8735  -3.8043
    -3.7870  -3.7290  -3.6885  -3.6281  -3.5983  -3.5679  -3.5030  -3.3965
    -3.3486  -3.3254  -3.2936  -3.2680  -3.2285  -3.1864  -3.1176  -3.1012
    -2.9246  -2.8867  -2.8270  -2.7827  -2.7268  -2.6895  -2.6796  -2.6224
    -2.5908  -2.5139  -2.5046  -2.4471  -2.4132  -2.3633  -2.2931  -2.2701
    -2.2192  -2.1971  -2.1095  -2.0476  -1.9616  -1.9456  -1.9203  -1.8551
    -1.8441  -1.7965  -1.7504  -1.6887  -1.6410  -1.6004  -1.5672  -1.5156
    -1.4817  -1.4409  -1.4115  -1.3879  -1.3664  -1.3513  -1.3192  -1.2974
    -1.2111  -1.1282  -1.0627  -1.0159  -0.9941  -0.9579  -0.9346  -0.8893
    -0.8481  -0.8256  -0.6372  -0.6155  -0.5912  -0.5283  -0.2720   0.3103
     1.1473   1.2409   1.4249   1.8142   1.8537   1.9208   1.9572   2.0245
     2.0356   2.1849   2.2955   2.3414   2.3828   2.4261   2.4493   2.4995
     2.5195   2.5438   2.5846   2.6452   2.6935   2.7174   2.7740   2.8270
     2.8722   2.9092   2.9258   2.9687   2.9860   3.0103   3.0362   3.0889
     3.1660   3.1865   3.2288   3.2541   3.2895   3.3326   3.4252   3.4605
     3.4907   3.5544   3.6075   3.6386   3.6596   3.7399   3.8165   3.8612
     4.0081   4.2043   4.2804   4.4313   4.6201   4.7186   4.8391   4.8563
     4.9978   5.0215   5.1083   5.1936   5.2371   5.3526   5.4562   5.5440
     5.6646   5.6905   5.7149   5.7991   5.8456   5.8783   5.9046   5.9266
     5.9626   5.9853   6.0615   6.1267   6.1704   6.2782   6.3935   6.4441
     6.4575   6.5795   6.7518   6.8080   7.3808   7.4808   7.7985   7.8918
     8.0973   8.2372   8.4885   8.5345   8.7888   8.8954   9.0820   9.3083
     9.3782   9.5314   9.6171

          k =-0.0253 0.0560 0.0000 ( 34699 PWs)   bands (ev):

   -58.3036 -58.2861 -57.3890 -57.3819 -57.3642 -57.3213 -57.2661 -57.1013
   -57.0725 -57.0603 -57.0350 -56.9271 -56.9202 -56.9026 -56.8005 -56.7808
   -34.6625 -34.5737 -34.5593 -34.4949 -34.4673 -34.4478 -33.7942 -33.7843
   -33.6882 -33.6566 -33.6208 -33.5973 -33.5933 -33.5923 -33.5809 -33.5741
   -33.5477 -33.5379 -33.5244 -33.5026 -33.4893 -33.4721 -33.4613 -33.4208
   -33.3778 -33.3308 -33.3273 -33.3191 -33.2898 -33.2802 -33.2640 -33.2637
   -33.2627 -33.2537 -33.2503 -33.2369 -33.2260 -33.2191 -33.1882 -33.1667
   -33.1254 -33.0811 -33.0805 -33.0573 -33.0407 -33.0277 -33.0152 -32.9893
   -18.2175 -17.8075 -17.7859 -17.6172 -17.6057 -17.4616 -17.3992 -17.3753
   -17.2543 -17.2470 -17.2094 -17.0637 -16.9540 -16.9251 -16.8869 -16.8457
   -16.8034 -16.7495 -16.7387 -16.7233 -16.6887 -16.6034 -16.5536 -16.5368
   -16.5057 -16.4471 -16.4166 -16.4124 -16.2210 -16.2059 -15.8630 -15.6461
   -15.6226 -10.7803  -5.6108  -5.0874  -5.0297  -4.9617  -4.9294  -4.8228
    -4.8008  -4.7635  -4.6933  -4.6785  -4.5317  -4.5148  -4.4518  -4.4009
    -4.3832  -4.3748  -4.3264  -4.2824  -4.2557  -4.2456  -4.2086  -4.1769
    -4.1370  -4.1252  -4.0572  -4.0201  -3.9964  -3.9489  -3.9267  -3.8949
    -3.8322  -3.7962  -3.6914  -3.5947  -3.5721  -3.5377  -3.4624  -3.3901
    -3.3692  -3.2959  -3.1933  -3.1657  -3.1239  -3.1165  -3.0641  -3.0297
    -2.9878  -2.9319  -2.8487  -2.7979  -2.7677  -2.7094  -2.6140  -2.5947
    -2.5300  -2.5150  -2.4598  -2.3967  -2.3814  -2.3236  -2.3058  -2.2637
    -2.1946  -2.1409  -2.1267  -2.0939  -2.0533  -2.0118  -1.9906  -1.9533
    -1.9358  -1.9107  -1.8987  -1.8506  -1.7697  -1.7082  -1.6939  -1.5990
    -1.5787  -1.5500  -1.5239  -1.4909  -1.4484  -1.4190  -1.3900  -1.3317
    -1.2960  -1.2286  -1.1591  -1.0397  -1.0079  -0.9723  -0.9425  -0.8628
    -0.7667  -0.7413  -0.7106  -0.6459  -0.6158  -0.5615  -0.3694   0.2919
     1.2816   1.4636   1.5589   1.7528   1.7682   1.9065   1.9734   2.0527
     2.2600   2.2704   2.3371   2.3735   2.4099   2.4819   2.5175   2.5430
     2.5673   2.5910   2.6486   2.7015   2.7157   2.7595   2.8025   2.8519
     2.8774   2.9122   2.9565   3.0019   3.0277   3.0410   3.0509   3.1042
     3.1539   3.1939   3.2129   3.2835   3.3124   3.3410   3.3729   3.4526
     3.5044   3.5294   3.6089   3.6308   3.6635   3.7227   3.7412   3.7951
     3.8910   4.0950   4.3877   4.4957   4.7108   4.8538   4.9050   4.9559
     4.9904   5.0855   5.1820   5.2030   5.3306   5.3825   5.4288   5.5235
     5.5595   5.5954   5.6469   5.7047   5.7339   5.7988   5.8150   5.8554
     5.9226   5.9397   6.0035   6.0852   6.1279   6.2080   6.3247   6.4282
     6.4574   6.4734   6.7157   6.7653   7.0791   7.3039   7.6766   7.8332
     8.1046   8.2345   8.3239   8.4945   8.7773   8.9022   9.0035   9.1904
     9.3789   9.5556   9.6506

          k =-0.0506 0.0280 0.0000 ( 34685 PWs)   bands (ev):

   -58.3100 -58.2796 -57.3914 -57.3881 -57.3578 -57.3191 -57.2669 -57.1018
   -57.0716 -57.0653 -57.0300 -56.9267 -56.9266 -56.8961 -56.8073 -56.7740
   -34.7332 -34.5789 -34.5541 -34.5103 -34.4303 -34.3942 -33.8645 -33.8576
   -33.7392 -33.6524 -33.6374 -33.5988 -33.5779 -33.5604 -33.5592 -33.5513
   -33.5385 -33.5331 -33.5228 -33.5039 -33.4977 -33.4746 -33.4621 -33.4559
   -33.3431 -33.3267 -33.3252 -33.3232 -33.3127 -33.3118 -33.2880 -33.2710
   -33.2683 -33.2450 -33.2443 -33.2391 -33.2175 -33.2089 -33.1693 -33.1416
   -33.1377 -33.0842 -33.0638 -33.0508 -33.0235 -33.0031 -32.9834 -32.9188
   -18.2668 -17.8687 -17.8566 -17.7059 -17.5925 -17.4603 -17.4428 -17.3492
   -17.3219 -17.2553 -17.1853 -17.0911 -17.0015 -16.9564 -16.9275 -16.8997
   -16.8155 -16.7723 -16.7612 -16.7013 -16.6379 -16.5543 -16.5270 -16.4940
   -16.4661 -16.4109 -16.3954 -16.3575 -16.1560 -16.1250 -15.8649 -15.6156
   -15.5689 -10.7783  -5.5447  -5.1921  -5.1588  -5.1258  -4.9542  -4.8744
    -4.7726  -4.7145  -4.6874  -4.6571  -4.6060  -4.5919  -4.5378  -4.4123
    -4.3670  -4.3276  -4.2461  -4.2196  -4.1841  -4.1692  -4.1531  -4.0607
    -4.0244  -4.0080  -3.9751  -3.9255  -3.8886  -3.8435  -3.8172  -3.7793
    -3.7266  -3.6744  -3.6392  -3.5916  -3.5685  -3.5379  -3.4910  -3.4601
    -3.3846  -3.3722  -3.3041  -3.2701  -3.2090  -3.1531  -3.1231  -3.0629
    -3.0146  -2.9854  -2.9064  -2.8403  -2.7624  -2.7038  -2.6941  -2.6705
    -2.6216  -2.5990  -2.5846  -2.5305  -2.5215  -2.3979  -2.3462  -2.3370
    -2.2751  -2.2059  -2.1909  -2.1643  -2.0848  -2.0144  -2.0091  -1.9455
    -1.9284  -1.8995  -1.8125  -1.7256  -1.7137  -1.6898  -1.6203  -1.5925
    -1.5282  -1.4819  -1.4583  -1.3981  -1.3838  -1.3323  -1.3162  -1.2658
    -1.2514  -1.1259  -1.0627  -1.0395  -1.0162  -0.9623  -0.9256  -0.8801
    -0.8334  -0.8014  -0.7275  -0.6871  -0.6658  -0.5423  -0.3974   0.2950
     1.1342   1.3342   1.4593   1.5601   1.9280   1.9380   1.9606   2.0523
     2.1185   2.1932   2.2482   2.3238   2.4004   2.4341   2.5228   2.5403
     2.5866   2.6452   2.6818   2.6955   2.7493   2.8228   2.8457   2.8759
     2.9348   2.9408   2.9735   2.9789   2.9865   3.0963   3.1036   3.1321
     3.1795   3.2090   3.2849   3.3050   3.3498   3.3764   3.4010   3.4491
     3.4643   3.5423   3.5969   3.6617   3.7380   3.7736   3.7936   3.8950
     3.9529   4.0563   4.1035   4.4017   4.5043   4.6509   4.7421   4.8038
     4.8362   4.9082   4.9605   5.2833   5.3242   5.4069   5.5218   5.5538
     5.6351   5.7613   5.7813   5.8482   5.8940   5.9073   5.9711   6.0527
     6.0881   6.1603   6.2445   6.3294   6.3817   6.4018   6.4381   6.4847
     6.5356   6.5465   6.7076   6.9222   7.0800   7.2215   7.5464   7.6141
     7.7279   8.2206   8.4140   8.4944   8.8650   8.9397   9.0684   9.2258
     9.4296   9.6090   9.6763

          k =-0.0506 0.0560 0.0000 ( 34596 PWs)   bands (ev):

   -58.3036 -58.2861 -57.3886 -57.3823 -57.3642 -57.3213 -57.2661 -57.1013
   -57.0723 -57.0604 -57.0350 -56.9271 -56.9202 -56.9026 -56.8005 -56.7808
   -34.6631 -34.5737 -34.5592 -34.4935 -34.4675 -34.4473 -33.7945 -33.7889
   -33.6883 -33.6409 -33.6207 -33.5965 -33.5949 -33.5921 -33.5753 -33.5741
   -33.5511 -33.5381 -33.5366 -33.5028 -33.4986 -33.4722 -33.4497 -33.4224
   -33.3782 -33.3306 -33.3166 -33.3137 -33.2923 -33.2824 -33.2652 -33.2635
   -33.2624 -33.2535 -33.2498 -33.2469 -33.2267 -33.2194 -33.1872 -33.1628
   -33.1253 -33.0812 -33.0804 -33.0572 -33.0449 -33.0283 -33.0152 -32.9891
   -18.1143 -17.8253 -17.7080 -17.6200 -17.6037 -17.5640 -17.3869 -17.3754
   -17.2253 -17.2127 -17.1237 -17.1016 -16.9840 -16.9185 -16.8741 -16.8482
   -16.8301 -16.8146 -16.7679 -16.7424 -16.7273 -16.6338 -16.6032 -16.5129
   -16.5027 -16.4448 -16.4272 -16.4171 -16.2205 -16.2023 -15.8629 -15.6449
   -15.6230 -10.7801  -5.3082  -4.9983  -4.9476  -4.9397  -4.7897  -4.7820
    -4.7231  -4.6460  -4.5329  -4.5128  -4.5071  -4.4243  -4.4096  -4.3872
    -4.3675  -4.3338  -4.3156  -4.2535  -4.2063  -4.1826  -4.1709  -4.1180
    -4.1083  -4.0570  -4.0455  -3.9955  -3.9821  -3.9063  -3.8811  -3.8323
    -3.7825  -3.7112  -3.6757  -3.6184  -3.5881  -3.5589  -3.5054  -3.4389
    -3.4016  -3.3261  -3.2668  -3.2374  -3.1399  -3.1344  -3.0860  -3.0578
    -3.0014  -2.9840  -2.9642  -2.9079  -2.8064  -2.7701  -2.7554  -2.7115
    -2.6358  -2.5936  -2.5519  -2.5070  -2.4847  -2.4206  -2.3961  -2.3760
    -2.3569  -2.2961  -2.2005  -2.1780  -2.1529  -2.1350  -2.1090  -2.0545
    -2.0186  -1.9774  -1.9501  -1.8729  -1.8539  -1.7874  -1.7367  -1.6598
    -1.5727  -1.5550  -1.5446  -1.5010  -1.4508  -1.3905  -1.3583  -1.3142
    -1.2520  -1.1821  -1.0836  -1.0272  -0.9945  -0.9076  -0.8586  -0.8506
    -0.8007  -0.7131  -0.6962  -0.6771  -0.6623  -0.5598  -0.4830   0.2946
     1.3022   1.4919   1.6406   1.6623   1.8470   1.9981   2.0267   2.0617
     2.2376   2.2504   2.3547   2.3709   2.4271   2.4558   2.5425   2.5796
     2.6449   2.6899   2.7239   2.7390   2.8059   2.8370   2.8652   2.8976
     2.9281   2.9451   3.0013   3.0361   3.0667   3.1075   3.1394   3.1849
     3.1902   3.2453   3.2789   3.3190   3.3283   3.3713   3.4112   3.4614
     3.4762   3.5436   3.5729   3.6370   3.6628   3.7398   3.7993   3.8350
     3.8779   3.9552   4.1469   4.4985   4.5907   4.6104   4.7493   4.8165
     4.8830   4.9594   5.0048   5.1808   5.2960   5.3706   5.4046   5.4398
     5.5893   5.6117   5.6623   5.7115   5.8737   5.8913   5.9817   6.0009
     6.0633   6.1031   6.1656   6.2044   6.3134   6.3324   6.4107   6.4184
     6.5361   6.6108   6.7653   6.8037   7.1932   7.3613   7.5139   7.6235
     7.9406   8.0179   8.1060   8.3845   8.6117   8.7216   8.8086   9.0433
     9.1953   9.3280   9.4371

     the Fermi energy is    -0.2971 ev

!    total energy              =   -3021.14992509 Ry
     Harris-Foulkes estimate   =   -3021.14992329 Ry
     estimated scf accuracy    <       0.00000046 Ry

     The total energy is the sum of the following terms:

     one-electron contribution =  -40438.15067599 Ry
     hartree contribution      =   20290.37011657 Ry
     xc contribution           =    -553.20658718 Ry
     ewald contribution        =   17679.85705749 Ry
     smearing contrib. (-TS)   =      -0.01983598 Ry

     total magnetization       =     1.06 Bohr mag/cell
     absolute magnetization    =     1.23 Bohr mag/cell

     convergence has been achieved in  13 iterations

     Forces acting on atoms (Ry/au):


     negative rho (up, down):  1.189E-02 1.196E-02
     atom    1 type  1   force =     0.00016906   -0.00089406   -0.10474132
     atom    2 type  2   force =     0.00012198    0.00066962    0.04000570
     atom    3 type  1   force =     0.00074645   -0.00175775   -0.02054654
     atom    4 type  2   force =    -0.00331175    0.00314158   -0.00322536
     atom    5 type  1   force =     0.00036244    0.00012658    0.00031659
     atom    6 type  2   force =    -0.00022756   -0.00009849    0.00020907
     atom    7 type  1   force =    -0.00121959   -0.00015318   -0.00004185
     atom    8 type  2   force =    -0.00011787    0.00010044   -0.00019856
     atom    9 type  1   force =    -0.00003505    0.00058126   -0.10484567
     atom   10 type  2   force =     0.00039957   -0.00017648    0.03597691
     atom   11 type  1   force =     0.00068529    0.00183428    0.00266055
     atom   12 type  2   force =    -0.00520554   -0.00267737   -0.00519315
     atom   13 type  1   force =     0.00038225    0.00006059   -0.00021498
     atom   14 type  2   force =     0.00014794   -0.00011380    0.00001340
     atom   15 type  1   force =     0.00002490   -0.00033087    0.00012108
     atom   16 type  2   force =    -0.00052290    0.00063072   -0.00117921
     atom   17 type  2   force =     0.00004194    0.00002487    0.06655917
     atom   18 type  1   force =     0.00002331    0.00002237    0.13142527
     atom   19 type  2   force =     0.00020969   -0.00052447   -0.08520821
     atom   20 type  2   force =    -0.05786567    0.00014728   -0.03610476
     atom   21 type  2   force =     0.05783985   -0.00005751   -0.03604822
     atom   22 type  1   force =    -0.00044151    0.00076428    0.08016489
     atom   23 type  2   force =     0.00020501   -0.00000628    0.00000529
     atom   24 type  2   force =     0.00062840    0.00185250   -0.03471592
     atom   25 type  2   force =     0.00415110    0.00333983   -0.00509281
     atom   26 type  1   force =     0.00042739   -0.00003474    0.00016160
     atom   27 type  2   force =     0.00002604   -0.00012095   -0.00001106
     atom   28 type  2   force =    -0.00002566   -0.00017141   -0.00002013
     atom   29 type  2   force =     0.00002273   -0.00010881    0.00009763
     atom   30 type  1   force =    -0.00066761   -0.00010053    0.00030518
     atom   31 type  2   force =    -0.00022092   -0.00020052   -0.00006150
     atom   32 type  2   force =    -0.00006898    0.00004018    0.00035781
     atom   33 type  2   force =    -0.00013645    0.00008745    0.06629955
     atom   34 type  1   force =     0.00006180   -0.00002269    0.13118894
     atom   35 type  2   force =     0.00020379   -0.00014363   -0.08484586
     atom   36 type  2   force =    -0.05776608    0.00007510   -0.03566551
     atom   37 type  2   force =     0.05801286   -0.00015973   -0.03610467
     atom   38 type  1   force =    -0.00036671   -0.00022147    0.07987031
     atom   39 type  2   force =     0.00013399   -0.00024907   -0.00016395
     atom   40 type  2   force =     0.00042496    0.00125583   -0.03532476
     atom   41 type  2   force =     0.00587539   -0.00246067   -0.00719581
     atom   42 type  1   force =     0.00019222   -0.00008258    0.00007124
     atom   43 type  2   force =    -0.00023629   -0.00007095    0.00000919
     atom   44 type  2   force =    -0.00008816   -0.00019510   -0.00004039
     atom   45 type  2   force =     0.00001466   -0.00013732    0.00002854
     atom   46 type  1   force =     0.00032489    0.00009968    0.00008698
     atom   47 type  2   force =    -0.00016702   -0.00008740   -0.00001679
     atom   48 type  2   force =    -0.00032544   -0.00050617    0.00092382
     atom   49 type  2   force =     0.00161953   -0.00081934   -0.00084476
     atom   50 type  3   force =    -0.00187246   -0.00280992   -0.00144080
     atom   51 type  4   force =    -0.00088869   -0.00047792   -0.00009097
     atom   52 type  4   force =    -0.00058018    0.00021528    0.00036953
     atom   53 type  4   force =    -0.00052702    0.00108567    0.00187216
     atom   54 type  4   force =    -0.00059435   -0.00018419    0.00008315

     Total force =     0.342310     Total SCF correction =     0.002025
 !ASE

     Writing output data file calc.save
 
     init_run     :     65.57s CPU     76.20s WALL (       1 calls)
     electrons    :   3214.29s CPU   3630.63s WALL (       1 calls)
     forces       :     48.81s CPU     50.72s WALL (       1 calls)

     Called by init_run:
     wfcinit      :     56.53s CPU     66.54s WALL (       1 calls)
     potinit      :      1.35s CPU      1.61s WALL (       1 calls)

     Called by electrons:
     c_bands      :   2806.62s CPU   3151.04s WALL (      13 calls)
     sum_band     :    349.06s CPU    414.85s WALL (      13 calls)
     v_of_rho     :     14.33s CPU     17.15s WALL (      14 calls)
     newd         :     47.66s CPU     51.10s WALL (      14 calls)
     mix_rho      :      0.54s CPU      0.71s WALL (      13 calls)
     vdW_energy   :      3.16s CPU      3.59s WALL (      15 calls)
     vdW_ffts     :      3.75s CPU      4.71s WALL (      30 calls)
     vdW_v        :      1.41s CPU      1.57s WALL (      15 calls)

     Called by c_bands:
     init_us_2    :      8.07s CPU      8.55s WALL (    1120 calls)
     cegterg      :   2758.39s CPU   3100.74s WALL (     520 calls)

     Called by *egterg:
     h_psi        :   1079.40s CPU   1333.97s WALL (    2339 calls)
     s_psi        :    189.56s CPU    194.24s WALL (    2339 calls)
     g_psi        :      5.56s CPU      5.70s WALL (    1779 calls)
     cdiaghg      :    853.24s CPU    867.16s WALL (    2299 calls)

     Called by h_psi:
     add_vuspsi   :    191.32s CPU    196.33s WALL (    2339 calls)

     General routines
     calbec       :    285.62s CPU    289.84s WALL (    2899 calls)
     fft          :      7.84s CPU      9.85s WALL (    1191 calls)
     ffts         :      0.04s CPU      0.07s WALL (      54 calls)
     fftw         :    581.39s CPU    893.46s WALL (  909128 calls)
     interpolate  :      0.37s CPU      0.62s WALL (      54 calls)
     davcio       :      0.06s CPU      1.69s WALL (      40 calls)
 
     Parallel routines
     fft_scatter  :    277.88s CPU    476.69s WALL (  910373 calls)
 
     PWSCF        :     0h55m CPU        1h 2m WALL

 
   This run was terminated on:  18:39:25  25Feb2018            

=------------------------------------------------------------------------------=
   JOB DONE.
=------------------------------------------------------------------------------=
