  python dir          : /home/vossj/suncat/lib/python2.7/site-packages/espresso
  espresso dir        : /home/vossj/suncat/esdld/espresso-dynpy-beef/bin
  pseudo dir          : /home/alatimer/bin/psp/esp_psp_w_gbrvRu/
  ase-espresso py git : ffa2778-git



     Program PWSCF v.5.1rc2 (svn rev. ) starts on 12Feb2018 at 22:53:40 

     This program is part of the open-source Quantum ESPRESSO suite
     for quantum simulation of materials; please cite
         "P. Giannozzi et al., J. Phys.:Condens. Matter 21 395502 (2009);
          URL http://www.quantum-espresso.org", 
     in publications or presentations arising from this work. More details at
     http://www.quantum-espresso.org/quote

     Parallel version (MPI), running on    16 processors
     R & G space division:  proc/nbgrp/npool/nimage =      16
     Reading input from pw.inp
     Message from routine read_cards :
     DEPRECATED: no units specified in CELL_PARAMETERS card

     Current dimensions of program PWSCF are:
     Max number of different atomic species (ntypx) = 10
     Max number of k-points (npk) =  40000
     Max angular momentum in pseudopotentials (lmaxx) =  3

     **************************************************************************
     Initializing libbeef V0.1.1 with the BEEF-vdW functional.
     Citation: Wellendorff et al., PRB 85, 235149 (2012).
     **************************************************************************


     IMPORTANT: XC functional enforced from input :
     Exchange-correlation      = BEEF ( 1  4 27 13 2)
     Any further DFT definition will be discarded
     Please, verify this is what you really want


     Subspace diagonalization in iterative solution of the eigenvalue problem:
     a serial algorithm will be used

 
     Parallelization info
     --------------------
     sticks:   dense  smooth     PW     G-vecs:    dense   smooth      PW
     Min         281     112     31                68535    17318    2565
     Max         282     113     32                68545    17369    2582
     Sum        4501    1795    503              1096637   277353   41113
 
     Generating pointlists ...
     new r_m :   0.4125 (alat units)  0.7795 (a.u.) for type    1
     new r_m :   0.4115 (alat units)  0.7777 (a.u.) for type    2
     new r_m :   0.4125 (alat units)  0.7795 (a.u.) for type    3
     new r_m :   0.4115 (alat units)  0.7777 (a.u.) for type    4


     bravais-lattice index     =            0
     lattice parameter (alat)  =       1.8897  a.u.
     unit-cell volume          =    7990.9933 (a.u.)^3
     number of atoms/cell      =           54
     number of atomic types    =            4
     number of electrons       =       398.00
     number of Kohn-Sham states=          299
     kinetic-energy cutoff     =      40.4243  Ry
     charge density cutoff     =     404.2426  Ry
     convergence threshold     =      7.3E-07
     mixing beta               =       0.1000
     number of iterations used =           10  plain     mixing
     Exchange-correlation      = BEEF ( 1  4 27 13 2)
     nstep                     =           50


     celldm(1)=   1.889726  celldm(2)=   0.000000  celldm(3)=   0.000000
     celldm(4)=   0.000000  celldm(5)=   0.000000  celldm(6)=   0.000000

     crystal axes: (cart. coord. in units of alat)
               a(1) = (   6.590708   0.000000   0.000000 )  
               a(2) = (   0.000000   5.950229   0.000000 )  
               a(3) = (   0.000000   0.000000  30.195235 )  

     reciprocal axes: (cart. coord. in units 2 pi/alat)
               b(1) = (  0.151729  0.000000  0.000000 )  
               b(2) = (  0.000000  0.168061  0.000000 )  
               b(3) = (  0.000000  0.000000  0.033118 )  


     PseudoPot. # 1 for Ti read from file:
     /home/alatimer/bin/psp/esp_psp_w_gbrvRu/Ti.UPF
     MD5 check sum: 8e4df49b7f0d34bbd5052bf3f5ea0213
     Pseudo is Ultrasoft, Zval = 12.0
     Generated by new atomic code, or converted to UPF format
     Using radial grid of  851 points,  6 beta functions with: 
                l(1) =   0
                l(2) =   0
                l(3) =   1
                l(4) =   1
                l(5) =   2
                l(6) =   2
     Q(r) pseudized with  8 coefficients,  rinner =    1.000   1.000   1.000
                                                       1.000   1.000

     PseudoPot. # 2 for  O read from file:
     /home/alatimer/bin/psp/esp_psp_w_gbrvRu/O.UPF
     MD5 check sum: e057bbcf3229fb5d8c36c0c92f9568b4
     Pseudo is Ultrasoft + core correction, Zval =  6.0
     Generated using "atomic" code by A. Dal Corso  v.5.0.2 svn rev. 9415
     Using radial grid of 1095 points,  4 beta functions with: 
                l(1) =   0
                l(2) =   0
                l(3) =   1
                l(4) =   1
     Q(r) pseudized with 0 coefficients 


     PseudoPot. # 3 for  C read from file:
     /home/alatimer/bin/psp/esp_psp_w_gbrvRu/C.UPF
     MD5 check sum: ab446d787031eba755f1d5ee46644bb0
     Pseudo is Ultrasoft + core correction, Zval =  4.0
     Generated using "atomic" code by A. Dal Corso  v.5.0.2 svn rev. 9415
     Using radial grid of 1073 points,  4 beta functions with: 
                l(1) =   0
                l(2) =   0
                l(3) =   1
                l(4) =   1
     Q(r) pseudized with 0 coefficients 


     PseudoPot. # 4 for  H read from file:
     /home/alatimer/bin/psp/esp_psp_w_gbrvRu/H.UPF
     MD5 check sum: bd57da0722753ddfd9833a65b40bb853
     Pseudo is Ultrasoft, Zval =  1.0
     Generated using "atomic" code by A. Dal Corso  v.5.0.2 svn rev. 9415
     Using radial grid of  929 points,  2 beta functions with: 
                l(1) =   0
                l(2) =   0
     Q(r) pseudized with 0 coefficients 


     vdW kernel table read from file vdW_kernel_table
     MD5 check sum: 095c7af220d748ca6e76c0b4c6cfb241

     atomic species   valence    mass     pseudopotential
        Ti1           12.00    47.88000     Ti( 1.00)
        O1             6.00    15.99940      O( 1.00)
        C1             4.00    12.01100      C( 1.00)
        H1             1.00     1.00794      H( 1.00)

     Starting magnetic structure 
     atomic species   magnetization
        Ti1          0.250
        O1           0.500
        C1           0.750
        H1           0.000

     No symmetry found



   Cartesian axes

     site n.     atom                  positions (alat units)
         1           Ti1 tau(   1) = (   1.6476770   0.7437786   2.6545865  )
         2           O1  tau(   2) = (   1.6476770   2.2313359   3.9361215  )
         3           Ti1 tau(   3) = (   1.6476770   2.2313359   5.9499405  )
         4           O1  tau(   4) = (   0.3661420   0.7437786   5.9499405  )
         5           Ti1 tau(   5) = (   1.7592931   0.7557636   9.1813031  )
         6           O1  tau(   6) = (   1.6162490   2.2572048  10.5951269  )
         7           Ti1 tau(   7) = (   1.5595004   2.2680265  12.4668274  )
         8           O1  tau(   8) = (   0.3709531   0.7738127  12.6996540  )
         9           Ti1 tau(   9) = (   1.6476770   3.7188931   2.6545865  )
        10           O1  tau(  10) = (   1.6476770   5.2064503   3.9361215  )
        11           Ti1 tau(  11) = (   1.6476770   5.2064503   5.9499405  )
        12           O1  tau(  12) = (   0.3661420   3.7188931   5.9499405  )
        13           Ti1 tau(  13) = (   1.7607536   3.7112867   9.1949733  )
        14           O1  tau(  14) = (   1.6133076   5.2250699  10.5465640  )
        15           Ti1 tau(  15) = (   1.6492307   5.2431137  12.3448001  )
        16           O1  tau(  16) = (   0.3719744   3.7598389  12.7007434  )
        17           O1  tau(  17) = (   1.6476770   2.2313359   1.3730516  )
        18           Ti1 tau(  18) = (   4.9430310   2.2313359   2.6545865  )
        19           O1  tau(  19) = (   4.9430310   2.2313359   4.6684056  )
        20           O1  tau(  20) = (   6.2245660   0.7437786   2.6545865  )
        21           O1  tau(  21) = (   3.6614961   0.7437786   2.6545865  )
        22           Ti1 tau(  22) = (   4.9430310   0.7437786   5.9499405  )
        23           O1  tau(  23) = (   1.6387103   2.2391978   8.0037664  )
        24           O1  tau(  24) = (   4.9430310   2.2313359   7.2314755  )
        25           O1  tau(  25) = (   2.9292120   0.7437786   5.9499405  )
        26           Ti1 tau(  26) = (   5.0158092   2.2383949   9.3973727  )
        27           O1  tau(  27) = (   4.9391445   2.2276729  11.2675731  )
        28           O1  tau(  28) = (   6.2094020   0.7514556   9.2742047  )
        29           O1  tau(  29) = (   3.6131301   0.7515640   9.2682932  )
        30           Ti1 tau(  30) = (   4.8940083   0.8207741  12.7348365  )
        31           O1  tau(  31) = (   4.8487174   2.2703822  13.8475395  )
        32           O1  tau(  32) = (   2.8766274   0.7418004  12.6316555  )
        33           O1  tau(  33) = (   1.6476770   5.2064503   1.3730516  )
        34           Ti1 tau(  34) = (   4.9430310   5.2064503   2.6545865  )
        35           O1  tau(  35) = (   4.9430310   5.2064503   4.6684056  )
        36           O1  tau(  36) = (   6.2245660   3.7188931   2.6545865  )
        37           O1  tau(  37) = (   3.6614961   3.7188931   2.6545865  )
        38           Ti1 tau(  38) = (   4.9430310   3.7188931   5.9499405  )
        39           O1  tau(  39) = (   1.6418458   5.2133935   8.0066417  )
        40           O1  tau(  40) = (   4.9430310   5.2064503   7.2314755  )
        41           O1  tau(  41) = (   2.9292120   3.7188931   5.9499405  )
        42           Ti1 tau(  42) = (   5.0218241   5.2139137   9.3870600  )
        43           O1  tau(  43) = (   4.9399496   5.2040061  11.2598200  )
        44           O1  tau(  44) = (   6.2073000   3.7245411   9.2731052  )
        45           O1  tau(  45) = (   3.6137513   3.7232133   9.2682466  )
        46           Ti1 tau(  46) = (   4.8936935   3.8094630  12.7397413  )
        47           O1  tau(  47) = (   4.9051259   5.2510468  13.8339921  )
        48           O1  tau(  48) = (   2.8743370   3.7938830  12.6403791  )
        49           C1  tau(  49) = (   1.0587210   2.2268971  15.9066084  )
        50           O1  tau(  50) = (   1.8917182   2.2355032  14.7378010  )
        51           H1  tau(  51) = (   0.0310076   2.2200215  15.5603933  )
        52           H1  tau(  52) = (   2.8655400   2.2288152  14.9543747  )
        53           H1  tau(  53) = (   1.2478062   1.3326534  16.5039879  )
        54           H1  tau(  54) = (   1.2341453   3.1195140  16.5098874  )

     number of k points=    40  Fermi-Dirac smearing, width (Ry)=  0.0073
                       cart. coord. in units 2pi/alat
        k(    1) = (   0.0000000   0.0000000   0.0000000), wk =   0.0277778
        k(    2) = (   0.0000000   0.0280101   0.0000000), wk =   0.0555556
        k(    3) = (   0.0000000   0.0560203   0.0000000), wk =   0.0555556
        k(    4) = (   0.0000000  -0.0840304   0.0000000), wk =   0.0277778
        k(    5) = (   0.0252881   0.0000000   0.0000000), wk =   0.0555556
        k(    6) = (   0.0252881   0.0280101   0.0000000), wk =   0.0555556
        k(    7) = (   0.0252881   0.0560203   0.0000000), wk =   0.0555556
        k(    8) = (   0.0252881  -0.0840304   0.0000000), wk =   0.0555556
        k(    9) = (   0.0505763   0.0000000   0.0000000), wk =   0.0555556
        k(   10) = (   0.0505763   0.0280101   0.0000000), wk =   0.0555556
        k(   11) = (   0.0505763   0.0560203   0.0000000), wk =   0.0555556
        k(   12) = (   0.0505763  -0.0840304   0.0000000), wk =   0.0555556
        k(   13) = (  -0.0758644   0.0000000   0.0000000), wk =   0.0277778
        k(   14) = (  -0.0758644   0.0280101   0.0000000), wk =   0.0555556
        k(   15) = (  -0.0758644   0.0560203   0.0000000), wk =   0.0555556
        k(   16) = (  -0.0758644  -0.0840304   0.0000000), wk =   0.0277778
        k(   17) = (  -0.0252881   0.0280101   0.0000000), wk =   0.0555556
        k(   18) = (  -0.0252881   0.0560203   0.0000000), wk =   0.0555556
        k(   19) = (  -0.0505763   0.0280101   0.0000000), wk =   0.0555556
        k(   20) = (  -0.0505763   0.0560203   0.0000000), wk =   0.0555556
        k(   21) = (   0.0000000   0.0000000   0.0000000), wk =   0.0277778
        k(   22) = (   0.0000000   0.0280101   0.0000000), wk =   0.0555556
        k(   23) = (   0.0000000   0.0560203   0.0000000), wk =   0.0555556
        k(   24) = (   0.0000000  -0.0840304   0.0000000), wk =   0.0277778
        k(   25) = (   0.0252881   0.0000000   0.0000000), wk =   0.0555556
        k(   26) = (   0.0252881   0.0280101   0.0000000), wk =   0.0555556
        k(   27) = (   0.0252881   0.0560203   0.0000000), wk =   0.0555556
        k(   28) = (   0.0252881  -0.0840304   0.0000000), wk =   0.0555556
        k(   29) = (   0.0505763   0.0000000   0.0000000), wk =   0.0555556
        k(   30) = (   0.0505763   0.0280101   0.0000000), wk =   0.0555556
        k(   31) = (   0.0505763   0.0560203   0.0000000), wk =   0.0555556
        k(   32) = (   0.0505763  -0.0840304   0.0000000), wk =   0.0555556
        k(   33) = (  -0.0758644   0.0000000   0.0000000), wk =   0.0277778
        k(   34) = (  -0.0758644   0.0280101   0.0000000), wk =   0.0555556
        k(   35) = (  -0.0758644   0.0560203   0.0000000), wk =   0.0555556
        k(   36) = (  -0.0758644  -0.0840304   0.0000000), wk =   0.0277778
        k(   37) = (  -0.0252881   0.0280101   0.0000000), wk =   0.0555556
        k(   38) = (  -0.0252881   0.0560203   0.0000000), wk =   0.0555556
        k(   39) = (  -0.0505763   0.0280101   0.0000000), wk =   0.0555556
        k(   40) = (  -0.0505763   0.0560203   0.0000000), wk =   0.0555556

     Dense  grid:  1096637 G-vectors     FFT dimensions: (  80,  72, 375)

     Smooth grid:   277353 G-vectors     FFT dimensions: (  54,  45, 240)

     Largest allocated arrays     est. size (Mb)     dimensions
        Kohn-Sham Wavefunctions         9.95 Mb     (    2180,  299)
        NL pseudopotentials            18.89 Mb     (    2180,  568)
        Each V/rho on FFT grid          4.22 Mb     (  138240,   2)
        Each G-vector array             0.52 Mb     (   68538)
        G-vector shells                 0.25 Mb     (   33046)
     Largest temporary arrays     est. size (Mb)     dimensions
        Auxiliary wavefunctions        39.78 Mb     (    2180, 1196)
        Each subspace H/S matrix       21.83 Mb     (    1196, 1196)
        Each <psi_i|beta_j> matrix      2.59 Mb     (     568,  299)
        Arrays for rho mixing          21.09 Mb     (  138240,   10)

     Check: negative/imaginary core charge=   -0.000049    0.000000

     The initial density is read from file :
     ./calc.save/charge-density.dat


     negative rho (up, down):  1.209E-02 1.209E-02


     ************************************************************************
     *
     * You are using vdW-DF for exchange-correlation in this calculation.
     * Please cite the following three references that made this development
     * possible:
     *
     *   M. Dion, H. Rydberg, E. Schroder, D. C. Langreth, and
     *   B. I. Lundqvist, Phys. Rev. Lett. 92, 246401 (2004).
     *
     *   T. Thonhauser, V. R. Cooper, S. Li, A. Puzder, P. Hyldgaard, and
     *   D. C. Langreth, Phys. Rev. B 76, 125112 (2007).
     *
     *   G. Roman-Perez and J. M. Soler, Phys. Rev. Lett. 103, 096102 (2009).
     *
     *
     * If you are using vdW-DF2, please also cite:
     *
     *   K. Lee, E. D. Murray, L. Kong, B. I. Lundqvist, and
     *   D. C. Langreth, Phys. Rev. B 82, 081101(R) (2010).
     *
     *
     * If you are calculating the stress with vdW-DF, please also cite:
     *
     *   R. Sabatini, E. Kucukbenli, B. Kolb, T. Thonhauser, and
     *   S. de Gironcoli, J. Phys.: Condens. Matter 24, 424209 (2012).
     *
     ************************************************************************

     Carrying out vdW-DF run using the following parameters:

     Nqs =      20    Nr_points =    1024   r_max =   100.000
     q_mesh =
               0.00001000     0.04494208     0.09755937     0.15916263
               0.23128650     0.31572767     0.41458969     0.53033537
               0.66584808     0.82450364     1.01025438     1.22772762
               1.48234092     1.78043706     2.12944203     2.53805004
               3.01644009     3.57652955     4.23227104     5.00000000

     Gradients computed in reciprocal space

     ************************************************************************


     Starting wfc are  300 randomized atomic wfcs

     total cpu time spent up to now is       74.2 secs

     Self-consistent Calculation

     iteration #  1     ecut=    40.42 Ry     beta=0.10
     Davidson diagonalization with overlap
     ethr =  1.00E-05,  avg # of iterations = 14.6

     Threshold (ethr) on eigenvalues was too large:
     Diagonalizing with lowered threshold

     Davidson diagonalization with overlap
     ethr =  7.72E-07,  avg # of iterations =  1.0

     negative rho (up, down):  1.209E-02 1.209E-02
 
     Magnetic moment per site:
     atom:    1    charge:    3.1250    magn:   -0.0002    constr:    0.0000
     atom:    2    charge:    2.0787    magn:    0.0000    constr:    0.0000
     atom:    3    charge:    3.1198    magn:    0.0000    constr:    0.0000
     atom:    4    charge:    2.0768    magn:   -0.0001    constr:    0.0000
     atom:    5    charge:    3.1166    magn:    0.0000    constr:    0.0000
     atom:    6    charge:    2.0771    magn:   -0.0001    constr:    0.0000
     atom:    7    charge:    3.1156    magn:    0.0001    constr:    0.0000
     atom:    8    charge:    2.0737    magn:   -0.0001    constr:    0.0000
     atom:    9    charge:    3.1250    magn:   -0.0002    constr:    0.0000
     atom:   10    charge:    2.0788    magn:    0.0000    constr:    0.0000
     atom:   11    charge:    3.1197    magn:    0.0000    constr:    0.0000
     atom:   12    charge:    2.0768    magn:   -0.0001    constr:    0.0000
     atom:   13    charge:    3.1158    magn:    0.0000    constr:    0.0000
     atom:   14    charge:    2.0850    magn:   -0.0001    constr:    0.0000
     atom:   15    charge:    3.1188    magn:    0.0001    constr:    0.0000
     atom:   16    charge:    2.0731    magn:   -0.0001    constr:    0.0000
     atom:   17    charge:    2.0518    magn:    0.0005    constr:    0.0000
     atom:   18    charge:    3.1239    magn:   -0.0001    constr:    0.0000
     atom:   19    charge:    2.0766    magn:   -0.0000    constr:    0.0000
     atom:   20    charge:    2.0746    magn:    0.0000    constr:    0.0000
     atom:   21    charge:    2.0746    magn:    0.0000    constr:    0.0000
     atom:   22    charge:    3.1196    magn:    0.0000    constr:    0.0000
     atom:   23    charge:    2.0824    magn:   -0.0001    constr:    0.0000
     atom:   24    charge:    2.0682    magn:   -0.0001    constr:    0.0000
     atom:   25    charge:    2.0770    magn:   -0.0001    constr:    0.0000
     atom:   26    charge:    3.1145    magn:    0.0001    constr:    0.0000
     atom:   27    charge:    2.0739    magn:   -0.0001    constr:    0.0000
     atom:   28    charge:    2.0775    magn:   -0.0001    constr:    0.0000
     atom:   29    charge:    2.0776    magn:   -0.0001    constr:    0.0000
     atom:   30    charge:    3.1166    magn:    0.0000    constr:    0.0000
     atom:   31    charge:    2.0712    magn:   -0.0000    constr:    0.0000
     atom:   32    charge:    2.0764    magn:   -0.0001    constr:    0.0000
     atom:   33    charge:    2.0518    magn:    0.0005    constr:    0.0000
     atom:   34    charge:    3.1239    magn:   -0.0001    constr:    0.0000
     atom:   35    charge:    2.0766    magn:   -0.0000    constr:    0.0000
     atom:   36    charge:    2.0746    magn:    0.0000    constr:    0.0000
     atom:   37    charge:    2.0746    magn:    0.0000    constr:    0.0000
     atom:   38    charge:    3.1196    magn:    0.0000    constr:    0.0000
     atom:   39    charge:    2.0805    magn:   -0.0001    constr:    0.0000
     atom:   40    charge:    2.0686    magn:   -0.0001    constr:    0.0000
     atom:   41    charge:    2.0769    magn:   -0.0001    constr:    0.0000
     atom:   42    charge:    3.1141    magn:    0.0001    constr:    0.0000
     atom:   43    charge:    2.0724    magn:   -0.0001    constr:    0.0000
     atom:   44    charge:    2.0774    magn:   -0.0001    constr:    0.0000
     atom:   45    charge:    2.0782    magn:   -0.0001    constr:    0.0000
     atom:   46    charge:    3.1165    magn:    0.0000    constr:    0.0000
     atom:   47    charge:    2.0694    magn:   -0.0000    constr:    0.0000
     atom:   48    charge:    2.0768    magn:   -0.0001    constr:    0.0000
     atom:   49    charge:    0.6581    magn:   -0.0001    constr:    0.0000
     atom:   50    charge:    2.0917    magn:   -0.0001    constr:    0.0000
     atom:   51    charge:    0.4276    magn:    0.0000    constr:    0.0000
     atom:   52    charge:    0.4022    magn:    0.0000    constr:    0.0000
     atom:   53    charge:    0.4294    magn:    0.0000    constr:    0.0000
     atom:   54    charge:    0.4296    magn:    0.0000    constr:    0.0000

     total cpu time spent up to now is     1006.0 secs

     total energy              =   -3021.41911527 Ry
     Harris-Foulkes estimate   =   -3021.41952530 Ry
     estimated scf accuracy    <       0.00306591 Ry

     total magnetization       =     0.00 Bohr mag/cell
     absolute magnetization    =     0.01 Bohr mag/cell

     iteration #  2     ecut=    40.42 Ry     beta=0.10
     Davidson diagonalization with overlap
     ethr =  7.70E-07,  avg # of iterations =  2.0

     negative rho (up, down):  1.208E-02 1.208E-02
 
     Magnetic moment per site:
     atom:    1    charge:    3.1250    magn:   -0.0001    constr:    0.0000
     atom:    2    charge:    2.0787    magn:    0.0000    constr:    0.0000
     atom:    3    charge:    3.1198    magn:    0.0000    constr:    0.0000
     atom:    4    charge:    2.0768    magn:   -0.0000    constr:    0.0000
     atom:    5    charge:    3.1166    magn:    0.0000    constr:    0.0000
     atom:    6    charge:    2.0771    magn:   -0.0001    constr:    0.0000
     atom:    7    charge:    3.1156    magn:    0.0000    constr:    0.0000
     atom:    8    charge:    2.0737    magn:   -0.0001    constr:    0.0000
     atom:    9    charge:    3.1250    magn:   -0.0001    constr:    0.0000
     atom:   10    charge:    2.0788    magn:    0.0000    constr:    0.0000
     atom:   11    charge:    3.1197    magn:    0.0000    constr:    0.0000
     atom:   12    charge:    2.0768    magn:   -0.0000    constr:    0.0000
     atom:   13    charge:    3.1158    magn:    0.0000    constr:    0.0000
     atom:   14    charge:    2.0850    magn:   -0.0001    constr:    0.0000
     atom:   15    charge:    3.1188    magn:    0.0001    constr:    0.0000
     atom:   16    charge:    2.0731    magn:   -0.0001    constr:    0.0000
     atom:   17    charge:    2.0518    magn:    0.0004    constr:    0.0000
     atom:   18    charge:    3.1239    magn:   -0.0001    constr:    0.0000
     atom:   19    charge:    2.0766    magn:   -0.0000    constr:    0.0000
     atom:   20    charge:    2.0746    magn:    0.0000    constr:    0.0000
     atom:   21    charge:    2.0746    magn:    0.0000    constr:    0.0000
     atom:   22    charge:    3.1196    magn:    0.0000    constr:    0.0000
     atom:   23    charge:    2.0824    magn:   -0.0001    constr:    0.0000
     atom:   24    charge:    2.0682    magn:   -0.0001    constr:    0.0000
     atom:   25    charge:    2.0770    magn:   -0.0000    constr:    0.0000
     atom:   26    charge:    3.1145    magn:    0.0000    constr:    0.0000
     atom:   27    charge:    2.0739    magn:   -0.0001    constr:    0.0000
     atom:   28    charge:    2.0775    magn:   -0.0001    constr:    0.0000
     atom:   29    charge:    2.0776    magn:   -0.0001    constr:    0.0000
     atom:   30    charge:    3.1166    magn:    0.0000    constr:    0.0000
     atom:   31    charge:    2.0716    magn:   -0.0000    constr:    0.0000
     atom:   32    charge:    2.0764    magn:   -0.0001    constr:    0.0000
     atom:   33    charge:    2.0518    magn:    0.0004    constr:    0.0000
     atom:   34    charge:    3.1239    magn:   -0.0001    constr:    0.0000
     atom:   35    charge:    2.0766    magn:   -0.0000    constr:    0.0000
     atom:   36    charge:    2.0746    magn:    0.0000    constr:    0.0000
     atom:   37    charge:    2.0746    magn:    0.0000    constr:    0.0000
     atom:   38    charge:    3.1196    magn:    0.0000    constr:    0.0000
     atom:   39    charge:    2.0805    magn:   -0.0001    constr:    0.0000
     atom:   40    charge:    2.0686    magn:   -0.0001    constr:    0.0000
     atom:   41    charge:    2.0769    magn:   -0.0000    constr:    0.0000
     atom:   42    charge:    3.1141    magn:    0.0000    constr:    0.0000
     atom:   43    charge:    2.0724    magn:   -0.0001    constr:    0.0000
     atom:   44    charge:    2.0774    magn:   -0.0001    constr:    0.0000
     atom:   45    charge:    2.0782    magn:   -0.0001    constr:    0.0000
     atom:   46    charge:    3.1164    magn:    0.0000    constr:    0.0000
     atom:   47    charge:    2.0694    magn:   -0.0000    constr:    0.0000
     atom:   48    charge:    2.0768    magn:   -0.0001    constr:    0.0000
     atom:   49    charge:    0.6580    magn:   -0.0000    constr:    0.0000
     atom:   50    charge:    2.0858    magn:   -0.0001    constr:    0.0000
     atom:   51    charge:    0.4278    magn:    0.0000    constr:    0.0000
     atom:   52    charge:    0.4024    magn:    0.0000    constr:    0.0000
     atom:   53    charge:    0.4295    magn:    0.0000    constr:    0.0000
     atom:   54    charge:    0.4298    magn:    0.0000    constr:    0.0000

     total cpu time spent up to now is     1194.7 secs

     total energy              =   -3021.41860921 Ry
     Harris-Foulkes estimate   =   -3021.41916339 Ry
     estimated scf accuracy    <       0.00164082 Ry

     total magnetization       =     0.00 Bohr mag/cell
     absolute magnetization    =     0.01 Bohr mag/cell

     iteration #  3     ecut=    40.42 Ry     beta=0.10
     Davidson diagonalization with overlap
     ethr =  4.12E-07,  avg # of iterations =  3.0

     negative rho (up, down):  1.208E-02 1.208E-02
 
     Magnetic moment per site:
     atom:    1    charge:    3.1250    magn:   -0.0001    constr:    0.0000
     atom:    2    charge:    2.0787    magn:    0.0000    constr:    0.0000
     atom:    3    charge:    3.1198    magn:    0.0000    constr:    0.0000
     atom:    4    charge:    2.0768    magn:   -0.0000    constr:    0.0000
     atom:    5    charge:    3.1166    magn:    0.0000    constr:    0.0000
     atom:    6    charge:    2.0770    magn:   -0.0001    constr:    0.0000
     atom:    7    charge:    3.1157    magn:    0.0000    constr:    0.0000
     atom:    8    charge:    2.0737    magn:   -0.0001    constr:    0.0000
     atom:    9    charge:    3.1250    magn:   -0.0001    constr:    0.0000
     atom:   10    charge:    2.0788    magn:    0.0000    constr:    0.0000
     atom:   11    charge:    3.1197    magn:    0.0000    constr:    0.0000
     atom:   12    charge:    2.0768    magn:   -0.0000    constr:    0.0000
     atom:   13    charge:    3.1158    magn:    0.0000    constr:    0.0000
     atom:   14    charge:    2.0850    magn:   -0.0001    constr:    0.0000
     atom:   15    charge:    3.1189    magn:    0.0000    constr:    0.0000
     atom:   16    charge:    2.0731    magn:   -0.0001    constr:    0.0000
     atom:   17    charge:    2.0518    magn:    0.0003    constr:    0.0000
     atom:   18    charge:    3.1239    magn:   -0.0001    constr:    0.0000
     atom:   19    charge:    2.0766    magn:   -0.0000    constr:    0.0000
     atom:   20    charge:    2.0746    magn:    0.0000    constr:    0.0000
     atom:   21    charge:    2.0746    magn:    0.0000    constr:    0.0000
     atom:   22    charge:    3.1196    magn:    0.0000    constr:    0.0000
     atom:   23    charge:    2.0824    magn:   -0.0001    constr:    0.0000
     atom:   24    charge:    2.0682    magn:   -0.0000    constr:    0.0000
     atom:   25    charge:    2.0770    magn:   -0.0000    constr:    0.0000
     atom:   26    charge:    3.1145    magn:    0.0000    constr:    0.0000
     atom:   27    charge:    2.0739    magn:   -0.0000    constr:    0.0000
     atom:   28    charge:    2.0775    magn:   -0.0001    constr:    0.0000
     atom:   29    charge:    2.0776    magn:   -0.0001    constr:    0.0000
     atom:   30    charge:    3.1167    magn:    0.0000    constr:    0.0000
     atom:   31    charge:    2.0709    magn:   -0.0000    constr:    0.0000
     atom:   32    charge:    2.0763    magn:   -0.0001    constr:    0.0000
     atom:   33    charge:    2.0518    magn:    0.0003    constr:    0.0000
     atom:   34    charge:    3.1239    magn:   -0.0001    constr:    0.0000
     atom:   35    charge:    2.0766    magn:   -0.0000    constr:    0.0000
     atom:   36    charge:    2.0746    magn:    0.0000    constr:    0.0000
     atom:   37    charge:    2.0746    magn:    0.0000    constr:    0.0000
     atom:   38    charge:    3.1196    magn:    0.0000    constr:    0.0000
     atom:   39    charge:    2.0805    magn:   -0.0001    constr:    0.0000
     atom:   40    charge:    2.0686    magn:   -0.0000    constr:    0.0000
     atom:   41    charge:    2.0769    magn:   -0.0000    constr:    0.0000
     atom:   42    charge:    3.1141    magn:    0.0000    constr:    0.0000
     atom:   43    charge:    2.0725    magn:   -0.0000    constr:    0.0000
     atom:   44    charge:    2.0774    magn:   -0.0001    constr:    0.0000
     atom:   45    charge:    2.0782    magn:   -0.0001    constr:    0.0000
     atom:   46    charge:    3.1165    magn:    0.0000    constr:    0.0000
     atom:   47    charge:    2.0694    magn:   -0.0000    constr:    0.0000
     atom:   48    charge:    2.0767    magn:   -0.0001    constr:    0.0000
     atom:   49    charge:    0.6579    magn:   -0.0000    constr:    0.0000
     atom:   50    charge:    2.0863    magn:   -0.0000    constr:    0.0000
     atom:   51    charge:    0.4277    magn:    0.0000    constr:    0.0000
     atom:   52    charge:    0.4020    magn:    0.0000    constr:    0.0000
     atom:   53    charge:    0.4295    magn:    0.0000    constr:    0.0000
     atom:   54    charge:    0.4297    magn:    0.0000    constr:    0.0000

     total cpu time spent up to now is     1403.5 secs

     total energy              =   -3021.41881089 Ry
     Harris-Foulkes estimate   =   -3021.41882991 Ry
     estimated scf accuracy    <       0.00023370 Ry

     total magnetization       =     0.00 Bohr mag/cell
     absolute magnetization    =     0.00 Bohr mag/cell

     iteration #  4     ecut=    40.42 Ry     beta=0.10
     Davidson diagonalization with overlap
     ethr =  5.87E-08,  avg # of iterations =  2.0

     negative rho (up, down):  1.209E-02 1.209E-02
 
     Magnetic moment per site:
     atom:    1    charge:    3.1250    magn:   -0.0001    constr:    0.0000
     atom:    2    charge:    2.0787    magn:    0.0000    constr:    0.0000
     atom:    3    charge:    3.1198    magn:    0.0000    constr:    0.0000
     atom:    4    charge:    2.0768    magn:   -0.0000    constr:    0.0000
     atom:    5    charge:    3.1166    magn:    0.0000    constr:    0.0000
     atom:    6    charge:    2.0770    magn:   -0.0000    constr:    0.0000
     atom:    7    charge:    3.1157    magn:    0.0000    constr:    0.0000
     atom:    8    charge:    2.0737    magn:   -0.0000    constr:    0.0000
     atom:    9    charge:    3.1250    magn:   -0.0001    constr:    0.0000
     atom:   10    charge:    2.0788    magn:    0.0000    constr:    0.0000
     atom:   11    charge:    3.1197    magn:    0.0000    constr:    0.0000
     atom:   12    charge:    2.0768    magn:   -0.0000    constr:    0.0000
     atom:   13    charge:    3.1158    magn:    0.0000    constr:    0.0000
     atom:   14    charge:    2.0850    magn:   -0.0000    constr:    0.0000
     atom:   15    charge:    3.1188    magn:    0.0000    constr:    0.0000
     atom:   16    charge:    2.0732    magn:   -0.0000    constr:    0.0000
     atom:   17    charge:    2.0518    magn:    0.0002    constr:    0.0000
     atom:   18    charge:    3.1239    magn:   -0.0000    constr:    0.0000
     atom:   19    charge:    2.0766    magn:   -0.0000    constr:    0.0000
     atom:   20    charge:    2.0746    magn:    0.0000    constr:    0.0000
     atom:   21    charge:    2.0746    magn:    0.0000    constr:    0.0000
     atom:   22    charge:    3.1196    magn:    0.0000    constr:    0.0000
     atom:   23    charge:    2.0824    magn:   -0.0000    constr:    0.0000
     atom:   24    charge:    2.0682    magn:   -0.0000    constr:    0.0000
     atom:   25    charge:    2.0770    magn:   -0.0000    constr:    0.0000
     atom:   26    charge:    3.1145    magn:    0.0000    constr:    0.0000
     atom:   27    charge:    2.0739    magn:   -0.0000    constr:    0.0000
     atom:   28    charge:    2.0775    magn:   -0.0000    constr:    0.0000
     atom:   29    charge:    2.0776    magn:   -0.0000    constr:    0.0000
     atom:   30    charge:    3.1166    magn:    0.0000    constr:    0.0000
     atom:   31    charge:    2.0707    magn:   -0.0000    constr:    0.0000
     atom:   32    charge:    2.0763    magn:   -0.0000    constr:    0.0000
     atom:   33    charge:    2.0518    magn:    0.0002    constr:    0.0000
     atom:   34    charge:    3.1239    magn:   -0.0000    constr:    0.0000
     atom:   35    charge:    2.0766    magn:   -0.0000    constr:    0.0000
     atom:   36    charge:    2.0746    magn:    0.0000    constr:    0.0000
     atom:   37    charge:    2.0746    magn:    0.0000    constr:    0.0000
     atom:   38    charge:    3.1196    magn:    0.0000    constr:    0.0000
     atom:   39    charge:    2.0805    magn:   -0.0000    constr:    0.0000
     atom:   40    charge:    2.0686    magn:   -0.0000    constr:    0.0000
     atom:   41    charge:    2.0769    magn:   -0.0000    constr:    0.0000
     atom:   42    charge:    3.1141    magn:    0.0000    constr:    0.0000
     atom:   43    charge:    2.0724    magn:   -0.0000    constr:    0.0000
     atom:   44    charge:    2.0774    magn:   -0.0000    constr:    0.0000
     atom:   45    charge:    2.0782    magn:   -0.0000    constr:    0.0000
     atom:   46    charge:    3.1165    magn:    0.0000    constr:    0.0000
     atom:   47    charge:    2.0694    magn:   -0.0000    constr:    0.0000
     atom:   48    charge:    2.0767    magn:   -0.0000    constr:    0.0000
     atom:   49    charge:    0.6579    magn:   -0.0000    constr:    0.0000
     atom:   50    charge:    2.0875    magn:   -0.0000    constr:    0.0000
     atom:   51    charge:    0.4277    magn:    0.0000    constr:    0.0000
     atom:   52    charge:    0.4015    magn:    0.0000    constr:    0.0000
     atom:   53    charge:    0.4294    magn:    0.0000    constr:    0.0000
     atom:   54    charge:    0.4297    magn:    0.0000    constr:    0.0000

     total cpu time spent up to now is     1592.9 secs

     total energy              =   -3021.41881583 Ry
     Harris-Foulkes estimate   =   -3021.41881867 Ry
     estimated scf accuracy    <       0.00009283 Ry

     total magnetization       =     0.00 Bohr mag/cell
     absolute magnetization    =     0.00 Bohr mag/cell

     iteration #  5     ecut=    40.42 Ry     beta=0.10
     Davidson diagonalization with overlap
     ethr =  2.33E-08,  avg # of iterations =  3.0

     negative rho (up, down):  1.209E-02 1.209E-02
 
     Magnetic moment per site:
     atom:    1    charge:    3.1250    magn:   -0.0001    constr:    0.0000
     atom:    2    charge:    2.0787    magn:    0.0000    constr:    0.0000
     atom:    3    charge:    3.1198    magn:    0.0000    constr:    0.0000
     atom:    4    charge:    2.0768    magn:   -0.0000    constr:    0.0000
     atom:    5    charge:    3.1166    magn:    0.0000    constr:    0.0000
     atom:    6    charge:    2.0770    magn:   -0.0000    constr:    0.0000
     atom:    7    charge:    3.1157    magn:    0.0000    constr:    0.0000
     atom:    8    charge:    2.0737    magn:   -0.0000    constr:    0.0000
     atom:    9    charge:    3.1250    magn:   -0.0001    constr:    0.0000
     atom:   10    charge:    2.0788    magn:    0.0000    constr:    0.0000
     atom:   11    charge:    3.1197    magn:    0.0000    constr:    0.0000
     atom:   12    charge:    2.0768    magn:   -0.0000    constr:    0.0000
     atom:   13    charge:    3.1158    magn:    0.0000    constr:    0.0000
     atom:   14    charge:    2.0850    magn:   -0.0000    constr:    0.0000
     atom:   15    charge:    3.1188    magn:    0.0000    constr:    0.0000
     atom:   16    charge:    2.0732    magn:   -0.0000    constr:    0.0000
     atom:   17    charge:    2.0518    magn:    0.0002    constr:    0.0000
     atom:   18    charge:    3.1239    magn:   -0.0000    constr:    0.0000
     atom:   19    charge:    2.0766    magn:   -0.0000    constr:    0.0000
     atom:   20    charge:    2.0746    magn:    0.0000    constr:    0.0000
     atom:   21    charge:    2.0746    magn:    0.0000    constr:    0.0000
     atom:   22    charge:    3.1196    magn:    0.0000    constr:    0.0000
     atom:   23    charge:    2.0824    magn:   -0.0000    constr:    0.0000
     atom:   24    charge:    2.0682    magn:   -0.0000    constr:    0.0000
     atom:   25    charge:    2.0770    magn:   -0.0000    constr:    0.0000
     atom:   26    charge:    3.1145    magn:    0.0000    constr:    0.0000
     atom:   27    charge:    2.0739    magn:   -0.0000    constr:    0.0000
     atom:   28    charge:    2.0775    magn:   -0.0000    constr:    0.0000
     atom:   29    charge:    2.0776    magn:   -0.0000    constr:    0.0000
     atom:   30    charge:    3.1166    magn:    0.0000    constr:    0.0000
     atom:   31    charge:    2.0707    magn:   -0.0000    constr:    0.0000
     atom:   32    charge:    2.0763    magn:   -0.0000    constr:    0.0000
     atom:   33    charge:    2.0518    magn:    0.0002    constr:    0.0000
     atom:   34    charge:    3.1239    magn:   -0.0000    constr:    0.0000
     atom:   35    charge:    2.0766    magn:   -0.0000    constr:    0.0000
     atom:   36    charge:    2.0746    magn:    0.0000    constr:    0.0000
     atom:   37    charge:    2.0746    magn:    0.0000    constr:    0.0000
     atom:   38    charge:    3.1196    magn:    0.0000    constr:    0.0000
     atom:   39    charge:    2.0805    magn:   -0.0000    constr:    0.0000
     atom:   40    charge:    2.0686    magn:   -0.0000    constr:    0.0000
     atom:   41    charge:    2.0769    magn:   -0.0000    constr:    0.0000
     atom:   42    charge:    3.1141    magn:    0.0000    constr:    0.0000
     atom:   43    charge:    2.0724    magn:   -0.0000    constr:    0.0000
     atom:   44    charge:    2.0774    magn:   -0.0000    constr:    0.0000
     atom:   45    charge:    2.0782    magn:   -0.0000    constr:    0.0000
     atom:   46    charge:    3.1165    magn:    0.0000    constr:    0.0000
     atom:   47    charge:    2.0694    magn:   -0.0000    constr:    0.0000
     atom:   48    charge:    2.0767    magn:   -0.0000    constr:    0.0000
     atom:   49    charge:    0.6579    magn:   -0.0000    constr:    0.0000
     atom:   50    charge:    2.0883    magn:   -0.0000    constr:    0.0000
     atom:   51    charge:    0.4276    magn:    0.0000    constr:    0.0000
     atom:   52    charge:    0.4012    magn:    0.0000    constr:    0.0000
     atom:   53    charge:    0.4294    magn:    0.0000    constr:    0.0000
     atom:   54    charge:    0.4296    magn:    0.0000    constr:    0.0000

     total cpu time spent up to now is     1797.3 secs

     total energy              =   -3021.41882086 Ry
     Harris-Foulkes estimate   =   -3021.41882033 Ry
     estimated scf accuracy    <       0.00001360 Ry

     total magnetization       =     0.00 Bohr mag/cell
     absolute magnetization    =     0.00 Bohr mag/cell

     iteration #  6     ecut=    40.42 Ry     beta=0.10
     Davidson diagonalization with overlap
     ethr =  3.42E-09,  avg # of iterations =  3.0

     negative rho (up, down):  1.209E-02 1.209E-02
 
     Magnetic moment per site:
     atom:    1    charge:    3.1250    magn:   -0.0001    constr:    0.0000
     atom:    2    charge:    2.0787    magn:    0.0000    constr:    0.0000
     atom:    3    charge:    3.1198    magn:    0.0000    constr:    0.0000
     atom:    4    charge:    2.0768    magn:   -0.0000    constr:    0.0000
     atom:    5    charge:    3.1166    magn:    0.0000    constr:    0.0000
     atom:    6    charge:    2.0771    magn:   -0.0000    constr:    0.0000
     atom:    7    charge:    3.1156    magn:    0.0000    constr:    0.0000
     atom:    8    charge:    2.0737    magn:   -0.0000    constr:    0.0000
     atom:    9    charge:    3.1250    magn:   -0.0001    constr:    0.0000
     atom:   10    charge:    2.0788    magn:    0.0000    constr:    0.0000
     atom:   11    charge:    3.1197    magn:    0.0000    constr:    0.0000
     atom:   12    charge:    2.0768    magn:   -0.0000    constr:    0.0000
     atom:   13    charge:    3.1158    magn:    0.0000    constr:    0.0000
     atom:   14    charge:    2.0850    magn:   -0.0000    constr:    0.0000
     atom:   15    charge:    3.1188    magn:    0.0000    constr:    0.0000
     atom:   16    charge:    2.0731    magn:   -0.0000    constr:    0.0000
     atom:   17    charge:    2.0518    magn:    0.0002    constr:    0.0000
     atom:   18    charge:    3.1239    magn:   -0.0000    constr:    0.0000
     atom:   19    charge:    2.0766    magn:   -0.0000    constr:    0.0000
     atom:   20    charge:    2.0746    magn:    0.0000    constr:    0.0000
     atom:   21    charge:    2.0746    magn:    0.0000    constr:    0.0000
     atom:   22    charge:    3.1196    magn:    0.0000    constr:    0.0000
     atom:   23    charge:    2.0824    magn:   -0.0000    constr:    0.0000
     atom:   24    charge:    2.0682    magn:   -0.0000    constr:    0.0000
     atom:   25    charge:    2.0770    magn:   -0.0000    constr:    0.0000
     atom:   26    charge:    3.1145    magn:    0.0000    constr:    0.0000
     atom:   27    charge:    2.0739    magn:   -0.0000    constr:    0.0000
     atom:   28    charge:    2.0775    magn:   -0.0000    constr:    0.0000
     atom:   29    charge:    2.0776    magn:   -0.0000    constr:    0.0000
     atom:   30    charge:    3.1166    magn:    0.0000    constr:    0.0000
     atom:   31    charge:    2.0708    magn:   -0.0000    constr:    0.0000
     atom:   32    charge:    2.0763    magn:   -0.0000    constr:    0.0000
     atom:   33    charge:    2.0518    magn:    0.0002    constr:    0.0000
     atom:   34    charge:    3.1239    magn:   -0.0000    constr:    0.0000
     atom:   35    charge:    2.0766    magn:   -0.0000    constr:    0.0000
     atom:   36    charge:    2.0746    magn:    0.0000    constr:    0.0000
     atom:   37    charge:    2.0746    magn:    0.0000    constr:    0.0000
     atom:   38    charge:    3.1196    magn:    0.0000    constr:    0.0000
     atom:   39    charge:    2.0805    magn:   -0.0000    constr:    0.0000
     atom:   40    charge:    2.0686    magn:   -0.0000    constr:    0.0000
     atom:   41    charge:    2.0769    magn:   -0.0000    constr:    0.0000
     atom:   42    charge:    3.1141    magn:    0.0000    constr:    0.0000
     atom:   43    charge:    2.0724    magn:   -0.0000    constr:    0.0000
     atom:   44    charge:    2.0774    magn:   -0.0000    constr:    0.0000
     atom:   45    charge:    2.0782    magn:   -0.0000    constr:    0.0000
     atom:   46    charge:    3.1165    magn:    0.0000    constr:    0.0000
     atom:   47    charge:    2.0694    magn:   -0.0000    constr:    0.0000
     atom:   48    charge:    2.0767    magn:   -0.0000    constr:    0.0000
     atom:   49    charge:    0.6579    magn:   -0.0000    constr:    0.0000
     atom:   50    charge:    2.0883    magn:   -0.0000    constr:    0.0000
     atom:   51    charge:    0.4276    magn:    0.0000    constr:    0.0000
     atom:   52    charge:    0.4012    magn:    0.0000    constr:    0.0000
     atom:   53    charge:    0.4294    magn:    0.0000    constr:    0.0000
     atom:   54    charge:    0.4296    magn:    0.0000    constr:    0.0000

     total cpu time spent up to now is     2003.3 secs

     total energy              =   -3021.41882190 Ry
     Harris-Foulkes estimate   =   -3021.41882197 Ry
     estimated scf accuracy    <       0.00000357 Ry

     total magnetization       =     0.00 Bohr mag/cell
     absolute magnetization    =     0.00 Bohr mag/cell

     iteration #  7     ecut=    40.42 Ry     beta=0.10
     Davidson diagonalization with overlap
     ethr =  8.98E-10,  avg # of iterations =  3.0

     negative rho (up, down):  1.209E-02 1.209E-02
 
     Magnetic moment per site:
     atom:    1    charge:    3.1250    magn:   -0.0001    constr:    0.0000
     atom:    2    charge:    2.0787    magn:    0.0000    constr:    0.0000
     atom:    3    charge:    3.1198    magn:    0.0000    constr:    0.0000
     atom:    4    charge:    2.0768    magn:   -0.0000    constr:    0.0000
     atom:    5    charge:    3.1166    magn:    0.0000    constr:    0.0000
     atom:    6    charge:    2.0771    magn:   -0.0000    constr:    0.0000
     atom:    7    charge:    3.1157    magn:    0.0000    constr:    0.0000
     atom:    8    charge:    2.0737    magn:   -0.0000    constr:    0.0000
     atom:    9    charge:    3.1250    magn:   -0.0001    constr:    0.0000
     atom:   10    charge:    2.0788    magn:    0.0000    constr:    0.0000
     atom:   11    charge:    3.1197    magn:    0.0000    constr:    0.0000
     atom:   12    charge:    2.0768    magn:   -0.0000    constr:    0.0000
     atom:   13    charge:    3.1158    magn:    0.0000    constr:    0.0000
     atom:   14    charge:    2.0850    magn:   -0.0000    constr:    0.0000
     atom:   15    charge:    3.1188    magn:    0.0000    constr:    0.0000
     atom:   16    charge:    2.0731    magn:   -0.0000    constr:    0.0000
     atom:   17    charge:    2.0518    magn:    0.0001    constr:    0.0000
     atom:   18    charge:    3.1239    magn:   -0.0000    constr:    0.0000
     atom:   19    charge:    2.0766    magn:   -0.0000    constr:    0.0000
     atom:   20    charge:    2.0746    magn:    0.0000    constr:    0.0000
     atom:   21    charge:    2.0746    magn:    0.0000    constr:    0.0000
     atom:   22    charge:    3.1196    magn:    0.0000    constr:    0.0000
     atom:   23    charge:    2.0824    magn:   -0.0000    constr:    0.0000
     atom:   24    charge:    2.0682    magn:   -0.0000    constr:    0.0000
     atom:   25    charge:    2.0770    magn:   -0.0000    constr:    0.0000
     atom:   26    charge:    3.1145    magn:    0.0000    constr:    0.0000
     atom:   27    charge:    2.0739    magn:   -0.0000    constr:    0.0000
     atom:   28    charge:    2.0775    magn:   -0.0000    constr:    0.0000
     atom:   29    charge:    2.0776    magn:   -0.0000    constr:    0.0000
     atom:   30    charge:    3.1167    magn:    0.0000    constr:    0.0000
     atom:   31    charge:    2.0709    magn:   -0.0000    constr:    0.0000
     atom:   32    charge:    2.0763    magn:   -0.0000    constr:    0.0000
     atom:   33    charge:    2.0518    magn:    0.0001    constr:    0.0000
     atom:   34    charge:    3.1239    magn:   -0.0000    constr:    0.0000
     atom:   35    charge:    2.0766    magn:   -0.0000    constr:    0.0000
     atom:   36    charge:    2.0746    magn:    0.0000    constr:    0.0000
     atom:   37    charge:    2.0746    magn:    0.0000    constr:    0.0000
     atom:   38    charge:    3.1196    magn:    0.0000    constr:    0.0000
     atom:   39    charge:    2.0805    magn:   -0.0000    constr:    0.0000
     atom:   40    charge:    2.0686    magn:   -0.0000    constr:    0.0000
     atom:   41    charge:    2.0769    magn:   -0.0000    constr:    0.0000
     atom:   42    charge:    3.1141    magn:    0.0000    constr:    0.0000
     atom:   43    charge:    2.0725    magn:   -0.0000    constr:    0.0000
     atom:   44    charge:    2.0774    magn:   -0.0000    constr:    0.0000
     atom:   45    charge:    2.0782    magn:   -0.0000    constr:    0.0000
     atom:   46    charge:    3.1165    magn:    0.0000    constr:    0.0000
     atom:   47    charge:    2.0694    magn:   -0.0000    constr:    0.0000
     atom:   48    charge:    2.0768    magn:   -0.0000    constr:    0.0000
     atom:   49    charge:    0.6580    magn:   -0.0000    constr:    0.0000
     atom:   50    charge:    2.0884    magn:   -0.0000    constr:    0.0000
     atom:   51    charge:    0.4276    magn:    0.0000    constr:    0.0000
     atom:   52    charge:    0.4012    magn:    0.0000    constr:    0.0000
     atom:   53    charge:    0.4294    magn:    0.0000    constr:    0.0000
     atom:   54    charge:    0.4296    magn:    0.0000    constr:    0.0000

     total cpu time spent up to now is     2207.0 secs

     total energy              =   -3021.41882207 Ry
     Harris-Foulkes estimate   =   -3021.41882206 Ry
     estimated scf accuracy    <       0.00000153 Ry

     total magnetization       =     0.00 Bohr mag/cell
     absolute magnetization    =     0.00 Bohr mag/cell

     iteration #  8     ecut=    40.42 Ry     beta=0.10
     Davidson diagonalization with overlap
     ethr =  3.85E-10,  avg # of iterations =  3.0

     negative rho (up, down):  1.209E-02 1.209E-02
 
     Magnetic moment per site:
     atom:    1    charge:    3.1250    magn:   -0.0000    constr:    0.0000
     atom:    2    charge:    2.0787    magn:    0.0000    constr:    0.0000
     atom:    3    charge:    3.1198    magn:    0.0000    constr:    0.0000
     atom:    4    charge:    2.0768    magn:   -0.0000    constr:    0.0000
     atom:    5    charge:    3.1166    magn:    0.0000    constr:    0.0000
     atom:    6    charge:    2.0770    magn:   -0.0000    constr:    0.0000
     atom:    7    charge:    3.1157    magn:    0.0000    constr:    0.0000
     atom:    8    charge:    2.0737    magn:   -0.0000    constr:    0.0000
     atom:    9    charge:    3.1250    magn:   -0.0000    constr:    0.0000
     atom:   10    charge:    2.0788    magn:    0.0000    constr:    0.0000
     atom:   11    charge:    3.1197    magn:    0.0000    constr:    0.0000
     atom:   12    charge:    2.0768    magn:   -0.0000    constr:    0.0000
     atom:   13    charge:    3.1158    magn:    0.0000    constr:    0.0000
     atom:   14    charge:    2.0850    magn:   -0.0000    constr:    0.0000
     atom:   15    charge:    3.1188    magn:    0.0000    constr:    0.0000
     atom:   16    charge:    2.0732    magn:   -0.0000    constr:    0.0000
     atom:   17    charge:    2.0518    magn:    0.0001    constr:    0.0000
     atom:   18    charge:    3.1239    magn:   -0.0000    constr:    0.0000
     atom:   19    charge:    2.0766    magn:   -0.0000    constr:    0.0000
     atom:   20    charge:    2.0746    magn:    0.0000    constr:    0.0000
     atom:   21    charge:    2.0746    magn:    0.0000    constr:    0.0000
     atom:   22    charge:    3.1196    magn:    0.0000    constr:    0.0000
     atom:   23    charge:    2.0824    magn:   -0.0000    constr:    0.0000
     atom:   24    charge:    2.0682    magn:   -0.0000    constr:    0.0000
     atom:   25    charge:    2.0770    magn:   -0.0000    constr:    0.0000
     atom:   26    charge:    3.1145    magn:    0.0000    constr:    0.0000
     atom:   27    charge:    2.0739    magn:   -0.0000    constr:    0.0000
     atom:   28    charge:    2.0775    magn:   -0.0000    constr:    0.0000
     atom:   29    charge:    2.0776    magn:   -0.0000    constr:    0.0000
     atom:   30    charge:    3.1166    magn:    0.0000    constr:    0.0000
     atom:   31    charge:    2.0709    magn:   -0.0000    constr:    0.0000
     atom:   32    charge:    2.0764    magn:   -0.0000    constr:    0.0000
     atom:   33    charge:    2.0518    magn:    0.0001    constr:    0.0000
     atom:   34    charge:    3.1239    magn:   -0.0000    constr:    0.0000
     atom:   35    charge:    2.0766    magn:   -0.0000    constr:    0.0000
     atom:   36    charge:    2.0746    magn:    0.0000    constr:    0.0000
     atom:   37    charge:    2.0746    magn:    0.0000    constr:    0.0000
     atom:   38    charge:    3.1196    magn:    0.0000    constr:    0.0000
     atom:   39    charge:    2.0805    magn:   -0.0000    constr:    0.0000
     atom:   40    charge:    2.0686    magn:   -0.0000    constr:    0.0000
     atom:   41    charge:    2.0769    magn:   -0.0000    constr:    0.0000
     atom:   42    charge:    3.1141    magn:    0.0000    constr:    0.0000
     atom:   43    charge:    2.0724    magn:   -0.0000    constr:    0.0000
     atom:   44    charge:    2.0774    magn:   -0.0000    constr:    0.0000
     atom:   45    charge:    2.0782    magn:   -0.0000    constr:    0.0000
     atom:   46    charge:    3.1165    magn:    0.0000    constr:    0.0000
     atom:   47    charge:    2.0694    magn:   -0.0000    constr:    0.0000
     atom:   48    charge:    2.0768    magn:   -0.0000    constr:    0.0000
     atom:   49    charge:    0.6580    magn:   -0.0000    constr:    0.0000
     atom:   50    charge:    2.0884    magn:   -0.0000    constr:    0.0000
     atom:   51    charge:    0.4276    magn:    0.0000    constr:    0.0000
     atom:   52    charge:    0.4012    magn:    0.0000    constr:    0.0000
     atom:   53    charge:    0.4294    magn:    0.0000    constr:    0.0000
     atom:   54    charge:    0.4296    magn:    0.0000    constr:    0.0000

     total cpu time spent up to now is     2412.8 secs

     End of self-consistent calculation

 ------ SPIN UP ------------


          k = 0.0000 0.0000 0.0000 ( 34665 PWs)   bands (ev):

   -57.7018 -57.6669 -57.3212 -57.2849 -57.2343 -57.1131 -57.0768 -57.0759
   -57.0535 -57.0412 -56.9944 -56.9589 -56.7376 -56.7001 -56.1523 -56.1171
   -34.1379 -33.9841 -33.9556 -33.9028 -33.8734 -33.8085 -33.7481 -33.6555
   -33.6217 -33.6086 -33.5712 -33.5443 -33.5227 -33.5112 -33.4933 -33.4868
   -33.4668 -33.4577 -33.4337 -33.4022 -33.3276 -33.2954 -33.2752 -33.2659
   -33.2585 -33.2576 -33.2501 -33.2466 -33.2405 -33.2331 -33.2317 -33.2159
   -33.1846 -33.1844 -33.1782 -33.1454 -33.1225 -33.0036 -32.9850 -32.9640
   -32.9151 -32.8127 -32.5701 -32.5047 -32.4786 -32.3743 -32.2827 -32.1744
   -20.1337 -18.0159 -17.8445 -17.5601 -17.4650 -17.3764 -17.2551 -17.0810
   -17.0694 -16.9778 -16.9421 -16.8873 -16.7877 -16.7814 -16.7321 -16.7108
   -16.7093 -16.6664 -16.6142 -16.6074 -16.5394 -16.4195 -16.4084 -16.4014
   -16.3243 -16.2712 -16.1989 -16.1714 -16.1536 -15.9891 -15.9357 -14.7367
   -14.6530 -11.3871  -7.1419  -5.4614  -5.3959  -5.3025  -5.2084  -5.1791
    -5.1487  -5.1288  -4.8426  -4.8195  -4.4754  -4.4463  -4.3627  -4.3589
    -4.3250  -4.2356  -4.0934  -4.0668  -4.0605  -4.0210  -4.0026  -3.9945
    -3.9637  -3.9549  -3.9539  -3.8433  -3.7912  -3.7689  -3.7386  -3.7208
    -3.6363  -3.6208  -3.5900  -3.5811  -3.5233  -3.5110  -3.4121  -3.3962
    -3.3692  -3.2687  -3.2365  -3.1846  -3.0170  -2.9408  -2.8819  -2.8307
    -2.6965  -2.6106  -2.5933  -2.5832  -2.5813  -2.5723  -2.4374  -2.4178
    -2.3393  -2.2723  -2.2508  -2.2083  -2.2042  -2.1667  -2.1420  -2.0965
    -2.0512  -2.0316  -2.0237  -1.8878  -1.8684  -1.7603  -1.7395  -1.6273
    -1.5464  -1.5436  -1.4929  -1.4839  -1.4661  -1.4268  -1.3325  -1.3128
    -1.3049  -1.2833  -1.2465  -1.1391  -1.0904  -1.0718  -1.0679  -1.0271
    -0.9581  -0.9197  -0.8145  -0.7628  -0.6140  -0.5910  -0.5721  -0.4844
    -0.3801  -0.2450  -0.0877  -0.0300   0.1284   0.2453   0.2589   1.6396
     1.6720   1.9823   1.9990   2.0619   2.0923   2.2016   2.2409   2.2832
     2.4265   2.4939   2.5224   2.5277   2.5386   2.6276   2.6461   2.6542
     2.7118   2.7959   2.8218   2.8349   2.9065   2.9964   3.0290   3.0964
     3.1022   3.1110   3.1578   3.1986   3.2046   3.2236   3.2362   3.2471
     3.2576   3.2857   3.3898   3.4287   3.4525   3.4620   3.5254   3.5823
     3.6482   3.6914   3.8037   3.9791   4.0126   4.0857   4.1770   4.3132
     4.3340   4.3888   4.5839   4.5965   4.8089   4.8338   5.0834   5.1630
     5.2417   5.3277   5.4773   5.5141   5.5249   5.5884   5.6742   5.7085
     5.7965   5.8605   5.8721   5.8814   5.9513   6.0332   6.0451   6.0702
     6.1416   6.2256   6.2405   6.2931   6.3749   6.5760   6.6314   6.7520
     6.8338   6.9899   7.0325   7.1578   7.2995   7.5812   7.9112   8.2516
     8.3398   8.6648   8.7922   8.8651   8.9388   8.9942   9.1809   9.2613
     9.3503   9.3801   9.4965

          k = 0.0000 0.0280 0.0000 ( 34717 PWs)   bands (ev):

   -57.6995 -57.6692 -57.3188 -57.2873 -57.2339 -57.1108 -57.0788 -57.0738
   -57.0539 -57.0435 -56.9920 -56.9613 -56.7352 -56.7026 -56.1500 -56.1194
   -34.1126 -33.9821 -33.9574 -33.8967 -33.8475 -33.8150 -33.7751 -33.6328
   -33.6148 -33.5836 -33.5458 -33.5413 -33.5240 -33.5044 -33.4947 -33.4883
   -33.4741 -33.4640 -33.4317 -33.3953 -33.3215 -33.2936 -33.2889 -33.2674
   -33.2618 -33.2550 -33.2545 -33.2430 -33.2414 -33.2397 -33.2393 -33.2247
   -33.2061 -33.1894 -33.1815 -33.1491 -33.1462 -32.9997 -32.9836 -32.9653
   -32.9202 -32.8407 -32.5445 -32.5030 -32.4804 -32.3682 -32.2890 -32.2018
   -20.1335 -17.9542 -17.7869 -17.5071 -17.4128 -17.3327 -17.2285 -17.0948
   -17.0391 -17.0015 -16.9962 -16.8891 -16.8229 -16.7652 -16.7102 -16.6932
   -16.6795 -16.6697 -16.6608 -16.6449 -16.5984 -16.4433 -16.3896 -16.3714
   -16.3509 -16.3007 -16.2159 -16.1786 -16.1569 -16.0203 -15.9724 -14.7468
   -14.6764 -11.3867  -7.1415  -5.4167  -5.3158  -5.2486  -5.1832  -5.1340
    -5.0717  -5.0498  -4.7671  -4.7057  -4.4391  -4.4036  -4.3973  -4.3154
    -4.3046  -4.1631  -4.1278  -4.1170  -4.0949  -4.0739  -4.0377  -4.0353
    -3.9690  -3.9647  -3.9532  -3.8944  -3.8566  -3.8497  -3.8402  -3.7692
    -3.7246  -3.7086  -3.6689  -3.6194  -3.5788  -3.5598  -3.4328  -3.3585
    -3.3078  -3.2413  -3.1930  -3.1065  -2.9377  -2.8761  -2.7438  -2.7280
    -2.6168  -2.6024  -2.5278  -2.5138  -2.4819  -2.4453  -2.4155  -2.4106
    -2.3898  -2.3647  -2.2915  -2.2801  -2.1718  -2.1461  -2.1399  -2.0990
    -2.0255  -1.9996  -1.9573  -1.8795  -1.8139  -1.7666  -1.7104  -1.6851
    -1.6462  -1.6285  -1.5674  -1.5292  -1.4857  -1.4418  -1.4393  -1.3996
    -1.3610  -1.2747  -1.2219  -1.2165  -1.1610  -1.0913  -1.0653  -1.0256
    -1.0111  -0.9082  -0.8604  -0.7943  -0.7609  -0.7102  -0.6119  -0.5959
    -0.3984  -0.2732  -0.0945  -0.0843   0.1433   0.1989   0.2255   1.7259
     1.7719   1.9828   2.0617   2.1274   2.1482   2.2154   2.2708   2.3094
     2.4209   2.4580   2.4960   2.5316   2.5824   2.6000   2.6271   2.6886
     2.7289   2.7670   2.7929   2.9080   2.9185   2.9475   2.9714   3.0068
     3.1082   3.1129   3.1313   3.1717   3.1892   3.2011   3.2545   3.3004
     3.3322   3.3674   3.4030   3.4695   3.5016   3.5486   3.5567   3.6459
     3.6608   3.6805   3.7673   3.9547   4.0287   4.1125   4.1883   4.2816
     4.3202   4.3899   4.5379   4.6863   4.8631   4.9204   5.0866   5.2550
     5.2997   5.3322   5.5340   5.5656   5.5990   5.6216   5.6823   5.7164
     5.7810   5.7893   5.8473   5.8733   5.8930   5.9448   6.0655   6.1186
     6.1464   6.1541   6.1722   6.2029   6.2719   6.5517   6.5969   6.6902
     6.8407   6.9361   6.9650   7.0829   7.2285   7.5849   7.9229   8.0165
     8.0582   8.4540   8.5623   8.8335   8.9002   8.9978   9.0813   9.1370
     9.2717   9.4381   9.5008

          k = 0.0000 0.0560 0.0000 ( 34721 PWs)   bands (ev):

   -57.6931 -57.6757 -57.3123 -57.2939 -57.2330 -57.1048 -57.0849 -57.0674
   -57.0548 -57.0499 -56.9855 -56.9678 -56.7286 -56.7092 -56.1436 -56.1259
   -34.0428 -33.9768 -33.9624 -33.8796 -33.8481 -33.8325 -33.7764 -33.5993
   -33.5754 -33.5749 -33.5380 -33.5309 -33.5097 -33.5076 -33.4783 -33.4757
   -33.4583 -33.4289 -33.4231 -33.3758 -33.3187 -33.3164 -33.3162 -33.3050
   -33.2893 -33.2797 -33.2711 -33.2665 -33.2569 -33.2506 -33.2376 -33.2355
   -33.2144 -33.2025 -33.1750 -33.1703 -33.1329 -32.9948 -32.9801 -32.9686
   -32.9331 -32.9103 -32.4982 -32.4852 -32.4738 -32.3517 -32.3058 -32.2760
   -20.1332 -17.7830 -17.6282 -17.3758 -17.2792 -17.2635 -17.2224 -17.1701
   -17.1396 -16.9658 -16.9563 -16.9220 -16.8772 -16.8228 -16.7917 -16.7286
   -16.7194 -16.6879 -16.6280 -16.6003 -16.5462 -16.5087 -16.4257 -16.3814
   -16.3669 -16.3053 -16.2450 -16.1995 -16.1607 -16.1210 -16.0459 -14.7649
   -14.7270 -11.3859  -7.1406  -5.3749  -5.1938  -5.0792  -5.0401  -4.9281
    -4.8618  -4.8273  -4.5654  -4.5086  -4.4764  -4.4208  -4.4126  -4.3701
    -4.3350  -4.2632  -4.2382  -4.2152  -4.1995  -4.1903  -4.1589  -4.0786
    -4.0612  -4.0110  -3.9906  -3.9726  -3.9339  -3.8940  -3.8578  -3.8218
    -3.8008  -3.7349  -3.6390  -3.5892  -3.4364  -3.4301  -3.3209  -3.2712
    -3.2416  -3.2169  -3.1957  -3.0849  -2.8900  -2.8473  -2.8400  -2.8017
    -2.7251  -2.6713  -2.5506  -2.4764  -2.4459  -2.3252  -2.3198  -2.3147
    -2.3067  -2.2534  -2.2107  -2.1830  -2.1510  -2.1206  -2.0354  -2.0139
    -1.9639  -1.9508  -1.9221  -1.9083  -1.8864  -1.8518  -1.8206  -1.7859
    -1.7484  -1.6960  -1.6286  -1.5457  -1.5311  -1.5134  -1.4603  -1.4234
    -1.3853  -1.3685  -1.3548  -1.2940  -1.2440  -1.2212  -1.1577  -1.1022
    -1.0731  -1.0273  -0.9226  -0.8861  -0.8551  -0.7879  -0.7670  -0.6633
    -0.5906  -0.4669  -0.2458   0.0882   0.1404   0.1755   0.1822   1.8615
     2.0215   2.0944   2.1060   2.2065   2.2310   2.2660   2.3628   2.3856
     2.3927   2.4075   2.4304   2.4726   2.5001   2.5350   2.6706   2.6917
     2.7305   2.7718   2.8267   2.8998   2.9117   2.9337   2.9681   2.9685
     3.0104   3.0944   3.1338   3.1532   3.2460   3.2578   3.2824   3.3258
     3.3646   3.3826   3.4369   3.5336   3.5398   3.6312   3.6718   3.7207
     3.7543   3.8193   3.8530   3.8866   3.9262   4.1263   4.1378   4.1552
     4.3254   4.3723   4.5583   4.9016   5.0119   5.0609   5.1681   5.3751
     5.3785   5.4740   5.5142   5.5455   5.6446   5.7184   5.7209   5.7290
     5.7756   5.7837   5.7960   5.8522   5.8802   5.9451   5.9712   5.9835
     5.9971   6.0511   6.1520   6.1673   6.2996   6.3683   6.4023   6.6128
     6.6553   6.7779   6.8598   7.0381   7.2038   7.3329   7.4451   7.7312
     8.0847   8.2086   8.3448   8.6187   8.8886   8.9888   9.2986   9.3245
     9.4117   9.4413   9.5673

          k = 0.0000-0.0840 0.0000 ( 34678 PWs)   bands (ev):

   -57.6845 -57.6843 -57.3048 -57.3014 -57.2326 -57.0993 -57.0904 -57.0587
   -57.0587 -57.0553 -56.9771 -56.9762 -56.7217 -56.7161 -56.1348 -56.1347
   -33.9697 -33.9695 -33.9462 -33.9461 -33.8562 -33.8560 -33.6896 -33.6656
   -33.5694 -33.5657 -33.5306 -33.5216 -33.5173 -33.4784 -33.4554 -33.4267
   -33.4173 -33.4109 -33.3787 -33.3784 -33.3653 -33.3505 -33.3446 -33.3284
   -33.3271 -33.2882 -33.2815 -33.2794 -33.2725 -33.2700 -33.2361 -33.2343
   -33.2198 -33.2180 -33.1680 -33.1673 -33.0562 -33.0360 -32.9771 -32.9713
   -32.9473 -32.9437 -32.4917 -32.4916 -32.3758 -32.3758 -32.3287 -32.3287
   -20.1330 -17.5723 -17.5089 -17.4135 -17.3932 -17.2326 -17.1784 -17.0694
   -17.0650 -17.0193 -17.0066 -16.9931 -16.8752 -16.8427 -16.8427 -16.8043
   -16.7977 -16.6002 -16.5982 -16.5286 -16.5263 -16.4919 -16.4905 -16.4092
   -16.4082 -16.2680 -16.2655 -16.2054 -16.2006 -16.1419 -16.1076 -14.7637
   -14.7636 -11.3855  -7.1401  -5.3651  -5.1996  -4.8030  -4.7364  -4.7353
    -4.6592  -4.6462  -4.6412  -4.6053  -4.5761  -4.5130  -4.5049  -4.4040
    -4.3770  -4.3428  -4.3411  -4.3121  -4.2988  -4.2836  -4.2783  -4.0581
    -4.0373  -4.0279  -4.0139  -3.9958  -3.9443  -3.8136  -3.7978  -3.7901
    -3.7184  -3.6981  -3.6430  -3.5083  -3.4759  -3.3433  -3.3300  -3.2306
    -3.1420  -3.1198  -3.0478  -3.0227  -2.9675  -2.9254  -2.8078  -2.7924
    -2.7014  -2.6969  -2.5816  -2.5430  -2.5177  -2.4985  -2.4788  -2.4507
    -2.4421  -2.4211  -2.3339  -2.2484  -2.0304  -2.0106  -1.9695  -1.9428
    -1.9306  -1.8326  -1.8262  -1.8125  -1.7868  -1.7486  -1.7345  -1.7037
    -1.6687  -1.6441  -1.6169  -1.5626  -1.5191  -1.4912  -1.4846  -1.4570
    -1.4285  -1.4210  -1.4134  -1.3896  -1.3629  -1.3307  -1.2209  -1.1919
    -1.1011  -1.0780  -1.0003  -0.9811  -0.9736  -0.9638  -0.9345  -0.5283
    -0.5224  -0.4604  -0.4468   0.1405   0.1406   0.1832   0.1850   2.0359
     2.0391   2.2152   2.2167   2.2175   2.2335   2.2812   2.3361   2.3440
     2.3441   2.3692   2.3798   2.5242   2.5505   2.5515   2.5974   2.6606
     2.7116   2.7336   2.7465   2.8878   2.9188   2.9863   2.9936   3.0525
     3.0534   3.0980   3.1084   3.1765   3.2150   3.2295   3.2423   3.4002
     3.4224   3.4337   3.4365   3.4690   3.4797   3.7165   3.7609   3.7986
     3.8018   3.8272   3.9053   3.9276   3.9641   4.0704   4.0727   4.1227
     4.1233   4.4164   4.6668   4.9568   4.9969   5.2573   5.3219   5.4537
     5.4852   5.5052   5.5053   5.5747   5.5923   5.6431   5.6609   5.6679
     5.7946   5.7999   5.8223   5.8465   5.8585   5.8632   5.8796   5.9698
     6.0151   6.0553   6.0684   6.1559   6.1903   6.3914   6.4653   6.5584
     6.6024   6.7460   6.7673   6.9673   7.0292   7.0950   7.3295   7.7014
     7.8884   8.1719   8.4143   8.7847   8.8395   8.8659   9.1488   9.5938
     9.7011   9.7404   9.7908

          k = 0.0253 0.0000 0.0000 ( 34707 PWs)   bands (ev):

   -57.7018 -57.6669 -57.3212 -57.2849 -57.2343 -57.1131 -57.0767 -57.0760
   -57.0535 -57.0412 -56.9944 -56.9589 -56.7376 -56.7001 -56.1523 -56.1171
   -34.1383 -33.9841 -33.9556 -33.9021 -33.8735 -33.8086 -33.7481 -33.6562
   -33.6216 -33.6102 -33.5715 -33.5408 -33.5364 -33.5120 -33.4868 -33.4786
   -33.4656 -33.4577 -33.4337 -33.3953 -33.3275 -33.2955 -33.2749 -33.2659
   -33.2625 -33.2614 -33.2478 -33.2455 -33.2447 -33.2331 -33.2318 -33.2157
   -33.1846 -33.1843 -33.1785 -33.1454 -33.1226 -33.0036 -32.9874 -32.9631
   -32.9152 -32.8128 -32.5701 -32.5057 -32.4781 -32.3743 -32.2827 -32.1745
   -20.1335 -17.9861 -17.8045 -17.5177 -17.4362 -17.3597 -17.2617 -17.1475
   -17.0956 -16.9786 -16.9417 -16.8751 -16.8221 -16.8085 -16.7940 -16.7836
   -16.7345 -16.6958 -16.5603 -16.5368 -16.4574 -16.4564 -16.4094 -16.3733
   -16.3420 -16.3158 -16.1877 -16.1690 -16.1549 -15.9889 -15.9354 -14.7355
   -14.6528 -11.3859  -7.1389  -5.4514  -5.2964  -5.2648  -5.1780  -5.1013
    -5.0477  -5.0193  -4.8373  -4.8149  -4.6213  -4.4725  -4.4387  -4.3342
    -4.3147  -4.3048  -4.2507  -4.1027  -4.0415  -4.0370  -3.9998  -3.9479
    -3.9409  -3.9126  -3.8339  -3.8036  -3.7543  -3.7224  -3.6981  -3.6956
    -3.6238  -3.6018  -3.5731  -3.5658  -3.5200  -3.4500  -3.3231  -3.3107
    -3.2572  -3.2320  -3.1781  -3.1098  -3.0384  -2.9801  -2.9253  -2.8991
    -2.7475  -2.6771  -2.6375  -2.6048  -2.5824  -2.5337  -2.5232  -2.5071
    -2.4365  -2.3387  -2.3260  -2.2405  -2.2245  -2.1852  -2.1588  -2.0739
    -2.0125  -2.0017  -1.9663  -1.8846  -1.8500  -1.7563  -1.7439  -1.6539
    -1.5884  -1.5847  -1.5409  -1.4666  -1.4611  -1.3686  -1.3601  -1.3531
    -1.3405  -1.2942  -1.2768  -1.1937  -1.1316  -1.1205  -1.0790  -1.0396
    -0.9733  -0.9189  -0.8322  -0.7803  -0.7767  -0.6549  -0.6474  -0.5537
    -0.4246  -0.2394  -0.1190  -0.0570   0.1143   0.2025   0.2034   1.6589
     1.7220   1.9982   2.0683   2.1454   2.2203   2.2349   2.2667   2.3748
     2.3816   2.4542   2.5011   2.5189   2.5383   2.5750   2.5940   2.6331
     2.6525   2.7304   2.7541   2.8628   2.8796   2.9663   3.0265   3.1013
     3.1181   3.1404   3.1593   3.2000   3.2047   3.2504   3.2665   3.3367
     3.3715   3.3953   3.4470   3.4696   3.5327   3.5564   3.5886   3.5966
     3.6603   3.7262   3.7430   3.9101   3.9982   4.0921   4.1712   4.2709
     4.3711   4.3880   4.5499   4.6730   4.8584   4.9097   4.9224   5.0667
     5.1173   5.1427   5.1846   5.3467   5.5659   5.6187   5.6897   5.8598
     5.8782   5.9216   5.9562   6.0253   6.0763   6.1117   6.1571   6.2057
     6.2156   6.2483   6.2551   6.3047   6.4457   6.5146   6.6382   6.6628
     6.8149   6.8640   7.0312   7.1466   7.2993   7.7376   7.8494   8.0842
     8.3318   8.3573   8.4296   8.6697   8.8432   8.9736   9.1484   9.3466
     9.3610   9.4501   9.4726

          k = 0.0253 0.0280 0.0000 ( 34687 PWs)   bands (ev):

   -57.6995 -57.6692 -57.3188 -57.2873 -57.2339 -57.1108 -57.0788 -57.0739
   -57.0539 -57.0435 -56.9920 -56.9613 -56.7352 -56.7026 -56.1500 -56.1194
   -34.1129 -33.9821 -33.9574 -33.8960 -33.8476 -33.8149 -33.7751 -33.6335
   -33.6149 -33.5852 -33.5461 -33.5380 -33.5254 -33.5198 -33.4950 -33.4749
   -33.4697 -33.4628 -33.4318 -33.3885 -33.3214 -33.2937 -33.2867 -33.2674
   -33.2620 -33.2583 -33.2552 -33.2510 -33.2410 -33.2397 -33.2384 -33.2233
   -33.2062 -33.1895 -33.1815 -33.1490 -33.1462 -32.9998 -32.9857 -32.9646
   -32.9202 -32.8407 -32.5444 -32.5039 -32.4799 -32.3683 -32.2889 -32.2018
   -20.1333 -17.9258 -17.7478 -17.4666 -17.3865 -17.3126 -17.2352 -17.1312
   -17.1011 -17.0093 -16.9663 -16.8622 -16.8332 -16.8086 -16.7871 -16.7734
   -16.7158 -16.7053 -16.6040 -16.5823 -16.5096 -16.4789 -16.3865 -16.3682
   -16.3593 -16.3326 -16.2047 -16.1779 -16.1566 -16.0208 -15.9721 -14.7457
   -14.6764 -11.3855  -7.1384  -5.4177  -5.2372  -5.1842  -5.1819  -5.0249
    -4.9694  -4.9391  -4.7621  -4.7027  -4.5655  -4.4063  -4.3743  -4.3486
    -4.2629  -4.2562  -4.1898  -4.1215  -4.0899  -4.0683  -4.0370  -4.0254
    -3.9794  -3.9458  -3.9159  -3.8706  -3.8254  -3.8130  -3.7873  -3.7226
    -3.6992  -3.6673  -3.6186  -3.6080  -3.5441  -3.5278  -3.3528  -3.2878
    -3.2554  -3.2174  -3.1487  -3.0760  -2.9848  -2.9546  -2.7846  -2.7070
    -2.6827  -2.6392  -2.6129  -2.5382  -2.5072  -2.4574  -2.4515  -2.4237
    -2.4079  -2.3896  -2.3430  -2.3056  -2.2193  -2.1819  -2.1195  -2.1046
    -2.0696  -1.9961  -1.9517  -1.8943  -1.8674  -1.8283  -1.7656  -1.6771
    -1.6480  -1.6200  -1.5923  -1.5654  -1.5121  -1.4679  -1.4432  -1.4032
    -1.3477  -1.3328  -1.2735  -1.2588  -1.2086  -1.1069  -1.0979  -1.0645
    -1.0055  -0.8868  -0.8398  -0.8346  -0.7684  -0.7410  -0.7010  -0.6616
    -0.4356  -0.2842  -0.1375  -0.0885   0.1464   0.1758   0.1859   1.7180
     1.8421   2.0135   2.0959   2.1927   2.2417   2.2788   2.3131   2.3935
     2.4146   2.4637   2.4856   2.5212   2.5299   2.5486   2.5874   2.6707
     2.7021   2.7241   2.7836   2.8033   2.9260   2.9825   3.0067   3.0318
     3.1026   3.1310   3.1427   3.1696   3.2053   3.2386   3.3391   3.3703
     3.4031   3.4324   3.4593   3.5047   3.5491   3.5642   3.6327   3.6581
     3.6702   3.7043   3.7450   3.8902   3.9879   4.1361   4.1826   4.2486
     4.3038   4.4459   4.5057   4.7668   4.9244   4.9507   4.9895   5.0750
     5.1560   5.1721   5.2194   5.3829   5.6391   5.6797   5.7283   5.7743
     5.8477   5.8625   5.8667   6.0039   6.0678   6.0818   6.1155   6.1411
     6.1934   6.2055   6.2132   6.2320   6.4257   6.5203   6.6066   6.6569
     6.7803   6.8610   6.9603   7.1494   7.2240   7.4977   7.9305   8.0253
     8.0917   8.2464   8.4462   8.5769   8.6511   8.7680   8.9440   9.2644
     9.3525   9.4609   9.5097

          k = 0.0253 0.0560 0.0000 ( 34699 PWs)   bands (ev):

   -57.6931 -57.6757 -57.3123 -57.2939 -57.2330 -57.1047 -57.0849 -57.0675
   -57.0548 -57.0500 -56.9855 -56.9678 -56.7286 -56.7092 -56.1436 -56.1259
   -34.0431 -33.9768 -33.9625 -33.8791 -33.8482 -33.8323 -33.7765 -33.5993
   -33.5756 -33.5752 -33.5381 -33.5289 -33.5122 -33.5109 -33.4783 -33.4761
   -33.4573 -33.4290 -33.4177 -33.3704 -33.3192 -33.3170 -33.3118 -33.3048
   -33.2894 -33.2801 -33.2710 -33.2654 -33.2570 -33.2528 -33.2416 -33.2378
   -33.2145 -33.2032 -33.1750 -33.1702 -33.1327 -32.9948 -32.9815 -32.9685
   -32.9332 -32.9102 -32.4988 -32.4849 -32.4737 -32.3517 -32.3059 -32.2759
   -20.1330 -17.7595 -17.5925 -17.3465 -17.2676 -17.2478 -17.1967 -17.1709
   -17.1427 -16.9989 -16.9734 -16.8837 -16.8793 -16.8323 -16.7997 -16.7755
   -16.7512 -16.6741 -16.6258 -16.6095 -16.5826 -16.5344 -16.4301 -16.4157
   -16.3602 -16.2882 -16.2382 -16.1988 -16.1604 -16.1219 -16.0453 -14.7643
   -14.7272 -11.3846  -7.1374  -5.3824  -5.1930  -5.0334  -4.9517  -4.8166
    -4.7601  -4.7176  -4.5616  -4.5013  -4.4936  -4.4168  -4.3971  -4.3426
    -4.2741  -4.2344  -4.2188  -4.1952  -4.1512  -4.1445  -4.1089  -4.0647
    -4.0359  -4.0176  -3.9967  -3.9386  -3.9277  -3.8781  -3.8620  -3.8250
    -3.7772  -3.7187  -3.6581  -3.5747  -3.4757  -3.3949  -3.3189  -3.2837
    -3.2405  -3.2273  -3.1821  -3.0150  -2.9355  -2.8683  -2.8325  -2.7827
    -2.7589  -2.6490  -2.5958  -2.5125  -2.4912  -2.4406  -2.3954  -2.3699
    -2.3462  -2.3276  -2.2916  -2.2669  -2.1931  -2.1439  -2.1310  -2.0424
    -2.0154  -2.0129  -1.9498  -1.9421  -1.9062  -1.8646  -1.8379  -1.8161
    -1.7474  -1.7064  -1.6817  -1.6407  -1.5756  -1.5412  -1.4979  -1.4789
    -1.4342  -1.3784  -1.3427  -1.3041  -1.2276  -1.2093  -1.1277  -1.1086
    -1.0530  -1.0125  -0.9164  -0.8705  -0.8255  -0.8017  -0.7470  -0.6838
    -0.6101  -0.4686  -0.2595   0.0891   0.1257   0.1528   0.1854   1.8588
     2.0451   2.1294   2.1760   2.2284   2.2684   2.3028   2.3440   2.3818
     2.4227   2.4588   2.4775   2.5049   2.5174   2.5803   2.6903   2.7181
     2.7355   2.7733   2.8203   2.8365   2.9001   2.9480   2.9708   2.9825
     3.0236   3.0303   3.1529   3.2038   3.2821   3.3261   3.3368   3.3796
     3.4039   3.4355   3.4572   3.5367   3.5564   3.6261   3.6519   3.7279
     3.7873   3.8147   3.8580   3.8956   3.9013   4.0675   4.1138   4.1625
     4.3401   4.3828   4.6093   4.9603   5.0083   5.1251   5.1369   5.1544
     5.2584   5.2847   5.3093   5.4333   5.5064   5.5583   5.6330   5.7546
     5.8170   5.8461   5.8878   5.9302   5.9580   5.9977   6.0436   6.0577
     6.1311   6.1525   6.2178   6.3233   6.3759   6.3961   6.4762   6.6396
     6.6874   6.7936   6.8381   7.0331   7.1519   7.3619   7.4859   7.5856
     7.9761   8.1776   8.3500   8.5228   8.6499   8.8516   9.0448   9.1117
     9.1753   9.4858   9.6117

          k = 0.0253-0.0840 0.0000 ( 34722 PWs)   bands (ev):

   -57.6845 -57.6843 -57.3048 -57.3014 -57.2326 -57.0993 -57.0904 -57.0588
   -57.0587 -57.0552 -56.9771 -56.9762 -56.7217 -56.7161 -56.1348 -56.1347
   -33.9697 -33.9695 -33.9465 -33.9464 -33.8558 -33.8557 -33.6897 -33.6657
   -33.5694 -33.5658 -33.5312 -33.5214 -33.5171 -33.4784 -33.4545 -33.4269
   -33.4194 -33.4133 -33.3796 -33.3794 -33.3660 -33.3436 -33.3377 -33.3269
   -33.3256 -33.2880 -33.2813 -33.2796 -33.2727 -33.2686 -33.2396 -33.2382
   -33.2214 -33.2197 -33.1680 -33.1673 -33.0561 -33.0360 -32.9777 -32.9721
   -32.9472 -32.9437 -32.4919 -32.4919 -32.3758 -32.3758 -32.3288 -32.3287
   -20.1328 -17.5590 -17.4907 -17.3853 -17.3668 -17.2165 -17.1573 -17.0626
   -17.0530 -17.0073 -16.9831 -16.9789 -16.8920 -16.8823 -16.8722 -16.7890
   -16.7837 -16.6384 -16.6327 -16.5714 -16.5679 -16.5257 -16.5243 -16.3929
   -16.3923 -16.2595 -16.2568 -16.2034 -16.1990 -16.1425 -16.1069 -14.7636
   -14.7635 -11.3842  -7.1369  -5.3727  -5.1990  -4.8031  -4.6482  -4.6385
    -4.6270  -4.5520  -4.5511  -4.5348  -4.5280  -4.4216  -4.4120  -4.3730
    -4.3501  -4.3198  -4.3015  -4.2882  -4.2665  -4.2347  -4.2310  -4.0465
    -4.0427  -4.0179  -3.9867  -3.9678  -3.9223  -3.8521  -3.8456  -3.8196
    -3.7414  -3.6640  -3.6428  -3.4177  -3.4033  -3.3509  -3.3224  -3.2202
    -3.1226  -3.0982  -3.0635  -3.0539  -3.0135  -2.9658  -2.9220  -2.8974
    -2.8122  -2.8081  -2.6270  -2.6061  -2.5817  -2.5620  -2.5334  -2.4681
    -2.4381  -2.3462  -2.3186  -2.2773  -2.1234  -2.0769  -2.0585  -2.0138
    -1.9263  -1.9238  -1.8813  -1.8703  -1.8593  -1.8201  -1.8092  -1.7991
    -1.7704  -1.7327  -1.6889  -1.6589  -1.6240  -1.6106  -1.5978  -1.4798
    -1.4044  -1.3919  -1.2811  -1.2658  -1.2449  -1.2318  -1.1849  -1.1351
    -1.0794  -1.0542  -1.0470  -1.0173  -0.9472  -0.8938  -0.8793  -0.5413
    -0.5320  -0.4607  -0.4487   0.1143   0.1144   0.1938   0.1954   2.0476
     2.0499   2.2144   2.2303   2.2334   2.2370   2.2748   2.3129   2.4206
     2.4227   2.4374   2.4395   2.5547   2.5562   2.5748   2.6518   2.7181
     2.7526   2.8169   2.8257   2.8764   2.8957   2.9345   2.9446   3.0220
     3.0360   3.0819   3.1110   3.2175   3.2656   3.2864   3.3034   3.4191
     3.4245   3.4489   3.4659   3.4904   3.5181   3.7070   3.7355   3.8020
     3.8212   3.8331   3.8820   3.9098   3.9165   4.0780   4.0806   4.1142
     4.1146   4.4717   4.7080   4.9812   5.0203   5.2666   5.2977   5.3070
     5.3221   5.3570   5.3804   5.4234   5.4734   5.5055   5.5482   5.6287
     5.6454   5.7601   5.8306   5.8728   5.8881   6.0117   6.0727   6.0846
     6.1274   6.1824   6.2144   6.2783   6.2969   6.4531   6.5185   6.5885
     6.6356   6.7776   6.7962   6.9836   7.0321   7.1177   7.3870   7.5872
     7.7470   8.0069   8.2795   8.7245   8.7442   8.9711   8.9912   9.2866
     9.3486   9.4341   9.5446

          k = 0.0506 0.0000 0.0000 ( 34729 PWs)   bands (ev):

   -57.7018 -57.6669 -57.3212 -57.2849 -57.2343 -57.1129 -57.0766 -57.0762
   -57.0535 -57.0412 -56.9944 -56.9589 -56.7376 -56.7001 -56.1523 -56.1171
   -34.1389 -33.9840 -33.9556 -33.9008 -33.8737 -33.8086 -33.7482 -33.6577
   -33.6216 -33.6135 -33.5720 -33.5532 -33.5329 -33.5122 -33.4867 -33.4630
   -33.4622 -33.4570 -33.4338 -33.3786 -33.3272 -33.2957 -33.2743 -33.2711
   -33.2659 -33.2650 -33.2650 -33.2409 -33.2397 -33.2331 -33.2319 -33.2152
   -33.1845 -33.1840 -33.1792 -33.1454 -33.1227 -33.0036 -32.9925 -32.9613
   -32.9152 -32.8129 -32.5699 -32.5079 -32.4769 -32.3743 -32.2828 -32.1745
   -20.1330 -17.9200 -17.7097 -17.4193 -17.3937 -17.2860 -17.2691 -17.2403
   -17.1433 -16.9816 -16.9715 -16.9409 -16.8985 -16.8886 -16.8738 -16.8489
   -16.7542 -16.7040 -16.5405 -16.4585 -16.4528 -16.4140 -16.4106 -16.3625
   -16.3575 -16.3308 -16.1802 -16.1637 -16.1574 -15.9891 -15.9350 -14.7333
   -14.6525 -11.3834  -7.1327  -5.4558  -5.2847  -5.1761  -4.9830  -4.9172
    -4.8052  -4.8015  -4.7750  -4.7514  -4.7174  -4.6362  -4.5284  -4.4682
    -4.4213  -4.2515  -4.1364  -4.0429  -4.0297  -4.0231  -3.9775  -3.9334
    -3.9150  -3.8321  -3.7915  -3.7652  -3.7559  -3.6624  -3.6400  -3.6164
    -3.5597  -3.5574  -3.5447  -3.5286  -3.5034  -3.2856  -3.2770  -3.2658
    -3.2416  -3.2073  -3.1595  -3.1138  -2.9981  -2.9455  -2.8849  -2.8546
    -2.8293  -2.7813  -2.7575  -2.6821  -2.6284  -2.6157  -2.5802  -2.5505
    -2.4666  -2.4630  -2.4306  -2.3687  -2.3170  -2.2095  -2.2018  -2.1217
    -2.0905  -1.9949  -1.9422  -1.9350  -1.8442  -1.8215  -1.8055  -1.7175
    -1.6384  -1.5771  -1.5614  -1.5585  -1.4898  -1.4817  -1.4498  -1.4039
    -1.3540  -1.3357  -1.3119  -1.2166  -1.1214  -1.1092  -1.0907  -1.0653
    -0.9819  -0.9568  -0.8928  -0.8180  -0.8084  -0.7954  -0.7611  -0.5354
    -0.5273  -0.2714  -0.2266  -0.0502   0.0899   0.1160   0.1344   1.6389
     1.8153   1.9972   2.0934   2.0974   2.1757   2.1937   2.2774   2.2902
     2.4501   2.4541   2.4678   2.5558   2.5598   2.5818   2.6229   2.6750
     2.7039   2.8190   2.8667   2.8699   2.8953   2.9198   3.0794   3.1049
     3.1444   3.1603   3.1972   3.1977   3.2835   3.2845   3.3280   3.4012
     3.4325   3.4439   3.4955   3.5496   3.5734   3.5827   3.6967   3.7075
     3.7557   3.7589   3.7954   3.8897   3.9200   4.0784   4.1543   4.2058
     4.3443   4.4621   4.5661   4.6474   4.7647   4.7942   4.8568   4.8904
[...]
    -1.3002  -1.2727  -1.2379  -1.1931  -1.1419  -1.0351  -1.0233  -1.0149
    -0.9913  -0.9520  -0.9103  -0.8415  -0.7596  -0.7054  -0.6452  -0.5971
    -0.5930  -0.5383  -0.5193   0.0634   0.0634   0.2081   0.2098   2.1505
     2.1513   2.1979   2.1998   2.2350   2.2362   2.2633   2.2947   2.4848
     2.4904   2.5219   2.5513   2.6056   2.6133   2.6763   2.6783   2.6874
     2.6887   2.8408   2.9066   2.9796   2.9945   3.0304   3.0381   3.0960
     3.2162   3.2460   3.2689   3.3295   3.3699   3.3854   3.4416   3.4889
     3.4965   3.5185   3.5452   3.5769   3.5998   3.6755   3.6928   3.7399
     3.8296   3.8852   3.9021   3.9499   3.9503   4.0933   4.1001   4.1088
     4.1093   4.6122   4.7795   4.7842   4.7965   4.8671   4.9170   4.9222
     4.9382   4.9810   5.0224   5.2458   5.3344   5.3542   5.3627   5.6950
     5.7972   5.9063   5.9235   5.9723   6.0404   6.1534   6.2934   6.3454
     6.3618   6.3710   6.4061   6.5726   6.6252   6.6622   6.6623   6.6985
     6.7618   6.8424   6.8433   6.8495   6.8504   7.3650   7.3963   7.5272
     7.6660   7.8292   8.0042   8.1727   8.2197   8.3208   8.3929   8.8010
     8.9159   9.0461   9.0834

          k =-0.0253 0.0280 0.0000 ( 34687 PWs)   bands (ev):

   -57.6996 -57.6693 -57.3187 -57.2873 -57.2338 -57.1108 -57.0788 -57.0739
   -57.0539 -57.0435 -56.9920 -56.9612 -56.7351 -56.7025 -56.1502 -56.1197
   -34.1130 -33.9822 -33.9575 -33.8961 -33.8475 -33.8150 -33.7752 -33.6334
   -33.6148 -33.5852 -33.5461 -33.5380 -33.5254 -33.5198 -33.4949 -33.4749
   -33.4696 -33.4627 -33.4317 -33.3885 -33.3214 -33.2937 -33.2866 -33.2674
   -33.2617 -33.2583 -33.2554 -33.2509 -33.2410 -33.2396 -33.2384 -33.2233
   -33.2062 -33.1894 -33.1815 -33.1490 -33.1461 -32.9998 -32.9856 -32.9646
   -32.9201 -32.8406 -32.5446 -32.5041 -32.4801 -32.3685 -32.2892 -32.2021
   -20.1333 -17.9259 -17.7478 -17.4666 -17.3865 -17.3126 -17.2353 -17.1312
   -17.1013 -17.0090 -16.9663 -16.8626 -16.8332 -16.8096 -16.7868 -16.7734
   -16.7158 -16.7056 -16.6038 -16.5819 -16.5097 -16.4790 -16.3866 -16.3683
   -16.3594 -16.3326 -16.2048 -16.1780 -16.1566 -16.0208 -15.9722 -14.7453
   -14.6759 -11.3855  -7.1383  -5.4176  -5.2370  -5.1842  -5.1819  -5.0253
    -4.9694  -4.9394  -4.7622  -4.7035  -4.5654  -4.4060  -4.3743  -4.3489
    -4.2641  -4.2530  -4.1911  -4.1201  -4.0942  -4.0678  -4.0395  -4.0255
    -3.9781  -3.9440  -3.9173  -3.8716  -3.8255  -3.8145  -3.7875  -3.7226
    -3.7021  -3.6663  -3.6183  -3.6072  -3.5426  -3.5268  -3.3554  -3.2839
    -3.2553  -3.2173  -3.1481  -3.0740  -2.9859  -2.9507  -2.7835  -2.7063
    -2.6820  -2.6398  -2.6127  -2.5357  -2.5080  -2.4548  -2.4510  -2.4256
    -2.4088  -2.3878  -2.3425  -2.3045  -2.2213  -2.1790  -2.1253  -2.1076
    -2.0656  -1.9924  -1.9530  -1.8976  -1.8657  -1.8289  -1.7468  -1.7100
    -1.6559  -1.6023  -1.5964  -1.5630  -1.5189  -1.4761  -1.4394  -1.3949
    -1.3478  -1.3376  -1.2847  -1.2460  -1.1990  -1.1086  -1.0955  -1.0628
    -1.0076  -0.8927  -0.8439  -0.8268  -0.7595  -0.7401  -0.7131  -0.6626
    -0.4365  -0.2842  -0.1380  -0.0883   0.1467   0.1761   0.1864   1.7178
     1.8420   2.0134   2.0974   2.1925   2.2431   2.2820   2.3159   2.4006
     2.4125   2.4466   2.4827   2.5268   2.5296   2.5439   2.6046   2.6652
     2.7023   2.7357   2.7720   2.8087   2.9345   2.9818   3.0013   3.0243
     3.1035   3.1325   3.1432   3.1713   3.2055   3.2358   3.3425   3.3692
     3.4008   3.4163   3.4608   3.5011   3.5580   3.5663   3.6336   3.6580
     3.6698   3.7052   3.7445   3.8891   3.9867   4.1378   4.1826   4.2490
     4.3038   4.4463   4.5059   4.7678   4.9324   4.9497   4.9804   5.0749
     5.1548   5.1717   5.2191   5.3818   5.6409   5.6729   5.7248   5.7844
     5.8457   5.8623   5.8676   6.0028   6.0701   6.0749   6.1201   6.1419
     6.1934   6.2039   6.2107   6.2399   6.4256   6.5186   6.6066   6.6624
     6.7833   6.8552   6.9603   7.1495   7.2243   7.4968   7.9300   8.0247
     8.0917   8.2445   8.4412   8.5785   8.6472   8.7697   8.9498   9.2702
     9.3495   9.4619   9.5074

          k =-0.0253 0.0560 0.0000 ( 34699 PWs)   bands (ev):

   -57.6932 -57.6758 -57.3122 -57.2938 -57.2330 -57.1047 -57.0849 -57.0675
   -57.0547 -57.0499 -56.9855 -56.9677 -56.7285 -56.7092 -56.1438 -56.1262
   -34.0431 -33.9769 -33.9626 -33.8792 -33.8482 -33.8323 -33.7765 -33.5992
   -33.5756 -33.5752 -33.5381 -33.5288 -33.5122 -33.5108 -33.4783 -33.4761
   -33.4572 -33.4289 -33.4176 -33.3704 -33.3191 -33.3170 -33.3118 -33.3048
   -33.2894 -33.2800 -33.2710 -33.2653 -33.2569 -33.2529 -33.2416 -33.2378
   -33.2144 -33.2031 -33.1749 -33.1701 -33.1326 -32.9948 -32.9814 -32.9685
   -32.9331 -32.9102 -32.4990 -32.4852 -32.4739 -32.3519 -32.3061 -32.2762
   -20.1330 -17.7596 -17.5924 -17.3465 -17.2676 -17.2480 -17.1970 -17.1709
   -17.1425 -16.9989 -16.9734 -16.8838 -16.8796 -16.8329 -16.8002 -16.7754
   -16.7510 -16.6739 -16.6258 -16.6090 -16.5826 -16.5346 -16.4302 -16.4159
   -16.3603 -16.2881 -16.2382 -16.1988 -16.1603 -16.1219 -16.0454 -14.7639
   -14.7267 -11.3846  -7.1374  -5.3823  -5.1929  -5.0330  -4.9516  -4.8172
    -4.7602  -4.7176  -4.5616  -4.4997  -4.4941  -4.4164  -4.3973  -4.3474
    -4.2744  -4.2355  -4.2184  -4.1952  -4.1510  -4.1439  -4.1105  -4.0648
    -4.0349  -4.0149  -3.9980  -3.9397  -3.9275  -3.8765  -3.8655  -3.8255
    -3.7768  -3.7169  -3.6590  -3.5749  -3.4751  -3.3943  -3.3256  -3.2823
    -3.2412  -3.2208  -3.1769  -3.0161  -2.9331  -2.8689  -2.8292  -2.7858
    -2.7567  -2.6484  -2.5948  -2.5132  -2.4898  -2.4421  -2.3965  -2.3666
    -2.3465  -2.3273  -2.2940  -2.2692  -2.1929  -2.1438  -2.1300  -2.0395
    -2.0239  -2.0064  -1.9483  -1.9461  -1.9074  -1.8648  -1.8334  -1.8108
    -1.7455  -1.7135  -1.6753  -1.6453  -1.5824  -1.5425  -1.5081  -1.4638
    -1.4341  -1.3774  -1.3512  -1.3035  -1.2270  -1.2094  -1.1259  -1.1070
    -1.0545  -1.0132  -0.9284  -0.8714  -0.8181  -0.8021  -0.7404  -0.6834
    -0.6100  -0.4702  -0.2609   0.0894   0.1260   0.1532   0.1857   1.8586
     2.0450   2.1323   2.1759   2.2252   2.2666   2.3035   2.3297   2.3808
     2.4413   2.4556   2.4825   2.5104   2.5178   2.5803   2.6896   2.7210
     2.7413   2.7728   2.8243   2.8376   2.8893   2.9456   2.9671   2.9832
     3.0204   3.0315   3.1670   3.2045   3.2862   3.3130   3.3307   3.3673
     3.4082   3.4331   3.4567   3.5392   3.5560   3.6304   3.6534   3.7283
     3.7877   3.8121   3.8589   3.8940   3.9033   4.0683   4.1138   4.1625
     4.3399   4.3828   4.6101   4.9617   5.0157   5.1210   5.1339   5.1530
     5.2559   5.2827   5.3108   5.4247   5.5083   5.5581   5.6361   5.7589
     5.8182   5.8443   5.8913   5.9322   5.9529   5.9924   6.0474   6.0600
     6.1312   6.1513   6.2252   6.3154   6.3763   6.4014   6.4737   6.6434
     6.6902   6.7934   6.8316   7.0335   7.1500   7.3619   7.4864   7.5838
     7.9748   8.1771   8.3505   8.5247   8.6504   8.8546   9.0502   9.1134
     9.1714   9.4915   9.6117

          k =-0.0506 0.0280 0.0000 ( 34685 PWs)   bands (ev):

   -57.6996 -57.6693 -57.3187 -57.2873 -57.2338 -57.1106 -57.0788 -57.0740
   -57.0539 -57.0435 -56.9920 -56.9612 -56.7352 -56.7025 -56.1502 -56.1197
   -34.1136 -33.9822 -33.9575 -33.8947 -33.8478 -33.8150 -33.7752 -33.6348
   -33.6148 -33.5886 -33.5467 -33.5393 -33.5309 -33.5230 -33.4948 -33.4744
   -33.4603 -33.4525 -33.4317 -33.3723 -33.3211 -33.2940 -33.2823 -33.2687
   -33.2674 -33.2654 -33.2616 -33.2560 -33.2410 -33.2396 -33.2372 -33.2207
   -33.2067 -33.1896 -33.1814 -33.1488 -33.1461 -32.9998 -32.9900 -32.9632
   -32.9202 -32.8407 -32.5445 -32.5059 -32.4792 -32.3685 -32.2892 -32.2021
   -20.1329 -17.8636 -17.6542 -17.3719 -17.3448 -17.2528 -17.2275 -17.2174
   -17.1257 -17.0465 -16.9666 -16.9242 -16.8735 -16.8608 -16.8579 -16.8377
   -16.7667 -16.7478 -16.5630 -16.5319 -16.5064 -16.4412 -16.4186 -16.3801
   -16.3734 -16.3146 -16.1960 -16.1760 -16.1554 -16.0220 -15.9720 -14.7433
   -14.6760 -11.3830  -7.1321  -5.4296  -5.2233  -5.1804  -4.8952  -4.8374
    -4.7236  -4.7079  -4.6784  -4.6583  -4.6333  -4.5123  -4.4310  -4.3487
    -4.3216  -4.3047  -4.1626  -4.1299  -4.0648  -4.0308  -4.0121  -3.9966
    -3.9857  -3.9126  -3.8631  -3.8189  -3.7767  -3.7642  -3.7217  -3.6937
    -3.6575  -3.6364  -3.5858  -3.5547  -3.4458  -3.3150  -3.2758  -3.2629
    -3.2232  -3.1737  -3.1038  -3.0604  -2.9561  -2.9401  -2.8736  -2.8429
    -2.7462  -2.6933  -2.6641  -2.6520  -2.6070  -2.5935  -2.5388  -2.4986
    -2.4403  -2.3905  -2.3839  -2.3384  -2.3112  -2.2573  -2.1830  -2.1389
    -2.1171  -2.0659  -2.0277  -1.9774  -1.9427  -1.9072  -1.8624  -1.8349
    -1.7578  -1.7439  -1.7151  -1.6441  -1.5427  -1.5105  -1.4903  -1.4209
    -1.3726  -1.3510  -1.2831  -1.2612  -1.2402  -1.1500  -1.1007  -1.0163
    -0.9737  -0.8816  -0.8574  -0.8154  -0.7795  -0.7658  -0.7091  -0.6926
    -0.5157  -0.3148  -0.2625  -0.0756   0.1074   0.1367   0.1600   1.7013
     1.9022   2.0576   2.1199   2.1246   2.1696   2.2376   2.3576   2.3691
     2.4034   2.4357   2.5147   2.5645   2.5718   2.5998   2.6806   2.6934
     2.7400   2.7997   2.8297   2.8996   2.9526   2.9782   3.0386   3.0565
     3.0883   3.1570   3.1682   3.1976   3.2994   3.3526   3.3728   3.4061
     3.4410   3.4529   3.5436   3.5804   3.6011   3.6506   3.6731   3.6817
     3.7140   3.7673   3.8155   3.8654   3.9263   4.0549   4.1659   4.2793
     4.2904   4.4199   4.6141   4.6861   4.7615   4.8080   4.8517   4.9807
     5.0079   5.1227   5.2208   5.4654   5.5917   5.6369   5.7150   5.7986
     5.8572   5.8684   5.9220   5.9446   5.9785   6.0913   6.1150   6.1365
     6.2293   6.4285   6.4798   6.5365   6.5745   6.6052   6.6806   6.7412
     6.7925   6.8146   6.9711   7.1104   7.1640   7.3951   7.5537   7.7037
     8.1293   8.1614   8.2413   8.3836   8.7592   8.9655   9.0071   9.0365
     9.3793   9.4415   9.6058

          k =-0.0506 0.0560 0.0000 ( 34596 PWs)   bands (ev):

   -57.6932 -57.6758 -57.3122 -57.2938 -57.2330 -57.1046 -57.0848 -57.0676
   -57.0547 -57.0500 -56.9855 -56.9677 -56.7285 -56.7092 -56.1438 -56.1262
   -34.0437 -33.9769 -33.9626 -33.8780 -33.8484 -33.8319 -33.7766 -33.5992
   -33.5767 -33.5753 -33.5384 -33.5248 -33.5187 -33.5141 -33.4783 -33.4768
   -33.4552 -33.4289 -33.4079 -33.3568 -33.3212 -33.3199 -33.3044 -33.3021
   -33.2897 -33.2800 -33.2709 -33.2630 -33.2575 -33.2570 -33.2510 -33.2429
   -33.2145 -33.2047 -33.1749 -33.1698 -33.1322 -32.9949 -32.9842 -32.9683
   -32.9331 -32.9100 -32.5002 -32.4847 -32.4737 -32.3519 -32.3061 -32.2761
   -20.1326 -17.7091 -17.5035 -17.2943 -17.2429 -17.2010 -17.1766 -17.1647
   -17.0929 -17.0400 -17.0090 -16.9166 -16.8596 -16.8522 -16.8474 -16.8096
   -16.7795 -16.7261 -16.6662 -16.6255 -16.6157 -16.5540 -16.5158 -16.4032
   -16.3476 -16.2666 -16.2306 -16.1974 -16.1595 -16.1236 -16.0445 -14.7626
   -14.7270 -11.3820  -7.1308  -5.3979  -5.1917  -5.0237  -4.6621  -4.6204
    -4.5188  -4.5024  -4.4871  -4.4594  -4.4352  -4.3705  -4.3278  -4.3048
    -4.2288  -4.2087  -4.1493  -4.1353  -4.0860  -4.0713  -4.0494  -4.0400
    -4.0184  -3.9998  -3.9722  -3.9178  -3.8977  -3.8915  -3.8250  -3.7905
    -3.7336  -3.6626  -3.6336  -3.5254  -3.4880  -3.3671  -3.3316  -3.2649
    -3.2581  -3.2480  -3.1304  -3.0135  -2.9356  -2.9091  -2.8536  -2.8322
    -2.7594  -2.7294  -2.6876  -2.6137  -2.5947  -2.5708  -2.5316  -2.4929
    -2.4322  -2.4086  -2.3692  -2.3326  -2.3198  -2.3033  -2.2587  -2.1812
    -2.1555  -2.1242  -2.1174  -2.0806  -2.0508  -2.0051  -1.9872  -1.9051
    -1.8952  -1.8553  -1.8375  -1.7274  -1.6407  -1.6096  -1.5769  -1.4820
    -1.4117  -1.3797  -1.3119  -1.2416  -1.2084  -1.1099  -1.0719  -1.0183
    -1.0019  -0.9395  -0.8532  -0.8235  -0.7727  -0.7603  -0.6941  -0.6600
    -0.6547  -0.5198  -0.3277   0.0754   0.1095   0.1275   0.1911   1.8639
     2.0738   2.1629   2.1963   2.2180   2.2408   2.2954   2.3448   2.3900
     2.4007   2.5346   2.5672   2.5764   2.6045   2.6250   2.6802   2.7514
     2.7792   2.8010   2.8352   2.8780   2.9602   3.0015   3.0251   3.0589
     3.0942   3.1327   3.1644   3.2539   3.3318   3.3635   3.3931   3.4374
     3.4753   3.4962   3.5177   3.5391   3.6116   3.6433   3.7076   3.7401
     3.7745   3.8455   3.8758   3.9165   3.9223   3.9498   4.1090   4.1721
     4.2867   4.4714   4.7185   4.8040   4.8130   4.8932   4.9386   5.0882
     5.1612   5.2261   5.2689   5.3188   5.3687   5.4315   5.4925   5.6226
     5.7770   5.8224   5.8775   5.9482   6.0324   6.1206   6.2125   6.2566
     6.2833   6.3451   6.4127   6.4462   6.4974   6.5754   6.6466   6.7128
     6.7276   6.8221   6.8505   6.9815   7.0456   7.4087   7.4329   7.5726
     7.7454   7.9396   8.0739   8.3815   8.5697   8.6111   8.7456   9.0047
     9.2146   9.3168   9.4516

     the Fermi energy is     0.9943 ev

!    total energy              =   -3021.41882226 Ry
     Harris-Foulkes estimate   =   -3021.41882216 Ry
     estimated scf accuracy    <       0.00000037 Ry

     The total energy is the sum of the following terms:

     one-electron contribution =  -41240.99304279 Ry
     hartree contribution      =   20694.71197643 Ry
     xc contribution           =    -553.66440691 Ry
     ewald contribution        =   18078.52686236 Ry
     smearing contrib. (-TS)   =      -0.00021136 Ry

     total magnetization       =     0.00 Bohr mag/cell
     absolute magnetization    =     0.00 Bohr mag/cell

     convergence has been achieved in   8 iterations

     Forces acting on atoms (Ry/au):


     negative rho (up, down):  1.209E-02 1.209E-02
     atom    1 type  1   force =     0.00001788   -0.00035707   -0.13381778
     atom    2 type  2   force =     0.00000527    0.00002832    0.07214543
     atom    3 type  1   force =    -0.00135261    0.00030926   -0.06098298
     atom    4 type  2   force =     0.00289592    0.00048856    0.00638761
     atom    5 type  1   force =     0.00026956    0.00186733    0.00356731
     atom    6 type  2   force =     0.00007459    0.00000722   -0.00301313
     atom    7 type  1   force =    -0.00017454   -0.00074571    0.00542596
     atom    8 type  2   force =     0.00071965   -0.00023074   -0.00075746
     atom    9 type  1   force =    -0.00002946    0.00002019   -0.13357727
     atom   10 type  2   force =    -0.00006772    0.00006480    0.07132700
     atom   11 type  1   force =    -0.00131628   -0.00024131   -0.05590015
     atom   12 type  2   force =     0.00298916   -0.00006829    0.00610491
     atom   13 type  1   force =     0.00029115   -0.00149793    0.00351253
     atom   14 type  2   force =    -0.00119879   -0.00038932   -0.00294789
     atom   15 type  1   force =    -0.00049421    0.00020670    0.00466065
     atom   16 type  2   force =     0.00035771   -0.00016286   -0.00013658
     atom   17 type  2   force =    -0.00006898   -0.00007116    0.07940813
     atom   18 type  1   force =     0.00013737   -0.00017106    0.11909598
     atom   19 type  2   force =    -0.00010694   -0.00017284   -0.06666011
     atom   20 type  2   force =    -0.06322532    0.00015091   -0.03224047
     atom   21 type  2   force =     0.06320198    0.00001366   -0.03244898
     atom   22 type  1   force =     0.00072332    0.00108074    0.05971942
     atom   23 type  2   force =    -0.00017492    0.00005539   -0.00176501
     atom   24 type  2   force =    -0.00143255   -0.00000246   -0.02322743
     atom   25 type  2   force =    -0.00312447    0.00059083    0.00787836
     atom   26 type  1   force =     0.00062551    0.00028908    0.00451431
     atom   27 type  2   force =     0.00053779    0.00058081   -0.00362438
     atom   28 type  2   force =     0.00011489   -0.00008781   -0.00118156
     atom   29 type  2   force =     0.00025566   -0.00034359   -0.00056595
     atom   30 type  1   force =     0.00033904   -0.00131167    0.00339013
     atom   31 type  2   force =    -0.00053539    0.00016083   -0.00171288
     atom   32 type  2   force =     0.00025608   -0.00015417   -0.00135221
     atom   33 type  2   force =    -0.00011788    0.00003824    0.07901488
     atom   34 type  1   force =     0.00006988   -0.00021991    0.11901237
     atom   35 type  2   force =    -0.00030370   -0.00005325   -0.06636066
     atom   36 type  2   force =    -0.06318630   -0.00005388   -0.03233043
     atom   37 type  2   force =     0.06333331   -0.00020038   -0.03248642
     atom   38 type  1   force =     0.00066093   -0.00097944    0.05993732
     atom   39 type  2   force =    -0.00045622    0.00010432   -0.00250337
     atom   40 type  2   force =    -0.00118958    0.00030837   -0.02213927
     atom   41 type  2   force =    -0.00316501   -0.00014833    0.00790109
     atom   42 type  1   force =     0.00050259    0.00006696    0.00364968
     atom   43 type  2   force =     0.00068854    0.00023328   -0.00284240
     atom   44 type  2   force =     0.00019950    0.00009975   -0.00114299
     atom   45 type  2   force =     0.00023086    0.00031080   -0.00060158
     atom   46 type  1   force =     0.00057513    0.00085496    0.00356316
     atom   47 type  2   force =     0.00004981   -0.00031143   -0.00139254
     atom   48 type  2   force =     0.00031100    0.00019872   -0.00108238
     atom   49 type  3   force =     0.00065626   -0.00070899    0.00328841
     atom   50 type  2   force =     0.04707047   -0.00054512    0.00531280
     atom   51 type  4   force =     0.00003638    0.00005310   -0.00041586
     atom   52 type  4   force =    -0.04666577    0.00068802   -0.00886062
     atom   53 type  4   force =    -0.00003034    0.00101425   -0.00043855
     atom   54 type  4   force =     0.00021982   -0.00065669   -0.00030818

     Total force =     0.368758     Total SCF correction =     0.001725
 !ASE

     Writing output data file calc.save
 
     init_run     :     57.90s CPU     73.78s WALL (       1 calls)
     electrons    :   1883.56s CPU   2338.86s WALL (       1 calls)
     forces       :     40.31s CPU     41.64s WALL (       1 calls)

     Called by init_run:
     wfcinit      :     49.66s CPU     64.76s WALL (       1 calls)
     potinit      :      1.47s CPU      1.79s WALL (       1 calls)

     Called by electrons:
     c_bands      :   1636.77s CPU   2030.51s WALL (       9 calls)
     sum_band     :    211.17s CPU    267.53s WALL (       9 calls)
     v_of_rho     :      9.00s CPU     11.30s WALL (       9 calls)
     newd         :     30.52s CPU     33.74s WALL (       9 calls)
     mix_rho      :      0.31s CPU      0.43s WALL (       9 calls)
     vdW_energy   :      1.70s CPU      2.04s WALL (      10 calls)
     vdW_ffts     :      2.33s CPU      3.08s WALL (      20 calls)
     vdW_v        :      0.95s CPU      1.13s WALL (      10 calls)

     Called by c_bands:
     init_us_2    :      5.49s CPU      5.99s WALL (     800 calls)
     cegterg      :   1603.32s CPU   1994.99s WALL (     360 calls)

     Called by *egterg:
     h_psi        :    682.70s CPU   1010.44s WALL (    1786 calls)
     s_psi        :     82.48s CPU     86.32s WALL (    1786 calls)
     g_psi        :      4.47s CPU      4.54s WALL (    1386 calls)
     cdiaghg      :    529.88s CPU    539.73s WALL (    1706 calls)

     Called by h_psi:
     add_vuspsi   :     83.11s CPU     86.89s WALL (    1786 calls)

     General routines
     calbec       :    127.27s CPU    130.52s WALL (    2186 calls)
     fft          :      5.47s CPU      7.06s WALL (     794 calls)
     ffts         :      0.06s CPU      0.07s WALL (      36 calls)
     fftw         :    455.58s CPU    819.28s WALL (  661774 calls)
     interpolate  :      0.30s CPU      0.47s WALL (      36 calls)
     davcio       :      0.01s CPU      1.47s WALL (      40 calls)
 
     Parallel routines
     fft_scatter  :    250.67s CPU    435.68s WALL (  662604 calls)
 
     PWSCF        : 33m 3.22s CPU    40m58.04s WALL

 
   This run was terminated on:  23:34:38  12Feb2018            

=------------------------------------------------------------------------------=
   JOB DONE.
=------------------------------------------------------------------------------=
