  python dir          : /home/vossj/suncat/lib/python2.7/site-packages/espresso
  espresso dir        : /home/vossj/suncat/esdld/espresso-dynpy-beef/bin
  pseudo dir          : /home/alatimer/bin/psp/esp_psp_w_gbrvRu/
  ase-espresso py git : ffa2778-git



     Program PWSCF v.5.1rc2 (svn rev. ) starts on 10Mar2018 at 14:14: 9 

     This program is part of the open-source Quantum ESPRESSO suite
     for quantum simulation of materials; please cite
         "P. Giannozzi et al., J. Phys.:Condens. Matter 21 395502 (2009);
          URL http://www.quantum-espresso.org", 
     in publications or presentations arising from this work. More details at
     http://www.quantum-espresso.org/quote

     Parallel version (MPI), running on    16 processors
     R & G space division:  proc/nbgrp/npool/nimage =      16
     Reading input from pw.inp
     Message from routine read_cards :
     DEPRECATED: no units specified in CELL_PARAMETERS card

     Current dimensions of program PWSCF are:
     Max number of different atomic species (ntypx) = 10
     Max number of k-points (npk) =  40000
     Max angular momentum in pseudopotentials (lmaxx) =  3

     **************************************************************************
     Initializing libbeef V0.1.1 with the BEEF-vdW functional.
     Citation: Wellendorff et al., PRB 85, 235149 (2012).
     **************************************************************************


     IMPORTANT: XC functional enforced from input :
     Exchange-correlation      = BEEF ( 1  4 27 13 2)
     Any further DFT definition will be discarded
     Please, verify this is what you really want


     Subspace diagonalization in iterative solution of the eigenvalue problem:
     a serial algorithm will be used

 
     Parallelization info
     --------------------
     sticks:   dense  smooth     PW     G-vecs:    dense   smooth      PW
     Min         281     112     31                68535    17318    2565
     Max         282     113     32                68545    17369    2582
     Sum        4501    1795    503              1096637   277353   41113
 
     Generating pointlists ...
     new r_m :   0.4125 (alat units)  0.7795 (a.u.) for type    1
     new r_m :   0.4125 (alat units)  0.7795 (a.u.) for type    2
     new r_m :   0.4125 (alat units)  0.7795 (a.u.) for type    3


     bravais-lattice index     =            0
     lattice parameter (alat)  =       1.8897  a.u.
     unit-cell volume          =    7990.9933 (a.u.)^3
     number of atoms/cell      =           51
     number of atomic types    =            3
     number of electrons       =       400.00
     number of Kohn-Sham states=          300
     kinetic-energy cutoff     =      40.4243  Ry
     charge density cutoff     =     404.2426  Ry
     convergence threshold     =      7.3E-07
     mixing beta               =       0.1000
     number of iterations used =           10  plain     mixing
     Exchange-correlation      = BEEF ( 1  4 27 13 2)
     nstep                     =           50


     celldm(1)=   1.889726  celldm(2)=   0.000000  celldm(3)=   0.000000
     celldm(4)=   0.000000  celldm(5)=   0.000000  celldm(6)=   0.000000

     crystal axes: (cart. coord. in units of alat)
               a(1) = (   6.590708   0.000000   0.000000 )  
               a(2) = (   0.000000   5.950229   0.000000 )  
               a(3) = (   0.000000   0.000000  30.195235 )  

     reciprocal axes: (cart. coord. in units 2 pi/alat)
               b(1) = (  0.151729  0.000000  0.000000 )  
               b(2) = (  0.000000  0.168061  0.000000 )  
               b(3) = (  0.000000  0.000000  0.033118 )  


     PseudoPot. # 1 for Ti read from file:
     /home/alatimer/bin/psp/esp_psp_w_gbrvRu/Ti.UPF
     MD5 check sum: 8e4df49b7f0d34bbd5052bf3f5ea0213
     Pseudo is Ultrasoft, Zval = 12.0
     Generated by new atomic code, or converted to UPF format
     Using radial grid of  851 points,  6 beta functions with: 
                l(1) =   0
                l(2) =   0
                l(3) =   1
                l(4) =   1
                l(5) =   2
                l(6) =   2
     Q(r) pseudized with  8 coefficients,  rinner =    1.000   1.000   1.000
                                                       1.000   1.000

     PseudoPot. # 2 for  O read from file:
     /home/alatimer/bin/psp/esp_psp_w_gbrvRu/O.UPF
     MD5 check sum: e057bbcf3229fb5d8c36c0c92f9568b4
     Pseudo is Ultrasoft + core correction, Zval =  6.0
     Generated using "atomic" code by A. Dal Corso  v.5.0.2 svn rev. 9415
     Using radial grid of 1095 points,  4 beta functions with: 
                l(1) =   0
                l(2) =   0
                l(3) =   1
                l(4) =   1
     Q(r) pseudized with 0 coefficients 


     PseudoPot. # 3 for  N read from file:
     /home/alatimer/bin/psp/esp_psp_w_gbrvRu/N.UPF
     MD5 check sum: ed8b6a90f28a53b7d71920e7015d2dd6
     Pseudo is Ultrasoft + core correction, Zval =  5.0
     Generated using "atomic" code by A. Dal Corso  v.5.0.2 svn rev. 9415
     Using radial grid of 1085 points,  4 beta functions with: 
                l(1) =   0
                l(2) =   0
                l(3) =   1
                l(4) =   1
     Q(r) pseudized with 0 coefficients 


     vdW kernel table read from file vdW_kernel_table
     MD5 check sum: 095c7af220d748ca6e76c0b4c6cfb241

     atomic species   valence    mass     pseudopotential
        Ti1           12.00    47.88000     Ti( 1.00)
        O1             6.00    15.99940      O( 1.00)
        N1             5.00    14.00670      N( 1.00)

     Starting magnetic structure 
     atomic species   magnetization
        Ti1          0.250
        O1           0.500
        N1           0.600

     No symmetry found



   Cartesian axes

     site n.     atom                  positions (alat units)
         1           Ti1 tau(   1) = (   1.6476770   0.7437786   2.6545865  )
         2           O1  tau(   2) = (   1.6476770   2.2313359   3.9361215  )
         3           Ti1 tau(   3) = (   1.6476770   2.2313359   5.9499405  )
         4           O1  tau(   4) = (   0.3661420   0.7437786   5.9499405  )
         5           Ti1 tau(   5) = (   1.5280591   0.7315068   9.1973351  )
         6           O1  tau(   6) = (   1.6613943   2.1836906  10.6091769  )
         7           Ti1 tau(   7) = (   1.6665780   2.2096385  12.4157880  )
         8           O1  tau(   8) = (   0.4439715   0.7264440  12.7601561  )
         9           Ti1 tau(   9) = (   1.6476770   3.7188931   2.6545865  )
        10           O1  tau(  10) = (   1.6476770   5.2064503   3.9361215  )
        11           Ti1 tau(  11) = (   1.6476770   5.2064503   5.9499405  )
        12           O1  tau(  12) = (   0.3661420   3.7188931   5.9499405  )
        13           Ti1 tau(  13) = (   1.5319291   3.7072436   9.2118370  )
        14           O1  tau(  14) = (   1.6575607   5.2126413  10.6087893  )
        15           Ti1 tau(  15) = (   1.6606453   5.1916961  12.4165775  )
        16           O1  tau(  16) = (   0.4123725   3.7022030  12.5882193  )
        17           O1  tau(  17) = (   1.6476770   2.2313359   1.3730516  )
        18           Ti1 tau(  18) = (   4.9430310   2.2313359   2.6545865  )
        19           O1  tau(  19) = (   4.9430310   2.2313359   4.6684056  )
        20           O1  tau(  20) = (   6.2245660   0.7437786   2.6545865  )
        21           O1  tau(  21) = (   3.6614961   0.7437786   2.6545865  )
        22           Ti1 tau(  22) = (   4.9430310   0.7437786   5.9499405  )
        23           O1  tau(  23) = (   1.6517842   2.2287041   8.0298356  )
        24           O1  tau(  24) = (   4.9430310   2.2313359   7.2314755  )
        25           O1  tau(  25) = (   2.9292120   0.7437786   5.9499405  )
        26           Ti1 tau(  26) = (   4.8605205   2.2076595   9.4238065  )
        27           O1  tau(  27) = (   4.9553550   2.1639423  11.2756624  )
        28           O1  tau(  28) = (   6.2690671   0.7288246   9.2688367  )
        29           O1  tau(  29) = (   3.6660957   0.7249325   9.2867299  )
        30           Ti1 tau(  30) = (   4.9284588   0.7282168  12.7798302  )
        31           O1  tau(  31) = (   4.9953437   2.2216212  13.8477397  )
        32           O1  tau(  32) = (   2.9112183   0.7266397  12.7651274  )
        33           O1  tau(  33) = (   1.6476770   5.2064503   1.3730516  )
        34           Ti1 tau(  34) = (   4.9430310   5.2064503   2.6545865  )
        35           O1  tau(  35) = (   4.9430310   5.2064503   4.6684056  )
        36           O1  tau(  36) = (   6.2245660   3.7188931   2.6545865  )
        37           O1  tau(  37) = (   3.6614961   3.7188931   2.6545865  )
        38           Ti1 tau(  38) = (   4.9430310   3.7188931   5.9499405  )
        39           O1  tau(  39) = (   1.6524867   5.1852222   8.0294571  )
        40           O1  tau(  40) = (   4.9430310   5.2064503   7.2314755  )
        41           O1  tau(  41) = (   2.9292120   3.7188931   5.9499405  )
        42           Ti1 tau(  42) = (   4.8610151   5.1886528   9.4241876  )
        43           O1  tau(  43) = (   4.9550983   5.2107439  11.2753448  )
        44           O1  tau(  44) = (   6.2713562   3.7024388   9.3047907  )
        45           O1  tau(  45) = (   3.6650622   3.7005085   9.3135888  )
        46           Ti1 tau(  46) = (   5.0160509   3.7038162  12.7585864  )
        47           O1  tau(  47) = (   4.9984032   5.1727849  13.8485277  )
        48           O1  tau(  48) = (   2.9655234   3.7049164  12.5317472  )
        49           O1  tau(  49) = (   2.2548149   3.7063572  14.5693114  )
        50           N1  tau(  50) = (   2.4020298   3.6667063  16.9951815  )
        51           N1  tau(  51) = (   2.1425646   3.6919273  15.8611024  )

     number of k points=    40  Fermi-Dirac smearing, width (Ry)=  0.0073
                       cart. coord. in units 2pi/alat
        k(    1) = (   0.0000000   0.0000000   0.0000000), wk =   0.0277778
        k(    2) = (   0.0000000   0.0280101   0.0000000), wk =   0.0555556
        k(    3) = (   0.0000000   0.0560203   0.0000000), wk =   0.0555556
        k(    4) = (   0.0000000  -0.0840304   0.0000000), wk =   0.0277778
        k(    5) = (   0.0252881   0.0000000   0.0000000), wk =   0.0555556
        k(    6) = (   0.0252881   0.0280101   0.0000000), wk =   0.0555556
        k(    7) = (   0.0252881   0.0560203   0.0000000), wk =   0.0555556
        k(    8) = (   0.0252881  -0.0840304   0.0000000), wk =   0.0555556
        k(    9) = (   0.0505763   0.0000000   0.0000000), wk =   0.0555556
        k(   10) = (   0.0505763   0.0280101   0.0000000), wk =   0.0555556
        k(   11) = (   0.0505763   0.0560203   0.0000000), wk =   0.0555556
        k(   12) = (   0.0505763  -0.0840304   0.0000000), wk =   0.0555556
        k(   13) = (  -0.0758644   0.0000000   0.0000000), wk =   0.0277778
        k(   14) = (  -0.0758644   0.0280101   0.0000000), wk =   0.0555556
        k(   15) = (  -0.0758644   0.0560203   0.0000000), wk =   0.0555556
        k(   16) = (  -0.0758644  -0.0840304   0.0000000), wk =   0.0277778
        k(   17) = (  -0.0252881   0.0280101   0.0000000), wk =   0.0555556
        k(   18) = (  -0.0252881   0.0560203   0.0000000), wk =   0.0555556
        k(   19) = (  -0.0505763   0.0280101   0.0000000), wk =   0.0555556
        k(   20) = (  -0.0505763   0.0560203   0.0000000), wk =   0.0555556
        k(   21) = (   0.0000000   0.0000000   0.0000000), wk =   0.0277778
        k(   22) = (   0.0000000   0.0280101   0.0000000), wk =   0.0555556
        k(   23) = (   0.0000000   0.0560203   0.0000000), wk =   0.0555556
        k(   24) = (   0.0000000  -0.0840304   0.0000000), wk =   0.0277778
        k(   25) = (   0.0252881   0.0000000   0.0000000), wk =   0.0555556
        k(   26) = (   0.0252881   0.0280101   0.0000000), wk =   0.0555556
        k(   27) = (   0.0252881   0.0560203   0.0000000), wk =   0.0555556
        k(   28) = (   0.0252881  -0.0840304   0.0000000), wk =   0.0555556
        k(   29) = (   0.0505763   0.0000000   0.0000000), wk =   0.0555556
        k(   30) = (   0.0505763   0.0280101   0.0000000), wk =   0.0555556
        k(   31) = (   0.0505763   0.0560203   0.0000000), wk =   0.0555556
        k(   32) = (   0.0505763  -0.0840304   0.0000000), wk =   0.0555556
        k(   33) = (  -0.0758644   0.0000000   0.0000000), wk =   0.0277778
        k(   34) = (  -0.0758644   0.0280101   0.0000000), wk =   0.0555556
        k(   35) = (  -0.0758644   0.0560203   0.0000000), wk =   0.0555556
        k(   36) = (  -0.0758644  -0.0840304   0.0000000), wk =   0.0277778
        k(   37) = (  -0.0252881   0.0280101   0.0000000), wk =   0.0555556
        k(   38) = (  -0.0252881   0.0560203   0.0000000), wk =   0.0555556
        k(   39) = (  -0.0505763   0.0280101   0.0000000), wk =   0.0555556
        k(   40) = (  -0.0505763   0.0560203   0.0000000), wk =   0.0555556

     Dense  grid:  1096637 G-vectors     FFT dimensions: (  80,  72, 375)

     Smooth grid:   277353 G-vectors     FFT dimensions: (  54,  45, 240)

     Largest allocated arrays     est. size (Mb)     dimensions
        Kohn-Sham Wavefunctions         9.98 Mb     (    2180,  300)
        NL pseudopotentials            18.89 Mb     (    2180,  568)
        Each V/rho on FFT grid          4.22 Mb     (  138240,   2)
        Each G-vector array             0.52 Mb     (   68538)
        G-vector shells                 0.25 Mb     (   33046)
     Largest temporary arrays     est. size (Mb)     dimensions
        Auxiliary wavefunctions        39.92 Mb     (    2180, 1200)
        Each subspace H/S matrix       21.97 Mb     (    1200, 1200)
        Each <psi_i|beta_j> matrix      2.60 Mb     (     568,  300)
        Arrays for rho mixing          21.09 Mb     (  138240,   10)

     Check: negative/imaginary core charge=   -0.000049    0.000000

     The initial density is read from file :
     ./calc.save/charge-density.dat


     negative rho (up, down):  1.158E-02 1.158E-02


     ************************************************************************
     *
     * You are using vdW-DF for exchange-correlation in this calculation.
     * Please cite the following three references that made this development
     * possible:
     *
     *   M. Dion, H. Rydberg, E. Schroder, D. C. Langreth, and
     *   B. I. Lundqvist, Phys. Rev. Lett. 92, 246401 (2004).
     *
     *   T. Thonhauser, V. R. Cooper, S. Li, A. Puzder, P. Hyldgaard, and
     *   D. C. Langreth, Phys. Rev. B 76, 125112 (2007).
     *
     *   G. Roman-Perez and J. M. Soler, Phys. Rev. Lett. 103, 096102 (2009).
     *
     *
     * If you are using vdW-DF2, please also cite:
     *
     *   K. Lee, E. D. Murray, L. Kong, B. I. Lundqvist, and
     *   D. C. Langreth, Phys. Rev. B 82, 081101(R) (2010).
     *
     *
     * If you are calculating the stress with vdW-DF, please also cite:
     *
     *   R. Sabatini, E. Kucukbenli, B. Kolb, T. Thonhauser, and
     *   S. de Gironcoli, J. Phys.: Condens. Matter 24, 424209 (2012).
     *
     ************************************************************************

     Carrying out vdW-DF run using the following parameters:

     Nqs =      20    Nr_points =    1024   r_max =   100.000
     q_mesh =
               0.00001000     0.04494208     0.09755937     0.15916263
               0.23128650     0.31572767     0.41458969     0.53033537
               0.66584808     0.82450364     1.01025438     1.22772762
               1.48234092     1.78043706     2.12944203     2.53805004
               3.01644009     3.57652955     4.23227104     5.00000000

     Gradients computed in reciprocal space

     ************************************************************************


     Starting wfc are  300 randomized atomic wfcs

     total cpu time spent up to now is       70.9 secs

     Self-consistent Calculation

     iteration #  1     ecut=    40.42 Ry     beta=0.10
     Davidson diagonalization with overlap
     ethr =  1.00E-05,  avg # of iterations = 14.5

     negative rho (up, down):  1.156E-02 1.156E-02
 
     Magnetic moment per site:
     atom:    1    charge:    3.1249    magn:   -0.0002    constr:    0.0000
     atom:    2    charge:    2.0895    magn:    0.0001    constr:    0.0000
     atom:    3    charge:    3.1195    magn:   -0.0001    constr:    0.0000
     atom:    4    charge:    2.0870    magn:    0.0000    constr:    0.0000
     atom:    5    charge:    3.1170    magn:   -0.0001    constr:    0.0000
     atom:    6    charge:    2.0918    magn:    0.0001    constr:    0.0000
     atom:    7    charge:    3.1183    magn:   -0.0000    constr:    0.0000
     atom:    8    charge:    2.0816    magn:    0.0001    constr:    0.0000
     atom:    9    charge:    3.1249    magn:   -0.0002    constr:    0.0000
     atom:   10    charge:    2.0895    magn:    0.0001    constr:    0.0000
     atom:   11    charge:    3.1195    magn:   -0.0001    constr:    0.0000
     atom:   12    charge:    2.0870    magn:    0.0000    constr:    0.0000
     atom:   13    charge:    3.1147    magn:   -0.0001    constr:    0.0000
     atom:   14    charge:    2.0912    magn:    0.0001    constr:    0.0000
     atom:   15    charge:    3.1193    magn:   -0.0000    constr:    0.0000
     atom:   16    charge:    2.0883    magn:    0.0001    constr:    0.0000
     atom:   17    charge:    2.0627    magn:    0.0004    constr:    0.0000
     atom:   18    charge:    3.1241    magn:   -0.0000    constr:    0.0000
     atom:   19    charge:    2.0877    magn:   -0.0000    constr:    0.0000
     atom:   20    charge:    2.0847    magn:   -0.0001    constr:    0.0000
     atom:   21    charge:    2.0847    magn:   -0.0001    constr:    0.0000
     atom:   22    charge:    3.1198    magn:   -0.0000    constr:    0.0000
     atom:   23    charge:    2.0910    magn:    0.0001    constr:    0.0000
     atom:   24    charge:    2.0775    magn:    0.0001    constr:    0.0000
     atom:   25    charge:    2.0869    magn:    0.0000    constr:    0.0000
     atom:   26    charge:    3.1166    magn:   -0.0001    constr:    0.0000
     atom:   27    charge:    2.0823    magn:    0.0002    constr:    0.0000
     atom:   28    charge:    2.0879    magn:    0.0001    constr:    0.0000
     atom:   29    charge:    2.0878    magn:    0.0001    constr:    0.0000
     atom:   30    charge:    3.1168    magn:   -0.0001    constr:    0.0000
     atom:   31    charge:    2.0815    magn:    0.0003    constr:    0.0000
     atom:   32    charge:    2.0842    magn:    0.0001    constr:    0.0000
     atom:   33    charge:    2.0627    magn:    0.0004    constr:    0.0000
     atom:   34    charge:    3.1241    magn:   -0.0000    constr:    0.0000
     atom:   35    charge:    2.0877    magn:   -0.0000    constr:    0.0000
     atom:   36    charge:    2.0847    magn:   -0.0001    constr:    0.0000
     atom:   37    charge:    2.0847    magn:   -0.0001    constr:    0.0000
     atom:   38    charge:    3.1198    magn:   -0.0000    constr:    0.0000
     atom:   39    charge:    2.0913    magn:    0.0001    constr:    0.0000
     atom:   40    charge:    2.0775    magn:    0.0001    constr:    0.0000
     atom:   41    charge:    2.0869    magn:    0.0000    constr:    0.0000
     atom:   42    charge:    3.1182    magn:   -0.0001    constr:    0.0000
     atom:   43    charge:    2.0837    magn:    0.0002    constr:    0.0000
     atom:   44    charge:    2.0865    magn:    0.0001    constr:    0.0000
     atom:   45    charge:    2.0871    magn:    0.0001    constr:    0.0000
     atom:   46    charge:    3.1171    magn:   -0.0001    constr:    0.0000
     atom:   47    charge:    2.0796    magn:    0.0003    constr:    0.0000
     atom:   48    charge:    2.0835    magn:    0.0002    constr:    0.0000
     atom:   49    charge:    2.0498    magn:   -0.0000    constr:    0.0000
     atom:   50    charge:    1.2575    magn:   -0.0000    constr:    0.0000
     atom:   51    charge:    1.2761    magn:    0.0000    constr:    0.0000

     total cpu time spent up to now is      833.8 secs

     total energy              =   -3044.96178064 Ry
     Harris-Foulkes estimate   =   -3044.97894212 Ry
     estimated scf accuracy    <       0.10412112 Ry

     total magnetization       =     0.00 Bohr mag/cell
     absolute magnetization    =     0.01 Bohr mag/cell

     iteration #  2     ecut=    40.42 Ry     beta=0.10
     Davidson diagonalization with overlap
     ethr =  2.60E-05,  avg # of iterations =  2.5

     negative rho (up, down):  1.154E-02 1.154E-02
 
     Magnetic moment per site:
     atom:    1    charge:    3.1250    magn:   -0.0001    constr:    0.0000
     atom:    2    charge:    2.0894    magn:    0.0001    constr:    0.0000
     atom:    3    charge:    3.1196    magn:   -0.0001    constr:    0.0000
     atom:    4    charge:    2.0870    magn:    0.0000    constr:    0.0000
     atom:    5    charge:    3.1170    magn:   -0.0001    constr:    0.0000
     atom:    6    charge:    2.0917    magn:    0.0001    constr:    0.0000
     atom:    7    charge:    3.1184    magn:   -0.0000    constr:    0.0000
     atom:    8    charge:    2.0815    magn:    0.0001    constr:    0.0000
     atom:    9    charge:    3.1250    magn:   -0.0001    constr:    0.0000
     atom:   10    charge:    2.0894    magn:    0.0001    constr:    0.0000
     atom:   11    charge:    3.1196    magn:   -0.0001    constr:    0.0000
     atom:   12    charge:    2.0870    magn:    0.0000    constr:    0.0000
     atom:   13    charge:    3.1148    magn:   -0.0001    constr:    0.0000
     atom:   14    charge:    2.0912    magn:    0.0001    constr:    0.0000
     atom:   15    charge:    3.1193    magn:   -0.0000    constr:    0.0000
     atom:   16    charge:    2.0883    magn:    0.0001    constr:    0.0000
     atom:   17    charge:    2.0626    magn:    0.0004    constr:    0.0000
     atom:   18    charge:    3.1240    magn:   -0.0000    constr:    0.0000
     atom:   19    charge:    2.0878    magn:   -0.0000    constr:    0.0000
     atom:   20    charge:    2.0847    magn:   -0.0001    constr:    0.0000
     atom:   21    charge:    2.0847    magn:   -0.0001    constr:    0.0000
     atom:   22    charge:    3.1197    magn:   -0.0000    constr:    0.0000
     atom:   23    charge:    2.0909    magn:    0.0001    constr:    0.0000
     atom:   24    charge:    2.0777    magn:    0.0001    constr:    0.0000
     atom:   25    charge:    2.0869    magn:    0.0000    constr:    0.0000
     atom:   26    charge:    3.1165    magn:   -0.0001    constr:    0.0000
     atom:   27    charge:    2.0823    magn:    0.0002    constr:    0.0000
     atom:   28    charge:    2.0879    magn:    0.0001    constr:    0.0000
     atom:   29    charge:    2.0878    magn:    0.0001    constr:    0.0000
     atom:   30    charge:    3.1168    magn:   -0.0001    constr:    0.0000
     atom:   31    charge:    2.0814    magn:    0.0003    constr:    0.0000
     atom:   32    charge:    2.0842    magn:    0.0001    constr:    0.0000
     atom:   33    charge:    2.0626    magn:    0.0004    constr:    0.0000
     atom:   34    charge:    3.1240    magn:   -0.0000    constr:    0.0000
     atom:   35    charge:    2.0878    magn:   -0.0000    constr:    0.0000
     atom:   36    charge:    2.0847    magn:   -0.0001    constr:    0.0000
     atom:   37    charge:    2.0847    magn:   -0.0001    constr:    0.0000
     atom:   38    charge:    3.1197    magn:   -0.0000    constr:    0.0000
     atom:   39    charge:    2.0913    magn:    0.0001    constr:    0.0000
     atom:   40    charge:    2.0777    magn:    0.0001    constr:    0.0000
     atom:   41    charge:    2.0869    magn:    0.0000    constr:    0.0000
     atom:   42    charge:    3.1182    magn:   -0.0001    constr:    0.0000
     atom:   43    charge:    2.0837    magn:    0.0002    constr:    0.0000
     atom:   44    charge:    2.0865    magn:    0.0001    constr:    0.0000
     atom:   45    charge:    2.0871    magn:    0.0001    constr:    0.0000
     atom:   46    charge:    3.1171    magn:   -0.0001    constr:    0.0000
     atom:   47    charge:    2.0795    magn:    0.0003    constr:    0.0000
     atom:   48    charge:    2.0836    magn:    0.0001    constr:    0.0000
     atom:   49    charge:    2.0501    magn:   -0.0000    constr:    0.0000
     atom:   50    charge:    1.2582    magn:   -0.0000    constr:    0.0000
     atom:   51    charge:    1.2667    magn:    0.0000    constr:    0.0000

     total cpu time spent up to now is     1031.7 secs

     total energy              =   -3044.95477415 Ry
     Harris-Foulkes estimate   =   -3044.96500637 Ry
     estimated scf accuracy    <       0.03731349 Ry

     total magnetization       =     0.00 Bohr mag/cell
     absolute magnetization    =     0.01 Bohr mag/cell

     iteration #  3     ecut=    40.42 Ry     beta=0.10
     Davidson diagonalization with overlap
     ethr =  9.33E-06,  avg # of iterations =  5.8

     negative rho (up, down):  1.153E-02 1.153E-02
 
     Magnetic moment per site:
     atom:    1    charge:    3.1251    magn:   -0.0001    constr:    0.0000
     atom:    2    charge:    2.0894    magn:    0.0001    constr:    0.0000
     atom:    3    charge:    3.1197    magn:   -0.0000    constr:    0.0000
     atom:    4    charge:    2.0870    magn:    0.0000    constr:    0.0000
     atom:    5    charge:    3.1170    magn:   -0.0000    constr:    0.0000
     atom:    6    charge:    2.0916    magn:    0.0000    constr:    0.0000
     atom:    7    charge:    3.1186    magn:   -0.0000    constr:    0.0000
     atom:    8    charge:    2.0815    magn:    0.0001    constr:    0.0000
     atom:    9    charge:    3.1251    magn:   -0.0001    constr:    0.0000
     atom:   10    charge:    2.0894    magn:    0.0001    constr:    0.0000
     atom:   11    charge:    3.1197    magn:   -0.0000    constr:    0.0000
     atom:   12    charge:    2.0870    magn:    0.0000    constr:    0.0000
     atom:   13    charge:    3.1148    magn:   -0.0000    constr:    0.0000
     atom:   14    charge:    2.0911    magn:    0.0000    constr:    0.0000
     atom:   15    charge:    3.1195    magn:   -0.0000    constr:    0.0000
     atom:   16    charge:    2.0883    magn:    0.0000    constr:    0.0000
     atom:   17    charge:    2.0622    magn:    0.0003    constr:    0.0000
     atom:   18    charge:    3.1238    magn:   -0.0000    constr:    0.0000
     atom:   19    charge:    2.0878    magn:   -0.0000    constr:    0.0000
     atom:   20    charge:    2.0847    magn:   -0.0000    constr:    0.0000
     atom:   21    charge:    2.0847    magn:   -0.0000    constr:    0.0000
     atom:   22    charge:    3.1197    magn:   -0.0000    constr:    0.0000
     atom:   23    charge:    2.0908    magn:    0.0001    constr:    0.0000
     atom:   24    charge:    2.0779    magn:    0.0000    constr:    0.0000
     atom:   25    charge:    2.0869    magn:    0.0000    constr:    0.0000
     atom:   26    charge:    3.1164    magn:   -0.0001    constr:    0.0000
     atom:   27    charge:    2.0825    magn:    0.0001    constr:    0.0000
     atom:   28    charge:    2.0879    magn:    0.0001    constr:    0.0000
     atom:   29    charge:    2.0877    magn:    0.0001    constr:    0.0000
     atom:   30    charge:    3.1168    magn:   -0.0001    constr:    0.0000
     atom:   31    charge:    2.0815    magn:    0.0002    constr:    0.0000
     atom:   32    charge:    2.0843    magn:    0.0001    constr:    0.0000
     atom:   33    charge:    2.0622    magn:    0.0003    constr:    0.0000
     atom:   34    charge:    3.1238    magn:   -0.0000    constr:    0.0000
     atom:   35    charge:    2.0878    magn:   -0.0000    constr:    0.0000
     atom:   36    charge:    2.0847    magn:   -0.0001    constr:    0.0000
     atom:   37    charge:    2.0847    magn:   -0.0000    constr:    0.0000
     atom:   38    charge:    3.1197    magn:   -0.0000    constr:    0.0000
     atom:   39    charge:    2.0911    magn:    0.0001    constr:    0.0000
     atom:   40    charge:    2.0779    magn:    0.0000    constr:    0.0000
     atom:   41    charge:    2.0869    magn:    0.0000    constr:    0.0000
     atom:   42    charge:    3.1180    magn:   -0.0001    constr:    0.0000
     atom:   43    charge:    2.0839    magn:    0.0001    constr:    0.0000
     atom:   44    charge:    2.0865    magn:    0.0001    constr:    0.0000
     atom:   45    charge:    2.0871    magn:    0.0001    constr:    0.0000
     atom:   46    charge:    3.1171    magn:   -0.0001    constr:    0.0000
     atom:   47    charge:    2.0797    magn:    0.0002    constr:    0.0000
     atom:   48    charge:    2.0836    magn:    0.0001    constr:    0.0000
     atom:   49    charge:    2.0521    magn:   -0.0000    constr:    0.0000
     atom:   50    charge:    1.2515    magn:   -0.0000    constr:    0.0000
     atom:   51    charge:    1.2643    magn:    0.0000    constr:    0.0000

     total cpu time spent up to now is     1285.7 secs

     total energy              =   -3044.95240102 Ry
     Harris-Foulkes estimate   =   -3044.95707235 Ry
     estimated scf accuracy    <       0.01188447 Ry

     total magnetization       =     0.00 Bohr mag/cell
     absolute magnetization    =     0.01 Bohr mag/cell

     iteration #  4     ecut=    40.42 Ry     beta=0.10
     Davidson diagonalization with overlap
     ethr =  2.97E-06,  avg # of iterations =  3.9

     negative rho (up, down):  1.152E-02 1.152E-02
 
     Magnetic moment per site:
     atom:    1    charge:    3.1250    magn:   -0.0001    constr:    0.0000
     atom:    2    charge:    2.0894    magn:    0.0001    constr:    0.0000
     atom:    3    charge:    3.1196    magn:   -0.0000    constr:    0.0000
     atom:    4    charge:    2.0871    magn:    0.0000    constr:    0.0000
     atom:    5    charge:    3.1170    magn:   -0.0000    constr:    0.0000
     atom:    6    charge:    2.0916    magn:    0.0000    constr:    0.0000
     atom:    7    charge:    3.1185    magn:   -0.0000    constr:    0.0000
     atom:    8    charge:    2.0816    magn:    0.0000    constr:    0.0000
     atom:    9    charge:    3.1250    magn:   -0.0001    constr:    0.0000
     atom:   10    charge:    2.0894    magn:    0.0001    constr:    0.0000
     atom:   11    charge:    3.1196    magn:   -0.0000    constr:    0.0000
     atom:   12    charge:    2.0870    magn:    0.0000    constr:    0.0000
     atom:   13    charge:    3.1148    magn:   -0.0000    constr:    0.0000
     atom:   14    charge:    2.0911    magn:    0.0000    constr:    0.0000
     atom:   15    charge:    3.1194    magn:   -0.0000    constr:    0.0000
     atom:   16    charge:    2.0883    magn:    0.0000    constr:    0.0000
     atom:   17    charge:    2.0623    magn:    0.0002    constr:    0.0000
     atom:   18    charge:    3.1239    magn:   -0.0000    constr:    0.0000
     atom:   19    charge:    2.0878    magn:   -0.0000    constr:    0.0000
     atom:   20    charge:    2.0846    magn:   -0.0000    constr:    0.0000
     atom:   21    charge:    2.0846    magn:   -0.0000    constr:    0.0000
     atom:   22    charge:    3.1197    magn:   -0.0000    constr:    0.0000
     atom:   23    charge:    2.0908    magn:    0.0000    constr:    0.0000
     atom:   24    charge:    2.0778    magn:    0.0000    constr:    0.0000
     atom:   25    charge:    2.0869    magn:    0.0000    constr:    0.0000
     atom:   26    charge:    3.1165    magn:   -0.0000    constr:    0.0000
     atom:   27    charge:    2.0824    magn:    0.0001    constr:    0.0000
     atom:   28    charge:    2.0879    magn:    0.0001    constr:    0.0000
     atom:   29    charge:    2.0877    magn:    0.0000    constr:    0.0000
     atom:   30    charge:    3.1168    magn:   -0.0001    constr:    0.0000
     atom:   31    charge:    2.0817    magn:    0.0002    constr:    0.0000
     atom:   32    charge:    2.0844    magn:    0.0000    constr:    0.0000
     atom:   33    charge:    2.0623    magn:    0.0002    constr:    0.0000
     atom:   34    charge:    3.1239    magn:   -0.0000    constr:    0.0000
     atom:   35    charge:    2.0878    magn:   -0.0000    constr:    0.0000
     atom:   36    charge:    2.0846    magn:   -0.0000    constr:    0.0000
     atom:   37    charge:    2.0846    magn:   -0.0000    constr:    0.0000
     atom:   38    charge:    3.1197    magn:   -0.0000    constr:    0.0000
     atom:   39    charge:    2.0911    magn:    0.0000    constr:    0.0000
     atom:   40    charge:    2.0778    magn:    0.0000    constr:    0.0000
     atom:   41    charge:    2.0869    magn:    0.0000    constr:    0.0000
     atom:   42    charge:    3.1181    magn:   -0.0000    constr:    0.0000
     atom:   43    charge:    2.0838    magn:    0.0001    constr:    0.0000
     atom:   44    charge:    2.0864    magn:    0.0001    constr:    0.0000
     atom:   45    charge:    2.0871    magn:    0.0000    constr:    0.0000
     atom:   46    charge:    3.1171    magn:   -0.0001    constr:    0.0000
     atom:   47    charge:    2.0798    magn:    0.0002    constr:    0.0000
     atom:   48    charge:    2.0833    magn:    0.0001    constr:    0.0000
     atom:   49    charge:    2.0509    magn:   -0.0000    constr:    0.0000
     atom:   50    charge:    1.2455    magn:   -0.0000    constr:    0.0000
     atom:   51    charge:    1.2665    magn:    0.0000    constr:    0.0000

     total cpu time spent up to now is     1508.6 secs

     total energy              =   -3044.95151083 Ry
     Harris-Foulkes estimate   =   -3044.95316668 Ry
     estimated scf accuracy    <       0.00340427 Ry

     total magnetization       =     0.00 Bohr mag/cell
     absolute magnetization    =     0.00 Bohr mag/cell

     iteration #  5     ecut=    40.42 Ry     beta=0.10
     Davidson diagonalization with overlap
     ethr =  8.51E-07,  avg # of iterations =  5.7

     negative rho (up, down):  1.153E-02 1.153E-02
 
     Magnetic moment per site:
     atom:    1    charge:    3.1250    magn:   -0.0001    constr:    0.0000
     atom:    2    charge:    2.0894    magn:    0.0001    constr:    0.0000
     atom:    3    charge:    3.1196    magn:   -0.0000    constr:    0.0000
     atom:    4    charge:    2.0870    magn:    0.0000    constr:    0.0000
     atom:    5    charge:    3.1170    magn:   -0.0000    constr:    0.0000
     atom:    6    charge:    2.0917    magn:    0.0000    constr:    0.0000
     atom:    7    charge:    3.1185    magn:   -0.0000    constr:    0.0000
     atom:    8    charge:    2.0815    magn:    0.0000    constr:    0.0000
     atom:    9    charge:    3.1250    magn:   -0.0001    constr:    0.0000
     atom:   10    charge:    2.0894    magn:    0.0001    constr:    0.0000
     atom:   11    charge:    3.1196    magn:   -0.0000    constr:    0.0000
     atom:   12    charge:    2.0870    magn:    0.0000    constr:    0.0000
     atom:   13    charge:    3.1148    magn:   -0.0000    constr:    0.0000
     atom:   14    charge:    2.0911    magn:    0.0000    constr:    0.0000
     atom:   15    charge:    3.1194    magn:   -0.0000    constr:    0.0000
     atom:   16    charge:    2.0883    magn:    0.0000    constr:    0.0000
     atom:   17    charge:    2.0622    magn:    0.0002    constr:    0.0000
     atom:   18    charge:    3.1239    magn:   -0.0000    constr:    0.0000
     atom:   19    charge:    2.0878    magn:   -0.0000    constr:    0.0000
     atom:   20    charge:    2.0846    magn:   -0.0000    constr:    0.0000
     atom:   21    charge:    2.0846    magn:   -0.0000    constr:    0.0000
     atom:   22    charge:    3.1197    magn:   -0.0000    constr:    0.0000
     atom:   23    charge:    2.0908    magn:    0.0000    constr:    0.0000
     atom:   24    charge:    2.0777    magn:    0.0000    constr:    0.0000
     atom:   25    charge:    2.0869    magn:    0.0000    constr:    0.0000
     atom:   26    charge:    3.1165    magn:   -0.0000    constr:    0.0000
     atom:   27    charge:    2.0823    magn:    0.0001    constr:    0.0000
     atom:   28    charge:    2.0878    magn:    0.0000    constr:    0.0000
     atom:   29    charge:    2.0877    magn:    0.0000    constr:    0.0000
     atom:   30    charge:    3.1168    magn:   -0.0001    constr:    0.0000
     atom:   31    charge:    2.0815    magn:    0.0001    constr:    0.0000
     atom:   32    charge:    2.0843    magn:    0.0000    constr:    0.0000
     atom:   33    charge:    2.0622    magn:    0.0002    constr:    0.0000
     atom:   34    charge:    3.1239    magn:   -0.0000    constr:    0.0000
     atom:   35    charge:    2.0878    magn:   -0.0000    constr:    0.0000
     atom:   36    charge:    2.0846    magn:   -0.0000    constr:    0.0000
     atom:   37    charge:    2.0846    magn:   -0.0000    constr:    0.0000
     atom:   38    charge:    3.1197    magn:   -0.0000    constr:    0.0000
     atom:   39    charge:    2.0912    magn:    0.0000    constr:    0.0000
     atom:   40    charge:    2.0777    magn:    0.0000    constr:    0.0000
     atom:   41    charge:    2.0869    magn:    0.0000    constr:    0.0000
     atom:   42    charge:    3.1181    magn:   -0.0000    constr:    0.0000
     atom:   43    charge:    2.0838    magn:    0.0001    constr:    0.0000
     atom:   44    charge:    2.0864    magn:    0.0001    constr:    0.0000
     atom:   45    charge:    2.0871    magn:    0.0000    constr:    0.0000
     atom:   46    charge:    3.1172    magn:   -0.0001    constr:    0.0000
     atom:   47    charge:    2.0796    magn:    0.0001    constr:    0.0000
     atom:   48    charge:    2.0834    magn:    0.0001    constr:    0.0000
     atom:   49    charge:    2.0500    magn:    0.0000    constr:    0.0000
     atom:   50    charge:    1.2433    magn:   -0.0000    constr:    0.0000
     atom:   51    charge:    1.2701    magn:    0.0000    constr:    0.0000

     total cpu time spent up to now is     1763.8 secs

     total energy              =   -3044.95162625 Ry
     Harris-Foulkes estimate   =   -3044.95183709 Ry
     estimated scf accuracy    <       0.00054644 Ry

     total magnetization       =     0.00 Bohr mag/cell
     absolute magnetization    =     0.00 Bohr mag/cell

     iteration #  6     ecut=    40.42 Ry     beta=0.10
     Davidson diagonalization with overlap
     ethr =  1.37E-07,  avg # of iterations =  3.0

     negative rho (up, down):  1.153E-02 1.153E-02
 
     Magnetic moment per site:
     atom:    1    charge:    3.1250    magn:   -0.0001    constr:    0.0000
     atom:    2    charge:    2.0894    magn:    0.0000    constr:    0.0000
     atom:    3    charge:    3.1196    magn:   -0.0000    constr:    0.0000
     atom:    4    charge:    2.0870    magn:    0.0000    constr:    0.0000
     atom:    5    charge:    3.1170    magn:   -0.0000    constr:    0.0000
     atom:    6    charge:    2.0917    magn:    0.0000    constr:    0.0000
     atom:    7    charge:    3.1185    magn:   -0.0000    constr:    0.0000
     atom:    8    charge:    2.0815    magn:    0.0000    constr:    0.0000
     atom:    9    charge:    3.1250    magn:   -0.0001    constr:    0.0000
     atom:   10    charge:    2.0894    magn:    0.0000    constr:    0.0000
     atom:   11    charge:    3.1196    magn:   -0.0000    constr:    0.0000
     atom:   12    charge:    2.0870    magn:    0.0000    constr:    0.0000
     atom:   13    charge:    3.1148    magn:   -0.0000    constr:    0.0000
     atom:   14    charge:    2.0911    magn:    0.0000    constr:    0.0000
     atom:   15    charge:    3.1194    magn:   -0.0000    constr:    0.0000
     atom:   16    charge:    2.0883    magn:    0.0000    constr:    0.0000
     atom:   17    charge:    2.0623    magn:    0.0002    constr:    0.0000
     atom:   18    charge:    3.1239    magn:   -0.0000    constr:    0.0000
     atom:   19    charge:    2.0878    magn:   -0.0000    constr:    0.0000
     atom:   20    charge:    2.0847    magn:   -0.0000    constr:    0.0000
     atom:   21    charge:    2.0847    magn:   -0.0000    constr:    0.0000
     atom:   22    charge:    3.1197    magn:   -0.0000    constr:    0.0000
     atom:   23    charge:    2.0908    magn:    0.0000    constr:    0.0000
     atom:   24    charge:    2.0777    magn:    0.0000    constr:    0.0000
     atom:   25    charge:    2.0869    magn:    0.0000    constr:    0.0000
     atom:   26    charge:    3.1165    magn:   -0.0000    constr:    0.0000
     atom:   27    charge:    2.0824    magn:    0.0001    constr:    0.0000
     atom:   28    charge:    2.0879    magn:    0.0000    constr:    0.0000
     atom:   29    charge:    2.0877    magn:    0.0000    constr:    0.0000
     atom:   30    charge:    3.1168    magn:   -0.0001    constr:    0.0000
     atom:   31    charge:    2.0814    magn:    0.0001    constr:    0.0000
     atom:   32    charge:    2.0842    magn:    0.0000    constr:    0.0000
     atom:   33    charge:    2.0623    magn:    0.0002    constr:    0.0000
     atom:   34    charge:    3.1239    magn:   -0.0000    constr:    0.0000
     atom:   35    charge:    2.0878    magn:   -0.0000    constr:    0.0000
     atom:   36    charge:    2.0847    magn:   -0.0000    constr:    0.0000
     atom:   37    charge:    2.0847    magn:   -0.0000    constr:    0.0000
     atom:   38    charge:    3.1197    magn:   -0.0000    constr:    0.0000
     atom:   39    charge:    2.0912    magn:    0.0000    constr:    0.0000
     atom:   40    charge:    2.0777    magn:    0.0000    constr:    0.0000
     atom:   41    charge:    2.0869    magn:    0.0000    constr:    0.0000
     atom:   42    charge:    3.1181    magn:   -0.0000    constr:    0.0000
     atom:   43    charge:    2.0838    magn:    0.0001    constr:    0.0000
     atom:   44    charge:    2.0865    magn:    0.0000    constr:    0.0000
     atom:   45    charge:    2.0871    magn:    0.0000    constr:    0.0000
     atom:   46    charge:    3.1171    magn:   -0.0001    constr:    0.0000
     atom:   47    charge:    2.0795    magn:    0.0001    constr:    0.0000
     atom:   48    charge:    2.0836    magn:    0.0001    constr:    0.0000
     atom:   49    charge:    2.0505    magn:    0.0000    constr:    0.0000
     atom:   50    charge:    1.2437    magn:   -0.0000    constr:    0.0000
     atom:   51    charge:    1.2700    magn:    0.0000    constr:    0.0000

     total cpu time spent up to now is     1972.3 secs

     total energy              =   -3044.95167738 Ry
     Harris-Foulkes estimate   =   -3044.95170049 Ry
     estimated scf accuracy    <       0.00008689 Ry

     total magnetization       =     0.00 Bohr mag/cell
     absolute magnetization    =     0.00 Bohr mag/cell

     iteration #  7     ecut=    40.42 Ry     beta=0.10
     Davidson diagonalization with overlap
     ethr =  2.17E-08,  avg # of iterations =  3.0

     negative rho (up, down):  1.154E-02 1.154E-02
 
     Magnetic moment per site:
     atom:    1    charge:    3.1250    magn:   -0.0001    constr:    0.0000
     atom:    2    charge:    2.0894    magn:    0.0000    constr:    0.0000
     atom:    3    charge:    3.1196    magn:   -0.0000    constr:    0.0000
     atom:    4    charge:    2.0870    magn:    0.0000    constr:    0.0000
     atom:    5    charge:    3.1170    magn:   -0.0000    constr:    0.0000
     atom:    6    charge:    2.0917    magn:    0.0000    constr:    0.0000
     atom:    7    charge:    3.1185    magn:   -0.0000    constr:    0.0000
     atom:    8    charge:    2.0815    magn:    0.0000    constr:    0.0000
     atom:    9    charge:    3.1250    magn:   -0.0001    constr:    0.0000
     atom:   10    charge:    2.0894    magn:    0.0000    constr:    0.0000
     atom:   11    charge:    3.1196    magn:   -0.0000    constr:    0.0000
     atom:   12    charge:    2.0870    magn:    0.0000    constr:    0.0000
     atom:   13    charge:    3.1148    magn:   -0.0000    constr:    0.0000
     atom:   14    charge:    2.0911    magn:    0.0000    constr:    0.0000
     atom:   15    charge:    3.1194    magn:   -0.0000    constr:    0.0000
     atom:   16    charge:    2.0883    magn:    0.0000    constr:    0.0000
     atom:   17    charge:    2.0623    magn:    0.0001    constr:    0.0000
     atom:   18    charge:    3.1239    magn:   -0.0000    constr:    0.0000
     atom:   19    charge:    2.0878    magn:   -0.0000    constr:    0.0000
     atom:   20    charge:    2.0847    magn:   -0.0000    constr:    0.0000
     atom:   21    charge:    2.0847    magn:   -0.0000    constr:    0.0000
     atom:   22    charge:    3.1197    magn:   -0.0000    constr:    0.0000
     atom:   23    charge:    2.0909    magn:    0.0000    constr:    0.0000
     atom:   24    charge:    2.0777    magn:    0.0000    constr:    0.0000
     atom:   25    charge:    2.0869    magn:    0.0000    constr:    0.0000
     atom:   26    charge:    3.1165    magn:   -0.0000    constr:    0.0000
     atom:   27    charge:    2.0824    magn:    0.0001    constr:    0.0000
     atom:   28    charge:    2.0879    magn:    0.0000    constr:    0.0000
     atom:   29    charge:    2.0877    magn:    0.0000    constr:    0.0000
     atom:   30    charge:    3.1168    magn:   -0.0000    constr:    0.0000
     atom:   31    charge:    2.0814    magn:    0.0001    constr:    0.0000
     atom:   32    charge:    2.0842    magn:    0.0000    constr:    0.0000
     atom:   33    charge:    2.0623    magn:    0.0001    constr:    0.0000
     atom:   34    charge:    3.1239    magn:   -0.0000    constr:    0.0000
     atom:   35    charge:    2.0878    magn:   -0.0000    constr:    0.0000
     atom:   36    charge:    2.0847    magn:   -0.0000    constr:    0.0000
     atom:   37    charge:    2.0847    magn:   -0.0000    constr:    0.0000
     atom:   38    charge:    3.1197    magn:   -0.0000    constr:    0.0000
     atom:   39    charge:    2.0912    magn:    0.0000    constr:    0.0000
     atom:   40    charge:    2.0777    magn:    0.0000    constr:    0.0000
     atom:   41    charge:    2.0869    magn:    0.0000    constr:    0.0000
     atom:   42    charge:    3.1181    magn:   -0.0000    constr:    0.0000
     atom:   43    charge:    2.0838    magn:    0.0001    constr:    0.0000
     atom:   44    charge:    2.0865    magn:    0.0000    constr:    0.0000
     atom:   45    charge:    2.0871    magn:    0.0000    constr:    0.0000
     atom:   46    charge:    3.1171    magn:   -0.0000    constr:    0.0000
     atom:   47    charge:    2.0795    magn:    0.0001    constr:    0.0000
     atom:   48    charge:    2.0836    magn:    0.0001    constr:    0.0000
     atom:   49    charge:    2.0508    magn:    0.0000    constr:    0.0000
     atom:   50    charge:    1.2435    magn:   -0.0000    constr:    0.0000
     atom:   51    charge:    1.2711    magn:    0.0000    constr:    0.0000

     total cpu time spent up to now is     2180.5 secs

     total energy              =   -3044.95167601 Ry
     Harris-Foulkes estimate   =   -3044.95168931 Ry
     estimated scf accuracy    <       0.00004853 Ry

     total magnetization       =     0.00 Bohr mag/cell
     absolute magnetization    =     0.00 Bohr mag/cell

     iteration #  8     ecut=    40.42 Ry     beta=0.10
     Davidson diagonalization with overlap
     ethr =  1.21E-08,  avg # of iterations =  3.0

     negative rho (up, down):  1.154E-02 1.154E-02
 
     Magnetic moment per site:
     atom:    1    charge:    3.1250    magn:   -0.0000    constr:    0.0000
     atom:    2    charge:    2.0894    magn:    0.0000    constr:    0.0000
     atom:    3    charge:    3.1196    magn:   -0.0000    constr:    0.0000
     atom:    4    charge:    2.0870    magn:    0.0000    constr:    0.0000
     atom:    5    charge:    3.1170    magn:   -0.0000    constr:    0.0000
     atom:    6    charge:    2.0917    magn:    0.0000    constr:    0.0000
     atom:    7    charge:    3.1185    magn:   -0.0000    constr:    0.0000
     atom:    8    charge:    2.0816    magn:    0.0000    constr:    0.0000
     atom:    9    charge:    3.1250    magn:   -0.0000    constr:    0.0000
     atom:   10    charge:    2.0894    magn:    0.0000    constr:    0.0000
     atom:   11    charge:    3.1196    magn:   -0.0000    constr:    0.0000
     atom:   12    charge:    2.0870    magn:    0.0000    constr:    0.0000
     atom:   13    charge:    3.1148    magn:   -0.0000    constr:    0.0000
     atom:   14    charge:    2.0911    magn:    0.0000    constr:    0.0000
     atom:   15    charge:    3.1194    magn:   -0.0000    constr:    0.0000
     atom:   16    charge:    2.0883    magn:    0.0000    constr:    0.0000
     atom:   17    charge:    2.0624    magn:    0.0001    constr:    0.0000
     atom:   18    charge:    3.1239    magn:   -0.0000    constr:    0.0000
     atom:   19    charge:    2.0878    magn:   -0.0000    constr:    0.0000
     atom:   20    charge:    2.0847    magn:   -0.0000    constr:    0.0000
     atom:   21    charge:    2.0847    magn:   -0.0000    constr:    0.0000
     atom:   22    charge:    3.1197    magn:   -0.0000    constr:    0.0000
     atom:   23    charge:    2.0909    magn:    0.0000    constr:    0.0000
     atom:   24    charge:    2.0777    magn:    0.0000    constr:    0.0000
     atom:   25    charge:    2.0869    magn:    0.0000    constr:    0.0000
     atom:   26    charge:    3.1165    magn:   -0.0000    constr:    0.0000
     atom:   27    charge:    2.0824    magn:    0.0000    constr:    0.0000
     atom:   28    charge:    2.0879    magn:    0.0000    constr:    0.0000
     atom:   29    charge:    2.0877    magn:    0.0000    constr:    0.0000
     atom:   30    charge:    3.1168    magn:   -0.0000    constr:    0.0000
     atom:   31    charge:    2.0815    magn:    0.0001    constr:    0.0000
     atom:   32    charge:    2.0842    magn:    0.0000    constr:    0.0000
     atom:   33    charge:    2.0624    magn:    0.0001    constr:    0.0000
     atom:   34    charge:    3.1239    magn:   -0.0000    constr:    0.0000
     atom:   35    charge:    2.0878    magn:   -0.0000    constr:    0.0000
     atom:   36    charge:    2.0847    magn:   -0.0000    constr:    0.0000
     atom:   37    charge:    2.0847    magn:   -0.0000    constr:    0.0000
     atom:   38    charge:    3.1197    magn:   -0.0000    constr:    0.0000
     atom:   39    charge:    2.0912    magn:    0.0000    constr:    0.0000
     atom:   40    charge:    2.0777    magn:    0.0000    constr:    0.0000
     atom:   41    charge:    2.0869    magn:    0.0000    constr:    0.0000
     atom:   42    charge:    3.1181    magn:   -0.0000    constr:    0.0000
     atom:   43    charge:    2.0838    magn:    0.0000    constr:    0.0000
     atom:   44    charge:    2.0865    magn:    0.0000    constr:    0.0000
     atom:   45    charge:    2.0871    magn:    0.0000    constr:    0.0000
     atom:   46    charge:    3.1171    magn:   -0.0000    constr:    0.0000
     atom:   47    charge:    2.0796    magn:    0.0001    constr:    0.0000
     atom:   48    charge:    2.0836    magn:    0.0000    constr:    0.0000
     atom:   49    charge:    2.0511    magn:    0.0000    constr:    0.0000
     atom:   50    charge:    1.2435    magn:   -0.0000    constr:    0.0000
     atom:   51    charge:    1.2715    magn:    0.0000    constr:    0.0000

     total cpu time spent up to now is     2388.0 secs

     total energy              =   -3044.95167949 Ry
     Harris-Foulkes estimate   =   -3044.95168081 Ry
     estimated scf accuracy    <       0.00000854 Ry

     total magnetization       =     0.00 Bohr mag/cell
     absolute magnetization    =     0.00 Bohr mag/cell

     iteration #  9     ecut=    40.42 Ry     beta=0.10
     Davidson diagonalization with overlap
     ethr =  2.14E-09,  avg # of iterations =  3.0

     negative rho (up, down):  1.154E-02 1.154E-02
 
     Magnetic moment per site:
     atom:    1    charge:    3.1250    magn:   -0.0000    constr:    0.0000
     atom:    2    charge:    2.0894    magn:    0.0000    constr:    0.0000
     atom:    3    charge:    3.1196    magn:   -0.0000    constr:    0.0000
     atom:    4    charge:    2.0870    magn:    0.0000    constr:    0.0000
     atom:    5    charge:    3.1170    magn:   -0.0000    constr:    0.0000
     atom:    6    charge:    2.0917    magn:    0.0000    constr:    0.0000
     atom:    7    charge:    3.1185    magn:   -0.0000    constr:    0.0000
     atom:    8    charge:    2.0816    magn:    0.0000    constr:    0.0000
     atom:    9    charge:    3.1250    magn:   -0.0000    constr:    0.0000
     atom:   10    charge:    2.0894    magn:    0.0000    constr:    0.0000
     atom:   11    charge:    3.1196    magn:   -0.0000    constr:    0.0000
     atom:   12    charge:    2.0870    magn:    0.0000    constr:    0.0000
     atom:   13    charge:    3.1148    magn:   -0.0000    constr:    0.0000
     atom:   14    charge:    2.0911    magn:    0.0000    constr:    0.0000
     atom:   15    charge:    3.1194    magn:   -0.0000    constr:    0.0000
     atom:   16    charge:    2.0883    magn:    0.0000    constr:    0.0000
     atom:   17    charge:    2.0624    magn:    0.0001    constr:    0.0000
     atom:   18    charge:    3.1239    magn:   -0.0000    constr:    0.0000
     atom:   19    charge:    2.0878    magn:   -0.0000    constr:    0.0000
     atom:   20    charge:    2.0847    magn:   -0.0000    constr:    0.0000
     atom:   21    charge:    2.0847    magn:   -0.0000    constr:    0.0000
     atom:   22    charge:    3.1197    magn:   -0.0000    constr:    0.0000
     atom:   23    charge:    2.0909    magn:    0.0000    constr:    0.0000
     atom:   24    charge:    2.0777    magn:    0.0000    constr:    0.0000
     atom:   25    charge:    2.0869    magn:    0.0000    constr:    0.0000
     atom:   26    charge:    3.1165    magn:   -0.0000    constr:    0.0000
     atom:   27    charge:    2.0824    magn:    0.0000    constr:    0.0000
     atom:   28    charge:    2.0879    magn:    0.0000    constr:    0.0000
     atom:   29    charge:    2.0877    magn:    0.0000    constr:    0.0000
     atom:   30    charge:    3.1168    magn:   -0.0000    constr:    0.0000
     atom:   31    charge:    2.0815    magn:    0.0001    constr:    0.0000
     atom:   32    charge:    2.0843    magn:    0.0000    constr:    0.0000
     atom:   33    charge:    2.0624    magn:    0.0001    constr:    0.0000
     atom:   34    charge:    3.1239    magn:   -0.0000    constr:    0.0000
     atom:   35    charge:    2.0878    magn:   -0.0000    constr:    0.0000
     atom:   36    charge:    2.0847    magn:   -0.0000    constr:    0.0000
     atom:   37    charge:    2.0847    magn:   -0.0000    constr:    0.0000
     atom:   38    charge:    3.1197    magn:   -0.0000    constr:    0.0000
     atom:   39    charge:    2.0912    magn:    0.0000    constr:    0.0000
     atom:   40    charge:    2.0777    magn:    0.0000    constr:    0.0000
     atom:   41    charge:    2.0869    magn:    0.0000    constr:    0.0000
     atom:   42    charge:    3.1181    magn:   -0.0000    constr:    0.0000
     atom:   43    charge:    2.0838    magn:    0.0000    constr:    0.0000
     atom:   44    charge:    2.0865    magn:    0.0000    constr:    0.0000
     atom:   45    charge:    2.0871    magn:    0.0000    constr:    0.0000
     atom:   46    charge:    3.1171    magn:   -0.0000    constr:    0.0000
     atom:   47    charge:    2.0796    magn:    0.0001    constr:    0.0000
     atom:   48    charge:    2.0835    magn:    0.0000    constr:    0.0000
     atom:   49    charge:    2.0511    magn:    0.0000    constr:    0.0000
     atom:   50    charge:    1.2434    magn:   -0.0000    constr:    0.0000
     atom:   51    charge:    1.2715    magn:    0.0000    constr:    0.0000

     total cpu time spent up to now is     2598.2 secs

     total energy              =   -3044.95168019 Ry
     Harris-Foulkes estimate   =   -3044.95168034 Ry
     estimated scf accuracy    <       0.00000211 Ry

     total magnetization       =     0.00 Bohr mag/cell
     absolute magnetization    =     0.00 Bohr mag/cell

     iteration # 10     ecut=    40.42 Ry     beta=0.10
     Davidson diagonalization with overlap
     ethr =  5.28E-10,  avg # of iterations =  2.0

     negative rho (up, down):  1.154E-02 1.154E-02
 
     Magnetic moment per site:
     atom:    1    charge:    3.1250    magn:   -0.0000    constr:    0.0000
     atom:    2    charge:    2.0894    magn:    0.0000    constr:    0.0000
     atom:    3    charge:    3.1196    magn:   -0.0000    constr:    0.0000
     atom:    4    charge:    2.0870    magn:    0.0000    constr:    0.0000
     atom:    5    charge:    3.1170    magn:   -0.0000    constr:    0.0000
     atom:    6    charge:    2.0917    magn:    0.0000    constr:    0.0000
     atom:    7    charge:    3.1185    magn:   -0.0000    constr:    0.0000
     atom:    8    charge:    2.0815    magn:    0.0000    constr:    0.0000
     atom:    9    charge:    3.1250    magn:   -0.0000    constr:    0.0000
     atom:   10    charge:    2.0894    magn:    0.0000    constr:    0.0000
     atom:   11    charge:    3.1196    magn:   -0.0000    constr:    0.0000
     atom:   12    charge:    2.0870    magn:    0.0000    constr:    0.0000
     atom:   13    charge:    3.1148    magn:   -0.0000    constr:    0.0000
     atom:   14    charge:    2.0911    magn:    0.0000    constr:    0.0000
     atom:   15    charge:    3.1194    magn:   -0.0000    constr:    0.0000
     atom:   16    charge:    2.0883    magn:    0.0000    constr:    0.0000
     atom:   17    charge:    2.0623    magn:    0.0000    constr:    0.0000
     atom:   18    charge:    3.1239    magn:   -0.0000    constr:    0.0000
     atom:   19    charge:    2.0878    magn:   -0.0000    constr:    0.0000
     atom:   20    charge:    2.0847    magn:   -0.0000    constr:    0.0000
     atom:   21    charge:    2.0847    magn:   -0.0000    constr:    0.0000
     atom:   22    charge:    3.1197    magn:   -0.0000    constr:    0.0000
     atom:   23    charge:    2.0908    magn:    0.0000    constr:    0.0000
     atom:   24    charge:    2.0777    magn:    0.0000    constr:    0.0000
     atom:   25    charge:    2.0869    magn:    0.0000    constr:    0.0000
     atom:   26    charge:    3.1165    magn:   -0.0000    constr:    0.0000
     atom:   27    charge:    2.0824    magn:    0.0000    constr:    0.0000
     atom:   28    charge:    2.0879    magn:    0.0000    constr:    0.0000
     atom:   29    charge:    2.0877    magn:    0.0000    constr:    0.0000
     atom:   30    charge:    3.1168    magn:   -0.0000    constr:    0.0000
     atom:   31    charge:    2.0815    magn:    0.0000    constr:    0.0000
     atom:   32    charge:    2.0842    magn:    0.0000    constr:    0.0000
     atom:   33    charge:    2.0623    magn:    0.0000    constr:    0.0000
     atom:   34    charge:    3.1239    magn:   -0.0000    constr:    0.0000
     atom:   35    charge:    2.0878    magn:   -0.0000    constr:    0.0000
     atom:   36    charge:    2.0847    magn:   -0.0000    constr:    0.0000
     atom:   37    charge:    2.0847    magn:   -0.0000    constr:    0.0000
     atom:   38    charge:    3.1197    magn:   -0.0000    constr:    0.0000
     atom:   39    charge:    2.0912    magn:    0.0000    constr:    0.0000
     atom:   40    charge:    2.0777    magn:    0.0000    constr:    0.0000
     atom:   41    charge:    2.0869    magn:    0.0000    constr:    0.0000
     atom:   42    charge:    3.1181    magn:   -0.0000    constr:    0.0000
     atom:   43    charge:    2.0838    magn:    0.0000    constr:    0.0000
     atom:   44    charge:    2.0865    magn:    0.0000    constr:    0.0000
     atom:   45    charge:    2.0871    magn:    0.0000    constr:    0.0000
     atom:   46    charge:    3.1171    magn:   -0.0000    constr:    0.0000
     atom:   47    charge:    2.0796    magn:    0.0000    constr:    0.0000
     atom:   48    charge:    2.0836    magn:    0.0000    constr:    0.0000
     atom:   49    charge:    2.0509    magn:    0.0000    constr:    0.0000
     atom:   50    charge:    1.2432    magn:   -0.0000    constr:    0.0000
     atom:   51    charge:    1.2715    magn:    0.0000    constr:    0.0000

     total cpu time spent up to now is     2791.5 secs

     End of self-consistent calculation

 ------ SPIN UP ------------


          k = 0.0000 0.0000 0.0000 ( 34665 PWs)   bands (ev):

   -57.8380 -57.8030 -57.5310 -57.4755 -57.4097 -57.3734 -57.2944 -57.2591
   -57.1970 -57.1617 -57.1351 -57.0998 -56.8999 -56.8282 -56.2997 -56.2644
   -34.2743 -34.1191 -34.0906 -34.0780 -34.0395 -33.9452 -33.8855 -33.8844
   -33.8463 -33.7879 -33.7527 -33.7430 -33.7380 -33.7060 -33.6882 -33.6864
   -33.6672 -33.6575 -33.6389 -33.5729 -33.5462 -33.4805 -33.4758 -33.4551
   -33.4481 -33.4457 -33.4037 -33.4009 -33.3948 -33.3769 -33.3725 -33.3522
   -33.3309 -33.3251 -33.2959 -33.2917 -33.2665 -33.1615 -33.1564 -33.1008
   -33.0554 -32.9542 -32.7184 -32.6509 -32.6248 -32.5224 -32.4307 -32.3224
   -23.9968 -20.7290 -18.1946 -17.9908 -17.7709 -17.6472 -17.5145 -17.5124
   -17.2293 -17.2067 -17.1651 -17.0701 -17.0696 -17.0247 -17.0144 -16.9392
   -16.8919 -16.8784 -16.8587 -16.8174 -16.7518 -16.7065 -16.5909 -16.5648
   -16.5379 -16.5295 -16.4381 -16.3272 -16.2925 -16.2609 -16.1240 -16.0937
   -14.8817 -14.7969  -9.8599  -7.2700  -7.2610  -6.0203  -5.5857  -5.5269
    -5.3790  -5.3709  -5.3116  -5.0158  -4.9545  -4.6063  -4.6004  -4.5659
    -4.5582  -4.5091  -4.3826  -4.2886  -4.2403  -4.2225  -4.1864  -4.1844
    -4.1784  -4.1719  -4.1064  -4.1010  -4.0267  -4.0023  -3.9720  -3.9320
    -3.8961  -3.8274  -3.7900  -3.7660  -3.7375  -3.6594  -3.6386  -3.5625
    -3.5608  -3.5356  -3.4673  -3.3485  -3.2183  -3.1834  -3.0777  -3.0199
    -2.9623  -2.8950  -2.8315  -2.8022  -2.7592  -2.7587  -2.7405  -2.6149
    -2.5787  -2.5231  -2.4510  -2.4160  -2.3878  -2.3705  -2.3394  -2.2999
    -2.2925  -2.2659  -2.2277  -2.1960  -2.1905  -2.0664  -2.0089  -1.9113
    -1.7699  -1.7647  -1.7419  -1.6972  -1.6709  -1.6581  -1.5810  -1.5600
    -1.4591  -1.4504  -1.4271  -1.4169  -1.3983  -1.3019  -1.2501  -1.2395
    -1.2182  -1.1500  -1.0897  -1.0344  -0.9344  -0.7600  -0.7292  -0.7259
    -0.6645  -0.5365  -0.3859  -0.2498  -0.1895  -0.0232   0.1037   0.1188
     1.5040   1.5327   1.8164   1.8498   1.8661   1.8828   2.0501   2.0719
     2.1055   2.2209   2.3411   2.3554   2.3925   2.4103   2.4451   2.4552
     2.5087   2.5266   2.5471   2.6274   2.6500   2.6607   2.7350   2.7859
     2.8463   2.8760   2.9693   2.9783   2.9795   2.9991   3.0480   3.0635
     3.0780   3.0802   3.0887   3.1242   3.1445   3.2196   3.2831   3.2870
     3.3370   3.3681   3.3997   3.5139   3.5166   3.6530   3.8616   3.9312
     3.9684   4.0283   4.0340   4.1625   4.2379   4.4446   4.5143   4.6406
     4.8881   4.9117   4.9933   5.1132   5.1910   5.3750   5.3802   5.4056
     5.4774   5.5646   5.6092   5.6209   5.6972   5.7142   5.7214   5.7575
     5.9069   5.9554   5.9964   6.0001   6.0806   6.1260   6.2007   6.2037
     6.4579   6.6132   6.7547   6.7723   6.8662   7.1129   7.1489   7.2824
     7.9220   7.9899   8.1588   8.4139   8.6907   8.9054   8.9446   8.9543
     9.2261   9.2613   9.2753   9.3599

          k = 0.0000 0.0280 0.0000 ( 34717 PWs)   bands (ev):

   -57.8356 -57.8054 -57.5295 -57.4770 -57.4074 -57.3758 -57.2921 -57.2615
   -57.1946 -57.1640 -57.1328 -57.1021 -56.8986 -56.8295 -56.2973 -56.2668
   -34.2489 -34.1171 -34.0925 -34.0522 -34.0333 -33.9517 -33.9114 -33.8604
   -33.8398 -33.7643 -33.7552 -33.7472 -33.7364 -33.7068 -33.6911 -33.6875
   -33.6629 -33.6335 -33.6325 -33.5660 -33.5551 -33.5058 -33.4737 -33.4648
   -33.4499 -33.4397 -33.4219 -33.3968 -33.3775 -33.3759 -33.3712 -33.3587
   -33.3303 -33.3301 -33.3214 -33.2936 -33.2920 -33.1610 -33.1533 -33.1014
   -33.0598 -32.9825 -32.6927 -32.6492 -32.6267 -32.5163 -32.4369 -32.3499
   -23.9968 -20.7289 -18.1330 -17.9328 -17.7180 -17.5939 -17.4937 -17.4654
   -17.2479 -17.2066 -17.1765 -17.1358 -17.0743 -17.0218 -17.0038 -16.9251
   -16.9108 -16.8629 -16.8467 -16.8172 -16.7825 -16.7641 -16.6151 -16.5597
   -16.5345 -16.5173 -16.4677 -16.3233 -16.3102 -16.2784 -16.1491 -16.1363
   -14.8916 -14.8201  -9.8598  -7.2716  -7.2608  -6.0193  -5.4976  -5.4426
    -5.3012  -5.2912  -5.2343  -4.8978  -4.8794  -4.6309  -4.6011  -4.5315
    -4.5053  -4.4714  -4.3355  -4.3083  -4.3059  -4.2553  -4.2487  -4.2128
    -4.1743  -4.1610  -4.1245  -4.1122  -4.0964  -4.0688  -4.0259  -4.0033
    -3.9463  -3.9407  -3.8778  -3.8193  -3.7535  -3.7383  -3.7181  -3.5843
    -3.5027  -3.4863  -3.3952  -3.3255  -3.1438  -3.0972  -3.0071  -2.9676
    -2.8408  -2.7980  -2.7715  -2.7654  -2.6877  -2.6569  -2.6507  -2.6321
    -2.5864  -2.5743  -2.5365  -2.4701  -2.4298  -2.3633  -2.3389  -2.2971
    -2.2532  -2.2329  -2.2191  -2.1417  -2.0686  -2.0354  -1.9559  -1.8914
    -1.8590  -1.8368  -1.8066  -1.7920  -1.7166  -1.6903  -1.6483  -1.6151
    -1.5748  -1.5128  -1.4794  -1.4248  -1.4062  -1.3749  -1.2947  -1.2538
    -1.2076  -1.1702  -1.0838  -1.0480  -0.9644  -0.9284  -0.8618  -0.7779
    -0.7477  -0.5514  -0.4272  -0.2449  -0.2385  -0.0123   0.0583   0.0832
     1.5894   1.6365   1.8465   1.8522   1.9067   1.9856   2.0286   2.0964
     2.1557   2.2497   2.3048   2.3593   2.3613   2.4236   2.4321   2.4671
     2.4849   2.5021   2.5646   2.5758   2.6514   2.7056   2.7515   2.7626
     2.8063   2.8598   2.9182   2.9375   2.9720   2.9997   3.0265   3.0563
     3.0737   3.0824   3.1511   3.1739   3.2281   3.2517   3.3025   3.3547
     3.4014   3.4482   3.4853   3.4923   3.5463   3.6198   3.8115   3.9266
     3.9518   4.0365   4.1124   4.1288   4.1697   4.3876   4.5733   4.7389
     4.8941   4.9905   5.0913   5.1757   5.1953   5.3901   5.4117   5.4640
     5.4751   5.5467   5.5804   5.6064   5.6522   5.6774   5.7177   5.8066
     5.8558   5.9118   5.9609   6.0013   6.0085   6.0250   6.1008   6.2802
     6.4370   6.5307   6.7141   6.7744   6.7947   7.0552   7.0567   7.3750
     7.6981   7.9702   8.1020   8.3050   8.4166   8.7205   8.9984   9.0180
     9.0778   9.3031   9.3651   9.4161

          k = 0.0000 0.0560 0.0000 ( 34721 PWs)   bands (ev):

   -57.8293 -57.8118 -57.5262 -57.4803 -57.4012 -57.3819 -57.2856 -57.2680
   -57.1882 -57.1704 -57.1264 -57.1086 -56.8960 -56.8322 -56.2909 -56.2733
   -34.1791 -34.1118 -34.0975 -34.0162 -33.9844 -33.9816 -33.9691 -33.8240
   -33.7942 -33.7836 -33.7709 -33.7336 -33.7248 -33.7108 -33.6923 -33.6881
   -33.6150 -33.5954 -33.5929 -33.5648 -33.5568 -33.5465 -33.4952 -33.4888
   -33.4684 -33.4547 -33.4233 -33.3973 -33.3924 -33.3764 -33.3736 -33.3694
   -33.3576 -33.3432 -33.3212 -33.3185 -33.2832 -33.1603 -33.1496 -33.1027
   -33.0732 -33.0502 -32.6444 -32.6314 -32.6219 -32.4998 -32.4538 -32.4240
   -23.9968 -20.7287 -17.9616 -17.7727 -17.5783 -17.4665 -17.4451 -17.4399
   -17.3373 -17.3074 -17.1986 -17.0988 -17.0937 -17.0615 -17.0387 -16.9993
   -16.8792 -16.8782 -16.8662 -16.8321 -16.7678 -16.7029 -16.6792 -16.6367
   -16.5484 -16.4899 -16.4622 -16.3472 -16.3371 -16.2972 -16.2610 -16.1989
   -14.9091 -14.8705  -9.8595  -7.2748  -7.2603  -6.0174  -5.2552  -5.2071
    -5.0938  -5.0620  -5.0257  -4.7551  -4.6802  -4.6448  -4.5701  -4.5586
    -4.5309  -4.5161  -4.4868  -4.4069  -4.3748  -4.3682  -4.3447  -4.3401
    -4.2746  -4.2357  -4.2162  -4.1644  -4.1510  -4.1110  -4.0844  -4.0335
    -3.9715  -3.9438  -3.8739  -3.7980  -3.7418  -3.6198  -3.5929  -3.4970
    -3.4357  -3.4043  -3.3829  -3.2847  -3.1859  -3.0360  -2.9916  -2.9797
    -2.9466  -2.8950  -2.7957  -2.7466  -2.6986  -2.6634  -2.6205  -2.4863
    -2.4704  -2.4640  -2.4315  -2.4075  -2.3552  -2.3192  -2.2973  -2.2912
    -2.2217  -2.1976  -2.1174  -2.0856  -2.0633  -2.0529  -2.0276  -2.0051
    -1.9581  -1.9195  -1.8841  -1.8101  -1.7325  -1.7011  -1.6866  -1.6732
    -1.6576  -1.5891  -1.5346  -1.5180  -1.4981  -1.4608  -1.3898  -1.3739
    -1.2966  -1.2572  -1.1835  -1.1588  -1.0815  -1.0154  -0.9444  -0.9135
    -0.8137  -0.7310  -0.6133  -0.4104  -0.0576  -0.0017   0.0293   0.0324
     1.7262   1.8664   1.8888   1.9684   1.9951   2.0390   2.1189   2.1820
     2.2032   2.2404   2.2445   2.2601   2.2800   2.3397   2.3635   2.4890
     2.5050   2.5326   2.5501   2.6316   2.6505   2.7180   2.7361   2.7802
     2.7865   2.8094   2.8303   2.9241   2.9387   2.9939   3.0523   3.0768
     3.0896   3.1463   3.1638   3.2053   3.2762   3.3219   3.3711   3.3936
     3.4689   3.5387   3.5983   3.6484   3.6714   3.7040   3.7267   3.8314
     3.9639   3.9803   3.9947   4.0714   4.2227   4.2928   4.7002   4.8267
     5.0124   5.1452   5.2376   5.2830   5.3127   5.3819   5.3892   5.4573
     5.5070   5.5827   5.5944   5.6034   5.6260   5.6781   5.7087   5.7225
     5.7377   5.7757   5.8136   5.8798   5.9642   6.0087   6.1824   6.2995
     6.3528   6.3973   6.6275   6.6381   6.6964   6.8964   7.0131   7.2540
     7.4129   7.6780   7.7784   8.2758   8.4359   8.6119   8.8813   9.0425
     9.1970   9.3430   9.4509   9.5935

          k = 0.0000-0.0840 0.0000 ( 34678 PWs)   bands (ev):

   -57.8206 -57.8205 -57.5244 -57.4822 -57.3954 -57.3878 -57.2769 -57.2767
   -57.1807 -57.1780 -57.1185 -57.1165 -56.8946 -56.8336 -56.2821 -56.2821
   -34.1047 -34.1047 -34.0825 -34.0825 -33.9927 -33.9927 -33.8989 -33.8661
   -33.8071 -33.7893 -33.7370 -33.7289 -33.7142 -33.6962 -33.6906 -33.6792
   -33.5937 -33.5935 -33.5920 -33.5848 -33.5188 -33.5183 -33.4971 -33.4947
   -33.4738 -33.4660 -33.4615 -33.4612 -33.4009 -33.3986 -33.3722 -33.3691
   -33.3614 -33.3594 -33.3147 -33.3129 -33.2153 -33.1820 -33.1570 -33.1061
   -33.1026 -33.0702 -32.6379 -32.6379 -32.5240 -32.5239 -32.4768 -32.4768
   -23.9967 -20.7286 -17.7236 -17.7121 -17.5523 -17.5514 -17.4394 -17.4198
   -17.2667 -17.2585 -17.1963 -17.1957 -17.1623 -17.1591 -16.9802 -16.9800
   -16.9578 -16.9537 -16.7966 -16.7653 -16.7397 -16.7353 -16.6619 -16.6550
   -16.5693 -16.5249 -16.3945 -16.3928 -16.3480 -16.3468 -16.2669 -16.2658
   -14.9072 -14.9072  -9.8595  -7.2763  -7.2600  -6.0166  -4.9445  -4.9419
    -4.8736  -4.8735  -4.8246  -4.8094  -4.7825  -4.7754  -4.7402  -4.7182
    -4.5461  -4.5276  -4.5138  -4.5112  -4.4406  -4.4390  -4.4346  -4.4320
    -4.2790  -4.2387  -4.1750  -4.1740  -4.1615  -4.1397  -4.0284  -3.9706
    -3.9696  -3.9337  -3.8585  -3.8162  -3.6721  -3.6319  -3.4806  -3.4693
    -3.3158  -3.3069  -3.2430  -3.1697  -3.1469  -3.1200  -2.9831  -2.9643
    -2.9453  -2.8962  -2.8772  -2.8316  -2.7314  -2.7051  -2.6849  -2.6666
    -2.6417  -2.6337  -2.5896  -2.4738  -2.4586  -2.4345  -2.1763  -2.1410
    -2.1188  -2.0709  -2.0319  -2.0013  -1.9520  -1.9510  -1.9455  -1.8967
    -1.8877  -1.8841  -1.8662  -1.8101  -1.7956  -1.7311  -1.6482  -1.6476
    -1.6097  -1.5929  -1.5738  -1.5727  -1.5642  -1.5606  -1.5404  -1.4358
    -1.3921  -1.2830  -1.2680  -1.2396  -1.1461  -1.1402  -1.1166  -1.1116
    -0.7020  -0.6530  -0.6143  -0.6102  -0.0020  -0.0016   0.0353   0.0356
     1.8909   1.8948   1.9888   1.9903   2.0839   2.0841   2.0854   2.1039
     2.2062   2.2063   2.2082   2.2242   2.3204   2.3619   2.4137   2.4166
     2.5059   2.5108   2.5470   2.5763   2.5782   2.7274   2.7428   2.8050
     2.8115   2.8456   2.8861   2.9249   2.9562   2.9749   3.0284   3.0487
     3.0490   3.1523   3.2335   3.3066   3.3094   3.3138   3.3159   3.3356
     3.6001   3.6026   3.6695   3.6837   3.7105   3.7706   3.7720   3.8505
     3.9068   3.9089   3.9727   3.9731   4.1034   4.3813   4.7756   4.7997
     5.1325   5.1511   5.2705   5.3066   5.3673   5.3673   5.4745   5.5004
     5.5326   5.5497   5.5660   5.6224   5.6413   5.6693   5.6884   5.6886
     5.7515   5.8092   5.8169   5.8341   5.9792   5.9872   6.0310   6.0553
     6.4057   6.4085   6.5425   6.5702   6.8513   6.8545   6.9625   6.9759
     7.3820   7.5023   7.5922   8.1981   8.3383   8.6674   9.0468   9.1251
     9.3971   9.4483   9.5991   9.6471

          k = 0.0253 0.0000 0.0000 ( 34707 PWs)   bands (ev):

   -57.8380 -57.8030 -57.5310 -57.4755 -57.4097 -57.3734 -57.2944 -57.2591
   -57.1970 -57.1616 -57.1352 -57.0998 -56.8999 -56.8282 -56.2997 -56.2644
   -34.2746 -34.1191 -34.0906 -34.0781 -34.0388 -33.9452 -33.8861 -33.8845
   -33.8462 -33.7894 -33.7524 -33.7428 -33.7369 -33.7069 -33.6976 -33.6886
   -33.6673 -33.6436 -33.6372 -33.5674 -33.5467 -33.4806 -33.4757 -33.4548
   -33.4482 -33.4459 -33.4044 -33.4032 -33.3947 -33.3824 -33.3713 -33.3522
   -33.3309 -33.3249 -33.2961 -33.2918 -33.2666 -33.1626 -33.1565 -33.1008
   -33.0555 -32.9543 -32.7183 -32.6520 -32.6243 -32.5224 -32.4307 -32.3225
   -23.9968 -20.7289 -18.1664 -17.9493 -17.7305 -17.6093 -17.5140 -17.5089
   -17.2848 -17.2482 -17.1643 -17.0814 -17.0696 -17.0638 -17.0364 -16.9777
   -16.9320 -16.9151 -16.8360 -16.8092 -16.7219 -16.6260 -16.6239 -16.5388
   -16.5360 -16.5330 -16.4809 -16.3276 -16.2828 -16.2615 -16.1235 -16.0937
   -14.8806 -14.7967  -9.8592  -7.2703  -7.2607  -6.0197  -5.5562  -5.4105
    -5.2701  -5.2570  -5.2040  -5.0075  -4.9532  -4.7995  -4.5968  -4.5834
    -4.5347  -4.5102  -4.4621  -4.4535  -4.3515  -4.2166  -4.2062  -4.1838
    -4.1078  -4.0914  -4.0852  -4.0036  -3.9867  -3.9537  -3.8922  -3.8582
    -3.8505  -3.8297  -3.7921  -3.7469  -3.7192  -3.6369  -3.5967  -3.5064
    -3.4772  -3.4407  -3.3522  -3.2772  -3.2343  -3.1723  -3.1516  -3.0496
    -3.0359  -2.9338  -2.9082  -2.7923  -2.7744  -2.7397  -2.7183  -2.6924
    -2.6677  -2.6266  -2.5181  -2.5075  -2.4665  -2.3917  -2.3779  -2.3322
    -2.2718  -2.2341  -2.2298  -2.1449  -2.1145  -2.0480  -1.9538  -1.9126
    -1.8198  -1.7935  -1.7717  -1.7451  -1.7207  -1.6533  -1.6273  -1.5124
    -1.5026  -1.4931  -1.4490  -1.4220  -1.3829  -1.3572  -1.2888  -1.2722
    -1.2471  -1.1351  -1.1131  -1.0130  -0.9770  -0.9157  -0.8289  -0.7885
    -0.7078  -0.5806  -0.3804  -0.2786  -0.2187  -0.0373   0.0612   0.0622
     1.5210   1.5882   1.8653   1.8815   1.9727   1.9929   2.0389   2.1196
     2.1996   2.2299   2.2975   2.3079   2.3508   2.4028   2.4172   2.4333
     2.4458   2.5074   2.5197   2.5762   2.6009   2.6556   2.6869   2.8061
     2.8242   2.8790   2.9808   2.9847   2.9933   3.0593   3.0712   3.0815
     3.1330   3.1511   3.1720   3.1910   3.2243   3.2789   3.3179   3.3693
     3.3787   3.4157   3.4496   3.4787   3.5753   3.5989   3.7919   3.8540
     4.0226   4.0292   4.0465   4.1496   4.2228   4.3977   4.6205   4.6666
     4.7507   4.9096   4.9264   4.9730   4.9954   5.0311   5.2062   5.4814
     5.5528   5.6185   5.7115   5.7235   5.7823   5.8181   5.9262   5.9381
     5.9742   6.0206   6.0226   6.0557   6.1192   6.1340   6.2385   6.3016
     6.4721   6.6286   6.7311   6.7617   6.8701   6.9909   7.1488   7.3045
     7.5588   8.0306   8.1609   8.3366   8.4027   8.7414   8.8402   8.9320
     8.9984   9.2480   9.2816   9.4171

          k = 0.0253 0.0280 0.0000 ( 34687 PWs)   bands (ev):

   -57.8356 -57.8054 -57.5295 -57.4770 -57.4074 -57.3758 -57.2921 -57.2615
   -57.1946 -57.1640 -57.1328 -57.1021 -56.8986 -56.8295 -56.2973 -56.2668
   -34.2492 -34.1172 -34.0925 -34.0523 -34.0326 -33.9516 -33.9115 -33.8610
   -33.8399 -33.7655 -33.7553 -33.7469 -33.7352 -33.7072 -33.6943 -33.6910
   -33.6632 -33.6308 -33.6246 -33.5605 -33.5552 -33.5059 -33.4736 -33.4634
   -33.4499 -33.4398 -33.4228 -33.4000 -33.3803 -33.3771 -33.3707 -33.3586
   -33.3304 -33.3301 -33.3214 -33.2935 -33.2919 -33.1619 -33.1534 -33.1015
   -33.0598 -32.9824 -32.6926 -32.6501 -32.6261 -32.5163 -32.4369 -32.3499
   -23.9968 -20.7288 -18.1062 -17.8922 -17.6792 -17.5574 -17.4931 -17.4602
   -17.2691 -17.2501 -17.2223 -17.0997 -17.0784 -17.0610 -17.0077 -16.9687
   -16.9413 -16.8773 -16.8548 -16.8419 -16.7661 -16.6760 -16.6469 -16.5631
   -16.5243 -16.5148 -16.4974 -16.3230 -16.3010 -16.2788 -16.1488 -16.1367
   -14.8905 -14.8202  -9.8591  -7.2718  -7.2604  -6.0188  -5.4718  -5.3256
    -5.1900  -5.1782  -5.1259  -4.8924  -4.8779  -4.7461  -4.5878  -4.5375
    -4.4908  -4.4626  -4.4320  -4.3722  -4.3392  -4.3027  -4.2414  -4.2109
    -4.1704  -4.1383  -4.1067  -4.0887  -4.0497  -3.9890  -3.9774  -3.9456
    -3.9315  -3.8720  -3.8608  -3.7733  -3.7527  -3.6975  -3.6921  -3.4979
    -3.4688  -3.4044  -3.3527  -3.2942  -3.1785  -3.1207  -3.0845  -2.9431
    -2.8629  -2.8315  -2.8114  -2.7999  -2.7640  -2.6924  -2.6466  -2.6304
    -2.6063  -2.5910  -2.5644  -2.5321  -2.4719  -2.4139  -2.3679  -2.3421
    -2.2816  -2.2629  -2.2103  -2.1201  -2.0793  -2.0496  -2.0087  -1.9248
    -1.8944  -1.8693  -1.8065  -1.7804  -1.7556  -1.7357  -1.6798  -1.6411
    -1.5831  -1.5263  -1.4974  -1.4783  -1.4338  -1.3943  -1.3431  -1.2477
    -1.2224  -1.2163  -1.0714  -1.0132  -0.9928  -0.9249  -0.9031  -0.8865
    -0.8000  -0.5905  -0.4384  -0.2977  -0.2324  -0.0078   0.0342   0.0432
     1.5826   1.7093   1.8774   1.8856   2.0016   2.0176   2.1208   2.1550
     2.2171   2.2621   2.2987   2.3121   2.3607   2.3736   2.3940   2.4058
     2.4870   2.5202   2.5507   2.5792   2.5974   2.6159   2.7530   2.7886
     2.8267   2.8748   2.9585   2.9629   2.9772   2.9826   3.0341   3.0744
     3.1364   3.1729   3.2305   3.2512   3.2684   3.2858   3.3502   3.3848
     3.4406   3.4637   3.5016   3.5177   3.5633   3.6073   3.7465   3.8650
     3.9932   4.0297   4.0648   4.1533   4.1930   4.3471   4.6653   4.7528
     4.8026   4.9229   4.9685   5.0122   5.0223   5.0978   5.2597   5.5083
     5.5459   5.5841   5.6271   5.7102   5.7259   5.8047   5.8627   5.9064
     5.9385   5.9824   6.0078   6.0263   6.0343   6.0851   6.2815   6.3037
     6.4559   6.5380   6.7299   6.7632   6.8000   6.9995   7.0470   7.3361
     7.5399   8.0028   8.1385   8.2334   8.3176   8.5166   8.5756   8.8464
     9.0273   9.2815   9.4021   9.4764

          k = 0.0253 0.0560 0.0000 ( 34699 PWs)   bands (ev):

   -57.8293 -57.8118 -57.5262 -57.4803 -57.4012 -57.3819 -57.2856 -57.2680
   -57.1883 -57.1704 -57.1264 -57.1086 -56.8960 -56.8322 -56.2909 -56.2733
   -34.1794 -34.1118 -34.0976 -34.0157 -33.9845 -33.9817 -33.9689 -33.8240
   -33.7945 -33.7838 -33.7710 -33.7328 -33.7248 -33.7110 -33.6938 -33.6895
   -33.6139 -33.5953 -33.5934 -33.5613 -33.5566 -33.5421 -33.4960 -33.4856
   -33.4683 -33.4547 -33.4234 -33.3975 -33.3943 -33.3769 -33.3764 -33.3706
   -33.3578 -33.3438 -33.3212 -33.3184 -33.2831 -33.1609 -33.1497 -33.1030
   -33.0732 -33.0501 -32.6451 -32.6312 -32.6218 -32.4998 -32.4539 -32.4240
   -23.9967 -20.7286 -17.9392 -17.7356 -17.5456 -17.4606 -17.4370 -17.4156
   -17.3284 -17.3099 -17.2021 -17.1371 -17.1038 -17.0481 -17.0222 -17.0069
   -16.9144 -16.9072 -16.8739 -16.8253 -16.7893 -16.7502 -16.6999 -16.6088
   -16.5915 -16.4845 -16.4479 -16.3404 -16.3347 -16.2982 -16.2617 -16.1985
   -14.9085 -14.8706  -9.8588  -7.2749  -7.2599  -6.0170  -5.2407  -5.0911
    -4.9807  -4.9527  -4.9198  -4.7495  -4.6796  -4.6644  -4.5475  -4.5402
    -4.5201  -4.5124  -4.4100  -4.3704  -4.3635  -4.3340  -4.3035  -4.2855
    -4.2425  -4.2269  -4.2079  -4.1720  -4.1048  -4.0894  -4.0777  -4.0234
    -3.9875  -3.9312  -3.8620  -3.8239  -3.7404  -3.6472  -3.5587  -3.4870
    -3.4486  -3.4309  -3.3931  -3.2171  -3.1865  -3.0474  -3.0055  -2.9857
    -2.9557  -2.8790  -2.8073  -2.7787  -2.7251  -2.6840  -2.6433  -2.5969
    -2.5736  -2.5313  -2.4858  -2.4704  -2.4285  -2.4128  -2.3315  -2.2882
    -2.2727  -2.2445  -2.1892  -2.1510  -2.1067  -2.0928  -2.0293  -2.0149
    -1.9636  -1.9420  -1.8903  -1.8532  -1.8377  -1.7949  -1.7415  -1.7097
    -1.6805  -1.6041  -1.5814  -1.5093  -1.4856  -1.4356  -1.3981  -1.3600
    -1.2734  -1.2455  -1.1758  -1.1118  -1.0859  -0.9856  -0.9599  -0.8914
    -0.8351  -0.7514  -0.6191  -0.4217  -0.0563  -0.0156   0.0095   0.0326
     1.7225   1.8922   1.9136   2.0358   2.0399   2.0616   2.1475   2.1615
[...]
    -2.6871  -2.6455  -2.6380  -2.6301  -2.5933  -2.5540  -2.5207  -2.5030
    -2.5024  -2.4392  -2.4001  -2.3866  -2.3500  -2.3191  -2.2748  -2.2722
    -2.2496  -2.1628  -2.1571  -2.1563  -2.0296  -1.9925  -1.8412  -1.8129
    -1.7511  -1.7029  -1.4494  -1.4035  -1.3388  -1.3376  -1.1828  -1.1679
    -1.1609  -1.1594  -1.1351  -1.1043  -1.0591  -0.9259  -0.9065  -0.7763
    -0.7628  -0.7488  -0.6822  -0.6809  -0.0774  -0.0773   0.0603   0.0605
     1.9683   1.9831   2.0279   2.0335   2.0578   2.0611   2.0707   2.0748
     2.3402   2.3526   2.3586   2.3694   2.4338   2.4407   2.5080   2.5143
     2.5449   2.5455   2.5807   2.6221   2.7056   2.8213   2.8341   2.8513
     2.8621   2.9312   3.0112   3.0863   3.0937   3.1333   3.1739   3.1760
     3.2423   3.2685   3.3180   3.3448   3.3800   3.3834   3.4256   3.4396
     3.5424   3.5471   3.6414   3.7077   3.7762   3.7998   3.8032   3.8034
     3.9343   3.9393   3.9591   3.9592   4.2664   4.5241   4.6454   4.6459
     4.6985   4.7208   4.7577   4.7678   4.7689   4.7898   5.0592   5.0895
     5.2136   5.2459   5.6041   5.6169   5.7956   5.8096   5.9274   6.0334
     6.1391   6.1936   6.2009   6.2295   6.3238   6.4348   6.4607   6.5168
     6.5186   6.5246   6.6942   6.6950   6.7532   6.7547   7.0492   7.0634
     7.6578   7.6832   7.8134   7.8275   8.0441   8.0951   8.3211   8.4102
     8.5444   8.5637   8.6927   9.1855

          k =-0.0253 0.0280 0.0000 ( 34687 PWs)   bands (ev):

   -57.8357 -57.8054 -57.5296 -57.4770 -57.4074 -57.3758 -57.2921 -57.2615
   -57.1947 -57.1640 -57.1329 -57.1022 -56.8988 -56.8296 -56.2975 -56.2670
   -34.2492 -34.1172 -34.0925 -34.0523 -34.0326 -33.9516 -33.9115 -33.8610
   -33.8399 -33.7656 -33.7553 -33.7470 -33.7352 -33.7073 -33.6944 -33.6910
   -33.6632 -33.6308 -33.6246 -33.5606 -33.5552 -33.5059 -33.4737 -33.4635
   -33.4500 -33.4399 -33.4228 -33.4001 -33.3803 -33.3773 -33.3707 -33.3587
   -33.3305 -33.3301 -33.3214 -33.2936 -33.2920 -33.1620 -33.1535 -33.1016
   -33.0599 -32.9826 -32.6928 -32.6503 -32.6263 -32.5165 -32.4371 -32.3500
   -23.9968 -20.7288 -18.1061 -17.8922 -17.6791 -17.5574 -17.4931 -17.4599
   -17.2692 -17.2504 -17.2223 -17.0998 -17.0786 -17.0610 -17.0081 -16.9687
   -16.9413 -16.8772 -16.8548 -16.8415 -16.7651 -16.6759 -16.6471 -16.5632
   -16.5243 -16.5146 -16.4974 -16.3229 -16.3010 -16.2788 -16.1487 -16.1366
   -14.8902 -14.8198  -9.8590  -7.2718  -7.2604  -6.0188  -5.4717  -5.3256
    -5.1898  -5.1778  -5.1259  -4.8927  -4.8780  -4.7468  -4.5866  -4.5379
    -4.4907  -4.4627  -4.4325  -4.3721  -4.3394  -4.3025  -4.2437  -4.2106
    -4.1707  -4.1388  -4.1069  -4.0887  -4.0488  -3.9891  -3.9770  -3.9464
    -3.9310  -3.8719  -3.8623  -3.7731  -3.7528  -3.6977  -3.6912  -3.4963
    -3.4674  -3.4020  -3.3509  -3.2952  -3.1779  -3.1207  -3.0846  -2.9445
    -2.8633  -2.8284  -2.8116  -2.8006  -2.7649  -2.6922  -2.6469  -2.6277
    -2.6092  -2.5902  -2.5643  -2.5325  -2.4737  -2.4133  -2.3660  -2.3433
    -2.2798  -2.2627  -2.2114  -2.1228  -2.0795  -2.0490  -2.0084  -1.9300
    -1.8919  -1.8715  -1.8094  -1.7791  -1.7565  -1.7344  -1.6795  -1.6413
    -1.5797  -1.5236  -1.4975  -1.4763  -1.4349  -1.3946  -1.3450  -1.2479
    -1.2254  -1.2172  -1.0715  -1.0106  -0.9898  -0.9273  -0.9027  -0.8835
    -0.8005  -0.5907  -0.4383  -0.2977  -0.2322  -0.0076   0.0345   0.0435
     1.5826   1.7093   1.8774   1.8860   2.0018   2.0192   2.1215   2.1569
     2.2196   2.2609   2.2974   2.3079   2.3623   2.3733   2.3939   2.4080
     2.4859   2.5204   2.5493   2.5791   2.5986   2.6159   2.7495   2.7882
     2.8281   2.8747   2.9572   2.9619   2.9761   2.9818   3.0345   3.0731
     3.1388   3.1735   3.2327   3.2513   3.2687   3.2853   3.3487   3.3833
     3.4428   3.4648   3.5014   3.5178   3.5620   3.6075   3.7466   3.8647
     3.9932   4.0295   4.0650   4.1533   4.1925   4.3470   4.6653   4.7496
     4.8047   4.9223   4.9674   5.0113   5.0226   5.0974   5.2587   5.5080
     5.5449   5.5844   5.6274   5.7099   5.7258   5.8033   5.8684   5.9084
     5.9373   5.9815   6.0070   6.0262   6.0346   6.0849   6.2814   6.3034
     6.4575   6.5383   6.7295   6.7633   6.7999   7.0033   7.0470   7.3339
     7.5402   8.0028   8.1428   8.2285   8.3175   8.5168   8.5733   8.8475
     9.0283   9.2794   9.4050   9.4742

          k =-0.0253 0.0560 0.0000 ( 34699 PWs)   bands (ev):

   -57.8293 -57.8118 -57.5263 -57.4804 -57.4013 -57.3820 -57.2857 -57.2680
   -57.1883 -57.1705 -57.1265 -57.1087 -56.8961 -56.8323 -56.2911 -56.2734
   -34.1794 -34.1119 -34.0976 -34.0157 -33.9845 -33.9817 -33.9689 -33.8241
   -33.7946 -33.7839 -33.7710 -33.7329 -33.7248 -33.7111 -33.6939 -33.6895
   -33.6137 -33.5956 -33.5935 -33.5614 -33.5565 -33.5421 -33.4960 -33.4857
   -33.4683 -33.4547 -33.4234 -33.3975 -33.3944 -33.3769 -33.3765 -33.3706
   -33.3579 -33.3439 -33.3213 -33.3185 -33.2832 -33.1610 -33.1498 -33.1031
   -33.0734 -33.0502 -32.6452 -32.6314 -32.6220 -32.4999 -32.4540 -32.4242
   -23.9967 -20.7287 -17.9391 -17.7356 -17.5454 -17.4607 -17.4370 -17.4156
   -17.3279 -17.3100 -17.2022 -17.1371 -17.1043 -17.0480 -17.0222 -17.0085
   -16.9144 -16.9070 -16.8729 -16.8232 -16.7898 -16.7501 -16.7005 -16.6085
   -16.5915 -16.4844 -16.4478 -16.3403 -16.3346 -16.2981 -16.2617 -16.1984
   -14.9082 -14.8703  -9.8588  -7.2749  -7.2599  -6.0170  -5.2406  -5.0911
    -4.9796  -4.9523  -4.9197  -4.7491  -4.6798  -4.6654  -4.5487  -4.5419
    -4.5192  -4.5119  -4.4120  -4.3714  -4.3632  -4.3338  -4.3015  -4.2852
    -4.2427  -4.2275  -4.2073  -4.1725  -4.1046  -4.0911  -4.0779  -4.0243
    -3.9880  -3.9313  -3.8622  -3.8231  -3.7403  -3.6459  -3.5599  -3.4832
    -3.4471  -3.4291  -3.3907  -3.2177  -3.1886  -3.0465  -3.0052  -2.9856
    -2.9544  -2.8792  -2.8059  -2.7796  -2.7258  -2.6840  -2.6440  -2.5964
    -2.5733  -2.5307  -2.4862  -2.4711  -2.4280  -2.4133  -2.3317  -2.2893
    -2.2729  -2.2457  -2.1898  -2.1522  -2.1061  -2.0950  -2.0277  -2.0142
    -1.9663  -1.9444  -1.8936  -1.8540  -1.8352  -1.7948  -1.7392  -1.7115
    -1.6777  -1.6032  -1.5811  -1.5060  -1.4844  -1.4392  -1.3989  -1.3586
    -1.2738  -1.2450  -1.1743  -1.1113  -1.0857  -0.9855  -0.9593  -0.8926
    -0.8353  -0.7506  -0.6189  -0.4219  -0.0561  -0.0154   0.0098   0.0328
     1.7224   1.8929   1.9136   2.0359   2.0394   2.0638   2.1504   2.1619
     2.2345   2.2512   2.2720   2.2896   2.3356   2.3808   2.4092   2.4829
     2.5354   2.5556   2.5676   2.6320   2.6488   2.6649   2.7263   2.7665
     2.7874   2.8035   2.8518   2.8632   2.9686   3.0373   3.0892   3.1187
     3.1712   3.1885   3.2196   3.2477   3.2874   3.3214   3.3755   3.4180
     3.4704   3.5096   3.6193   3.6473   3.6811   3.7180   3.7400   3.8038
     3.9193   3.9617   3.9965   4.1106   4.1922   4.3373   4.7588   4.8291
     4.9731   5.0103   5.0816   5.0994   5.1231   5.2041   5.3094   5.4135
     5.4332   5.4956   5.5782   5.6103   5.7018   5.7148   5.7771   5.8072
     5.8643   5.8911   5.9342   5.9979   6.0320   6.2071   6.2338   6.3631
     6.3908   6.4368   6.6386   6.6416   6.7286   6.8926   7.0425   7.2766
     7.3300   7.7216   7.8475   8.0850   8.3701   8.5602   8.6434   8.9046
     9.0171   9.0639   9.3069   9.3965

          k =-0.0506 0.0280 0.0000 ( 34685 PWs)   bands (ev):

   -57.8357 -57.8054 -57.5296 -57.4770 -57.4074 -57.3758 -57.2921 -57.2615
   -57.1947 -57.1640 -57.1329 -57.1022 -56.8988 -56.8296 -56.2975 -56.2670
   -34.2499 -34.1172 -34.0925 -34.0525 -34.0312 -33.9516 -33.9115 -33.8623
   -33.8400 -33.7681 -33.7555 -33.7468 -33.7342 -33.7087 -33.7015 -33.6910
   -33.6640 -33.6274 -33.6111 -33.5556 -33.5485 -33.5062 -33.4735 -33.4610
   -33.4500 -33.4401 -33.4258 -33.4065 -33.3896 -33.3766 -33.3692 -33.3587
   -33.3305 -33.3303 -33.3215 -33.2935 -33.2919 -33.1641 -33.1536 -33.1017
   -33.0599 -32.9826 -32.6927 -32.6521 -32.6254 -32.5165 -32.4371 -32.3500
   -23.9968 -20.7287 -18.0477 -17.7935 -17.5863 -17.4946 -17.4913 -17.4168
   -17.3553 -17.2732 -17.2593 -17.1310 -17.1059 -17.0806 -17.0771 -17.0165
   -16.9970 -16.9854 -16.8847 -16.7809 -16.7360 -16.6882 -16.6022 -16.5854
   -16.5529 -16.5075 -16.4761 -16.3218 -16.2897 -16.2798 -16.1485 -16.1376
   -14.8882 -14.8199  -9.8576  -7.2722  -7.2598  -6.0179  -5.4554  -5.0321
    -4.9603  -4.9509  -4.8803  -4.8563  -4.8364  -4.7944  -4.6565  -4.5972
    -4.5784  -4.5263  -4.4667  -4.3767  -4.3290  -4.2432  -4.1920  -4.1711
    -4.1519  -4.1418  -4.0701  -4.0270  -3.9939  -3.9676  -3.9260  -3.9008
    -3.8816  -3.8448  -3.7985  -3.7390  -3.7226  -3.6036  -3.4679  -3.4332
    -3.4077  -3.3482  -3.3202  -3.2716  -3.2024  -3.1208  -3.0756  -3.0188
    -2.9502  -2.9203  -2.8784  -2.8686  -2.8224  -2.7654  -2.7507  -2.6989
    -2.6564  -2.6347  -2.6048  -2.5557  -2.5173  -2.4945  -2.4490  -2.4233
    -2.3590  -2.3288  -2.2476  -2.2194  -2.1539  -2.1218  -2.1089  -2.0656
    -2.0155  -1.9524  -1.9222  -1.8920  -1.8643  -1.7963  -1.7101  -1.6534
    -1.6186  -1.5875  -1.5139  -1.4863  -1.4456  -1.4228  -1.3398  -1.2869
    -1.2037  -1.1627  -1.0529  -1.0386  -0.9710  -0.9420  -0.9094  -0.8742
    -0.8332  -0.6711  -0.4706  -0.4169  -0.2191  -0.0366  -0.0059   0.0076
     1.5671   1.7732   1.9021   1.9234   1.9402   2.0170   2.0492   2.1251
     2.2236   2.2398   2.2798   2.3411   2.3900   2.4331   2.4364   2.5006
     2.5152   2.5381   2.5777   2.5909   2.6453   2.7449   2.8020   2.8104
     2.8488   2.9072   2.9266   2.9941   2.9991   3.0447   3.0982   3.1356
     3.1998   3.2211   3.2546   3.2892   3.3444   3.3703   3.4204   3.4529
     3.4796   3.5114   3.5256   3.5584   3.6146   3.6714   3.7174   3.8020
     3.9082   4.0125   4.1006   4.1309   4.2651   4.3231   4.5070   4.6179
     4.6377   4.6649   4.8310   4.8787   4.9752   5.2945   5.3475   5.4566
     5.5000   5.5561   5.6359   5.6913   5.7185   5.7334   5.8687   5.9121
     5.9656   6.0056   6.2454   6.2560   6.3057   6.3542   6.4149   6.4988
     6.5276   6.6062   6.6708   6.7232   6.8102   6.9520   7.0127   7.2289
     7.4320   7.6954   7.8133   8.0684   8.3240   8.3962   8.5283   8.9104
     9.0965   9.1694   9.3826   9.4666

          k =-0.0506 0.0560 0.0000 ( 34596 PWs)   bands (ev):

   -57.8293 -57.8118 -57.5263 -57.4804 -57.4013 -57.3820 -57.2856 -57.2680
   -57.1883 -57.1705 -57.1265 -57.1087 -56.8961 -56.8323 -56.2911 -56.2734
   -34.1800 -34.1118 -34.0975 -34.0145 -33.9847 -33.9818 -33.9685 -33.8241
   -33.7953 -33.7842 -33.7710 -33.7317 -33.7247 -33.7115 -33.6962 -33.6920
   -33.6109 -33.5957 -33.5945 -33.5562 -33.5546 -33.5319 -33.4987 -33.4794
   -33.4682 -33.4547 -33.4235 -33.3984 -33.3972 -33.3843 -33.3764 -33.3726
   -33.3581 -33.3452 -33.3213 -33.3183 -33.2830 -33.1622 -33.1499 -33.1037
   -33.0733 -33.0501 -32.6463 -32.6309 -32.6219 -32.4999 -32.4540 -32.4241
   -23.9967 -20.7285 -17.8908 -17.6424 -17.4718 -17.4497 -17.4301 -17.3569
   -17.3156 -17.2865 -17.2137 -17.1789 -17.1116 -17.0896 -17.0250 -17.0011
   -16.9986 -16.9318 -16.9215 -16.8599 -16.8180 -16.7916 -16.7228 -16.6771
   -16.5770 -16.4740 -16.4287 -16.3309 -16.3289 -16.3009 -16.2633 -16.1979
   -14.9069 -14.8707  -9.8573  -7.2752  -7.2592  -6.0163  -5.2327  -4.7976
    -4.7481  -4.7402  -4.7032  -4.6653  -4.6553  -4.6179  -4.5139  -4.4947
    -4.4700  -4.4521  -4.3608  -4.3105  -4.2911  -4.2871  -4.2457  -4.2252
    -4.1999  -4.1885  -4.1741  -4.1468  -4.0938  -4.0566  -4.0459  -4.0168
    -3.9605  -3.9003  -3.8347  -3.7991  -3.6966  -3.6676  -3.5247  -3.4984
    -3.4810  -3.4134  -3.3946  -3.2148  -3.1251  -3.0915  -3.0410  -3.0004
    -2.9622  -2.9257  -2.9007  -2.8709  -2.8181  -2.7820  -2.7275  -2.7223
    -2.6466  -2.6339  -2.6052  -2.5295  -2.4993  -2.4817  -2.4625  -2.4407
    -2.4148  -2.3735  -2.3036  -2.2903  -2.2673  -2.2396  -2.1945  -2.1803
    -2.1086  -2.0684  -2.0388  -1.9975  -1.9510  -1.8699  -1.8024  -1.7864
    -1.7179  -1.6178  -1.5441  -1.4979  -1.4649  -1.3869  -1.3515  -1.2439
    -1.1895  -1.1508  -1.1080  -1.0475  -1.0027  -0.9392  -0.9263  -0.8500
    -0.8135  -0.7998  -0.6731  -0.4812  -0.0679  -0.0307  -0.0173   0.0386
     1.7253   1.9165   1.9425   2.0000   2.0578   2.0986   2.1057   2.1601
     2.2074   2.2564   2.3683   2.4062   2.4148   2.4395   2.4601   2.4822
     2.5577   2.5866   2.6106   2.6321   2.6538   2.7053   2.7755   2.8047
     2.8752   2.8893   2.9286   2.9590   3.0084   3.0447   3.1363   3.1822
     3.2091   3.2492   3.2766   3.3099   3.3442   3.3705   3.3786   3.4464
     3.5087   3.5455   3.5954   3.6694   3.7247   3.7567   3.7655   3.7817
     3.8208   3.9580   4.0096   4.1366   4.1839   4.4260   4.6306   4.6643
     4.7337   4.7370   4.8807   4.9858   5.0578   5.1278   5.1952   5.2194
     5.2912   5.4498   5.5530   5.6178   5.6909   5.7262   5.8156   5.9569
     5.9976   6.0999   6.1550   6.1943   6.2400   6.2886   6.4530   6.4714
     6.5412   6.5785   6.6531   6.6688   6.7936   6.8352   6.9666   7.3149
     7.3187   7.7198   7.7681   8.0275   8.1041   8.1832   8.5824   8.6752
     8.8310   8.9152   9.1517   9.3709

     the Fermi energy is     0.8517 ev

!    total energy              =   -3044.95168007 Ry
     Harris-Foulkes estimate   =   -3044.95168034 Ry
     estimated scf accuracy    <       0.00000069 Ry

     The total energy is the sum of the following terms:

     one-electron contribution =  -40846.23373989 Ry
     hartree contribution      =   20495.24262339 Ry
     xc contribution           =    -557.09947458 Ry
     ewald contribution        =   17863.13911749 Ry
     smearing contrib. (-TS)   =      -0.00020647 Ry

     total magnetization       =     0.00 Bohr mag/cell
     absolute magnetization    =     0.00 Bohr mag/cell

     convergence has been achieved in  10 iterations

     Forces acting on atoms (Ry/au):


     negative rho (up, down):  1.154E-02 1.154E-02
     atom    1 type  1   force =    -0.00008389    0.00030578   -0.13608619
     atom    2 type  2   force =     0.00010448   -0.00007943    0.07525051
     atom    3 type  1   force =     0.00126985    0.00109306   -0.06000199
     atom    4 type  2   force =     0.00661140   -0.00006828    0.00970506
     atom    5 type  1   force =    -0.00133185   -0.00014214   -0.00017293
     atom    6 type  2   force =    -0.00182528   -0.00351259   -0.00877218
     atom    7 type  1   force =     0.01084225    0.00736617   -0.01706408
     atom    8 type  2   force =     0.00060695   -0.00012938    0.00050519
     atom    9 type  1   force =     0.00013056    0.00035383   -0.13615602
     atom   10 type  2   force =     0.00016633   -0.00003399    0.07519669
     atom   11 type  1   force =     0.00126586   -0.00086816   -0.06013244
     atom   12 type  2   force =     0.00604896   -0.00010995    0.00857426
     atom   13 type  1   force =     0.00012399   -0.00015804   -0.00053268
     atom   14 type  2   force =    -0.00200693    0.00293822   -0.00883621
     atom   15 type  1   force =     0.01100620   -0.00717691   -0.01735704
     atom   16 type  2   force =     0.00745023    0.00009175    0.01097605
     atom   17 type  2   force =    -0.00002562   -0.00005743    0.08007559
     atom   18 type  1   force =    -0.00006130    0.00022734    0.11901484
     atom   19 type  2   force =     0.00039166    0.00018862   -0.06805189
     atom   20 type  2   force =    -0.06269468    0.00005023   -0.03208348
     atom   21 type  2   force =     0.06274325    0.00015143   -0.03255171
     atom   22 type  1   force =    -0.00049167   -0.00012285    0.06419681
     atom   23 type  2   force =     0.00015377    0.00061735   -0.00254707
     atom   24 type  2   force =     0.00049650    0.00004026   -0.02235726
     atom   25 type  2   force =    -0.00645089   -0.00025819    0.00826189
     atom   26 type  1   force =    -0.00011577   -0.00005592    0.00246088
     atom   27 type  2   force =     0.00252501   -0.00139124   -0.00245390
     atom   28 type  2   force =     0.00000146   -0.00001725   -0.00146137
     atom   29 type  2   force =     0.00008812   -0.00005461   -0.00052137
     atom   30 type  1   force =     0.00580255    0.00036738   -0.00038180
     atom   31 type  2   force =    -0.00217409    0.00167672    0.00075152
     atom   32 type  2   force =     0.00145325   -0.00009685    0.00179028
     atom   33 type  2   force =     0.00000056    0.00015325    0.08014539
     atom   34 type  1   force =    -0.00007706    0.00023630    0.11902107
     atom   35 type  2   force =     0.00035718    0.00032545   -0.06800445
     atom   36 type  2   force =    -0.06269058    0.00009794   -0.03229051
     atom   37 type  2   force =     0.06285629    0.00017357   -0.03204257
     atom   38 type  1   force =    -0.00069639    0.00000918    0.06403260
     atom   39 type  2   force =     0.00018898   -0.00081870   -0.00253396
     atom   40 type  2   force =     0.00060602   -0.00227730   -0.02251167
     atom   41 type  2   force =    -0.00619484   -0.00030912    0.00766583
     atom   42 type  1   force =    -0.00010314   -0.00008273    0.00246248
     atom   43 type  2   force =     0.00257336    0.00137870   -0.00247963
     atom   44 type  2   force =     0.00039700   -0.00012617   -0.00069718
     atom   45 type  2   force =    -0.00025511   -0.00006262   -0.00093815
     atom   46 type  1   force =    -0.01899759    0.00042661   -0.00470755
     atom   47 type  2   force =    -0.00218448   -0.00154437    0.00076502
     atom   48 type  2   force =    -0.00083853   -0.00044692   -0.02784622
     atom   49 type  2   force =    -0.04709352    0.00047257    0.18728694
     atom   50 type  3   force =    -0.05378948    0.00406408   -0.14304213
     atom   51 type  3   force =     0.08392068   -0.00280464    0.02647673

     Total force =     0.454538     Total SCF correction =     0.001679
 !ASE

     Writing output data file calc.save
 
     init_run     :     55.25s CPU     70.50s WALL (       1 calls)
     electrons    :   2167.44s CPU   2720.88s WALL (       1 calls)
     forces       :     41.25s CPU     42.45s WALL (       1 calls)

     Called by init_run:
     wfcinit      :     47.15s CPU     61.12s WALL (       1 calls)
     potinit      :      1.41s CPU      2.20s WALL (       1 calls)

     Called by electrons:
     c_bands      :   1887.34s CPU   2371.02s WALL (      10 calls)
     sum_band     :    235.01s CPU    298.27s WALL (      10 calls)
     v_of_rho     :     10.76s CPU     13.49s WALL (      11 calls)
     newd         :     37.74s CPU     41.69s WALL (      11 calls)
     mix_rho      :      0.62s CPU      0.77s WALL (      10 calls)
     vdW_energy   :      1.96s CPU      2.36s WALL (      12 calls)
     vdW_ffts     :      2.73s CPU      3.60s WALL (      24 calls)
     vdW_v        :      1.11s CPU      1.27s WALL (      12 calls)

     Called by c_bands:
     init_us_2    :      5.85s CPU      6.35s WALL (     880 calls)
     cegterg      :   1849.48s CPU   2331.13s WALL (     400 calls)

     Called by *egterg:
     h_psi        :    720.93s CPU   1119.96s WALL (    2290 calls)
     s_psi        :     94.73s CPU     99.23s WALL (    2290 calls)
     g_psi        :      4.98s CPU      5.09s WALL (    1850 calls)
     cdiaghg      :    676.97s CPU    691.47s WALL (    2250 calls)

     Called by h_psi:
     add_vuspsi   :     95.49s CPU    100.15s WALL (    2290 calls)

     General routines
     calbec       :    144.59s CPU    148.17s WALL (    2730 calls)
     fft          :      6.01s CPU      7.80s WALL (     948 calls)
     ffts         :      0.06s CPU      0.08s WALL (      42 calls)
     fftw         :    474.48s CPU    900.97s WALL (  727092 calls)
     interpolate  :      0.33s CPU      0.53s WALL (      42 calls)
     davcio       :      0.01s CPU      0.78s WALL (      40 calls)
 
     Parallel routines
     fft_scatter  :    260.13s CPU    479.50s WALL (  728082 calls)
 
     PWSCF        : 37m46.74s CPU    47m18.32s WALL

 
   This run was terminated on:  15: 1:27  10Mar2018            

=------------------------------------------------------------------------------=
   JOB DONE.
=------------------------------------------------------------------------------=
