  python dir          : /home/vossj/suncat/lib/python2.7/site-packages/espresso
  espresso dir        : /home/vossj/suncat/esdld/espresso-dynpy-beef/bin
  pseudo dir          : /home/alatimer/bin/psp/esp_psp_w_gbrvRu/
  ase-espresso py git : ffa2778-git



     Program PWSCF v.5.1rc2 (svn rev. ) starts on 25Feb2018 at 14:59:13 

     This program is part of the open-source Quantum ESPRESSO suite
     for quantum simulation of materials; please cite
         "P. Giannozzi et al., J. Phys.:Condens. Matter 21 395502 (2009);
          URL http://www.quantum-espresso.org", 
     in publications or presentations arising from this work. More details at
     http://www.quantum-espresso.org/quote

     Parallel version (MPI), running on    16 processors
     R & G space division:  proc/nbgrp/npool/nimage =      16
     Reading input from pw.inp
     Message from routine read_cards :
     DEPRECATED: no units specified in CELL_PARAMETERS card

     Current dimensions of program PWSCF are:
     Max number of different atomic species (ntypx) = 10
     Max number of k-points (npk) =  40000
     Max angular momentum in pseudopotentials (lmaxx) =  3

     **************************************************************************
     Initializing libbeef V0.1.1 with the BEEF-vdW functional.
     Citation: Wellendorff et al., PRB 85, 235149 (2012).
     **************************************************************************


     IMPORTANT: XC functional enforced from input :
     Exchange-correlation      = BEEF ( 1  4 27 13 2)
     Any further DFT definition will be discarded
     Please, verify this is what you really want


     Subspace diagonalization in iterative solution of the eigenvalue problem:
     a serial algorithm will be used

 
     Parallelization info
     --------------------
     sticks:   dense  smooth     PW     G-vecs:    dense   smooth      PW
     Min         281     112     31                68535    17318    2565
     Max         282     113     32                68545    17369    2582
     Sum        4501    1795    503              1096637   277353   41113
 
     Generating pointlists ...
     new r_m :   0.4125 (alat units)  0.7795 (a.u.) for type    1
     new r_m :   0.4125 (alat units)  0.7795 (a.u.) for type    2
     new r_m :   0.4125 (alat units)  0.7795 (a.u.) for type    3
     new r_m :   0.4125 (alat units)  0.7795 (a.u.) for type    4


     bravais-lattice index     =            0
     lattice parameter (alat)  =       1.8897  a.u.
     unit-cell volume          =    7990.9933 (a.u.)^3
     number of atoms/cell      =           54
     number of atomic types    =            4
     number of electrons       =       398.00
     number of Kohn-Sham states=          299
     kinetic-energy cutoff     =      40.4243  Ry
     charge density cutoff     =     404.2426  Ry
     convergence threshold     =      7.3E-07
     mixing beta               =       0.1000
     number of iterations used =           10  plain     mixing
     Exchange-correlation      = BEEF ( 1  4 27 13 2)
     nstep                     =           50


     celldm(1)=   1.889726  celldm(2)=   0.000000  celldm(3)=   0.000000
     celldm(4)=   0.000000  celldm(5)=   0.000000  celldm(6)=   0.000000

     crystal axes: (cart. coord. in units of alat)
               a(1) = (   6.590708   0.000000   0.000000 )  
               a(2) = (   0.000000   5.950229   0.000000 )  
               a(3) = (   0.000000   0.000000  30.195235 )  

     reciprocal axes: (cart. coord. in units 2 pi/alat)
               b(1) = (  0.151729  0.000000  0.000000 )  
               b(2) = (  0.000000  0.168061  0.000000 )  
               b(3) = (  0.000000  0.000000  0.033118 )  


     PseudoPot. # 1 for Ti read from file:
     /home/alatimer/bin/psp/esp_psp_w_gbrvRu/Ti.UPF
     MD5 check sum: 8e4df49b7f0d34bbd5052bf3f5ea0213
     Pseudo is Ultrasoft, Zval = 12.0
     Generated by new atomic code, or converted to UPF format
     Using radial grid of  851 points,  6 beta functions with: 
                l(1) =   0
                l(2) =   0
                l(3) =   1
                l(4) =   1
                l(5) =   2
                l(6) =   2
     Q(r) pseudized with  8 coefficients,  rinner =    1.000   1.000   1.000
                                                       1.000   1.000

     PseudoPot. # 2 for  O read from file:
     /home/alatimer/bin/psp/esp_psp_w_gbrvRu/O.UPF
     MD5 check sum: e057bbcf3229fb5d8c36c0c92f9568b4
     Pseudo is Ultrasoft + core correction, Zval =  6.0
     Generated using "atomic" code by A. Dal Corso  v.5.0.2 svn rev. 9415
     Using radial grid of 1095 points,  4 beta functions with: 
                l(1) =   0
                l(2) =   0
                l(3) =   1
                l(4) =   1
     Q(r) pseudized with 0 coefficients 


     PseudoPot. # 3 for  C read from file:
     /home/alatimer/bin/psp/esp_psp_w_gbrvRu/C.UPF
     MD5 check sum: ab446d787031eba755f1d5ee46644bb0
     Pseudo is Ultrasoft + core correction, Zval =  4.0
     Generated using "atomic" code by A. Dal Corso  v.5.0.2 svn rev. 9415
     Using radial grid of 1073 points,  4 beta functions with: 
                l(1) =   0
                l(2) =   0
                l(3) =   1
                l(4) =   1
     Q(r) pseudized with 0 coefficients 


     PseudoPot. # 4 for  H read from file:
     /home/alatimer/bin/psp/esp_psp_w_gbrvRu/H.UPF
     MD5 check sum: bd57da0722753ddfd9833a65b40bb853
     Pseudo is Ultrasoft, Zval =  1.0
     Generated using "atomic" code by A. Dal Corso  v.5.0.2 svn rev. 9415
     Using radial grid of  929 points,  2 beta functions with: 
                l(1) =   0
                l(2) =   0
     Q(r) pseudized with 0 coefficients 


     vdW kernel table read from file vdW_kernel_table
     MD5 check sum: 095c7af220d748ca6e76c0b4c6cfb241

     atomic species   valence    mass     pseudopotential
        Ti1           12.00    47.88000     Ti( 1.00)
        O1             6.00    15.99940      O( 1.00)
        C1             4.00    12.01100      C( 1.00)
        H1             1.00     1.00794      H( 1.00)

     Starting magnetic structure 
     atomic species   magnetization
        Ti1          0.250
        O1           0.500
        C1           0.750
        H1           0.000

     No symmetry found



   Cartesian axes

     site n.     atom                  positions (alat units)
         1           Ti1 tau(   1) = (   1.6476770   0.7437786   2.6545865  )
         2           O1  tau(   2) = (   1.6476770   2.2313359   3.9361215  )
         3           Ti1 tau(   3) = (   1.6476770   2.2313359   5.9499405  )
         4           O1  tau(   4) = (   0.3661420   0.7437786   5.9499405  )
         5           Ti1 tau(   5) = (   1.6407309   0.9134410   9.3139491  )
         6           O1  tau(   6) = (   1.6648823   2.2608486  10.4895904  )
         7           Ti1 tau(   7) = (   1.7578240   2.2899216  13.0472362  )
         8           O1  tau(   8) = (   0.4801583   0.7600008  12.7739736  )
         9           Ti1 tau(   9) = (   1.6476770   3.7188931   2.6545865  )
        10           O1  tau(  10) = (   1.6476770   5.2064503   3.9361215  )
        11           Ti1 tau(  11) = (   1.6476770   5.2064503   5.9499405  )
        12           O1  tau(  12) = (   0.3661420   3.7188931   5.9499405  )
        13           Ti1 tau(  13) = (   1.6336050   3.7786827   9.1566831  )
        14           O1  tau(  14) = (   1.6678212   5.2513959  10.5409436  )
        15           Ti1 tau(  15) = (   1.7144009   5.2558216  12.3462911  )
        16           O1  tau(  16) = (   0.4635505   3.7986228  12.7318280  )
        17           O1  tau(  17) = (   1.6476770   2.2313359   1.3730516  )
        18           Ti1 tau(  18) = (   4.9430310   2.2313359   2.6545865  )
        19           O1  tau(  19) = (   4.9430310   2.2313359   4.6684056  )
        20           O1  tau(  20) = (   6.2245660   0.7437786   2.6545865  )
        21           O1  tau(  21) = (   3.6614961   0.7437786   2.6545865  )
        22           Ti1 tau(  22) = (   4.9430310   0.7437786   5.9499405  )
        23           O1  tau(  23) = (   1.6683653   2.2752577   7.9427336  )
        24           O1  tau(  24) = (   4.9430310   2.2313359   7.2314755  )
        25           O1  tau(  25) = (   2.9292120   0.7437786   5.9499405  )
        26           Ti1 tau(  26) = (   4.9404121   2.2664794   9.4552217  )
        27           O1  tau(  27) = (   5.0099888   2.2616732  11.2946145  )
        28           O1  tau(  28) = (   6.2612001   0.7714827   9.2659748  )
        29           O1  tau(  29) = (   3.6791272   0.7744986   9.2965846  )
        30           Ti1 tau(  30) = (   5.0117873   0.7976728  12.8161605  )
        31           O1  tau(  31) = (   4.9963122   2.2836652  13.8750618  )
        32           O1  tau(  32) = (   2.9819382   0.7448324  12.7109220  )
        33           O1  tau(  33) = (   1.6476770   5.2064503   1.3730516  )
        34           Ti1 tau(  34) = (   4.9430310   5.2064503   2.6545865  )
        35           O1  tau(  35) = (   4.9430310   5.2064503   4.6684056  )
        36           O1  tau(  36) = (   6.2245660   3.7188931   2.6545865  )
        37           O1  tau(  37) = (   3.6614961   3.7188931   2.6545865  )
        38           Ti1 tau(  38) = (   4.9430310   3.7188931   5.9499405  )
        39           O1  tau(  39) = (   1.6664207   5.2035600   7.9365221  )
        40           O1  tau(  40) = (   4.9430310   5.2064503   7.2314755  )
        41           O1  tau(  41) = (   2.9292120   3.7188931   5.9499405  )
        42           Ti1 tau(  42) = (   4.9524353   5.2460635   9.4426343  )
        43           O1  tau(  43) = (   5.0107556   5.2394944  11.2927493  )
        44           O1  tau(  44) = (   6.2663940   3.7551737   9.2646230  )
        45           O1  tau(  45) = (   3.6780957   3.7542261   9.2971476  )
        46           Ti1 tau(  46) = (   5.0587989   3.7766986  12.8010349  )
        47           O1  tau(  47) = (   5.0196089   5.2502198  13.8813978  )
        48           O1  tau(  48) = (   2.9624133   3.7943242  12.7299881  )
        49           O1  tau(  49) = (   1.7427453   2.2533568  14.8370015  )
        50           C1  tau(  50) = (   2.7196098   4.2826273  16.2318421  )
        51           H1  tau(  51) = (   3.3037454   4.9255546  15.5827400  )
        52           H1  tau(  52) = (   3.3286606   3.7870117  16.9822022  )
        53           H1  tau(  53) = (   2.3125587   3.4026405  15.5729816  )
        54           H1  tau(  54) = (   1.8391288   4.7650601  16.6448379  )

     number of k points=    40  Fermi-Dirac smearing, width (Ry)=  0.0073
                       cart. coord. in units 2pi/alat
        k(    1) = (   0.0000000   0.0000000   0.0000000), wk =   0.0277778
        k(    2) = (   0.0000000   0.0280101   0.0000000), wk =   0.0555556
        k(    3) = (   0.0000000   0.0560203   0.0000000), wk =   0.0555556
        k(    4) = (   0.0000000  -0.0840304   0.0000000), wk =   0.0277778
        k(    5) = (   0.0252881   0.0000000   0.0000000), wk =   0.0555556
        k(    6) = (   0.0252881   0.0280101   0.0000000), wk =   0.0555556
        k(    7) = (   0.0252881   0.0560203   0.0000000), wk =   0.0555556
        k(    8) = (   0.0252881  -0.0840304   0.0000000), wk =   0.0555556
        k(    9) = (   0.0505763   0.0000000   0.0000000), wk =   0.0555556
        k(   10) = (   0.0505763   0.0280101   0.0000000), wk =   0.0555556
        k(   11) = (   0.0505763   0.0560203   0.0000000), wk =   0.0555556
        k(   12) = (   0.0505763  -0.0840304   0.0000000), wk =   0.0555556
        k(   13) = (  -0.0758644   0.0000000   0.0000000), wk =   0.0277778
        k(   14) = (  -0.0758644   0.0280101   0.0000000), wk =   0.0555556
        k(   15) = (  -0.0758644   0.0560203   0.0000000), wk =   0.0555556
        k(   16) = (  -0.0758644  -0.0840304   0.0000000), wk =   0.0277778
        k(   17) = (  -0.0252881   0.0280101   0.0000000), wk =   0.0555556
        k(   18) = (  -0.0252881   0.0560203   0.0000000), wk =   0.0555556
        k(   19) = (  -0.0505763   0.0280101   0.0000000), wk =   0.0555556
        k(   20) = (  -0.0505763   0.0560203   0.0000000), wk =   0.0555556
        k(   21) = (   0.0000000   0.0000000   0.0000000), wk =   0.0277778
        k(   22) = (   0.0000000   0.0280101   0.0000000), wk =   0.0555556
        k(   23) = (   0.0000000   0.0560203   0.0000000), wk =   0.0555556
        k(   24) = (   0.0000000  -0.0840304   0.0000000), wk =   0.0277778
        k(   25) = (   0.0252881   0.0000000   0.0000000), wk =   0.0555556
        k(   26) = (   0.0252881   0.0280101   0.0000000), wk =   0.0555556
        k(   27) = (   0.0252881   0.0560203   0.0000000), wk =   0.0555556
        k(   28) = (   0.0252881  -0.0840304   0.0000000), wk =   0.0555556
        k(   29) = (   0.0505763   0.0000000   0.0000000), wk =   0.0555556
        k(   30) = (   0.0505763   0.0280101   0.0000000), wk =   0.0555556
        k(   31) = (   0.0505763   0.0560203   0.0000000), wk =   0.0555556
        k(   32) = (   0.0505763  -0.0840304   0.0000000), wk =   0.0555556
        k(   33) = (  -0.0758644   0.0000000   0.0000000), wk =   0.0277778
        k(   34) = (  -0.0758644   0.0280101   0.0000000), wk =   0.0555556
        k(   35) = (  -0.0758644   0.0560203   0.0000000), wk =   0.0555556
        k(   36) = (  -0.0758644  -0.0840304   0.0000000), wk =   0.0277778
        k(   37) = (  -0.0252881   0.0280101   0.0000000), wk =   0.0555556
        k(   38) = (  -0.0252881   0.0560203   0.0000000), wk =   0.0555556
        k(   39) = (  -0.0505763   0.0280101   0.0000000), wk =   0.0555556
        k(   40) = (  -0.0505763   0.0560203   0.0000000), wk =   0.0555556

     Dense  grid:  1096637 G-vectors     FFT dimensions: (  80,  72, 375)

     Smooth grid:   277353 G-vectors     FFT dimensions: (  54,  45, 240)

     Largest allocated arrays     est. size (Mb)     dimensions
        Kohn-Sham Wavefunctions         9.95 Mb     (    2180,  299)
        NL pseudopotentials            18.89 Mb     (    2180,  568)
        Each V/rho on FFT grid          4.22 Mb     (  138240,   2)
        Each G-vector array             0.52 Mb     (   68538)
        G-vector shells                 0.25 Mb     (   33046)
     Largest temporary arrays     est. size (Mb)     dimensions
        Auxiliary wavefunctions        39.78 Mb     (    2180, 1196)
        Each subspace H/S matrix       21.83 Mb     (    1196, 1196)
        Each <psi_i|beta_j> matrix      2.59 Mb     (     568,  299)
        Arrays for rho mixing          21.09 Mb     (  138240,   10)

     Check: negative/imaginary core charge=   -0.000049    0.000000

     Initial potential from superposition of free atoms
     Check: negative starting charge=(component1):   -0.014115
     Check: negative starting charge=(component2):   -0.008496

     starting charge  381.99917, renormalised to  398.00000

     negative rho (up, down):  1.471E-02 8.852E-03


     ************************************************************************
     *
     * You are using vdW-DF for exchange-correlation in this calculation.
     * Please cite the following three references that made this development
     * possible:
     *
     *   M. Dion, H. Rydberg, E. Schroder, D. C. Langreth, and
     *   B. I. Lundqvist, Phys. Rev. Lett. 92, 246401 (2004).
     *
     *   T. Thonhauser, V. R. Cooper, S. Li, A. Puzder, P. Hyldgaard, and
     *   D. C. Langreth, Phys. Rev. B 76, 125112 (2007).
     *
     *   G. Roman-Perez and J. M. Soler, Phys. Rev. Lett. 103, 096102 (2009).
     *
     *
     * If you are using vdW-DF2, please also cite:
     *
     *   K. Lee, E. D. Murray, L. Kong, B. I. Lundqvist, and
     *   D. C. Langreth, Phys. Rev. B 82, 081101(R) (2010).
     *
     *
     * If you are calculating the stress with vdW-DF, please also cite:
     *
     *   R. Sabatini, E. Kucukbenli, B. Kolb, T. Thonhauser, and
     *   S. de Gironcoli, J. Phys.: Condens. Matter 24, 424209 (2012).
     *
     ************************************************************************

     Carrying out vdW-DF run using the following parameters:

     Nqs =      20    Nr_points =    1024   r_max =   100.000
     q_mesh =
               0.00001000     0.04494208     0.09755937     0.15916263
               0.23128650     0.31572767     0.41458969     0.53033537
               0.66584808     0.82450364     1.01025438     1.22772762
               1.48234092     1.78043706     2.12944203     2.53805004
               3.01644009     3.57652955     4.23227104     5.00000000

     Gradients computed in reciprocal space

     ************************************************************************


     Starting wfc are  300 randomized atomic wfcs

     total cpu time spent up to now is       74.8 secs

     Self-consistent Calculation

     iteration #  1     ecut=    40.42 Ry     beta=0.10
     Davidson diagonalization with overlap
     ethr =  1.00E-02,  avg # of iterations =  8.6

     negative rho (up, down):  1.440E-02 9.007E-03
 
     Magnetic moment per site:
     atom:    1    charge:    3.2525    magn:    0.7819    constr:    0.0000
     atom:    2    charge:    2.1164    magn:    0.9540    constr:    0.0000
     atom:    3    charge:    3.2566    magn:    0.7903    constr:    0.0000
     atom:    4    charge:    2.1133    magn:    0.9544    constr:    0.0000
     atom:    5    charge:    3.1874    magn:    0.7241    constr:    0.0000
     atom:    6    charge:    2.0960    magn:    0.9546    constr:    0.0000
     atom:    7    charge:    3.1700    magn:    0.7326    constr:    0.0000
     atom:    8    charge:    2.0398    magn:    1.0130    constr:    0.0000
     atom:    9    charge:    3.2525    magn:    0.7818    constr:    0.0000
     atom:   10    charge:    2.1164    magn:    0.9540    constr:    0.0000
     atom:   11    charge:    3.2567    magn:    0.7900    constr:    0.0000
     atom:   12    charge:    2.1134    magn:    0.9543    constr:    0.0000
     atom:   13    charge:    3.1865    magn:    0.7252    constr:    0.0000
     atom:   14    charge:    2.1076    magn:    0.9526    constr:    0.0000
     atom:   15    charge:    3.1782    magn:    0.7319    constr:    0.0000
     atom:   16    charge:    2.0445    magn:    1.0100    constr:    0.0000
     atom:   17    charge:    2.1032    magn:    0.9572    constr:    0.0000
     atom:   18    charge:    3.2673    magn:    0.8029    constr:    0.0000
     atom:   19    charge:    2.1174    magn:    0.9566    constr:    0.0000
     atom:   20    charge:    2.1130    magn:    0.9554    constr:    0.0000
     atom:   21    charge:    2.1130    magn:    0.9554    constr:    0.0000
     atom:   22    charge:    3.2558    magn:    0.7889    constr:    0.0000
     atom:   23    charge:    2.1126    magn:    0.9513    constr:    0.0000
     atom:   24    charge:    2.1072    magn:    0.9544    constr:    0.0000
     atom:   25    charge:    2.1133    magn:    0.9544    constr:    0.0000
     atom:   26    charge:    3.1846    magn:    0.7242    constr:    0.0000
     atom:   27    charge:    2.0868    magn:    0.9661    constr:    0.0000
     atom:   28    charge:    2.1067    magn:    0.9505    constr:    0.0000
     atom:   29    charge:    2.1084    magn:    0.9513    constr:    0.0000
     atom:   30    charge:    3.1775    magn:    0.7354    constr:    0.0000
     atom:   31    charge:    2.0292    magn:    1.0211    constr:    0.0000
     atom:   32    charge:    2.0440    magn:    1.0109    constr:    0.0000
     atom:   33    charge:    2.1032    magn:    0.9572    constr:    0.0000
     atom:   34    charge:    3.2673    magn:    0.8029    constr:    0.0000
     atom:   35    charge:    2.1174    magn:    0.9566    constr:    0.0000
     atom:   36    charge:    2.1130    magn:    0.9554    constr:    0.0000
     atom:   37    charge:    2.1130    magn:    0.9554    constr:    0.0000
     atom:   38    charge:    3.2559    magn:    0.7890    constr:    0.0000
     atom:   39    charge:    2.1086    magn:    0.9508    constr:    0.0000
     atom:   40    charge:    2.1073    magn:    0.9545    constr:    0.0000
     atom:   41    charge:    2.1134    magn:    0.9543    constr:    0.0000
     atom:   42    charge:    3.1870    magn:    0.7248    constr:    0.0000
     atom:   43    charge:    2.0857    magn:    0.9672    constr:    0.0000
     atom:   44    charge:    2.1077    magn:    0.9510    constr:    0.0000
     atom:   45    charge:    2.1085    magn:    0.9516    constr:    0.0000
     atom:   46    charge:    3.1751    magn:    0.7347    constr:    0.0000
     atom:   47    charge:    2.0270    magn:    1.0202    constr:    0.0000
     atom:   48    charge:    2.0422    magn:    1.0148    constr:    0.0000
     atom:   49    charge:    1.9452    magn:    0.9458    constr:    0.0000
     atom:   50    charge:    0.6145    magn:    0.4128    constr:    0.0000
     atom:   51    charge:    0.3114    magn:    0.0682    constr:    0.0000
     atom:   52    charge:    0.3099    magn:    0.0680    constr:    0.0000
     atom:   53    charge:    0.2951    magn:    0.0534    constr:    0.0000
     atom:   54    charge:    0.3100    magn:    0.0681    constr:    0.0000

     total cpu time spent up to now is      573.0 secs

     total energy              =   -2924.31969897 Ry
     Harris-Foulkes estimate   =   -3017.42263022 Ry
     estimated scf accuracy    <     506.50097913 Ry

     total magnetization       =    42.88 Bohr mag/cell
     absolute magnetization    =    48.76 Bohr mag/cell

     iteration #  2     ecut=    40.42 Ry     beta=0.10
     Davidson diagonalization with overlap
     ethr =  1.00E-02,  avg # of iterations =  7.0

     negative rho (up, down):  1.223E-02 7.936E-03
 
     Magnetic moment per site:
     atom:    1    charge:    3.2417    magn:    0.7700    constr:    0.0000
     atom:    2    charge:    2.0832    magn:    0.9390    constr:    0.0000
     atom:    3    charge:    3.2456    magn:    0.7783    constr:    0.0000
     atom:    4    charge:    2.0802    magn:    0.9394    constr:    0.0000
     atom:    5    charge:    3.1835    magn:    0.7142    constr:    0.0000
     atom:    6    charge:    2.1035    magn:    0.9419    constr:    0.0000
     atom:    7    charge:    3.2144    magn:    0.7234    constr:    0.0000
     atom:    8    charge:    2.0582    magn:    0.9992    constr:    0.0000
     atom:    9    charge:    3.2417    magn:    0.7699    constr:    0.0000
     atom:   10    charge:    2.0833    magn:    0.9390    constr:    0.0000
     atom:   11    charge:    3.2457    magn:    0.7780    constr:    0.0000
     atom:   12    charge:    2.0804    magn:    0.9393    constr:    0.0000
     atom:   13    charge:    3.1813    magn:    0.7145    constr:    0.0000
     atom:   14    charge:    2.1155    magn:    0.9400    constr:    0.0000
     atom:   15    charge:    3.2192    magn:    0.7230    constr:    0.0000
     atom:   16    charge:    2.0626    magn:    0.9962    constr:    0.0000
     atom:   17    charge:    2.0703    magn:    0.9422    constr:    0.0000
     atom:   18    charge:    3.2561    magn:    0.7907    constr:    0.0000
     atom:   19    charge:    2.0842    magn:    0.9416    constr:    0.0000
     atom:   20    charge:    2.0799    magn:    0.9403    constr:    0.0000
     atom:   21    charge:    2.0799    magn:    0.9403    constr:    0.0000
     atom:   22    charge:    3.2452    magn:    0.7769    constr:    0.0000
     atom:   23    charge:    2.0889    magn:    0.9370    constr:    0.0000
     atom:   24    charge:    2.0831    magn:    0.9400    constr:    0.0000
     atom:   25    charge:    2.0802    magn:    0.9394    constr:    0.0000
     atom:   26    charge:    3.1837    magn:    0.7151    constr:    0.0000
     atom:   27    charge:    2.0982    magn:    0.9532    constr:    0.0000
     atom:   28    charge:    2.1051    magn:    0.9397    constr:    0.0000
     atom:   29    charge:    2.1071    magn:    0.9406    constr:    0.0000
     atom:   30    charge:    3.2197    magn:    0.7263    constr:    0.0000
     atom:   31    charge:    2.0487    magn:    1.0070    constr:    0.0000
     atom:   32    charge:    2.0622    magn:    0.9972    constr:    0.0000
     atom:   33    charge:    2.0703    magn:    0.9422    constr:    0.0000
     atom:   34    charge:    3.2562    magn:    0.7907    constr:    0.0000
     atom:   35    charge:    2.0842    magn:    0.9416    constr:    0.0000
     atom:   36    charge:    2.0799    magn:    0.9403    constr:    0.0000
     atom:   37    charge:    2.0799    magn:    0.9403    constr:    0.0000
     atom:   38    charge:    3.2453    magn:    0.7770    constr:    0.0000
     atom:   39    charge:    2.0847    magn:    0.9364    constr:    0.0000
     atom:   40    charge:    2.0832    magn:    0.9400    constr:    0.0000
     atom:   41    charge:    2.0804    magn:    0.9393    constr:    0.0000
     atom:   42    charge:    3.1856    magn:    0.7153    constr:    0.0000
     atom:   43    charge:    2.0972    magn:    0.9543    constr:    0.0000
     atom:   44    charge:    2.1063    magn:    0.9402    constr:    0.0000
     atom:   45    charge:    2.1073    magn:    0.9409    constr:    0.0000
     atom:   46    charge:    3.2173    magn:    0.7257    constr:    0.0000
     atom:   47    charge:    2.0464    magn:    1.0061    constr:    0.0000
     atom:   48    charge:    2.0605    magn:    1.0010    constr:    0.0000
     atom:   49    charge:    1.9676    magn:    0.9325    constr:    0.0000
     atom:   50    charge:    0.6304    magn:    0.4080    constr:    0.0000
     atom:   51    charge:    0.3188    magn:    0.0671    constr:    0.0000
     atom:   52    charge:    0.3163    magn:    0.0671    constr:    0.0000
     atom:   53    charge:    0.3038    magn:    0.0526    constr:    0.0000
     atom:   54    charge:    0.3165    magn:    0.0670    constr:    0.0000

     total cpu time spent up to now is     1186.7 secs

     total energy              =   -2840.99461167 Ry
     Harris-Foulkes estimate   =   -3276.54164826 Ry
     estimated scf accuracy    <   14032.34531823 Ry

     total magnetization       =    10.91 Bohr mag/cell
     absolute magnetization    =    13.00 Bohr mag/cell

     iteration #  3     ecut=    40.42 Ry     beta=0.10
     Davidson diagonalization with overlap
     ethr =  1.00E-02,  avg # of iterations =  8.3

     negative rho (up, down):  1.201E-02 8.125E-03
 
     Magnetic moment per site:
     atom:    1    charge:    3.2317    magn:    0.7513    constr:    0.0000
     atom:    2    charge:    2.0871    magn:    0.9236    constr:    0.0000
     atom:    3    charge:    3.2358    magn:    0.7585    constr:    0.0000
     atom:    4    charge:    2.0880    magn:    0.9199    constr:    0.0000
     atom:    5    charge:    3.1906    magn:    0.7071    constr:    0.0000
     atom:    6    charge:    2.1065    magn:    0.9233    constr:    0.0000
     atom:    7    charge:    3.2046    magn:    0.7051    constr:    0.0000
     atom:    8    charge:    2.0651    magn:    0.9780    constr:    0.0000
     atom:    9    charge:    3.2317    magn:    0.7512    constr:    0.0000
     atom:   10    charge:    2.0871    magn:    0.9236    constr:    0.0000
     atom:   11    charge:    3.2359    magn:    0.7582    constr:    0.0000
     atom:   12    charge:    2.0881    magn:    0.9198    constr:    0.0000
     atom:   13    charge:    3.1910    magn:    0.7100    constr:    0.0000
     atom:   14    charge:    2.1179    magn:    0.9205    constr:    0.0000
     atom:   15    charge:    3.2089    magn:    0.7049    constr:    0.0000
     atom:   16    charge:    2.0692    magn:    0.9751    constr:    0.0000
     atom:   17    charge:    2.0612    magn:    0.9399    constr:    0.0000
     atom:   18    charge:    3.2449    magn:    0.7710    constr:    0.0000
     atom:   19    charge:    2.0905    magn:    0.9233    constr:    0.0000
     atom:   20    charge:    2.0824    magn:    0.9255    constr:    0.0000
     atom:   21    charge:    2.0824    magn:    0.9255    constr:    0.0000
     atom:   22    charge:    3.2353    magn:    0.7571    constr:    0.0000
     atom:   23    charge:    2.0963    magn:    0.9182    constr:    0.0000
     atom:   24    charge:    2.0904    magn:    0.9202    constr:    0.0000
     atom:   25    charge:    2.0880    magn:    0.9199    constr:    0.0000
     atom:   26    charge:    3.1850    magn:    0.7029    constr:    0.0000
     atom:   27    charge:    2.1013    magn:    0.9333    constr:    0.0000
     atom:   28    charge:    2.1085    magn:    0.9202    constr:    0.0000
     atom:   29    charge:    2.1104    magn:    0.9211    constr:    0.0000
     atom:   30    charge:    3.2089    magn:    0.7074    constr:    0.0000
     atom:   31    charge:    2.0562    magn:    0.9858    constr:    0.0000
     atom:   32    charge:    2.0689    magn:    0.9760    constr:    0.0000
     atom:   33    charge:    2.0612    magn:    0.9399    constr:    0.0000
     atom:   34    charge:    3.2449    magn:    0.7710    constr:    0.0000
     atom:   35    charge:    2.0905    magn:    0.9233    constr:    0.0000
     atom:   36    charge:    2.0824    magn:    0.9256    constr:    0.0000
     atom:   37    charge:    2.0824    magn:    0.9256    constr:    0.0000
     atom:   38    charge:    3.2354    magn:    0.7572    constr:    0.0000
     atom:   39    charge:    2.0922    magn:    0.9175    constr:    0.0000
     atom:   40    charge:    2.0905    magn:    0.9202    constr:    0.0000
     atom:   41    charge:    2.0882    magn:    0.9198    constr:    0.0000
     atom:   42    charge:    3.1873    magn:    0.7035    constr:    0.0000
     atom:   43    charge:    2.1004    magn:    0.9344    constr:    0.0000
     atom:   44    charge:    2.1097    magn:    0.9208    constr:    0.0000
     atom:   45    charge:    2.1107    magn:    0.9214    constr:    0.0000
     atom:   46    charge:    3.2064    magn:    0.7068    constr:    0.0000
     atom:   47    charge:    2.0537    magn:    0.9851    constr:    0.0000
     atom:   48    charge:    2.0675    magn:    0.9798    constr:    0.0000
     atom:   49    charge:    1.9814    magn:    0.9134    constr:    0.0000
     atom:   50    charge:    0.6336    magn:    0.4006    constr:    0.0000
     atom:   51    charge:    0.3214    magn:    0.0647    constr:    0.0000
     atom:   52    charge:    0.3185    magn:    0.0647    constr:    0.0000
     atom:   53    charge:    0.3056    magn:    0.0508    constr:    0.0000
     atom:   54    charge:    0.3188    magn:    0.0646    constr:    0.0000

     total cpu time spent up to now is     1835.6 secs

     total energy              =   -3013.37064508 Ry
     Harris-Foulkes estimate   =   -3015.62572884 Ry
     estimated scf accuracy    <      79.84962896 Ry

     total magnetization       =    16.50 Bohr mag/cell
     absolute magnetization    =    26.59 Bohr mag/cell

     iteration #  4     ecut=    40.42 Ry     beta=0.10
     Davidson diagonalization with overlap
     ethr =  1.00E-02,  avg # of iterations =  1.2

     negative rho (up, down):  1.177E-02 8.256E-03
 
     Magnetic moment per site:
     atom:    1    charge:    3.2208    magn:    0.7254    constr:    0.0000
     atom:    2    charge:    2.0959    magn:    0.8967    constr:    0.0000
     atom:    3    charge:    3.2233    magn:    0.7330    constr:    0.0000
     atom:    4    charge:    2.0939    magn:    0.8954    constr:    0.0000
     atom:    5    charge:    3.1795    magn:    0.6797    constr:    0.0000
     atom:    6    charge:    2.1087    magn:    0.8980    constr:    0.0000
     atom:    7    charge:    3.1955    magn:    0.6810    constr:    0.0000
     atom:    8    charge:    2.0741    magn:    0.9507    constr:    0.0000
     atom:    9    charge:    3.2207    magn:    0.7254    constr:    0.0000
     atom:   10    charge:    2.0959    magn:    0.8967    constr:    0.0000
     atom:   11    charge:    3.2235    magn:    0.7327    constr:    0.0000
     atom:   12    charge:    2.0941    magn:    0.8953    constr:    0.0000
     atom:   13    charge:    3.1790    magn:    0.6819    constr:    0.0000
     atom:   14    charge:    2.1196    magn:    0.8950    constr:    0.0000
     atom:   15    charge:    3.1989    magn:    0.6805    constr:    0.0000
     atom:   16    charge:    2.0778    magn:    0.9479    constr:    0.0000
     atom:   17    charge:    2.0744    magn:    0.9108    constr:    0.0000
     atom:   18    charge:    3.2314    magn:    0.7450    constr:    0.0000
     atom:   19    charge:    2.0973    magn:    0.8979    constr:    0.0000
     atom:   20    charge:    2.0911    magn:    0.8984    constr:    0.0000
     atom:   21    charge:    2.0910    magn:    0.8984    constr:    0.0000
     atom:   22    charge:    3.2229    magn:    0.7316    constr:    0.0000
     atom:   23    charge:    2.1014    magn:    0.8926    constr:    0.0000
     atom:   24    charge:    2.0916    magn:    0.8993    constr:    0.0000
     atom:   25    charge:    2.0939    magn:    0.8954    constr:    0.0000
     atom:   26    charge:    3.1755    magn:    0.6769    constr:    0.0000
     atom:   27    charge:    2.1050    magn:    0.9076    constr:    0.0000
     atom:   28    charge:    2.1103    magn:    0.8956    constr:    0.0000
     atom:   29    charge:    2.1124    magn:    0.8963    constr:    0.0000
     atom:   30    charge:    3.1989    magn:    0.6829    constr:    0.0000
     atom:   31    charge:    2.0664    magn:    0.9585    constr:    0.0000
     atom:   32    charge:    2.0776    magn:    0.9487    constr:    0.0000
     atom:   33    charge:    2.0745    magn:    0.9106    constr:    0.0000
     atom:   34    charge:    3.2314    magn:    0.7450    constr:    0.0000
     atom:   35    charge:    2.0973    magn:    0.8979    constr:    0.0000
     atom:   36    charge:    2.0911    magn:    0.8985    constr:    0.0000
     atom:   37    charge:    2.0911    magn:    0.8985    constr:    0.0000
     atom:   38    charge:    3.2230    magn:    0.7317    constr:    0.0000
     atom:   39    charge:    2.0971    magn:    0.8923    constr:    0.0000
     atom:   40    charge:    2.0917    magn:    0.8993    constr:    0.0000
     atom:   41    charge:    2.0941    magn:    0.8953    constr:    0.0000
     atom:   42    charge:    3.1777    magn:    0.6773    constr:    0.0000
     atom:   43    charge:    2.1041    magn:    0.9086    constr:    0.0000
     atom:   44    charge:    2.1116    magn:    0.8961    constr:    0.0000
     atom:   45    charge:    2.1125    magn:    0.8967    constr:    0.0000
     atom:   46    charge:    3.1964    magn:    0.6824    constr:    0.0000
     atom:   47    charge:    2.0638    magn:    0.9578    constr:    0.0000
     atom:   48    charge:    2.0765    magn:    0.9524    constr:    0.0000
     atom:   49    charge:    1.9999    magn:    0.8880    constr:    0.0000
     atom:   50    charge:    0.6391    magn:    0.3905    constr:    0.0000
     atom:   51    charge:    0.3252    magn:    0.0617    constr:    0.0000
     atom:   52    charge:    0.3219    magn:    0.0616    constr:    0.0000
     atom:   53    charge:    0.3089    magn:    0.0479    constr:    0.0000
     atom:   54    charge:    0.3222    magn:    0.0615    constr:    0.0000

     total cpu time spent up to now is     2032.2 secs

     total energy              =   -3014.69883094 Ry
     Harris-Foulkes estimate   =   -3014.82667976 Ry
     estimated scf accuracy    <      19.01099321 Ry

     total magnetization       =     2.21 Bohr mag/cell
     absolute magnetization    =    18.31 Bohr mag/cell

     iteration #  5     ecut=    40.42 Ry     beta=0.10
     Davidson diagonalization with overlap
     ethr =  4.78E-03,  avg # of iterations =  2.2

     negative rho (up, down):  1.157E-02 8.408E-03
 
     Magnetic moment per site:
     atom:    1    charge:    3.2165    magn:    0.7141    constr:    0.0000
     atom:    2    charge:    2.0987    magn:    0.8849    constr:    0.0000
     atom:    3    charge:    3.2186    magn:    0.7217    constr:    0.0000
     atom:    4    charge:    2.0966    magn:    0.8838    constr:    0.0000
     atom:    5    charge:    3.1743    magn:    0.6663    constr:    0.0000
     atom:    6    charge:    2.1092    magn:    0.8864    constr:    0.0000
     atom:    7    charge:    3.1931    magn:    0.6707    constr:    0.0000
     atom:    8    charge:    2.0769    magn:    0.9388    constr:    0.0000
     atom:    9    charge:    3.2164    magn:    0.7140    constr:    0.0000
     atom:   10    charge:    2.0987    magn:    0.8849    constr:    0.0000
     atom:   11    charge:    3.2188    magn:    0.7214    constr:    0.0000
     atom:   12    charge:    2.0967    magn:    0.8836    constr:    0.0000
     atom:   13    charge:    3.1731    magn:    0.6680    constr:    0.0000
     atom:   14    charge:    2.1202    magn:    0.8836    constr:    0.0000
     atom:   15    charge:    3.1957    magn:    0.6701    constr:    0.0000
     atom:   16    charge:    2.0805    magn:    0.9359    constr:    0.0000
     atom:   17    charge:    2.0756    magn:    0.9014    constr:    0.0000
     atom:   18    charge:    3.2261    magn:    0.7335    constr:    0.0000
     atom:   19    charge:    2.0998    magn:    0.8862    constr:    0.0000
     atom:   20    charge:    2.0944    magn:    0.8865    constr:    0.0000
     atom:   21    charge:    2.0943    magn:    0.8865    constr:    0.0000
     atom:   22    charge:    3.2182    magn:    0.7203    constr:    0.0000
     atom:   23    charge:    2.1030    magn:    0.8810    constr:    0.0000
     atom:   24    charge:    2.0948    magn:    0.8870    constr:    0.0000
     atom:   25    charge:    2.0966    magn:    0.8838    constr:    0.0000
     atom:   26    charge:    3.1719    magn:    0.6652    constr:    0.0000
     atom:   27    charge:    2.1061    magn:    0.8961    constr:    0.0000
     atom:   28    charge:    2.1113    magn:    0.8839    constr:    0.0000
     atom:   29    charge:    2.1133    magn:    0.8847    constr:    0.0000
     atom:   30    charge:    3.1955    magn:    0.6721    constr:    0.0000
     atom:   31    charge:    2.0693    magn:    0.9465    constr:    0.0000
     atom:   32    charge:    2.0804    magn:    0.9367    constr:    0.0000
     atom:   33    charge:    2.0756    magn:    0.9013    constr:    0.0000
     atom:   34    charge:    3.2261    magn:    0.7335    constr:    0.0000
     atom:   35    charge:    2.0998    magn:    0.8861    constr:    0.0000
     atom:   36    charge:    2.0944    magn:    0.8865    constr:    0.0000
     atom:   37    charge:    2.0944    magn:    0.8865    constr:    0.0000
     atom:   38    charge:    3.2184    magn:    0.7204    constr:    0.0000
     atom:   39    charge:    2.0988    magn:    0.8807    constr:    0.0000
     atom:   40    charge:    2.0949    magn:    0.8870    constr:    0.0000
     atom:   41    charge:    2.0967    magn:    0.8836    constr:    0.0000
     atom:   42    charge:    3.1740    magn:    0.6654    constr:    0.0000
     atom:   43    charge:    2.1052    magn:    0.8971    constr:    0.0000
     atom:   44    charge:    2.1125    magn:    0.8845    constr:    0.0000
     atom:   45    charge:    2.1135    magn:    0.8851    constr:    0.0000
     atom:   46    charge:    3.1930    magn:    0.6715    constr:    0.0000
     atom:   47    charge:    2.0667    magn:    0.9459    constr:    0.0000
     atom:   48    charge:    2.0794    magn:    0.9404    constr:    0.0000
     atom:   49    charge:    2.0042    magn:    0.8783    constr:    0.0000
     atom:   50    charge:    0.6407    magn:    0.3866    constr:    0.0000
     atom:   51    charge:    0.3269    magn:    0.0604    constr:    0.0000
     atom:   52    charge:    0.3233    magn:    0.0604    constr:    0.0000
     atom:   53    charge:    0.3095    magn:    0.0474    constr:    0.0000
     atom:   54    charge:    0.3237    magn:    0.0603    constr:    0.0000

     total cpu time spent up to now is     2249.3 secs

     total energy              =   -3014.89165794 Ry
     Harris-Foulkes estimate   =   -3014.83902558 Ry
     estimated scf accuracy    <      17.85452420 Ry

     total magnetization       =     3.56 Bohr mag/cell
     absolute magnetization    =    18.07 Bohr mag/cell

     iteration #  6     ecut=    40.42 Ry     beta=0.10
     Davidson diagonalization with overlap
     ethr =  4.49E-03,  avg # of iterations =  1.5

     negative rho (up, down):  1.147E-02 8.590E-03
 
     Magnetic moment per site:
     atom:    1    charge:    3.1747    magn:    0.5959    constr:    0.0000
     atom:    2    charge:    2.1203    magn:    0.7631    constr:    0.0000
     atom:    3    charge:    3.1727    magn:    0.6046    constr:    0.0000
     atom:    4    charge:    2.1153    magn:    0.7655    constr:    0.0000
     atom:    5    charge:    3.1407    magn:    0.5400    constr:    0.0000
     atom:    6    charge:    2.1115    magn:    0.7687    constr:    0.0000
     atom:    7    charge:    3.1617    magn:    0.5593    constr:    0.0000
     atom:    8    charge:    2.1014    magn:    0.8155    constr:    0.0000
     atom:    9    charge:    3.1747    magn:    0.5958    constr:    0.0000
     atom:   10    charge:    2.1204    magn:    0.7632    constr:    0.0000
     atom:   11    charge:    3.1730    magn:    0.6043    constr:    0.0000
     atom:   12    charge:    2.1157    magn:    0.7653    constr:    0.0000
     atom:   13    charge:    3.1416    magn:    0.5440    constr:    0.0000
     atom:   14    charge:    2.1245    magn:    0.7650    constr:    0.0000
     atom:   15    charge:    3.1647    magn:    0.5608    constr:    0.0000
     atom:   16    charge:    2.1054    magn:    0.8112    constr:    0.0000
     atom:   17    charge:    2.0932    magn:    0.7964    constr:    0.0000
     atom:   18    charge:    3.1741    magn:    0.6144    constr:    0.0000
     atom:   19    charge:    2.1179    magn:    0.7662    constr:    0.0000
     atom:   20    charge:    2.1235    magn:    0.7618    constr:    0.0000
     atom:   21    charge:    2.1236    magn:    0.7617    constr:    0.0000
     atom:   22    charge:    3.1732    magn:    0.6033    constr:    0.0000
     atom:   23    charge:    2.1141    magn:    0.7623    constr:    0.0000
     atom:   24    charge:    2.1121    magn:    0.7668    constr:    0.0000
     atom:   25    charge:    2.1153    magn:    0.7656    constr:    0.0000
     atom:   26    charge:    3.1455    magn:    0.5497    constr:    0.0000
     atom:   27    charge:    2.1143    magn:    0.7770    constr:    0.0000
     atom:   28    charge:    2.1169    magn:    0.7653    constr:    0.0000
     atom:   29    charge:    2.1189    magn:    0.7664    constr:    0.0000
     atom:   30    charge:    3.1640    magn:    0.5594    constr:    0.0000
     atom:   31    charge:    2.0957    magn:    0.8225    constr:    0.0000
     atom:   32    charge:    2.1056    magn:    0.8119    constr:    0.0000
     atom:   33    charge:    2.0932    magn:    0.7965    constr:    0.0000
     atom:   34    charge:    3.1741    magn:    0.6144    constr:    0.0000
     atom:   35    charge:    2.1179    magn:    0.7662    constr:    0.0000
     atom:   36    charge:    2.1236    magn:    0.7617    constr:    0.0000
     atom:   37    charge:    2.1235    magn:    0.7617    constr:    0.0000
     atom:   38    charge:    3.1733    magn:    0.6034    constr:    0.0000
     atom:   39    charge:    2.1104    magn:    0.7629    constr:    0.0000
     atom:   40    charge:    2.1122    magn:    0.7668    constr:    0.0000
     atom:   41    charge:    2.1156    magn:    0.7655    constr:    0.0000
     atom:   42    charge:    3.1461    magn:    0.5478    constr:    0.0000
     atom:   43    charge:    2.1140    magn:    0.7777    constr:    0.0000
     atom:   44    charge:    2.1180    magn:    0.7656    constr:    0.0000
     atom:   45    charge:    2.1190    magn:    0.7667    constr:    0.0000
     atom:   46    charge:    3.1615    magn:    0.5590    constr:    0.0000
     atom:   47    charge:    2.0927    magn:    0.8224    constr:    0.0000
     atom:   48    charge:    2.1052    magn:    0.8157    constr:    0.0000
     atom:   49    charge:    2.0299    magn:    0.7930    constr:    0.0000
     atom:   50    charge:    0.6491    magn:    0.3529    constr:    0.0000
     atom:   51    charge:    0.3428    magn:    0.0487    constr:    0.0000
     atom:   52    charge:    0.3374    magn:    0.0489    constr:    0.0000
     atom:   53    charge:    0.3077    magn:    0.0514    constr:    0.0000
     atom:   54    charge:    0.3383    magn:    0.0486    constr:    0.0000

     total cpu time spent up to now is     2451.2 secs

     total energy              =   -3015.65251223 Ry
     Harris-Foulkes estimate   =   -3014.90536114 Ry
     estimated scf accuracy    <      16.99081507 Ry

     total magnetization       =     4.44 Bohr mag/cell
     absolute magnetization    =    18.18 Bohr mag/cell

     iteration #  7     ecut=    40.42 Ry     beta=0.10
     Davidson diagonalization with overlap
     ethr =  4.27E-03,  avg # of iterations =  2.6

     negative rho (up, down):  1.172E-02 8.998E-03
 
     Magnetic moment per site:
     atom:    1    charge:    3.1185    magn:    0.4075    constr:    0.0000
     atom:    2    charge:    2.1420    magn:    0.5717    constr:    0.0000
     atom:    3    charge:    3.1119    magn:    0.4171    constr:    0.0000
     atom:    4    charge:    2.1354    magn:    0.5776    constr:    0.0000
     atom:    5    charge:    3.1103    magn:    0.3501    constr:    0.0000
     atom:    6    charge:    2.1075    magn:    0.5816    constr:    0.0000
     atom:    7    charge:    3.1201    magn:    0.3788    constr:    0.0000
     atom:    8    charge:    2.1283    magn:    0.6172    constr:    0.0000
     atom:    9    charge:    3.1187    magn:    0.4076    constr:    0.0000
     atom:   10    charge:    2.1420    magn:    0.5721    constr:    0.0000
     atom:   11    charge:    3.1119    magn:    0.4169    constr:    0.0000
     atom:   12    charge:    2.1359    magn:    0.5773    constr:    0.0000
     atom:   13    charge:    3.1116    magn:    0.3580    constr:    0.0000
     atom:   14    charge:    2.1253    magn:    0.5752    constr:    0.0000
     atom:   15    charge:    3.1203    magn:    0.3842    constr:    0.0000
     atom:   16    charge:    2.1322    magn:    0.6110    constr:    0.0000
     atom:   17    charge:    2.1028    magn:    0.6368    constr:    0.0000
     atom:   18    charge:    3.1064    magn:    0.4235    constr:    0.0000
     atom:   19    charge:    2.1379    magn:    0.5742    constr:    0.0000
     atom:   20    charge:    2.1548    magn:    0.5625    constr:    0.0000
     atom:   21    charge:    2.1549    magn:    0.5623    constr:    0.0000
     atom:   22    charge:    3.1128    magn:    0.4155    constr:    0.0000
     atom:   23    charge:    2.1275    magn:    0.5730    constr:    0.0000
     atom:   24    charge:    2.1237    magn:    0.5806    constr:    0.0000
     atom:   25    charge:    2.1354    magn:    0.5777    constr:    0.0000
     atom:   26    charge:    3.1065    magn:    0.3619    constr:    0.0000
     atom:   27    charge:    2.1182    magn:    0.5867    constr:    0.0000
     atom:   28    charge:    2.1187    magn:    0.5763    constr:    0.0000
     atom:   29    charge:    2.1207    magn:    0.5775    constr:    0.0000
     atom:   30    charge:    3.1187    magn:    0.3783    constr:    0.0000
     atom:   31    charge:    2.1259    magn:    0.6232    constr:    0.0000
     atom:   32    charge:    2.1328    magn:    0.6117    constr:    0.0000
     atom:   33    charge:    2.1026    magn:    0.6373    constr:    0.0000
     atom:   34    charge:    3.1064    magn:    0.4235    constr:    0.0000
     atom:   35    charge:    2.1379    magn:    0.5742    constr:    0.0000
     atom:   36    charge:    2.1551    magn:    0.5621    constr:    0.0000
     atom:   37    charge:    2.1548    magn:    0.5621    constr:    0.0000
     atom:   38    charge:    3.1129    magn:    0.4156    constr:    0.0000
     atom:   39    charge:    2.1234    magn:    0.5752    constr:    0.0000
     atom:   40    charge:    2.1239    magn:    0.5804    constr:    0.0000
     atom:   41    charge:    2.1357    magn:    0.5777    constr:    0.0000
     atom:   42    charge:    3.1070    magn:    0.3578    constr:    0.0000
     atom:   43    charge:    2.1186    magn:    0.5868    constr:    0.0000
     atom:   44    charge:    2.1196    magn:    0.5765    constr:    0.0000
     atom:   45    charge:    2.1206    magn:    0.5778    constr:    0.0000
     atom:   46    charge:    3.1162    magn:    0.3780    constr:    0.0000
     atom:   47    charge:    2.1223    magn:    0.6241    constr:    0.0000
     atom:   48    charge:    2.1333    magn:    0.6155    constr:    0.0000
     atom:   49    charge:    2.0834    magn:    0.6386    constr:    0.0000
     atom:   50    charge:    0.6714    magn:    0.2890    constr:    0.0000
     atom:   51    charge:    0.3686    magn:    0.0287    constr:    0.0000
     atom:   52    charge:    0.3612    magn:    0.0290    constr:    0.0000
     atom:   53    charge:    0.3167    magn:    0.0458    constr:    0.0000
     atom:   54    charge:    0.3627    magn:    0.0285    constr:    0.0000

     total cpu time spent up to now is     2673.0 secs

     total energy              =   -3017.59392751 Ry
     Harris-Foulkes estimate   =   -3015.98665945 Ry
     estimated scf accuracy    <      15.07218404 Ry

     total magnetization       =     6.54 Bohr mag/cell
     absolute magnetization    =    18.52 Bohr mag/cell

     iteration #  8     ecut=    40.42 Ry     beta=0.10
     Davidson diagonalization with overlap
     ethr =  3.79E-03,  avg # of iterations =  3.5

     negative rho (up, down):  1.157E-02 9.079E-03
 
     Magnetic moment per site:
     atom:    1    charge:    3.1195    magn:    0.4073    constr:    0.0000
     atom:    2    charge:    2.1405    magn:    0.5718    constr:    0.0000
     atom:    3    charge:    3.1130    magn:    0.4167    constr:    0.0000
     atom:    4    charge:    2.1344    magn:    0.5772    constr:    0.0000
     atom:    5    charge:    3.1110    magn:    0.3501    constr:    0.0000
     atom:    6    charge:    2.1073    magn:    0.5813    constr:    0.0000
     atom:    7    charge:    3.1213    magn:    0.3787    constr:    0.0000
     atom:    8    charge:    2.1272    magn:    0.6173    constr:    0.0000
     atom:    9    charge:    3.1196    magn:    0.4073    constr:    0.0000
     atom:   10    charge:    2.1406    magn:    0.5721    constr:    0.0000
     atom:   11    charge:    3.1130    magn:    0.4164    constr:    0.0000
     atom:   12    charge:    2.1349    magn:    0.5770    constr:    0.0000
     atom:   13    charge:    3.1119    magn:    0.3578    constr:    0.0000
     atom:   14    charge:    2.1251    magn:    0.5748    constr:    0.0000
     atom:   15    charge:    3.1211    magn:    0.3838    constr:    0.0000
     atom:   16    charge:    2.1310    magn:    0.6112    constr:    0.0000
     atom:   17    charge:    2.1013    magn:    0.6371    constr:    0.0000
     atom:   18    charge:    3.1122    magn:    0.4265    constr:    0.0000
     atom:   19    charge:    2.1366    magn:    0.5742    constr:    0.0000
     atom:   20    charge:    2.1526    magn:    0.5630    constr:    0.0000
     atom:   21    charge:    2.1527    magn:    0.5628    constr:    0.0000
     atom:   22    charge:    3.1139    magn:    0.4152    constr:    0.0000
     atom:   23    charge:    2.1271    magn:    0.5726    constr:    0.0000
     atom:   24    charge:    2.1228    magn:    0.5804    constr:    0.0000
     atom:   25    charge:    2.1343    magn:    0.5774    constr:    0.0000
     atom:   26    charge:    3.1077    magn:    0.3620    constr:    0.0000
     atom:   27    charge:    2.1175    magn:    0.5867    constr:    0.0000
     atom:   28    charge:    2.1183    magn:    0.5761    constr:    0.0000
     atom:   29    charge:    2.1203    magn:    0.5772    constr:    0.0000
     atom:   30    charge:    3.1194    magn:    0.3780    constr:    0.0000
     atom:   31    charge:    2.1249    magn:    0.6232    constr:    0.0000
     atom:   32    charge:    2.1316    magn:    0.6119    constr:    0.0000
     atom:   33    charge:    2.1011    magn:    0.6376    constr:    0.0000
     atom:   34    charge:    3.1122    magn:    0.4266    constr:    0.0000
     atom:   35    charge:    2.1366    magn:    0.5741    constr:    0.0000
     atom:   36    charge:    2.1529    magn:    0.5626    constr:    0.0000
     atom:   37    charge:    2.1526    magn:    0.5626    constr:    0.0000
     atom:   38    charge:    3.1139    magn:    0.4152    constr:    0.0000
     atom:   39    charge:    2.1228    magn:    0.5748    constr:    0.0000
     atom:   40    charge:    2.1229    magn:    0.5802    constr:    0.0000
     atom:   41    charge:    2.1347    magn:    0.5774    constr:    0.0000
     atom:   42    charge:    3.1082    magn:    0.3580    constr:    0.0000
     atom:   43    charge:    2.1180    magn:    0.5867    constr:    0.0000
     atom:   44    charge:    2.1192    magn:    0.5762    constr:    0.0000
     atom:   45    charge:    2.1202    magn:    0.5776    constr:    0.0000
     atom:   46    charge:    3.1169    magn:    0.3777    constr:    0.0000
     atom:   47    charge:    2.1213    magn:    0.6241    constr:    0.0000
     atom:   48    charge:    2.1323    magn:    0.6155    constr:    0.0000
     atom:   49    charge:    2.0824    magn:    0.6388    constr:    0.0000
     atom:   50    charge:    0.6718    magn:    0.2884    constr:    0.0000
     atom:   51    charge:    0.3687    magn:    0.0286    constr:    0.0000
     atom:   52    charge:    0.3613    magn:    0.0289    constr:    0.0000
     atom:   53    charge:    0.3173    magn:    0.0453    constr:    0.0000
     atom:   54    charge:    0.3628    magn:    0.0284    constr:    0.0000

     total cpu time spent up to now is     2916.7 secs

     total energy              =   -3018.62646017 Ry
     Harris-Foulkes estimate   =   -3018.77162670 Ry
     estimated scf accuracy    <      17.51838992 Ry

     total magnetization       =    11.68 Bohr mag/cell
     absolute magnetization    =    21.03 Bohr mag/cell

     iteration #  9     ecut=    40.42 Ry     beta=0.10
     Davidson diagonalization with overlap
     ethr =  3.79E-03,  avg # of iterations =  1.0

     negative rho (up, down):  1.155E-02 9.189E-03
 
     Magnetic moment per site:
     atom:    1    charge:    3.1172    magn:    0.3666    constr:    0.0000
     atom:    2    charge:    2.1339    magn:    0.5302    constr:    0.0000
     atom:    3    charge:    3.1132    magn:    0.3771    constr:    0.0000
     atom:    4    charge:    2.1287    magn:    0.5354    constr:    0.0000
     atom:    5    charge:    3.1091    magn:    0.3094    constr:    0.0000
     atom:    6    charge:    2.1031    magn:    0.5394    constr:    0.0000
     atom:    7    charge:    3.1208    magn:    0.3402    constr:    0.0000
     atom:    8    charge:    2.1229    magn:    0.5751    constr:    0.0000
     atom:    9    charge:    3.1172    magn:    0.3666    constr:    0.0000
     atom:   10    charge:    2.1340    magn:    0.5306    constr:    0.0000
     atom:   11    charge:    3.1125    magn:    0.3764    constr:    0.0000
     atom:   12    charge:    2.1292    magn:    0.5351    constr:    0.0000
     atom:   13    charge:    3.1078    magn:    0.3160    constr:    0.0000
     atom:   14    charge:    2.1215    magn:    0.5326    constr:    0.0000
     atom:   15    charge:    3.1183    magn:    0.3441    constr:    0.0000
     atom:   16    charge:    2.1255    magn:    0.5696    constr:    0.0000
     atom:   17    charge:    2.0986    magn:    0.5980    constr:    0.0000
     atom:   18    charge:    3.1162    magn:    0.3912    constr:    0.0000
     atom:   19    charge:    2.1294    magn:    0.5330    constr:    0.0000
     atom:   20    charge:    2.1387    magn:    0.5220    constr:    0.0000
     atom:   21    charge:    2.1387    magn:    0.5218    constr:    0.0000
     atom:   22    charge:    3.1123    magn:    0.3749    constr:    0.0000
     atom:   23    charge:    2.1247    magn:    0.5298    constr:    0.0000
     atom:   24    charge:    2.1155    magn:    0.5402    constr:    0.0000
     atom:   25    charge:    2.1287    magn:    0.5356    constr:    0.0000
     atom:   26    charge:    3.1078    magn:    0.3232    constr:    0.0000
     atom:   27    charge:    2.1118    magn:    0.5456    constr:    0.0000
     atom:   28    charge:    2.1142    magn:    0.5344    constr:    0.0000
     atom:   29    charge:    2.1162    magn:    0.5353    constr:    0.0000
     atom:   30    charge:    3.1168    magn:    0.3379    constr:    0.0000
     atom:   31    charge:    2.1235    magn:    0.5774    constr:    0.0000
     atom:   32    charge:    2.1258    magn:    0.5707    constr:    0.0000
     atom:   33    charge:    2.0985    magn:    0.5984    constr:    0.0000
     atom:   34    charge:    3.1163    magn:    0.3914    constr:    0.0000
     atom:   35    charge:    2.1295    magn:    0.5328    constr:    0.0000
     atom:   36    charge:    2.1388    magn:    0.5217    constr:    0.0000
     atom:   37    charge:    2.1387    magn:    0.5217    constr:    0.0000
     atom:   38    charge:    3.1123    magn:    0.3748    constr:    0.0000
     atom:   39    charge:    2.1197    magn:    0.5325    constr:    0.0000
     atom:   40    charge:    2.1159    magn:    0.5398    constr:    0.0000
     atom:   41    charge:    2.1290    magn:    0.5356    constr:    0.0000
     atom:   42    charge:    3.1092    magn:    0.3192    constr:    0.0000
     atom:   43    charge:    2.1130    magn:    0.5450    constr:    0.0000
     atom:   44    charge:    2.1151    magn:    0.5345    constr:    0.0000
     atom:   45    charge:    2.1162    magn:    0.5357    constr:    0.0000
     atom:   46    charge:    3.1144    magn:    0.3376    constr:    0.0000
     atom:   47    charge:    2.1177    magn:    0.5811    constr:    0.0000
     atom:   48    charge:    2.1284    magn:    0.5725    constr:    0.0000
     atom:   49    charge:    2.0807    magn:    0.6087    constr:    0.0000
     atom:   50    charge:    0.6777    magn:    0.2705    constr:    0.0000
     atom:   51    charge:    0.3747    magn:    0.0242    constr:    0.0000
     atom:   52    charge:    0.3677    magn:    0.0247    constr:    0.0000
     atom:   53    charge:    0.3237    magn:    0.0408    constr:    0.0000
     atom:   54    charge:    0.3691    magn:    0.0241    constr:    0.0000

     total cpu time spent up to now is     3111.1 secs

     total energy              =   -3018.89619078 Ry
     Harris-Foulkes estimate   =   -3018.66433863 Ry
     estimated scf accuracy    <      10.31344228 Ry

     total magnetization       =     9.58 Bohr mag/cell
     absolute magnetization    =    19.32 Bohr mag/cell

     iteration # 10     ecut=    40.42 Ry     beta=0.10
     Davidson diagonalization with overlap
     ethr =  2.59E-03,  avg # of iterations =  1.0

     negative rho (up, down):  1.248E-02 9.752E-03
 
     Magnetic moment per site:
     atom:    1    charge:    3.1177    magn:    0.1252    constr:    0.0000
     atom:    2    charge:    2.0988    magn:    0.2831    constr:    0.0000
     atom:    3    charge:    3.1091    magn:    0.1336    constr:    0.0000
     atom:    4    charge:    2.0964    magn:    0.2885    constr:    0.0000
     atom:    5    charge:    3.1106    magn:    0.0746    constr:    0.0000
     atom:    6    charge:    2.0813    magn:    0.2935    constr:    0.0000
     atom:    7    charge:    3.1217    magn:    0.1154    constr:    0.0000
     atom:    8    charge:    2.0959    magn:    0.3217    constr:    0.0000
     atom:    9    charge:    3.1176    magn:    0.1252    constr:    0.0000
     atom:   10    charge:    2.0991    magn:    0.2835    constr:    0.0000
     atom:   11    charge:    3.1094    magn:    0.1327    constr:    0.0000
     atom:   12    charge:    2.0968    magn:    0.2883    constr:    0.0000
     atom:   13    charge:    3.1032    magn:    0.0736    constr:    0.0000
     atom:   14    charge:    2.1006    magn:    0.2836    constr:    0.0000
     atom:   15    charge:    3.1143    magn:    0.1119    constr:    0.0000
     atom:   16    charge:    2.0963    magn:    0.3181    constr:    0.0000
     atom:   17    charge:    2.0820    magn:    0.3621    constr:    0.0000
     atom:   18    charge:    3.1309    magn:    0.1659    constr:    0.0000
     atom:   19    charge:    2.0939    magn:    0.2868    constr:    0.0000
     atom:   20    charge:    2.0762    magn:    0.2766    constr:    0.0000
     atom:   21    charge:    2.0761    magn:    0.2765    constr:    0.0000
     atom:   22    charge:    3.1107    magn:    0.1336    constr:    0.0000
     atom:   23    charge:    2.1036    magn:    0.2805    constr:    0.0000
     atom:   24    charge:    2.0781    magn:    0.3008    constr:    0.0000
     atom:   25    charge:    2.0965    magn:    0.2887    constr:    0.0000
     atom:   26    charge:    3.1096    magn:    0.0944    constr:    0.0000
     atom:   27    charge:    2.0833    magn:    0.3020    constr:    0.0000
     atom:   28    charge:    2.0897    magn:    0.2896    constr:    0.0000
     atom:   29    charge:    2.0920    magn:    0.2895    constr:    0.0000
     atom:   30    charge:    3.1129    magn:    0.1040    constr:    0.0000
     atom:   31    charge:    2.1032    magn:    0.3083    constr:    0.0000
     atom:   32    charge:    2.0960    magn:    0.3201    constr:    0.0000
     atom:   33    charge:    2.0818    magn:    0.3625    constr:    0.0000
     atom:   34    charge:    3.1295    magn:    0.1652    constr:    0.0000
     atom:   35    charge:    2.0939    magn:    0.2864    constr:    0.0000
     atom:   36    charge:    2.0760    magn:    0.2765    constr:    0.0000
     atom:   37    charge:    2.0762    magn:    0.2764    constr:    0.0000
     atom:   38    charge:    3.1108    magn:    0.1333    constr:    0.0000
     atom:   39    charge:    2.0944    magn:    0.2858    constr:    0.0000
     atom:   40    charge:    2.0784    magn:    0.3002    constr:    0.0000
     atom:   41    charge:    2.0968    magn:    0.2890    constr:    0.0000
     atom:   42    charge:    3.1138    magn:    0.0914    constr:    0.0000
     atom:   43    charge:    2.0856    magn:    0.2996    constr:    0.0000
     atom:   44    charge:    2.0906    magn:    0.2898    constr:    0.0000
     atom:   45    charge:    2.0920    magn:    0.2895    constr:    0.0000
     atom:   46    charge:    3.1103    magn:    0.1040    constr:    0.0000
     atom:   47    charge:    2.0984    magn:    0.3220    constr:    0.0000
     atom:   48    charge:    2.1013    magn:    0.3154    constr:    0.0000
     atom:   49    charge:    2.0744    magn:    0.4234    constr:    0.0000
     atom:   50    charge:    0.7031    magn:    0.1660    constr:    0.0000
     atom:   51    charge:    0.4087    magn:   -0.0009    constr:    0.0000
     atom:   52    charge:    0.4041    magn:   -0.0004    constr:    0.0000
     atom:   53    charge:    0.3598    magn:    0.0151    constr:    0.0000
     atom:   54    charge:    0.4050    magn:   -0.0008    constr:    0.0000

     total cpu time spent up to now is     3305.0 secs

     total energy              =   -3020.18955437 Ry
     Harris-Foulkes estimate   =   -3018.94661140 Ry
     estimated scf accuracy    <       4.57149856 Ry

     total magnetization       =     5.89 Bohr mag/cell
     absolute magnetization    =    16.79 Bohr mag/cell

     iteration # 11     ecut=    40.42 Ry     beta=0.10
     Davidson diagonalization with overlap
     ethr =  1.15E-03,  avg # of iterations =  4.3

     negative rho (up, down):  1.403E-02 1.083E-02
 
     Magnetic moment per site:
     atom:    1    charge:    3.1067    magn:   -0.0155    constr:    0.0000
     atom:    2    charge:    2.0887    magn:    0.1338    constr:    0.0000
     atom:    3    charge:    3.0996    magn:   -0.0078    constr:    0.0000
     atom:    4    charge:    2.0866    magn:    0.1389    constr:    0.0000
     atom:    5    charge:    3.1051    magn:   -0.0602    constr:    0.0000
     atom:    6    charge:    2.0754    magn:    0.1453    constr:    0.0000
     atom:    7    charge:    3.1097    magn:   -0.0163    constr:    0.0000
     atom:    8    charge:    2.0879    magn:    0.1686    constr:    0.0000
     atom:    9    charge:    3.1066    magn:   -0.0156    constr:    0.0000
     atom:   10    charge:    2.0892    magn:    0.1342    constr:    0.0000
     atom:   11    charge:    3.0994    magn:   -0.0087    constr:    0.0000
     atom:   12    charge:    2.0869    magn:    0.1388    constr:    0.0000
     atom:   13    charge:    3.0996    magn:   -0.0636    constr:    0.0000
     atom:   14    charge:    2.0934    magn:    0.1334    constr:    0.0000
     atom:   15    charge:    3.1058    magn:   -0.0225    constr:    0.0000
     atom:   16    charge:    2.0894    magn:    0.1641    constr:    0.0000
     atom:   17    charge:    2.0692    magn:    0.2244    constr:    0.0000
     atom:   18    charge:    3.1245    magn:    0.0377    constr:    0.0000
     atom:   19    charge:    2.0846    magn:    0.1369    constr:    0.0000
     atom:   20    charge:    2.0681    magn:    0.1267    constr:    0.0000
     atom:   21    charge:    2.0680    magn:    0.1266    constr:    0.0000
     atom:   22    charge:    3.0992    magn:   -0.0074    constr:    0.0000
     atom:   23    charge:    2.0955    magn:    0.1306    constr:    0.0000
     atom:   24    charge:    2.0681    magn:    0.1549    constr:    0.0000
     atom:   25    charge:    2.0867    magn:    0.1393    constr:    0.0000
     atom:   26    charge:    3.1023    magn:   -0.0387    constr:    0.0000
     atom:   27    charge:    2.0752    magn:    0.1541    constr:    0.0000
     atom:   28    charge:    2.0818    magn:    0.1416    constr:    0.0000
     atom:   29    charge:    2.0842    magn:    0.1410    constr:    0.0000
     atom:   30    charge:    3.1037    magn:   -0.0309    constr:    0.0000
     atom:   31    charge:    2.0959    magn:    0.1494    constr:    0.0000
     atom:   32    charge:    2.0892    magn:    0.1665    constr:    0.0000
     atom:   33    charge:    2.0697    magn:    0.2244    constr:    0.0000
     atom:   34    charge:    3.1237    magn:    0.0370    constr:    0.0000
     atom:   35    charge:    2.0845    magn:    0.1364    constr:    0.0000
     atom:   36    charge:    2.0679    magn:    0.1266    constr:    0.0000
     atom:   37    charge:    2.0681    magn:    0.1265    constr:    0.0000
     atom:   38    charge:    3.0992    magn:   -0.0078    constr:    0.0000
     atom:   39    charge:    2.0859    magn:    0.1373    constr:    0.0000
     atom:   40    charge:    2.0684    magn:    0.1541    constr:    0.0000
     atom:   41    charge:    2.0870    magn:    0.1396    constr:    0.0000
     atom:   42    charge:    3.1065    magn:   -0.0416    constr:    0.0000
     atom:   43    charge:    2.0773    magn:    0.1511    constr:    0.0000
     atom:   44    charge:    2.0829    magn:    0.1418    constr:    0.0000
     atom:   45    charge:    2.0840    magn:    0.1411    constr:    0.0000
     atom:   46    charge:    3.1011    magn:   -0.0308    constr:    0.0000
     atom:   47    charge:    2.0941    magn:    0.1661    constr:    0.0000
     atom:   48    charge:    2.0930    magn:    0.1601    constr:    0.0000
     atom:   49    charge:    2.0761    magn:    0.3124    constr:    0.0000
     atom:   50    charge:    0.7087    magn:    0.1072    constr:    0.0000
     atom:   51    charge:    0.4280    magn:   -0.0147    constr:    0.0000
     atom:   52    charge:    0.4244    magn:   -0.0141    constr:    0.0000
     atom:   53    charge:    0.3737    magn:    0.0065    constr:    0.0000
     atom:   54    charge:    0.4252    magn:   -0.0146    constr:    0.0000

     total cpu time spent up to now is     3562.8 secs

     total energy              =   -3021.09436725 Ry
     Harris-Foulkes estimate   =   -3020.69930737 Ry
     estimated scf accuracy    <       0.83605066 Ry

     total magnetization       =     2.00 Bohr mag/cell
     absolute magnetization    =    10.68 Bohr mag/cell

     iteration # 12     ecut=    40.42 Ry     beta=0.10
     Davidson diagonalization with overlap
     ethr =  2.10E-04,  avg # of iterations =  8.5

     negative rho (up, down):  1.290E-02 1.039E-02
 
     Magnetic moment per site:
     atom:    1    charge:    3.1171    magn:   -0.0074    constr:    0.0000
     atom:    2    charge:    2.0841    magn:    0.1294    constr:    0.0000
     atom:    3    charge:    3.1154    magn:    0.0000    constr:    0.0000
     atom:    4    charge:    2.0822    magn:    0.1316    constr:    0.0000
     atom:    5    charge:    3.1156    magn:   -0.0382    constr:    0.0000
     atom:    6    charge:    2.0805    magn:    0.1401    constr:    0.0000
     atom:    7    charge:    3.1116    magn:   -0.0074    constr:    0.0000
     atom:    8    charge:    2.0779    magn:    0.1630    constr:    0.0000
     atom:    9    charge:    3.1171    magn:   -0.0075    constr:    0.0000
     atom:   10    charge:    2.0844    magn:    0.1297    constr:    0.0000
     atom:   11    charge:    3.1147    magn:   -0.0008    constr:    0.0000
     atom:   12    charge:    2.0824    magn:    0.1316    constr:    0.0000
     atom:   13    charge:    3.1156    magn:   -0.0409    constr:    0.0000
     atom:   14    charge:    2.0929    magn:    0.1274    constr:    0.0000
     atom:   15    charge:    3.1165    magn:   -0.0133    constr:    0.0000
     atom:   16    charge:    2.0821    magn:    0.1572    constr:    0.0000
     atom:   17    charge:    2.0574    magn:    0.2161    constr:    0.0000
     atom:   18    charge:    3.1355    magn:    0.0583    constr:    0.0000
     atom:   19    charge:    2.0835    magn:    0.1299    constr:    0.0000
     atom:   20    charge:    2.0818    magn:    0.1232    constr:    0.0000
     atom:   21    charge:    2.0818    magn:    0.1232    constr:    0.0000
     atom:   22    charge:    3.1131    magn:   -0.0002    constr:    0.0000
     atom:   23    charge:    2.0890    magn:    0.1255    constr:    0.0000
     atom:   24    charge:    2.0701    magn:    0.1488    constr:    0.0000
     atom:   25    charge:    2.0822    magn:    0.1320    constr:    0.0000
     atom:   26    charge:    3.1091    magn:   -0.0240    constr:    0.0000
     atom:   27    charge:    2.0769    magn:    0.1492    constr:    0.0000
     atom:   28    charge:    2.0818    magn:    0.1371    constr:    0.0000
     atom:   29    charge:    2.0843    magn:    0.1358    constr:    0.0000
     atom:   30    charge:    3.1129    magn:   -0.0197    constr:    0.0000
     atom:   31    charge:    2.0833    magn:    0.1445    constr:    0.0000
     atom:   32    charge:    2.0823    magn:    0.1595    constr:    0.0000
     atom:   33    charge:    2.0568    magn:    0.2167    constr:    0.0000
     atom:   34    charge:    3.1360    magn:    0.0579    constr:    0.0000
     atom:   35    charge:    2.0835    magn:    0.1295    constr:    0.0000
     atom:   36    charge:    2.0817    magn:    0.1232    constr:    0.0000
     atom:   37    charge:    2.0818    magn:    0.1232    constr:    0.0000
     atom:   38    charge:    3.1131    magn:   -0.0005    constr:    0.0000
     atom:   39    charge:    2.0816    magn:    0.1321    constr:    0.0000
     atom:   40    charge:    2.0702    magn:    0.1482    constr:    0.0000
     atom:   41    charge:    2.0824    magn:    0.1324    constr:    0.0000
     atom:   42    charge:    3.1120    magn:   -0.0260    constr:    0.0000
     atom:   43    charge:    2.0765    magn:    0.1469    constr:    0.0000
     atom:   44    charge:    2.0832    magn:    0.1371    constr:    0.0000
     atom:   45    charge:    2.0836    magn:    0.1363    constr:    0.0000
     atom:   46    charge:    3.1105    magn:   -0.0196    constr:    0.0000
     atom:   47    charge:    2.0843    magn:    0.1588    constr:    0.0000
     atom:   48    charge:    2.0819    magn:    0.1543    constr:    0.0000
     atom:   49    charge:    2.0606    magn:    0.3103    constr:    0.0000
     atom:   50    charge:    0.6873    magn:    0.1017    constr:    0.0000
     atom:   51    charge:    0.4259    magn:   -0.0116    constr:    0.0000
     atom:   52    charge:    0.4237    magn:   -0.0111    constr:    0.0000
     atom:   53    charge:    0.3707    magn:    0.0106    constr:    0.0000
     atom:   54    charge:    0.4243    magn:   -0.0115    constr:    0.0000

     total cpu time spent up to now is     3895.8 secs

     total energy              =   -3021.09362027 Ry
     Harris-Foulkes estimate   =   -3021.12765636 Ry
     estimated scf accuracy    <       0.41223383 Ry

     total magnetization       =     1.96 Bohr mag/cell
     absolute magnetization    =     8.30 Bohr mag/cell

     iteration # 13     ecut=    40.42 Ry     beta=0.10
     Davidson diagonalization with overlap
     ethr =  1.04E-04,  avg # of iterations =  2.5

     negative rho (up, down):  1.306E-02 1.074E-02
 
     Magnetic moment per site:
     atom:    1    charge:    3.1106    magn:   -0.0316    constr:    0.0000
     atom:    2    charge:    2.0897    magn:    0.0957    constr:    0.0000
     atom:    3    charge:    3.1079    magn:   -0.0245    constr:    0.0000
     atom:    4    charge:    2.0876    magn:    0.0976    constr:    0.0000
     atom:    5    charge:    3.1125    magn:   -0.0561    constr:    0.0000
     atom:    6    charge:    2.0824    magn:    0.1072    constr:    0.0000
     atom:    7    charge:    3.1059    magn:   -0.0306    constr:    0.0000
     atom:    8    charge:    2.0820    magn:    0.1270    constr:    0.0000
     atom:    9    charge:    3.1107    magn:   -0.0317    constr:    0.0000
     atom:   10    charge:    2.0899    magn:    0.0960    constr:    0.0000
     atom:   11    charge:    3.1076    magn:   -0.0252    constr:    0.0000
     atom:   12    charge:    2.0877    magn:    0.0976    constr:    0.0000
     atom:   13    charge:    3.1130    magn:   -0.0572    constr:    0.0000
     atom:   14    charge:    2.0942    magn:    0.0935    constr:    0.0000
     atom:   15    charge:    3.1111    magn:   -0.0347    constr:    0.0000
     atom:   16    charge:    2.0874    magn:    0.1192    constr:    0.0000
     atom:   17    charge:    2.0623    magn:    0.1847    constr:    0.0000
     atom:   18    charge:    3.1241    magn:    0.0361    constr:    0.0000
     atom:   19    charge:    2.0893    magn:    0.0951    constr:    0.0000
     atom:   20    charge:    2.0935    magn:    0.0885    constr:    0.0000
     atom:   21    charge:    2.0934    magn:    0.0884    constr:    0.0000
     atom:   22    charge:    3.1070    magn:   -0.0249    constr:    0.0000
     atom:   23    charge:    2.0913    magn:    0.0926    constr:    0.0000
     atom:   24    charge:    2.0768    magn:    0.1147    constr:    0.0000
     atom:   25    charge:    2.0875    magn:    0.0980    constr:    0.0000
     atom:   26    charge:    3.1047    magn:   -0.0451    constr:    0.0000
     atom:   27    charge:    2.0810    magn:    0.1150    constr:    0.0000
     atom:   28    charge:    2.0835    magn:    0.1042    constr:    0.0000
     atom:   29    charge:    2.0859    magn:    0.1027    constr:    0.0000
     atom:   30    charge:    3.1080    magn:   -0.0409    constr:    0.0000
     atom:   31    charge:    2.0864    magn:    0.1094    constr:    0.0000
     atom:   32    charge:    2.0879    magn:    0.1215    constr:    0.0000
     atom:   33    charge:    2.0624    magn:    0.1850    constr:    0.0000
     atom:   34    charge:    3.1245    magn:    0.0359    constr:    0.0000
     atom:   35    charge:    2.0893    magn:    0.0947    constr:    0.0000
     atom:   36    charge:    2.0935    magn:    0.0884    constr:    0.0000
     atom:   37    charge:    2.0934    magn:    0.0883    constr:    0.0000
     atom:   38    charge:    3.1069    magn:   -0.0252    constr:    0.0000
     atom:   39    charge:    2.0847    magn:    0.0994    constr:    0.0000
     atom:   40    charge:    2.0769    magn:    0.1142    constr:    0.0000
     atom:   41    charge:    2.0877    magn:    0.0984    constr:    0.0000
     atom:   42    charge:    3.1071    magn:   -0.0472    constr:    0.0000
     atom:   43    charge:    2.0801    magn:    0.1130    constr:    0.0000
     atom:   44    charge:    2.0850    magn:    0.1043    constr:    0.0000
     atom:   45    charge:    2.0852    magn:    0.1034    constr:    0.0000
     atom:   46    charge:    3.1057    magn:   -0.0408    constr:    0.0000
     atom:   47    charge:    2.0875    magn:    0.1220    constr:    0.0000
     atom:   48    charge:    2.0863    magn:    0.1177    constr:    0.0000
     atom:   49    charge:    2.0628    magn:    0.2851    constr:    0.0000
     atom:   50    charge:    0.6795    magn:    0.0901    constr:    0.0000
     atom:   51    charge:    0.4286    magn:   -0.0127    constr:    0.0000
     atom:   52    charge:    0.4266    magn:   -0.0121    constr:    0.0000
     atom:   53    charge:    0.3692    magn:    0.0137    constr:    0.0000
     atom:   54    charge:    0.4272    magn:   -0.0126    constr:    0.0000

     total cpu time spent up to now is     4115.3 secs

     total energy              =   -3021.08431519 Ry
     Harris-Foulkes estimate   =   -3021.13254110 Ry
     estimated scf accuracy    <       0.45648218 Ry

     total magnetization       =     1.99 Bohr mag/cell
     absolute magnetization    =     7.39 Bohr mag/cell

     iteration # 14     ecut=    40.42 Ry     beta=0.10
     Davidson diagonalization with overlap
     ethr =  1.04E-04,  avg # of iterations =  2.3

     negative rho (up, down):  1.297E-02 1.089E-02
 
     Magnetic moment per site:
     atom:    1    charge:    3.1182    magn:   -0.0352    constr:    0.0000
     atom:    2    charge:    2.0869    magn:    0.0846    constr:    0.0000
     atom:    3    charge:    3.1147    magn:   -0.0289    constr:    0.0000
     atom:    4    charge:    2.0846    magn:    0.0857    constr:    0.0000
     atom:    5    charge:    3.1162    magn:   -0.0534    constr:    0.0000
     atom:    6    charge:    2.0814    magn:    0.0962    constr:    0.0000
     atom:    7    charge:    3.1108    magn:   -0.0334    constr:    0.0000
     atom:    8    charge:    2.0779    magn:    0.1150    constr:    0.0000
     atom:    9    charge:    3.1182    magn:   -0.0353    constr:    0.0000
     atom:   10    charge:    2.0872    magn:    0.0848    constr:    0.0000
     atom:   11    charge:    3.1148    magn:   -0.0293    constr:    0.0000
     atom:   12    charge:    2.0848    magn:    0.0859    constr:    0.0000
     atom:   13    charge:    3.1161    magn:   -0.0545    constr:    0.0000
     atom:   14    charge:    2.0929    magn:    0.0819    constr:    0.0000
     atom:   15    charge:    3.1156    magn:   -0.0371    constr:    0.0000
     atom:   16    charge:    2.0837    magn:    0.1055    constr:    0.0000
     atom:   17    charge:    2.0615    magn:    0.1711    constr:    0.0000
     atom:   18    charge:    3.1296    magn:    0.0325    constr:    0.0000
[...]
    -1.7297  -1.5069  -1.4648  -1.4538  -1.4354  -1.3980  -1.3190  -1.1550
    -1.1444  -1.0878  -1.0705  -1.0543  -0.9715  -0.9113  -0.8724  -0.7874
    -0.7317  -0.7251  -0.6986  -0.6712  -0.5949  -0.5724  -0.5592   0.2971
     1.6019   1.6053   1.6180   1.6233   1.9655   1.9663   2.0952   2.0962
     2.2790   2.2996   2.3128   2.3946   2.4178   2.4877   2.5744   2.6336
     2.6556   2.7002   2.7836   2.8169   2.8740   2.9257   2.9478   2.9757
     2.9904   2.9989   3.0399   3.0978   3.1123   3.2091   3.2349   3.2438
     3.2596   3.2836   3.3408   3.3868   3.4006   3.4057   3.4625   3.4734
     3.4835   3.5115   3.5259   3.5799   3.6371   3.6546   3.7768   3.8779
     3.9138   3.9240   4.1403   4.1407   4.5912   4.6199   4.6424   4.7279
     4.8832   4.8991   4.9319   5.0818   5.1610   5.1659   5.1851   5.4465
     5.6738   5.6828   5.6939   5.9263   5.9317   5.9656   6.0165   6.0193
     6.0943   6.1059   6.1755   6.2671   6.2708   6.2793   6.3832   6.4606
     6.5000   6.6066   7.0683   7.2327   7.3387   7.3970   7.5553   7.5908
     7.7182   7.7708   7.9236   8.1122   8.2969   8.3432   8.4523   8.8699
     9.0117   9.0679   9.2152

          k =-0.0253 0.0280 0.0000 ( 34687 PWs)   bands (ev):

   -58.3036 -58.2733 -57.3860 -57.3809 -57.3514 -57.3128 -57.2604 -57.0948
   -57.0655 -57.0586 -57.0237 -56.9213 -56.9213 -56.8908 -56.8020 -56.7687
   -34.7263 -34.5725 -34.5476 -34.5056 -34.4240 -34.3880 -33.8576 -33.8474
   -33.7326 -33.6657 -33.6312 -33.5925 -33.5664 -33.5522 -33.5488 -33.5397
   -33.5319 -33.5194 -33.5176 -33.4978 -33.4912 -33.4679 -33.4669 -33.4482
   -33.3366 -33.3272 -33.3196 -33.3179 -33.3108 -33.3058 -33.2815 -33.2636
   -33.2519 -33.2400 -33.2387 -33.2300 -33.2131 -33.2033 -33.1660 -33.1362
   -33.1327 -33.0789 -33.0584 -33.0386 -33.0195 -32.9980 -32.9780 -32.9136
   -18.3688 -17.9399 -17.7742 -17.7323 -17.5213 -17.5150 -17.3737 -17.3668
   -17.3436 -17.3140 -17.1102 -17.0673 -16.9823 -16.9373 -16.8719 -16.8290
   -16.7908 -16.7487 -16.7309 -16.6679 -16.6617 -16.5812 -16.5428 -16.4843
   -16.4602 -16.4044 -16.3644 -16.3465 -16.1547 -16.1200 -15.8810 -15.6083
   -15.5595 -10.7928  -5.8399  -5.3084  -5.1423  -5.1240  -4.9923  -4.9513
    -4.9124  -4.8231  -4.6971  -4.6762  -4.6351  -4.5348  -4.4969  -4.4404
    -4.4069  -4.3121  -4.2885  -4.2486  -4.1986  -4.1808  -4.1402  -4.1257
    -4.0921  -4.0455  -4.0083  -3.9903  -3.9530  -3.9119  -3.8788  -3.7980
    -3.7827  -3.7228  -3.6893  -3.6236  -3.5997  -3.5813  -3.5011  -3.3912
    -3.3433  -3.3188  -3.2901  -3.2619  -3.2231  -3.1809  -3.1114  -3.0948
    -2.9187  -2.8810  -2.8213  -2.7767  -2.7206  -2.6847  -2.6732  -2.6163
    -2.5864  -2.5078  -2.4984  -2.4414  -2.4085  -2.3573  -2.2869  -2.2644
    -2.2125  -2.1913  -2.1033  -2.0415  -1.9584  -1.9394  -1.9152  -1.8493
    -1.8381  -1.7901  -1.7444  -1.6839  -1.6348  -1.5943  -1.5613  -1.5096
    -1.4758  -1.4347  -1.4058  -1.3797  -1.3605  -1.3450  -1.3137  -1.2898
    -1.2045  -1.1238  -1.0629  -1.0090  -0.9862  -0.9525  -0.9287  -0.8843
    -0.8416  -0.8194  -0.6295  -0.6068  -0.5837  -0.5205  -0.2652   0.3209
     1.1537   1.2471   1.4313   1.8204   1.8598   1.9269   1.9636   2.0308
     2.0419   2.1912   2.3019   2.3477   2.3892   2.4322   2.4557   2.5056
     2.5257   2.5500   2.5907   2.6508   2.6992   2.7235   2.7794   2.8332
     2.8783   2.9151   2.9316   2.9750   2.9923   3.0161   3.0424   3.0951
     3.1720   3.1927   3.2350   3.2604   3.2960   3.3382   3.4306   3.4663
     3.4964   3.5598   3.6132   3.6441   3.6652   3.7455   3.8228   3.8669
     4.0140   4.2104   4.2865   4.4373   4.6263   4.7245   4.8454   4.8626
     5.0033   5.0272   5.1143   5.1997   5.2430   5.3581   5.4620   5.5500
     5.6621   5.6961   5.7164   5.8047   5.8514   5.8846   5.9109   5.9330
     5.9683   5.9912   6.0664   6.1263   6.1768   6.2838   6.3997   6.4501
     6.4636   6.5829   6.7540   6.8099   7.3776   7.4860   7.7953   7.8916
     8.0932   8.2325   8.4893   8.5343   8.7861   8.8930   9.0815   9.3094
     9.3760   9.5309   9.6146

          k =-0.0253 0.0560 0.0000 ( 34699 PWs)   bands (ev):

   -58.2972 -58.2797 -57.3829 -57.3755 -57.3577 -57.3151 -57.2596 -57.0943
   -57.0660 -57.0539 -57.0286 -56.9218 -56.9149 -56.8972 -56.7953 -56.7754
   -34.6564 -34.5672 -34.5528 -34.4886 -34.4612 -34.4415 -33.7879 -33.7782
   -33.6818 -33.6504 -33.6145 -33.5909 -33.5869 -33.5861 -33.5747 -33.5677
   -33.5414 -33.5315 -33.5181 -33.4962 -33.4830 -33.4656 -33.4550 -33.4141
   -33.3714 -33.3244 -33.3209 -33.3122 -33.2835 -33.2740 -33.2587 -33.2575
   -33.2565 -33.2483 -33.2449 -33.2305 -33.2206 -33.2147 -33.1814 -33.1619
   -33.1200 -33.0760 -33.0751 -33.0519 -33.0355 -33.0219 -33.0101 -32.9842
   -18.2111 -17.8011 -17.7796 -17.6108 -17.5993 -17.4552 -17.3927 -17.3689
   -17.2481 -17.2408 -17.2033 -17.0573 -16.9476 -16.9189 -16.8803 -16.8397
   -16.7968 -16.7430 -16.7324 -16.7175 -16.6830 -16.5971 -16.5479 -16.5312
   -16.4999 -16.4408 -16.4110 -16.4060 -16.2164 -16.2011 -15.8798 -15.6370
   -15.6133 -10.7947  -5.6047  -5.0810  -5.0235  -4.9553  -4.9230  -4.8166
    -4.7946  -4.7573  -4.6871  -4.6724  -4.5253  -4.5084  -4.4454  -4.3948
    -4.3769  -4.3686  -4.3201  -4.2764  -4.2495  -4.2395  -4.2041  -4.1725
    -4.1308  -4.1206  -4.0543  -4.0198  -3.9914  -3.9548  -3.9275  -3.8892
    -3.8288  -3.7958  -3.6947  -3.6019  -3.5803  -3.5340  -3.4578  -3.3838
    -3.3640  -3.2900  -3.1871  -3.1595  -3.1198  -3.1107  -3.0585  -3.0234
    -2.9819  -2.9262  -2.8425  -2.7926  -2.7615  -2.7037  -2.6085  -2.5889
    -2.5239  -2.5096  -2.4563  -2.3907  -2.3753  -2.3172  -2.2993  -2.2582
    -2.1873  -2.1348  -2.1204  -2.0881  -2.0478  -2.0058  -1.9845  -1.9476
    -1.9304  -1.9051  -1.8921  -1.8455  -1.7670  -1.7019  -1.6892  -1.5931
    -1.5719  -1.5433  -1.5179  -1.4841  -1.4425  -1.4124  -1.3833  -1.3242
    -1.2886  -1.2217  -1.1544  -1.0335  -1.0041  -0.9697  -0.9372  -0.8573
    -0.7623  -0.7352  -0.7025  -0.6373  -0.6075  -0.5534  -0.3624   0.3019
     1.2880   1.4699   1.5651   1.7593   1.7746   1.9127   1.9796   2.0590
     2.2662   2.2766   2.3434   2.3796   2.4162   2.4883   2.5235   2.5490
     2.5738   2.5972   2.6546   2.7070   2.7218   2.7656   2.8079   2.8580
     2.8835   2.9185   2.9628   3.0081   3.0337   3.0471   3.0571   3.1107
     3.1600   3.1997   3.2190   3.2899   3.3186   3.3471   3.3790   3.4583
     3.5105   3.5356   3.6136   3.6352   3.6694   3.7282   3.7472   3.8008
     3.8967   4.1007   4.3937   4.5018   4.7170   4.8600   4.9110   4.9622
     4.9966   5.0911   5.1882   5.2090   5.3372   5.3890   5.4351   5.5296
     5.5654   5.6007   5.6530   5.7106   5.7400   5.8049   5.8213   5.8617
     5.9285   5.9445   5.9975   6.0913   6.1340   6.2130   6.3298   6.4328
     6.4593   6.4765   6.7200   6.7705   7.0749   7.2958   7.6723   7.8309
     8.0990   8.2347   8.3210   8.4924   8.7756   8.8987   9.0071   9.1857
     9.3754   9.5541   9.6480

          k =-0.0506 0.0280 0.0000 ( 34685 PWs)   bands (ev):

   -58.3036 -58.2733 -57.3851 -57.3817 -57.3514 -57.3129 -57.2604 -57.0948
   -57.0652 -57.0590 -57.0237 -56.9213 -56.9213 -56.8908 -56.8021 -56.7687
   -34.7271 -34.5724 -34.5476 -34.5040 -34.4240 -34.3881 -33.8581 -33.8514
   -33.7328 -33.6461 -33.6310 -33.5927 -33.5715 -33.5541 -33.5527 -33.5451
   -33.5321 -33.5269 -33.5164 -33.4977 -33.4914 -33.4681 -33.4556 -33.4493
   -33.3367 -33.3204 -33.3190 -33.3177 -33.3066 -33.3054 -33.2817 -33.2656
   -33.2618 -33.2390 -33.2387 -33.2328 -33.2132 -33.2027 -33.1620 -33.1362
   -33.1330 -33.0790 -33.0584 -33.0455 -33.0179 -32.9980 -32.9780 -32.9136
   -18.2605 -17.8624 -17.8502 -17.6995 -17.5860 -17.4539 -17.4364 -17.3427
   -17.3159 -17.2492 -17.1788 -17.0848 -16.9953 -16.9502 -16.9211 -16.8940
   -16.8087 -16.7658 -16.7547 -16.6947 -16.6324 -16.5486 -16.5212 -16.4885
   -16.4601 -16.4054 -16.3884 -16.3515 -16.1512 -16.1204 -15.8818 -15.6065
   -15.5596 -10.7926  -5.5386  -5.1858  -5.1526  -5.1193  -4.9478  -4.8682
    -4.7663  -4.7083  -4.6812  -4.6509  -4.5999  -4.5858  -4.5316  -4.4058
    -4.3617  -4.3214  -4.2401  -4.2142  -4.1786  -4.1636  -4.1470  -4.0549
    -4.0296  -4.0104  -3.9729  -3.9268  -3.8849  -3.8375  -3.8123  -3.7809
    -3.7204  -3.6690  -3.6410  -3.5920  -3.5797  -3.5334  -3.4857  -3.4550
    -3.3793  -3.3671  -3.3016  -3.2636  -3.2026  -3.1480  -3.1171  -3.0568
    -3.0082  -2.9793  -2.9008  -2.8345  -2.7566  -2.6973  -2.6881  -2.6652
    -2.6155  -2.5927  -2.5797  -2.5242  -2.5154  -2.3920  -2.3399  -2.3315
    -2.2689  -2.2000  -2.1846  -2.1579  -2.0796  -2.0093  -2.0029  -1.9419
    -1.9228  -1.8930  -1.8096  -1.7210  -1.7079  -1.6836  -1.6140  -1.5852
    -1.5231  -1.4751  -1.4527  -1.3926  -1.3779  -1.3260  -1.3106  -1.2596
    -1.2431  -1.1202  -1.0572  -1.0341  -1.0088  -0.9559  -0.9236  -0.8751
    -0.8270  -0.7963  -0.7195  -0.6785  -0.6573  -0.5344  -0.3910   0.3057
     1.1407   1.3404   1.4656   1.5662   1.9342   1.9443   1.9667   2.0588
     2.1248   2.1995   2.2545   2.3302   2.4064   2.4403   2.5290   2.5464
     2.5930   2.6515   2.6880   2.7016   2.7554   2.8288   2.8513   2.8820
     2.9407   2.9467   2.9803   2.9850   2.9916   3.1022   3.1096   3.1383
     3.1860   3.2150   3.2903   3.3107   3.3561   3.3831   3.4065   3.4552
     3.4698   3.5481   3.6024   3.6675   3.7430   3.7795   3.7993   3.9010
     3.9589   4.0620   4.1095   4.4078   4.5107   4.6567   4.7484   4.8097
     4.8422   4.9143   4.9667   5.2893   5.3300   5.4128   5.5277   5.5599
     5.6410   5.7673   5.7872   5.8542   5.8994   5.9137   5.9668   6.0564
     6.0941   6.1661   6.2507   6.3349   6.3873   6.4017   6.4437   6.4906
     6.5419   6.5523   6.7122   6.9187   7.0739   7.2210   7.5516   7.6110
     7.7258   8.2189   8.4126   8.4867   8.8675   8.9395   9.0657   9.2229
     9.4269   9.6072   9.6784

          k =-0.0506 0.0560 0.0000 ( 34596 PWs)   bands (ev):

   -58.2972 -58.2797 -57.3825 -57.3758 -57.3577 -57.3151 -57.2596 -57.0943
   -57.0658 -57.0541 -57.0286 -56.9218 -56.9149 -56.8972 -56.7954 -56.7754
   -34.6570 -34.5672 -34.5527 -34.4872 -34.4614 -34.4410 -33.7881 -33.7827
   -33.6820 -33.6346 -33.6143 -33.5901 -33.5886 -33.5859 -33.5689 -33.5677
   -33.5447 -33.5317 -33.5302 -33.4964 -33.4923 -33.4657 -33.4434 -33.4158
   -33.3718 -33.3242 -33.3098 -33.3072 -33.2860 -33.2761 -33.2599 -33.2572
   -33.2561 -33.2481 -33.2445 -33.2406 -33.2213 -33.2150 -33.1807 -33.1577
   -33.1200 -33.0760 -33.0751 -33.0518 -33.0398 -33.0226 -33.0100 -32.9840
   -18.1079 -17.8189 -17.7016 -17.6135 -17.5973 -17.5575 -17.3805 -17.3690
   -17.2190 -17.2068 -17.1175 -17.0953 -16.9778 -16.9124 -16.8675 -16.8427
   -16.8237 -16.8078 -16.7620 -16.7363 -16.7208 -16.6276 -16.5973 -16.5072
   -16.4968 -16.4384 -16.4212 -16.4116 -16.2158 -16.1975 -15.8798 -15.6357
   -15.6137 -10.7945  -5.3020  -4.9920  -4.9413  -4.9333  -4.7834  -4.7757
    -4.7167  -4.6398  -4.5267  -4.5066  -4.5009  -4.4180  -4.4035  -4.3809
    -4.3613  -4.3276  -4.3094  -4.2480  -4.2004  -4.1762  -4.1664  -4.1133
    -4.1026  -4.0574  -4.0444  -3.9931  -3.9795  -3.9037  -3.8850  -3.8282
    -3.7801  -3.7098  -3.6772  -3.6141  -3.6000  -3.5575  -3.5015  -3.4337
    -3.3966  -3.3199  -3.2609  -3.2310  -3.1338  -3.1303  -3.0801  -3.0525
    -2.9955  -2.9777  -2.9581  -2.9032  -2.8007  -2.7639  -2.7491  -2.7060
    -2.6298  -2.5874  -2.5458  -2.5029  -2.4783  -2.4144  -2.3894  -2.3697
    -2.3512  -2.2900  -2.1949  -2.1722  -2.1470  -2.1287  -2.1026  -2.0479
    -2.0131  -1.9714  -1.9445  -1.8705  -1.8482  -1.7819  -1.7311  -1.6569
    -1.5659  -1.5485  -1.5387  -1.4963  -1.4432  -1.3851  -1.3531  -1.3061
    -1.2442  -1.1754  -1.0772  -1.0220  -0.9887  -0.9035  -0.8530  -0.8458
    -0.7935  -0.7048  -0.6917  -0.6699  -0.6543  -0.5516  -0.4763   0.3044
     1.3086   1.4983   1.6469   1.6685   1.8534   2.0042   2.0328   2.0680
     2.2439   2.2567   2.3610   2.3771   2.4333   2.4620   2.5487   2.5857
     2.6510   2.6962   2.7302   2.7448   2.8119   2.8430   2.8715   2.9039
     2.9346   2.9513   3.0071   3.0422   3.0729   3.1140   3.1456   3.1910
     3.1960   3.2511   3.2851   3.3251   3.3342   3.3775   3.4169   3.4671
     3.4819   3.5496   3.5789   3.6417   3.6682   3.7454   3.8051   3.8408
     3.8837   3.9606   4.1529   4.5044   4.5971   4.6165   4.7552   4.8227
     4.8892   4.9656   5.0108   5.1872   5.3024   5.3767   5.4123   5.4445
     5.5953   5.6173   5.6686   5.7176   5.8799   5.8974   5.9877   6.0068
     6.0689   6.1092   6.1707   6.2077   6.3141   6.3374   6.4130   6.4241
     6.5414   6.6154   6.7636   6.8089   7.1857   7.3584   7.5069   7.6203
     7.9371   8.0149   8.1041   8.3802   8.6079   8.7204   8.8051   9.0407
     9.1923   9.3303   9.4353

     the Fermi energy is    -0.2907 ev

!    total energy              =   -3021.14996003 Ry
     Harris-Foulkes estimate   =   -3021.14994508 Ry
     estimated scf accuracy    <       0.00000042 Ry

     The total energy is the sum of the following terms:

     one-electron contribution =  -40438.45725436 Ry
     hartree contribution      =   20290.58569245 Ry
     xc contribution           =    -553.20902094 Ry
     ewald contribution        =   17679.95042629 Ry
     smearing contrib. (-TS)   =      -0.01980346 Ry

     total magnetization       =     1.06 Bohr mag/cell
     absolute magnetization    =     1.23 Bohr mag/cell

     convergence has been achieved in  35 iterations

     Forces acting on atoms (Ry/au):


     negative rho (up, down):  1.189E-02 1.196E-02
     atom    1 type  1   force =     0.00018439   -0.00089753   -0.10470331
     atom    2 type  2   force =     0.00014370    0.00068237    0.04004613
     atom    3 type  1   force =     0.00074969   -0.00175101   -0.02053704
     atom    4 type  2   force =    -0.00326886    0.00312423   -0.00322933
     atom    5 type  1   force =     0.00035085    0.00005894    0.00034162
     atom    6 type  2   force =    -0.00013168   -0.00010256    0.00021502
     atom    7 type  1   force =    -0.00025581   -0.00001722   -0.00028572
     atom    8 type  2   force =    -0.00014921   -0.00016006   -0.00021295
     atom    9 type  1   force =    -0.00003236    0.00056538   -0.10483626
     atom   10 type  2   force =     0.00034825   -0.00021255    0.03601820
     atom   11 type  1   force =     0.00068166    0.00183839    0.00261843
     atom   12 type  2   force =    -0.00519592   -0.00266952   -0.00519373
     atom   13 type  1   force =     0.00041422    0.00008761   -0.00022963
     atom   14 type  2   force =     0.00013218   -0.00007932   -0.00005517
     atom   15 type  1   force =    -0.00007957   -0.00004737    0.00003174
     atom   16 type  2   force =    -0.00020391    0.00001694   -0.00036709
     atom   17 type  2   force =     0.00000896   -0.00001353    0.06652870
     atom   18 type  1   force =     0.00005856    0.00003358    0.13143592
     atom   19 type  2   force =     0.00017734   -0.00052923   -0.08520299
     atom   20 type  2   force =    -0.05791946    0.00014224   -0.03607361
     atom   21 type  2   force =     0.05781040   -0.00004822   -0.03603468
     atom   22 type  1   force =    -0.00043106    0.00075092    0.08018133
     atom   23 type  2   force =     0.00019804   -0.00004988    0.00003996
     atom   24 type  2   force =     0.00064220    0.00185877   -0.03466585
     atom   25 type  2   force =     0.00414075    0.00332673   -0.00509829
     atom   26 type  1   force =     0.00040966   -0.00004874    0.00010345
     atom   27 type  2   force =    -0.00009876   -0.00012708    0.00003913
     atom   28 type  2   force =     0.00005013   -0.00019496   -0.00001227
     atom   29 type  2   force =     0.00000485   -0.00007494    0.00008192
     atom   30 type  1   force =    -0.00023198   -0.00014775    0.00010770
     atom   31 type  2   force =     0.00011567   -0.00007715   -0.00008140
     atom   32 type  2   force =    -0.00011466   -0.00002072    0.00006845
     atom   33 type  2   force =    -0.00016649    0.00004953    0.06626260
     atom   34 type  1   force =     0.00007659   -0.00003068    0.13120589
     atom   35 type  2   force =     0.00018847   -0.00012916   -0.08481370
     atom   36 type  2   force =    -0.05781450    0.00006457   -0.03568608
     atom   37 type  2   force =     0.05798469   -0.00017534   -0.03608420
     atom   38 type  1   force =    -0.00037390   -0.00020525    0.07985374
     atom   39 type  2   force =     0.00007651   -0.00026310   -0.00008659
     atom   40 type  2   force =     0.00048960    0.00124003   -0.03526903
     atom   41 type  2   force =     0.00588715   -0.00243512   -0.00722369
     atom   42 type  1   force =     0.00024120   -0.00007245    0.00004147
     atom   43 type  2   force =    -0.00019598   -0.00009993    0.00003240
     atom   44 type  2   force =     0.00000061   -0.00016061   -0.00002027
     atom   45 type  2   force =     0.00000968   -0.00016926    0.00006435
     atom   46 type  1   force =    -0.00017454   -0.00009505    0.00006820
     atom   47 type  2   force =    -0.00005634   -0.00015086    0.00004951
     atom   48 type  2   force =    -0.00013212   -0.00000669    0.00031384
     atom   49 type  2   force =    -0.00046227   -0.00050420   -0.00027980
     atom   50 type  3   force =    -0.00085353   -0.00039797    0.00018663
     atom   51 type  4   force =    -0.00090335   -0.00059141   -0.00026618
     atom   52 type  4   force =    -0.00063108   -0.00004482    0.00021192
     atom   53 type  4   force =    -0.00089107   -0.00074419    0.00041390
     atom   54 type  4   force =    -0.00080756   -0.00029479   -0.00001327

     Total force =     0.342248     Total SCF correction =     0.001297
 !ASE

     Writing output data file calc.save
 
     init_run     :     64.73s CPU     74.27s WALL (       1 calls)
     electrons    :   8264.66s CPU   9316.51s WALL (       1 calls)
     forces       :     49.39s CPU     50.60s WALL (       1 calls)

     Called by init_run:
     wfcinit      :     55.89s CPU     64.43s WALL (       1 calls)
     potinit      :      2.23s CPU      2.49s WALL (       1 calls)

     Called by electrons:
     c_bands      :   7161.92s CPU   8028.26s WALL (      35 calls)
     sum_band     :    946.19s CPU   1114.60s WALL (      35 calls)
     v_of_rho     :     37.02s CPU     44.10s WALL (      36 calls)
     newd         :    121.18s CPU    130.77s WALL (      36 calls)
     mix_rho      :      1.73s CPU      2.24s WALL (      35 calls)
     vdW_energy   :      7.81s CPU      8.94s WALL (      37 calls)
     vdW_ffts     :      9.09s CPU     11.28s WALL (      74 calls)
     vdW_v        :      3.53s CPU      3.95s WALL (      37 calls)

     Called by c_bands:
     init_us_2    :     20.91s CPU     22.55s WALL (    2880 calls)
     cegterg      :   7033.44s CPU   7893.11s WALL (    1400 calls)

     Called by *egterg:
     h_psi        :   2824.77s CPU   3432.21s WALL (    5993 calls)
     s_psi        :    484.92s CPU    500.48s WALL (    5993 calls)
     g_psi        :     14.32s CPU     14.60s WALL (    4553 calls)
     cdiaghg      :   2066.14s CPU   2111.35s WALL (    5953 calls)

     Called by h_psi:
     add_vuspsi   :    489.89s CPU    505.96s WALL (    5993 calls)

     General routines
     calbec       :    726.63s CPU    743.68s WALL (    7433 calls)
     fft          :     18.72s CPU     23.34s WALL (    2975 calls)
     ffts         :      0.15s CPU      0.21s WALL (     142 calls)
     fftw         :   1616.06s CPU   2336.36s WALL ( 2355634 calls)
     interpolate  :      1.08s CPU      1.64s WALL (     142 calls)
     davcio       :      0.13s CPU      3.07s WALL (      40 calls)
 
     Parallel routines
     fft_scatter  :    806.58s CPU   1249.51s WALL ( 2358751 calls)
 
     PWSCF        :     2h19m CPU        2h37m WALL

 
   This run was terminated on:  17:36:40  25Feb2018            

=------------------------------------------------------------------------------=
   JOB DONE.
=------------------------------------------------------------------------------=
