  python dir          : /home/vossj/suncat/lib/python2.7/site-packages/espresso
  espresso dir        : /home/vossj/suncat/esdld/espresso-dynpy-beef/bin
  pseudo dir          : /home/alatimer/bin/psp/esp_psp_w_gbrvRu/
  ase-espresso py git : ffa2778-git



     Program PWSCF v.5.1rc2 (svn rev. ) starts on 10Feb2018 at 17:15:25 

     This program is part of the open-source Quantum ESPRESSO suite
     for quantum simulation of materials; please cite
         "P. Giannozzi et al., J. Phys.:Condens. Matter 21 395502 (2009);
          URL http://www.quantum-espresso.org", 
     in publications or presentations arising from this work. More details at
     http://www.quantum-espresso.org/quote

     Parallel version (MPI), running on    16 processors
     R & G space division:  proc/nbgrp/npool/nimage =      16
     Reading input from pw.inp
     Message from routine read_cards :
     DEPRECATED: no units specified in CELL_PARAMETERS card

     Current dimensions of program PWSCF are:
     Max number of different atomic species (ntypx) = 10
     Max number of k-points (npk) =  40000
     Max angular momentum in pseudopotentials (lmaxx) =  3

     **************************************************************************
     Initializing libbeef V0.1.1 with the BEEF-vdW functional.
     Citation: Wellendorff et al., PRB 85, 235149 (2012).
     **************************************************************************


     IMPORTANT: XC functional enforced from input :
     Exchange-correlation      = BEEF ( 1  4 27 13 2)
     Any further DFT definition will be discarded
     Please, verify this is what you really want


     Subspace diagonalization in iterative solution of the eigenvalue problem:
     a serial algorithm will be used

 
     Parallelization info
     --------------------
     sticks:   dense  smooth     PW     G-vecs:    dense   smooth      PW
     Min         281     112     31                68535    17318    2565
     Max         282     113     32                68545    17369    2582
     Sum        4501    1795    503              1096637   277353   41113
 
     Generating pointlists ...
     new r_m :   0.4125 (alat units)  0.7795 (a.u.) for type    1
     new r_m :   0.4101 (alat units)  0.7751 (a.u.) for type    2
     new r_m :   0.4101 (alat units)  0.7751 (a.u.) for type    3


     bravais-lattice index     =            0
     lattice parameter (alat)  =       1.8897  a.u.
     unit-cell volume          =    7990.9933 (a.u.)^3
     number of atoms/cell      =           50
     number of atomic types    =            3
     number of electrons       =       391.00
     number of Kohn-Sham states=          295
     kinetic-energy cutoff     =      40.4243  Ry
     charge density cutoff     =     404.2426  Ry
     convergence threshold     =      7.3E-07
     mixing beta               =       0.1000
     number of iterations used =           10  plain     mixing
     Exchange-correlation      = BEEF ( 1  4 27 13 2)
     nstep                     =           50


     celldm(1)=   1.889726  celldm(2)=   0.000000  celldm(3)=   0.000000
     celldm(4)=   0.000000  celldm(5)=   0.000000  celldm(6)=   0.000000

     crystal axes: (cart. coord. in units of alat)
               a(1) = (   6.590708   0.000000   0.000000 )  
               a(2) = (   0.000000   5.950229   0.000000 )  
               a(3) = (   0.000000   0.000000  30.195235 )  

     reciprocal axes: (cart. coord. in units 2 pi/alat)
               b(1) = (  0.151729  0.000000  0.000000 )  
               b(2) = (  0.000000  0.168061  0.000000 )  
               b(3) = (  0.000000  0.000000  0.033118 )  


     PseudoPot. # 1 for Ti read from file:
     /home/alatimer/bin/psp/esp_psp_w_gbrvRu/Ti.UPF
     MD5 check sum: 8e4df49b7f0d34bbd5052bf3f5ea0213
     Pseudo is Ultrasoft, Zval = 12.0
     Generated by new atomic code, or converted to UPF format
     Using radial grid of  851 points,  6 beta functions with: 
                l(1) =   0
                l(2) =   0
                l(3) =   1
                l(4) =   1
                l(5) =   2
                l(6) =   2
     Q(r) pseudized with  8 coefficients,  rinner =    1.000   1.000   1.000
                                                       1.000   1.000

     PseudoPot. # 2 for  O read from file:
     /home/alatimer/bin/psp/esp_psp_w_gbrvRu/O.UPF
     MD5 check sum: e057bbcf3229fb5d8c36c0c92f9568b4
     Pseudo is Ultrasoft + core correction, Zval =  6.0
     Generated using "atomic" code by A. Dal Corso  v.5.0.2 svn rev. 9415
     Using radial grid of 1095 points,  4 beta functions with: 
                l(1) =   0
                l(2) =   0
                l(3) =   1
                l(4) =   1
     Q(r) pseudized with 0 coefficients 


     PseudoPot. # 3 for  H read from file:
     /home/alatimer/bin/psp/esp_psp_w_gbrvRu/H.UPF
     MD5 check sum: bd57da0722753ddfd9833a65b40bb853
     Pseudo is Ultrasoft, Zval =  1.0
     Generated using "atomic" code by A. Dal Corso  v.5.0.2 svn rev. 9415
     Using radial grid of  929 points,  2 beta functions with: 
                l(1) =   0
                l(2) =   0
     Q(r) pseudized with 0 coefficients 


     vdW kernel table read from file vdW_kernel_table
     MD5 check sum: 095c7af220d748ca6e76c0b4c6cfb241

     atomic species   valence    mass     pseudopotential
        Ti1           12.00    47.88000     Ti( 1.00)
        O1             6.00    15.99940      O( 1.00)
        H1             1.00     1.00794      H( 1.00)

     Starting magnetic structure 
     atomic species   magnetization
        Ti1          0.250
        O1           0.500
        H1           0.000

      2 Sym. Ops. (no inversion) found ( 1 have fractional translation)



   Cartesian axes

     site n.     atom                  positions (alat units)
         1           Ti1 tau(   1) = (   1.6476770   0.7437786   2.6545865  )
         2           O1  tau(   2) = (   1.6476770   2.2313359   3.9361215  )
         3           Ti1 tau(   3) = (   1.6476770   2.2313359   5.9499405  )
         4           O1  tau(   4) = (   0.3661420   0.7437786   5.9499405  )
         5           Ti1 tau(   5) = (   1.6423058   0.7993178   9.2289010  )
         6           O1  tau(   6) = (   1.6406404   2.2313359  10.4535548  )
         7           Ti1 tau(   7) = (   1.6373334   2.2313359  13.0586656  )
         8           O1  tau(   8) = (   0.3716334   0.7231912  12.7369480  )
         9           Ti1 tau(   9) = (   1.6476770   3.7188931   2.6545865  )
        10           O1  tau(  10) = (   1.6476770   5.2064503   3.9361215  )
        11           Ti1 tau(  11) = (   1.6476770   5.2064503   5.9499405  )
        12           O1  tau(  12) = (   0.3661420   3.7188931   5.9499405  )
        13           Ti1 tau(  13) = (   1.6423059   3.6633529   9.2289023  )
        14           O1  tau(  14) = (   1.6396028   5.2064504  10.5374954  )
        15           Ti1 tau(  15) = (   1.6366369   5.2064504  12.3426698  )
        16           O1  tau(  16) = (   0.3716333   3.7394800  12.7369475  )
        17           O1  tau(  17) = (   1.6476770   2.2313359   1.3730516  )
        18           Ti1 tau(  18) = (   4.9430310   2.2313359   2.6545865  )
        19           O1  tau(  19) = (   4.9430310   2.2313359   4.6684056  )
        20           O1  tau(  20) = (   6.2245660   0.7437786   2.6545865  )
        21           O1  tau(  21) = (   3.6614961   0.7437786   2.6545865  )
        22           Ti1 tau(  22) = (   4.9430310   0.7437786   5.9499405  )
        23           O1  tau(  23) = (   1.6444126   2.2313359   7.9291264  )
        24           O1  tau(  24) = (   4.9430310   2.2313359   7.2314755  )
        25           O1  tau(  25) = (   2.9292120   0.7437786   5.9499405  )
        26           Ti1 tau(  26) = (   4.9374203   2.2313360   9.4425711  )
        27           O1  tau(  27) = (   4.9384755   2.2313359  11.2756104  )
        28           O1  tau(  28) = (   6.2333856   0.7395591   9.2701299  )
        29           O1  tau(  29) = (   3.6424277   0.7403199   9.2676498  )
        30           Ti1 tau(  30) = (   4.9388558   0.7382018  12.7898683  )
        31           O1  tau(  31) = (   4.8884434   2.2313358  13.8602379  )
        32           O1  tau(  32) = (   2.8718067   0.7224686  12.6922084  )
        33           O1  tau(  33) = (   1.6476770   5.2064503   1.3730516  )
        34           Ti1 tau(  34) = (   4.9430310   5.2064503   2.6545865  )
        35           O1  tau(  35) = (   4.9430310   5.2064503   4.6684056  )
        36           O1  tau(  36) = (   6.2245660   3.7188931   2.6545865  )
        37           O1  tau(  37) = (   3.6614961   3.7188931   2.6545865  )
        38           Ti1 tau(  38) = (   4.9430310   3.7188931   5.9499405  )
        39           O1  tau(  39) = (   1.6444418   5.2064506   7.9393866  )
        40           O1  tau(  40) = (   4.9430310   5.2064503   7.2314755  )
        41           O1  tau(  41) = (   2.9292120   3.7188931   5.9499405  )
        42           Ti1 tau(  42) = (   4.9387790   5.2064503   9.4241858  )
        43           O1  tau(  43) = (   4.9379278   5.2064504  11.2756977  )
        44           O1  tau(  44) = (   6.2333855   3.7231127   9.2701299  )
        45           O1  tau(  45) = (   3.6424278   3.7223520   9.2676499  )
        46           Ti1 tau(  46) = (   4.9388558   3.7244696  12.7898683  )
        47           O1  tau(  47) = (   4.8902929   5.2064502  13.8618696  )
        48           O1  tau(  48) = (   2.8718066   3.7402036  12.6922086  )
        49           O1  tau(  49) = (   1.7318258   2.2313358  14.8494317  )
        50           H1  tau(  50) = (   2.6007197   2.2313366  15.3328018  )

     number of k points=    32  Fermi-Dirac smearing, width (Ry)=  0.0073
                       cart. coord. in units 2pi/alat
        k(    1) = (   0.0000000   0.0000000   0.0000000), wk =   0.0277778
        k(    2) = (   0.0000000   0.0280101   0.0000000), wk =   0.0555556
        k(    3) = (   0.0000000   0.0560203   0.0000000), wk =   0.0555556
        k(    4) = (   0.0000000  -0.0840304   0.0000000), wk =   0.0277778
        k(    5) = (   0.0252881   0.0000000   0.0000000), wk =   0.0555556
        k(    6) = (   0.0252881   0.0280101   0.0000000), wk =   0.1111111
        k(    7) = (   0.0252881   0.0560203   0.0000000), wk =   0.1111111
        k(    8) = (   0.0252881  -0.0840304   0.0000000), wk =   0.0555556
        k(    9) = (   0.0505763   0.0000000   0.0000000), wk =   0.0555556
        k(   10) = (   0.0505763   0.0280101   0.0000000), wk =   0.1111111
        k(   11) = (   0.0505763   0.0560203   0.0000000), wk =   0.1111111
        k(   12) = (   0.0505763  -0.0840304   0.0000000), wk =   0.0555556
        k(   13) = (  -0.0758644   0.0000000   0.0000000), wk =   0.0277778
        k(   14) = (  -0.0758644   0.0280101   0.0000000), wk =   0.0555556
        k(   15) = (  -0.0758644   0.0560203   0.0000000), wk =   0.0555556
        k(   16) = (  -0.0758644  -0.0840304   0.0000000), wk =   0.0277778
        k(   17) = (   0.0000000   0.0000000   0.0000000), wk =   0.0277778
        k(   18) = (   0.0000000   0.0280101   0.0000000), wk =   0.0555556
        k(   19) = (   0.0000000   0.0560203   0.0000000), wk =   0.0555556
        k(   20) = (   0.0000000  -0.0840304   0.0000000), wk =   0.0277778
        k(   21) = (   0.0252881   0.0000000   0.0000000), wk =   0.0555556
        k(   22) = (   0.0252881   0.0280101   0.0000000), wk =   0.1111111
        k(   23) = (   0.0252881   0.0560203   0.0000000), wk =   0.1111111
        k(   24) = (   0.0252881  -0.0840304   0.0000000), wk =   0.0555556
        k(   25) = (   0.0505763   0.0000000   0.0000000), wk =   0.0555556
        k(   26) = (   0.0505763   0.0280101   0.0000000), wk =   0.1111111
        k(   27) = (   0.0505763   0.0560203   0.0000000), wk =   0.1111111
        k(   28) = (   0.0505763  -0.0840304   0.0000000), wk =   0.0555556
        k(   29) = (  -0.0758644   0.0000000   0.0000000), wk =   0.0277778
        k(   30) = (  -0.0758644   0.0280101   0.0000000), wk =   0.0555556
        k(   31) = (  -0.0758644   0.0560203   0.0000000), wk =   0.0555556
        k(   32) = (  -0.0758644  -0.0840304   0.0000000), wk =   0.0277778

     Dense  grid:  1096637 G-vectors     FFT dimensions: (  80,  72, 375)

     Smooth grid:   277353 G-vectors     FFT dimensions: (  54,  45, 240)

     Largest allocated arrays     est. size (Mb)     dimensions
        Kohn-Sham Wavefunctions         9.81 Mb     (    2180,  295)
        NL pseudopotentials            18.43 Mb     (    2180,  554)
        Each V/rho on FFT grid          4.22 Mb     (  138240,   2)
        Each G-vector array             0.52 Mb     (   68538)
        G-vector shells                 0.25 Mb     (   33046)
     Largest temporary arrays     est. size (Mb)     dimensions
        Auxiliary wavefunctions        39.25 Mb     (    2180, 1180)
        Each subspace H/S matrix       21.25 Mb     (    1180, 1180)
        Each <psi_i|beta_j> matrix      2.49 Mb     (     554,  295)
        Arrays for rho mixing          21.09 Mb     (  138240,   10)

     Check: negative/imaginary core charge=   -0.000049    0.000000

     The initial density is read from file :
     ./calc.save/charge-density.dat


     negative rho (up, down):  1.350E-02 1.350E-02


     ************************************************************************
     *
     * You are using vdW-DF for exchange-correlation in this calculation.
     * Please cite the following three references that made this development
     * possible:
     *
     *   M. Dion, H. Rydberg, E. Schroder, D. C. Langreth, and
     *   B. I. Lundqvist, Phys. Rev. Lett. 92, 246401 (2004).
     *
     *   T. Thonhauser, V. R. Cooper, S. Li, A. Puzder, P. Hyldgaard, and
     *   D. C. Langreth, Phys. Rev. B 76, 125112 (2007).
     *
     *   G. Roman-Perez and J. M. Soler, Phys. Rev. Lett. 103, 096102 (2009).
     *
     *
     * If you are using vdW-DF2, please also cite:
     *
     *   K. Lee, E. D. Murray, L. Kong, B. I. Lundqvist, and
     *   D. C. Langreth, Phys. Rev. B 82, 081101(R) (2010).
     *
     *
     * If you are calculating the stress with vdW-DF, please also cite:
     *
     *   R. Sabatini, E. Kucukbenli, B. Kolb, T. Thonhauser, and
     *   S. de Gironcoli, J. Phys.: Condens. Matter 24, 424209 (2012).
     *
     ************************************************************************

     Carrying out vdW-DF run using the following parameters:

     Nqs =      20    Nr_points =    1024   r_max =   100.000
     q_mesh =
               0.00001000     0.04494208     0.09755937     0.15916263
               0.23128650     0.31572767     0.41458969     0.53033537
               0.66584808     0.82450364     1.01025438     1.22772762
               1.48234092     1.78043706     2.12944203     2.53805004
               3.01644009     3.57652955     4.23227104     5.00000000

     Gradients computed in reciprocal space

     ************************************************************************


     Starting wfc are  293 randomized atomic wfcs +    2 random wfc

     total cpu time spent up to now is       57.5 secs

     Self-consistent Calculation

     iteration #  1     ecut=    40.42 Ry     beta=0.10
     Davidson diagonalization with overlap
     c_bands:  1 eigenvalues not converged
     c_bands:  1 eigenvalues not converged
     ethr =  1.00E-05,  avg # of iterations = 17.0

     negative rho (up, down):  1.350E-02 1.350E-02
 
     Magnetic moment per site:
     atom:    1    charge:    3.1244    magn:   -0.0002    constr:    0.0000
     atom:    2    charge:    2.0634    magn:    0.0002    constr:    0.0000
     atom:    3    charge:    3.1200    magn:    0.0000    constr:    0.0000
     atom:    4    charge:    2.0623    magn:   -0.0000    constr:    0.0000
     atom:    5    charge:    3.1144    magn:    0.0001    constr:    0.0000
     atom:    6    charge:    2.0539    magn:   -0.0002    constr:    0.0000
     atom:    7    charge:    3.1171    magn:    0.0000    constr:    0.0000
     atom:    8    charge:    2.0575    magn:   -0.0001    constr:    0.0000
     atom:    9    charge:    3.1244    magn:   -0.0002    constr:    0.0000
     atom:   10    charge:    2.0636    magn:    0.0002    constr:    0.0000
     atom:   11    charge:    3.1198    magn:    0.0000    constr:    0.0000
     atom:   12    charge:    2.0623    magn:   -0.0000    constr:    0.0000
     atom:   13    charge:    3.1144    magn:    0.0001    constr:    0.0000
     atom:   14    charge:    2.0703    magn:   -0.0000    constr:    0.0000
     atom:   15    charge:    3.1166    magn:    0.0000    constr:    0.0000
     atom:   16    charge:    2.0575    magn:   -0.0001    constr:    0.0000
     atom:   17    charge:    2.0364    magn:    0.0011    constr:    0.0000
     atom:   18    charge:    3.1239    magn:    0.0000    constr:    0.0000
     atom:   19    charge:    2.0608    magn:    0.0000    constr:    0.0000
     atom:   20    charge:    2.0606    magn:    0.0000    constr:    0.0000
     atom:   21    charge:    2.0606    magn:    0.0000    constr:    0.0000
     atom:   22    charge:    3.1199    magn:    0.0000    constr:    0.0000
     atom:   23    charge:    2.0663    magn:   -0.0001    constr:    0.0000
     atom:   24    charge:    2.0503    magn:   -0.0002    constr:    0.0000
     atom:   25    charge:    2.0623    magn:   -0.0000    constr:    0.0000
     atom:   26    charge:    3.1144    magn:    0.0001    constr:    0.0000
     atom:   27    charge:    2.0576    magn:   -0.0003    constr:    0.0000
     atom:   28    charge:    2.0593    magn:   -0.0002    constr:    0.0000
     atom:   29    charge:    2.0596    magn:   -0.0002    constr:    0.0000
     atom:   30    charge:    3.1193    magn:    0.0000    constr:    0.0000
     atom:   31    charge:    2.0567    magn:   -0.0000    constr:    0.0000
     atom:   32    charge:    2.0559    magn:   -0.0001    constr:    0.0000
     atom:   33    charge:    2.0363    magn:    0.0011    constr:    0.0000
     atom:   34    charge:    3.1239    magn:    0.0000    constr:    0.0000
     atom:   35    charge:    2.0608    magn:    0.0000    constr:    0.0000
     atom:   36    charge:    2.0606    magn:    0.0000    constr:    0.0000
     atom:   37    charge:    2.0606    magn:    0.0000    constr:    0.0000
     atom:   38    charge:    3.1199    magn:    0.0000    constr:    0.0000
     atom:   39    charge:    2.0563    magn:   -0.0001    constr:    0.0000
     atom:   40    charge:    2.0507    magn:   -0.0002    constr:    0.0000
     atom:   41    charge:    2.0623    magn:   -0.0000    constr:    0.0000
     atom:   42    charge:    3.1217    magn:    0.0001    constr:    0.0000
     atom:   43    charge:    2.0574    magn:   -0.0003    constr:    0.0000
     atom:   44    charge:    2.0593    magn:   -0.0002    constr:    0.0000
     atom:   45    charge:    2.0596    magn:   -0.0002    constr:    0.0000
     atom:   46    charge:    3.1193    magn:    0.0000    constr:    0.0000
     atom:   47    charge:    2.0567    magn:   -0.0001    constr:    0.0000
     atom:   48    charge:    2.0559    magn:   -0.0001    constr:    0.0000
     atom:   49    charge:    2.0639    magn:    0.0000    constr:    0.0000
     atom:   50    charge:    0.4146    magn:   -0.0000    constr:    0.0000

     total cpu time spent up to now is      804.7 secs

     total energy              =   -3005.55782518 Ry
     Harris-Foulkes estimate   =   -3005.57163455 Ry
     estimated scf accuracy    <       0.09174900 Ry

     total magnetization       =     0.00 Bohr mag/cell
     absolute magnetization    =     0.01 Bohr mag/cell

     iteration #  2     ecut=    40.42 Ry     beta=0.10
     Davidson diagonalization with overlap
     ethr =  2.35E-05,  avg # of iterations =  2.0

     negative rho (up, down):  1.350E-02 1.350E-02
 
     Magnetic moment per site:
     atom:    1    charge:    3.1244    magn:   -0.0002    constr:    0.0000
     atom:    2    charge:    2.0632    magn:    0.0002    constr:    0.0000
     atom:    3    charge:    3.1200    magn:    0.0000    constr:    0.0000
     atom:    4    charge:    2.0623    magn:   -0.0000    constr:    0.0000
     atom:    5    charge:    3.1144    magn:    0.0001    constr:    0.0000
     atom:    6    charge:    2.0541    magn:   -0.0002    constr:    0.0000
     atom:    7    charge:    3.1178    magn:    0.0000    constr:    0.0000
     atom:    8    charge:    2.0580    magn:   -0.0001    constr:    0.0000
     atom:    9    charge:    3.1244    magn:   -0.0002    constr:    0.0000
     atom:   10    charge:    2.0633    magn:    0.0002    constr:    0.0000
     atom:   11    charge:    3.1198    magn:    0.0000    constr:    0.0000
     atom:   12    charge:    2.0623    magn:   -0.0000    constr:    0.0000
     atom:   13    charge:    3.1144    magn:    0.0001    constr:    0.0000
     atom:   14    charge:    2.0704    magn:   -0.0000    constr:    0.0000
     atom:   15    charge:    3.1166    magn:    0.0000    constr:    0.0000
     atom:   16    charge:    2.0580    magn:   -0.0001    constr:    0.0000
     atom:   17    charge:    2.0353    magn:    0.0010    constr:    0.0000
     atom:   18    charge:    3.1239    magn:    0.0000    constr:    0.0000
     atom:   19    charge:    2.0607    magn:    0.0000    constr:    0.0000
     atom:   20    charge:    2.0605    magn:    0.0000    constr:    0.0000
     atom:   21    charge:    2.0605    magn:    0.0000    constr:    0.0000
     atom:   22    charge:    3.1199    magn:    0.0000    constr:    0.0000
     atom:   23    charge:    2.0663    magn:   -0.0001    constr:    0.0000
     atom:   24    charge:    2.0504    magn:   -0.0002    constr:    0.0000
     atom:   25    charge:    2.0623    magn:   -0.0000    constr:    0.0000
     atom:   26    charge:    3.1143    magn:    0.0001    constr:    0.0000
     atom:   27    charge:    2.0580    magn:   -0.0002    constr:    0.0000
     atom:   28    charge:    2.0595    magn:   -0.0002    constr:    0.0000
     atom:   29    charge:    2.0598    magn:   -0.0002    constr:    0.0000
     atom:   30    charge:    3.1193    magn:    0.0000    constr:    0.0000
     atom:   31    charge:    2.0567    magn:   -0.0000    constr:    0.0000
     atom:   32    charge:    2.0560    magn:   -0.0001    constr:    0.0000
     atom:   33    charge:    2.0352    magn:    0.0010    constr:    0.0000
     atom:   34    charge:    3.1239    magn:    0.0000    constr:    0.0000
     atom:   35    charge:    2.0608    magn:    0.0000    constr:    0.0000
     atom:   36    charge:    2.0605    magn:    0.0000    constr:    0.0000
     atom:   37    charge:    2.0605    magn:    0.0000    constr:    0.0000
     atom:   38    charge:    3.1199    magn:    0.0000    constr:    0.0000
     atom:   39    charge:    2.0564    magn:   -0.0001    constr:    0.0000
     atom:   40    charge:    2.0509    magn:   -0.0002    constr:    0.0000
     atom:   41    charge:    2.0623    magn:   -0.0000    constr:    0.0000
     atom:   42    charge:    3.1217    magn:    0.0001    constr:    0.0000
     atom:   43    charge:    2.0577    magn:   -0.0002    constr:    0.0000
     atom:   44    charge:    2.0595    magn:   -0.0002    constr:    0.0000
     atom:   45    charge:    2.0598    magn:   -0.0002    constr:    0.0000
     atom:   46    charge:    3.1193    magn:    0.0000    constr:    0.0000
     atom:   47    charge:    2.0570    magn:   -0.0001    constr:    0.0000
     atom:   48    charge:    2.0560    magn:   -0.0001    constr:    0.0000
     atom:   49    charge:    2.0658    magn:    0.0000    constr:    0.0000
     atom:   50    charge:    0.4029    magn:   -0.0000    constr:    0.0000

     total cpu time spent up to now is      971.0 secs

     total energy              =   -3005.53304609 Ry
     Harris-Foulkes estimate   =   -3005.55850758 Ry
     estimated scf accuracy    <       0.06323626 Ry

     total magnetization       =     0.00 Bohr mag/cell
     absolute magnetization    =     0.01 Bohr mag/cell

     iteration #  3     ecut=    40.42 Ry     beta=0.10
     Davidson diagonalization with overlap
     ethr =  1.62E-05,  avg # of iterations =  3.9

     negative rho (up, down):  1.350E-02 1.350E-02
 
     Magnetic moment per site:
     atom:    1    charge:    3.1244    magn:   -0.0002    constr:    0.0000
     atom:    2    charge:    2.0634    magn:    0.0002    constr:    0.0000
     atom:    3    charge:    3.1200    magn:    0.0000    constr:    0.0000
     atom:    4    charge:    2.0623    magn:   -0.0000    constr:    0.0000
     atom:    5    charge:    3.1144    magn:    0.0001    constr:    0.0000
     atom:    6    charge:    2.0538    magn:   -0.0001    constr:    0.0000
     atom:    7    charge:    3.1179    magn:    0.0000    constr:    0.0000
     atom:    8    charge:    2.0577    magn:   -0.0001    constr:    0.0000
     atom:    9    charge:    3.1244    magn:   -0.0002    constr:    0.0000
     atom:   10    charge:    2.0635    magn:    0.0002    constr:    0.0000
     atom:   11    charge:    3.1198    magn:    0.0000    constr:    0.0000
     atom:   12    charge:    2.0623    magn:   -0.0000    constr:    0.0000
     atom:   13    charge:    3.1144    magn:    0.0001    constr:    0.0000
     atom:   14    charge:    2.0703    magn:   -0.0000    constr:    0.0000
     atom:   15    charge:    3.1166    magn:    0.0000    constr:    0.0000
     atom:   16    charge:    2.0577    magn:   -0.0001    constr:    0.0000
     atom:   17    charge:    2.0362    magn:    0.0009    constr:    0.0000
     atom:   18    charge:    3.1240    magn:    0.0000    constr:    0.0000
     atom:   19    charge:    2.0607    magn:    0.0000    constr:    0.0000
     atom:   20    charge:    2.0606    magn:    0.0000    constr:    0.0000
     atom:   21    charge:    2.0606    magn:    0.0000    constr:    0.0000
     atom:   22    charge:    3.1199    magn:    0.0000    constr:    0.0000
     atom:   23    charge:    2.0663    magn:   -0.0001    constr:    0.0000
     atom:   24    charge:    2.0503    magn:   -0.0001    constr:    0.0000
     atom:   25    charge:    2.0623    magn:   -0.0000    constr:    0.0000
     atom:   26    charge:    3.1143    magn:    0.0001    constr:    0.0000
     atom:   27    charge:    2.0575    magn:   -0.0002    constr:    0.0000
     atom:   28    charge:    2.0592    magn:   -0.0002    constr:    0.0000
     atom:   29    charge:    2.0596    magn:   -0.0002    constr:    0.0000
     atom:   30    charge:    3.1193    magn:    0.0000    constr:    0.0000
     atom:   31    charge:    2.0568    magn:   -0.0000    constr:    0.0000
     atom:   32    charge:    2.0561    magn:   -0.0001    constr:    0.0000
     atom:   33    charge:    2.0362    magn:    0.0010    constr:    0.0000
     atom:   34    charge:    3.1239    magn:    0.0000    constr:    0.0000
     atom:   35    charge:    2.0608    magn:    0.0000    constr:    0.0000
     atom:   36    charge:    2.0606    magn:    0.0000    constr:    0.0000
     atom:   37    charge:    2.0606    magn:    0.0000    constr:    0.0000
     atom:   38    charge:    3.1199    magn:    0.0000    constr:    0.0000
     atom:   39    charge:    2.0563    magn:   -0.0001    constr:    0.0000
     atom:   40    charge:    2.0508    magn:   -0.0002    constr:    0.0000
     atom:   41    charge:    2.0623    magn:   -0.0000    constr:    0.0000
     atom:   42    charge:    3.1217    magn:    0.0001    constr:    0.0000
     atom:   43    charge:    2.0573    magn:   -0.0002    constr:    0.0000
     atom:   44    charge:    2.0592    magn:   -0.0002    constr:    0.0000
     atom:   45    charge:    2.0596    magn:   -0.0002    constr:    0.0000
     atom:   46    charge:    3.1193    magn:    0.0000    constr:    0.0000
     atom:   47    charge:    2.0570    magn:   -0.0001    constr:    0.0000
     atom:   48    charge:    2.0561    magn:   -0.0001    constr:    0.0000
     atom:   49    charge:    2.0667    magn:    0.0000    constr:    0.0000
     atom:   50    charge:    0.3962    magn:   -0.0000    constr:    0.0000

     total cpu time spent up to now is     1168.6 secs

     total energy              =   -3005.52796348 Ry
     Harris-Foulkes estimate   =   -3005.53903243 Ry
     estimated scf accuracy    <       0.07824293 Ry

     total magnetization       =    -0.00 Bohr mag/cell
     absolute magnetization    =     0.01 Bohr mag/cell

     iteration #  4     ecut=    40.42 Ry     beta=0.10
     Davidson diagonalization with overlap
     ethr =  1.62E-05,  avg # of iterations =  2.4

     negative rho (up, down):  1.350E-02 1.350E-02
 
     Magnetic moment per site:
     atom:    1    charge:    3.1244    magn:   -0.0002    constr:    0.0000
     atom:    2    charge:    2.0634    magn:    0.0002    constr:    0.0000
     atom:    3    charge:    3.1200    magn:    0.0000    constr:    0.0000
     atom:    4    charge:    2.0623    magn:   -0.0000    constr:    0.0000
     atom:    5    charge:    3.1144    magn:    0.0000    constr:    0.0000
     atom:    6    charge:    2.0538    magn:   -0.0001    constr:    0.0000
     atom:    7    charge:    3.1166    magn:    0.0000    constr:    0.0000
     atom:    8    charge:    2.0561    magn:   -0.0001    constr:    0.0000
     atom:    9    charge:    3.1244    magn:   -0.0002    constr:    0.0000
     atom:   10    charge:    2.0635    magn:    0.0002    constr:    0.0000
     atom:   11    charge:    3.1198    magn:    0.0000    constr:    0.0000
     atom:   12    charge:    2.0623    magn:   -0.0000    constr:    0.0000
     atom:   13    charge:    3.1144    magn:    0.0000    constr:    0.0000
     atom:   14    charge:    2.0703    magn:   -0.0000    constr:    0.0000
     atom:   15    charge:    3.1165    magn:    0.0000    constr:    0.0000
     atom:   16    charge:    2.0561    magn:   -0.0001    constr:    0.0000
     atom:   17    charge:    2.0366    magn:    0.0009    constr:    0.0000
     atom:   18    charge:    3.1239    magn:    0.0000    constr:    0.0000
     atom:   19    charge:    2.0607    magn:    0.0000    constr:    0.0000
     atom:   20    charge:    2.0606    magn:    0.0000    constr:    0.0000
     atom:   21    charge:    2.0606    magn:    0.0000    constr:    0.0000
     atom:   22    charge:    3.1199    magn:    0.0000    constr:    0.0000
     atom:   23    charge:    2.0663    magn:   -0.0001    constr:    0.0000
     atom:   24    charge:    2.0502    magn:   -0.0001    constr:    0.0000
     atom:   25    charge:    2.0622    magn:   -0.0000    constr:    0.0000
     atom:   26    charge:    3.1143    magn:    0.0001    constr:    0.0000
     atom:   27    charge:    2.0576    magn:   -0.0002    constr:    0.0000
     atom:   28    charge:    2.0592    magn:   -0.0002    constr:    0.0000
     atom:   29    charge:    2.0596    magn:   -0.0002    constr:    0.0000
     atom:   30    charge:    3.1193    magn:    0.0000    constr:    0.0000
     atom:   31    charge:    2.0574    magn:   -0.0000    constr:    0.0000
     atom:   32    charge:    2.0579    magn:   -0.0000    constr:    0.0000
     atom:   33    charge:    2.0365    magn:    0.0009    constr:    0.0000
     atom:   34    charge:    3.1239    magn:    0.0000    constr:    0.0000
     atom:   35    charge:    2.0608    magn:    0.0000    constr:    0.0000
     atom:   36    charge:    2.0606    magn:    0.0000    constr:    0.0000
     atom:   37    charge:    2.0606    magn:    0.0000    constr:    0.0000
     atom:   38    charge:    3.1199    magn:    0.0000    constr:    0.0000
     atom:   39    charge:    2.0562    magn:   -0.0001    constr:    0.0000
     atom:   40    charge:    2.0507    magn:   -0.0001    constr:    0.0000
     atom:   41    charge:    2.0622    magn:   -0.0000    constr:    0.0000
     atom:   42    charge:    3.1217    magn:    0.0001    constr:    0.0000
     atom:   43    charge:    2.0573    magn:   -0.0002    constr:    0.0000
     atom:   44    charge:    2.0592    magn:   -0.0002    constr:    0.0000
     atom:   45    charge:    2.0596    magn:   -0.0002    constr:    0.0000
     atom:   46    charge:    3.1193    magn:    0.0000    constr:    0.0000
     atom:   47    charge:    2.0571    magn:   -0.0001    constr:    0.0000
     atom:   48    charge:    2.0579    magn:   -0.0000    constr:    0.0000
     atom:   49    charge:    2.0658    magn:    0.0000    constr:    0.0000
     atom:   50    charge:    0.3929    magn:   -0.0000    constr:    0.0000

     total cpu time spent up to now is     1340.9 secs

     total energy              =   -3005.52831595 Ry
     Harris-Foulkes estimate   =   -3005.53071573 Ry
     estimated scf accuracy    <       0.00552110 Ry

     total magnetization       =     0.00 Bohr mag/cell
     absolute magnetization    =     0.01 Bohr mag/cell

     iteration #  5     ecut=    40.42 Ry     beta=0.10
     Davidson diagonalization with overlap
     ethr =  1.41E-06,  avg # of iterations =  7.0

     negative rho (up, down):  1.350E-02 1.350E-02
 
     Magnetic moment per site:
     atom:    1    charge:    3.1244    magn:   -0.0002    constr:    0.0000
     atom:    2    charge:    2.0634    magn:    0.0002    constr:    0.0000
     atom:    3    charge:    3.1200    magn:    0.0000    constr:    0.0000
     atom:    4    charge:    2.0623    magn:   -0.0000    constr:    0.0000
     atom:    5    charge:    3.1144    magn:    0.0000    constr:    0.0000
     atom:    6    charge:    2.0538    magn:   -0.0001    constr:    0.0000
     atom:    7    charge:    3.1164    magn:    0.0000    constr:    0.0000
     atom:    8    charge:    2.0560    magn:   -0.0000    constr:    0.0000
     atom:    9    charge:    3.1244    magn:   -0.0002    constr:    0.0000
     atom:   10    charge:    2.0635    magn:    0.0002    constr:    0.0000
     atom:   11    charge:    3.1198    magn:    0.0000    constr:    0.0000
     atom:   12    charge:    2.0623    magn:   -0.0000    constr:    0.0000
     atom:   13    charge:    3.1144    magn:    0.0000    constr:    0.0000
     atom:   14    charge:    2.0703    magn:   -0.0000    constr:    0.0000
     atom:   15    charge:    3.1165    magn:    0.0000    constr:    0.0000
     atom:   16    charge:    2.0560    magn:   -0.0000    constr:    0.0000
     atom:   17    charge:    2.0363    magn:    0.0008    constr:    0.0000
     atom:   18    charge:    3.1239    magn:    0.0000    constr:    0.0000
     atom:   19    charge:    2.0608    magn:    0.0000    constr:    0.0000
     atom:   20    charge:    2.0606    magn:    0.0000    constr:    0.0000
     atom:   21    charge:    2.0606    magn:    0.0000    constr:    0.0000
     atom:   22    charge:    3.1199    magn:    0.0000    constr:    0.0000
     atom:   23    charge:    2.0663    magn:   -0.0001    constr:    0.0000
     atom:   24    charge:    2.0503    magn:   -0.0001    constr:    0.0000
     atom:   25    charge:    2.0623    magn:   -0.0000    constr:    0.0000
     atom:   26    charge:    3.1143    magn:    0.0001    constr:    0.0000
     atom:   27    charge:    2.0576    magn:   -0.0002    constr:    0.0000
     atom:   28    charge:    2.0592    magn:   -0.0002    constr:    0.0000
     atom:   29    charge:    2.0596    magn:   -0.0002    constr:    0.0000
     atom:   30    charge:    3.1193    magn:    0.0000    constr:    0.0000
     atom:   31    charge:    2.0574    magn:   -0.0000    constr:    0.0000
     atom:   32    charge:    2.0579    magn:   -0.0000    constr:    0.0000
     atom:   33    charge:    2.0363    magn:    0.0009    constr:    0.0000
     atom:   34    charge:    3.1239    magn:    0.0000    constr:    0.0000
     atom:   35    charge:    2.0608    magn:    0.0000    constr:    0.0000
     atom:   36    charge:    2.0606    magn:    0.0000    constr:    0.0000
     atom:   37    charge:    2.0606    magn:    0.0000    constr:    0.0000
     atom:   38    charge:    3.1199    magn:    0.0000    constr:    0.0000
     atom:   39    charge:    2.0563    magn:   -0.0001    constr:    0.0000
     atom:   40    charge:    2.0508    magn:   -0.0001    constr:    0.0000
     atom:   41    charge:    2.0623    magn:   -0.0000    constr:    0.0000
     atom:   42    charge:    3.1217    magn:    0.0001    constr:    0.0000
     atom:   43    charge:    2.0573    magn:   -0.0002    constr:    0.0000
     atom:   44    charge:    2.0592    magn:   -0.0002    constr:    0.0000
     atom:   45    charge:    2.0596    magn:   -0.0002    constr:    0.0000
     atom:   46    charge:    3.1193    magn:    0.0000    constr:    0.0000
     atom:   47    charge:    2.0570    magn:   -0.0001    constr:    0.0000
     atom:   48    charge:    2.0579    magn:   -0.0000    constr:    0.0000
     atom:   49    charge:    2.0651    magn:    0.0000    constr:    0.0000
     atom:   50    charge:    0.3928    magn:   -0.0000    constr:    0.0000

     total cpu time spent up to now is     1591.4 secs

     total energy              =   -3005.52875757 Ry
     Harris-Foulkes estimate   =   -3005.52901055 Ry
     estimated scf accuracy    <       0.00345768 Ry

     total magnetization       =     0.00 Bohr mag/cell
     absolute magnetization    =     0.01 Bohr mag/cell

     iteration #  6     ecut=    40.42 Ry     beta=0.10
     Davidson diagonalization with overlap
     ethr =  8.84E-07,  avg # of iterations =  1.0

     negative rho (up, down):  1.350E-02 1.350E-02
 
     Magnetic moment per site:
     atom:    1    charge:    3.1244    magn:   -0.0001    constr:    0.0000
     atom:    2    charge:    2.0634    magn:    0.0002    constr:    0.0000
     atom:    3    charge:    3.1200    magn:    0.0000    constr:    0.0000
     atom:    4    charge:    2.0623    magn:   -0.0000    constr:    0.0000
     atom:    5    charge:    3.1144    magn:    0.0000    constr:    0.0000
     atom:    6    charge:    2.0540    magn:   -0.0001    constr:    0.0000
     atom:    7    charge:    3.1162    magn:    0.0000    constr:    0.0000
     atom:    8    charge:    2.0561    magn:   -0.0000    constr:    0.0000
     atom:    9    charge:    3.1244    magn:   -0.0001    constr:    0.0000
     atom:   10    charge:    2.0635    magn:    0.0002    constr:    0.0000
     atom:   11    charge:    3.1198    magn:    0.0000    constr:    0.0000
     atom:   12    charge:    2.0623    magn:   -0.0000    constr:    0.0000
     atom:   13    charge:    3.1144    magn:    0.0000    constr:    0.0000
     atom:   14    charge:    2.0704    magn:   -0.0000    constr:    0.0000
     atom:   15    charge:    3.1165    magn:    0.0000    constr:    0.0000
     atom:   16    charge:    2.0561    magn:   -0.0000    constr:    0.0000
     atom:   17    charge:    2.0361    magn:    0.0008    constr:    0.0000
     atom:   18    charge:    3.1239    magn:   -0.0000    constr:    0.0000
     atom:   19    charge:    2.0608    magn:    0.0000    constr:    0.0000
     atom:   20    charge:    2.0606    magn:    0.0000    constr:    0.0000
     atom:   21    charge:    2.0606    magn:    0.0000    constr:    0.0000
     atom:   22    charge:    3.1199    magn:    0.0000    constr:    0.0000
     atom:   23    charge:    2.0663    magn:   -0.0000    constr:    0.0000
     atom:   24    charge:    2.0503    magn:   -0.0001    constr:    0.0000
     atom:   25    charge:    2.0623    magn:   -0.0000    constr:    0.0000
     atom:   26    charge:    3.1143    magn:    0.0001    constr:    0.0000
     atom:   27    charge:    2.0577    magn:   -0.0002    constr:    0.0000
     atom:   28    charge:    2.0593    magn:   -0.0002    constr:    0.0000
     atom:   29    charge:    2.0596    magn:   -0.0001    constr:    0.0000
     atom:   30    charge:    3.1193    magn:    0.0000    constr:    0.0000
     atom:   31    charge:    2.0573    magn:   -0.0000    constr:    0.0000
     atom:   32    charge:    2.0575    magn:   -0.0000    constr:    0.0000
     atom:   33    charge:    2.0361    magn:    0.0008    constr:    0.0000
     atom:   34    charge:    3.1239    magn:   -0.0000    constr:    0.0000
     atom:   35    charge:    2.0608    magn:    0.0000    constr:    0.0000
     atom:   36    charge:    2.0606    magn:    0.0000    constr:    0.0000
     atom:   37    charge:    2.0606    magn:    0.0000    constr:    0.0000
     atom:   38    charge:    3.1199    magn:    0.0000    constr:    0.0000
     atom:   39    charge:    2.0563    magn:   -0.0001    constr:    0.0000
     atom:   40    charge:    2.0508    magn:   -0.0001    constr:    0.0000
     atom:   41    charge:    2.0623    magn:   -0.0000    constr:    0.0000
     atom:   42    charge:    3.1217    magn:    0.0001    constr:    0.0000
     atom:   43    charge:    2.0574    magn:   -0.0002    constr:    0.0000
     atom:   44    charge:    2.0593    magn:   -0.0002    constr:    0.0000
     atom:   45    charge:    2.0596    magn:   -0.0001    constr:    0.0000
     atom:   46    charge:    3.1193    magn:    0.0000    constr:    0.0000
     atom:   47    charge:    2.0568    magn:   -0.0000    constr:    0.0000
     atom:   48    charge:    2.0575    magn:   -0.0000    constr:    0.0000
     atom:   49    charge:    2.0636    magn:    0.0000    constr:    0.0000
     atom:   50    charge:    0.3934    magn:   -0.0000    constr:    0.0000

     total cpu time spent up to now is     1744.6 secs

     total energy              =   -3005.52869438 Ry
     Harris-Foulkes estimate   =   -3005.52883620 Ry
     estimated scf accuracy    <       0.00053186 Ry

     total magnetization       =     0.00 Bohr mag/cell
     absolute magnetization    =     0.01 Bohr mag/cell

     iteration #  7     ecut=    40.42 Ry     beta=0.10
     Davidson diagonalization with overlap
     ethr =  1.36E-07,  avg # of iterations =  2.0

     negative rho (up, down):  1.350E-02 1.350E-02
 
     Magnetic moment per site:
     atom:    1    charge:    3.1244    magn:   -0.0001    constr:    0.0000
     atom:    2    charge:    2.0634    magn:    0.0001    constr:    0.0000
     atom:    3    charge:    3.1200    magn:   -0.0000    constr:    0.0000
     atom:    4    charge:    2.0623    magn:   -0.0000    constr:    0.0000
     atom:    5    charge:    3.1144    magn:    0.0000    constr:    0.0000
     atom:    6    charge:    2.0540    magn:   -0.0001    constr:    0.0000
     atom:    7    charge:    3.1162    magn:    0.0000    constr:    0.0000
     atom:    8    charge:    2.0567    magn:   -0.0000    constr:    0.0000
     atom:    9    charge:    3.1244    magn:   -0.0001    constr:    0.0000
     atom:   10    charge:    2.0636    magn:    0.0001    constr:    0.0000
     atom:   11    charge:    3.1198    magn:    0.0000    constr:    0.0000
     atom:   12    charge:    2.0623    magn:   -0.0000    constr:    0.0000
     atom:   13    charge:    3.1144    magn:    0.0000    constr:    0.0000
     atom:   14    charge:    2.0703    magn:   -0.0000    constr:    0.0000
     atom:   15    charge:    3.1165    magn:    0.0000    constr:    0.0000
     atom:   16    charge:    2.0567    magn:   -0.0000    constr:    0.0000
     atom:   17    charge:    2.0363    magn:    0.0007    constr:    0.0000
     atom:   18    charge:    3.1239    magn:   -0.0000    constr:    0.0000
     atom:   19    charge:    2.0608    magn:    0.0000    constr:    0.0000
     atom:   20    charge:    2.0606    magn:    0.0000    constr:    0.0000
     atom:   21    charge:    2.0606    magn:    0.0000    constr:    0.0000
     atom:   22    charge:    3.1199    magn:    0.0000    constr:    0.0000
     atom:   23    charge:    2.0663    magn:   -0.0000    constr:    0.0000
     atom:   24    charge:    2.0503    magn:   -0.0001    constr:    0.0000
     atom:   25    charge:    2.0623    magn:   -0.0000    constr:    0.0000
     atom:   26    charge:    3.1144    magn:    0.0000    constr:    0.0000
     atom:   27    charge:    2.0577    magn:   -0.0001    constr:    0.0000
     atom:   28    charge:    2.0593    magn:   -0.0001    constr:    0.0000
     atom:   29    charge:    2.0596    magn:   -0.0001    constr:    0.0000
     atom:   30    charge:    3.1193    magn:    0.0000    constr:    0.0000
     atom:   31    charge:    2.0570    magn:   -0.0000    constr:    0.0000
     atom:   32    charge:    2.0567    magn:   -0.0000    constr:    0.0000
     atom:   33    charge:    2.0363    magn:    0.0007    constr:    0.0000
     atom:   34    charge:    3.1239    magn:   -0.0000    constr:    0.0000
     atom:   35    charge:    2.0608    magn:    0.0000    constr:    0.0000
     atom:   36    charge:    2.0606    magn:    0.0000    constr:    0.0000
     atom:   37    charge:    2.0606    magn:    0.0000    constr:    0.0000
     atom:   38    charge:    3.1199    magn:    0.0000    constr:    0.0000
     atom:   39    charge:    2.0562    magn:   -0.0001    constr:    0.0000
     atom:   40    charge:    2.0507    magn:   -0.0001    constr:    0.0000
     atom:   41    charge:    2.0623    magn:   -0.0000    constr:    0.0000
     atom:   42    charge:    3.1217    magn:    0.0000    constr:    0.0000
     atom:   43    charge:    2.0574    magn:   -0.0001    constr:    0.0000
     atom:   44    charge:    2.0593    magn:   -0.0001    constr:    0.0000
     atom:   45    charge:    2.0596    magn:   -0.0001    constr:    0.0000
     atom:   46    charge:    3.1193    magn:    0.0000    constr:    0.0000
     atom:   47    charge:    2.0567    magn:   -0.0000    constr:    0.0000
     atom:   48    charge:    2.0567    magn:   -0.0000    constr:    0.0000
     atom:   49    charge:    2.0623    magn:    0.0000    constr:    0.0000
     atom:   50    charge:    0.3947    magn:   -0.0000    constr:    0.0000

     total cpu time spent up to now is     1912.9 secs

     total energy              =   -3005.52862475 Ry
     Harris-Foulkes estimate   =   -3005.52873814 Ry
     estimated scf accuracy    <       0.00060027 Ry

     total magnetization       =     0.00 Bohr mag/cell
     absolute magnetization    =     0.01 Bohr mag/cell

     iteration #  8     ecut=    40.42 Ry     beta=0.10
     Davidson diagonalization with overlap
     ethr =  1.36E-07,  avg # of iterations =  2.0

     negative rho (up, down):  1.350E-02 1.350E-02
 
     Magnetic moment per site:
     atom:    1    charge:    3.1244    magn:   -0.0001    constr:    0.0000
     atom:    2    charge:    2.0634    magn:    0.0001    constr:    0.0000
     atom:    3    charge:    3.1200    magn:   -0.0000    constr:    0.0000
     atom:    4    charge:    2.0623    magn:   -0.0000    constr:    0.0000
     atom:    5    charge:    3.1144    magn:    0.0000    constr:    0.0000
     atom:    6    charge:    2.0539    magn:   -0.0001    constr:    0.0000
     atom:    7    charge:    3.1163    magn:    0.0000    constr:    0.0000
     atom:    8    charge:    2.0567    magn:   -0.0000    constr:    0.0000
     atom:    9    charge:    3.1244    magn:   -0.0001    constr:    0.0000
     atom:   10    charge:    2.0635    magn:    0.0001    constr:    0.0000
     atom:   11    charge:    3.1198    magn:    0.0000    constr:    0.0000
     atom:   12    charge:    2.0623    magn:   -0.0000    constr:    0.0000
     atom:   13    charge:    3.1144    magn:    0.0000    constr:    0.0000
     atom:   14    charge:    2.0703    magn:   -0.0000    constr:    0.0000
     atom:   15    charge:    3.1165    magn:    0.0000    constr:    0.0000
     atom:   16    charge:    2.0567    magn:   -0.0000    constr:    0.0000
     atom:   17    charge:    2.0362    magn:    0.0007    constr:    0.0000
     atom:   18    charge:    3.1239    magn:   -0.0000    constr:    0.0000
     atom:   19    charge:    2.0608    magn:    0.0000    constr:    0.0000
     atom:   20    charge:    2.0606    magn:    0.0000    constr:    0.0000
     atom:   21    charge:    2.0606    magn:    0.0000    constr:    0.0000
     atom:   22    charge:    3.1199    magn:    0.0000    constr:    0.0000
     atom:   23    charge:    2.0663    magn:   -0.0000    constr:    0.0000
     atom:   24    charge:    2.0503    magn:   -0.0001    constr:    0.0000
     atom:   25    charge:    2.0623    magn:   -0.0000    constr:    0.0000
     atom:   26    charge:    3.1144    magn:    0.0000    constr:    0.0000
     atom:   27    charge:    2.0576    magn:   -0.0001    constr:    0.0000
     atom:   28    charge:    2.0593    magn:   -0.0001    constr:    0.0000
     atom:   29    charge:    2.0596    magn:   -0.0001    constr:    0.0000
     atom:   30    charge:    3.1193    magn:    0.0000    constr:    0.0000
     atom:   31    charge:    2.0569    magn:   -0.0000    constr:    0.0000
     atom:   32    charge:    2.0567    magn:   -0.0000    constr:    0.0000
     atom:   33    charge:    2.0361    magn:    0.0007    constr:    0.0000
     atom:   34    charge:    3.1239    magn:   -0.0000    constr:    0.0000
     atom:   35    charge:    2.0608    magn:    0.0000    constr:    0.0000
     atom:   36    charge:    2.0606    magn:    0.0000    constr:    0.0000
     atom:   37    charge:    2.0606    magn:    0.0000    constr:    0.0000
     atom:   38    charge:    3.1199    magn:    0.0000    constr:    0.0000
     atom:   39    charge:    2.0563    magn:   -0.0001    constr:    0.0000
     atom:   40    charge:    2.0508    magn:   -0.0001    constr:    0.0000
     atom:   41    charge:    2.0623    magn:   -0.0000    constr:    0.0000
     atom:   42    charge:    3.1217    magn:    0.0000    constr:    0.0000
     atom:   43    charge:    2.0574    magn:   -0.0001    constr:    0.0000
     atom:   44    charge:    2.0593    magn:   -0.0001    constr:    0.0000
     atom:   45    charge:    2.0596    magn:   -0.0001    constr:    0.0000
     atom:   46    charge:    3.1193    magn:    0.0000    constr:    0.0000
     atom:   47    charge:    2.0567    magn:   -0.0000    constr:    0.0000
     atom:   48    charge:    2.0567    magn:   -0.0000    constr:    0.0000
     atom:   49    charge:    2.0624    magn:    0.0000    constr:    0.0000
     atom:   50    charge:    0.3950    magn:   -0.0000    constr:    0.0000

     total cpu time spent up to now is     2081.6 secs

     total energy              =   -3005.52865208 Ry
     Harris-Foulkes estimate   =   -3005.52869277 Ry
     estimated scf accuracy    <       0.00046395 Ry

     total magnetization       =     0.00 Bohr mag/cell
     absolute magnetization    =     0.01 Bohr mag/cell

     iteration #  9     ecut=    40.42 Ry     beta=0.10
     Davidson diagonalization with overlap
     ethr =  1.19E-07,  avg # of iterations =  1.0

     negative rho (up, down):  1.350E-02 1.350E-02
 
     Magnetic moment per site:
     atom:    1    charge:    3.1244    magn:   -0.0001    constr:    0.0000
     atom:    2    charge:    2.0634    magn:    0.0001    constr:    0.0000
     atom:    3    charge:    3.1200    magn:   -0.0000    constr:    0.0000
     atom:    4    charge:    2.0623    magn:   -0.0000    constr:    0.0000
     atom:    5    charge:    3.1144    magn:    0.0000    constr:    0.0000
     atom:    6    charge:    2.0539    magn:   -0.0001    constr:    0.0000
     atom:    7    charge:    3.1163    magn:    0.0000    constr:    0.0000
     atom:    8    charge:    2.0568    magn:   -0.0000    constr:    0.0000
     atom:    9    charge:    3.1244    magn:   -0.0001    constr:    0.0000
     atom:   10    charge:    2.0635    magn:    0.0001    constr:    0.0000
     atom:   11    charge:    3.1198    magn:    0.0000    constr:    0.0000
     atom:   12    charge:    2.0623    magn:   -0.0000    constr:    0.0000
     atom:   13    charge:    3.1144    magn:    0.0000    constr:    0.0000
     atom:   14    charge:    2.0703    magn:   -0.0000    constr:    0.0000
     atom:   15    charge:    3.1165    magn:    0.0000    constr:    0.0000
     atom:   16    charge:    2.0568    magn:   -0.0000    constr:    0.0000
     atom:   17    charge:    2.0362    magn:    0.0006    constr:    0.0000
     atom:   18    charge:    3.1239    magn:   -0.0000    constr:    0.0000
     atom:   19    charge:    2.0608    magn:    0.0000    constr:    0.0000
     atom:   20    charge:    2.0606    magn:    0.0000    constr:    0.0000
     atom:   21    charge:    2.0606    magn:    0.0000    constr:    0.0000
     atom:   22    charge:    3.1199    magn:    0.0000    constr:    0.0000
     atom:   23    charge:    2.0663    magn:   -0.0000    constr:    0.0000
     atom:   24    charge:    2.0503    magn:   -0.0001    constr:    0.0000
     atom:   25    charge:    2.0623    magn:   -0.0000    constr:    0.0000
     atom:   26    charge:    3.1143    magn:    0.0000    constr:    0.0000
     atom:   27    charge:    2.0576    magn:   -0.0001    constr:    0.0000
     atom:   28    charge:    2.0593    magn:   -0.0001    constr:    0.0000
     atom:   29    charge:    2.0596    magn:   -0.0001    constr:    0.0000
     atom:   30    charge:    3.1193    magn:    0.0000    constr:    0.0000
     atom:   31    charge:    2.0568    magn:   -0.0000    constr:    0.0000
     atom:   32    charge:    2.0567    magn:   -0.0000    constr:    0.0000
     atom:   33    charge:    2.0362    magn:    0.0006    constr:    0.0000
     atom:   34    charge:    3.1239    magn:   -0.0000    constr:    0.0000
     atom:   35    charge:    2.0608    magn:    0.0000    constr:    0.0000
     atom:   36    charge:    2.0606    magn:    0.0000    constr:    0.0000
     atom:   37    charge:    2.0606    magn:    0.0000    constr:    0.0000
     atom:   38    charge:    3.1199    magn:    0.0000    constr:    0.0000
     atom:   39    charge:    2.0563    magn:   -0.0001    constr:    0.0000
     atom:   40    charge:    2.0508    magn:   -0.0001    constr:    0.0000
     atom:   41    charge:    2.0623    magn:   -0.0000    constr:    0.0000
     atom:   42    charge:    3.1217    magn:    0.0000    constr:    0.0000
     atom:   43    charge:    2.0574    magn:   -0.0001    constr:    0.0000
     atom:   44    charge:    2.0593    magn:   -0.0001    constr:    0.0000
     atom:   45    charge:    2.0596    magn:   -0.0001    constr:    0.0000
     atom:   46    charge:    3.1193    magn:    0.0000    constr:    0.0000
     atom:   47    charge:    2.0567    magn:   -0.0000    constr:    0.0000
     atom:   48    charge:    2.0567    magn:   -0.0000    constr:    0.0000
     atom:   49    charge:    2.0625    magn:    0.0000    constr:    0.0000
     atom:   50    charge:    0.3953    magn:   -0.0000    constr:    0.0000

     total cpu time spent up to now is     2235.1 secs

     total energy              =   -3005.52867339 Ry
     Harris-Foulkes estimate   =   -3005.52867996 Ry
     estimated scf accuracy    <       0.00008990 Ry

     total magnetization       =     0.00 Bohr mag/cell
     absolute magnetization    =     0.01 Bohr mag/cell

     iteration # 10     ecut=    40.42 Ry     beta=0.10
     Davidson diagonalization with overlap
     ethr =  2.30E-08,  avg # of iterations =  1.0

     negative rho (up, down):  1.350E-02 1.350E-02
 
     Magnetic moment per site:
     atom:    1    charge:    3.1244    magn:   -0.0001    constr:    0.0000
     atom:    2    charge:    2.0634    magn:    0.0001    constr:    0.0000
     atom:    3    charge:    3.1200    magn:   -0.0000    constr:    0.0000
     atom:    4    charge:    2.0623    magn:   -0.0000    constr:    0.0000
     atom:    5    charge:    3.1144    magn:    0.0000    constr:    0.0000
     atom:    6    charge:    2.0539    magn:   -0.0001    constr:    0.0000
     atom:    7    charge:    3.1164    magn:    0.0000    constr:    0.0000
     atom:    8    charge:    2.0568    magn:   -0.0000    constr:    0.0000
     atom:    9    charge:    3.1244    magn:   -0.0001    constr:    0.0000
     atom:   10    charge:    2.0635    magn:    0.0001    constr:    0.0000
     atom:   11    charge:    3.1198    magn:    0.0000    constr:    0.0000
     atom:   12    charge:    2.0623    magn:   -0.0000    constr:    0.0000
     atom:   13    charge:    3.1144    magn:    0.0000    constr:    0.0000
     atom:   14    charge:    2.0703    magn:   -0.0000    constr:    0.0000
     atom:   15    charge:    3.1165    magn:    0.0000    constr:    0.0000
     atom:   16    charge:    2.0568    magn:   -0.0000    constr:    0.0000
     atom:   17    charge:    2.0362    magn:    0.0006    constr:    0.0000
     atom:   18    charge:    3.1239    magn:   -0.0000    constr:    0.0000
     atom:   19    charge:    2.0608    magn:    0.0000    constr:    0.0000
     atom:   20    charge:    2.0606    magn:    0.0000    constr:    0.0000
     atom:   21    charge:    2.0606    magn:    0.0000    constr:    0.0000
     atom:   22    charge:    3.1199    magn:    0.0000    constr:    0.0000
     atom:   23    charge:    2.0663    magn:   -0.0000    constr:    0.0000
     atom:   24    charge:    2.0503    magn:   -0.0001    constr:    0.0000
     atom:   25    charge:    2.0623    magn:   -0.0000    constr:    0.0000
     atom:   26    charge:    3.1143    magn:    0.0000    constr:    0.0000
     atom:   27    charge:    2.0576    magn:   -0.0001    constr:    0.0000
     atom:   28    charge:    2.0593    magn:   -0.0001    constr:    0.0000
     atom:   29    charge:    2.0596    magn:   -0.0001    constr:    0.0000
     atom:   30    charge:    3.1193    magn:    0.0000    constr:    0.0000
     atom:   31    charge:    2.0569    magn:   -0.0000    constr:    0.0000
     atom:   32    charge:    2.0568    magn:   -0.0000    constr:    0.0000
     atom:   33    charge:    2.0362    magn:    0.0006    constr:    0.0000
     atom:   34    charge:    3.1239    magn:   -0.0000    constr:    0.0000
     atom:   35    charge:    2.0608    magn:    0.0000    constr:    0.0000
     atom:   36    charge:    2.0606    magn:    0.0000    constr:    0.0000
     atom:   37    charge:    2.0606    magn:    0.0000    constr:    0.0000
     atom:   38    charge:    3.1199    magn:    0.0000    constr:    0.0000
     atom:   39    charge:    2.0563    magn:   -0.0000    constr:    0.0000
     atom:   40    charge:    2.0508    magn:   -0.0001    constr:    0.0000
     atom:   41    charge:    2.0623    magn:   -0.0000    constr:    0.0000
     atom:   42    charge:    3.1217    magn:    0.0000    constr:    0.0000
     atom:   43    charge:    2.0574    magn:   -0.0001    constr:    0.0000
     atom:   44    charge:    2.0593    magn:   -0.0001    constr:    0.0000
     atom:   45    charge:    2.0596    magn:   -0.0001    constr:    0.0000
     atom:   46    charge:    3.1193    magn:    0.0000    constr:    0.0000
     atom:   47    charge:    2.0568    magn:   -0.0000    constr:    0.0000
     atom:   48    charge:    2.0568    magn:   -0.0000    constr:    0.0000
     atom:   49    charge:    2.0626    magn:    0.0000    constr:    0.0000
     atom:   50    charge:    0.3954    magn:   -0.0000    constr:    0.0000

     total cpu time spent up to now is     2389.0 secs

     total energy              =   -3005.52867656 Ry
     Harris-Foulkes estimate   =   -3005.52867688 Ry
     estimated scf accuracy    <       0.00000427 Ry

     total magnetization       =     0.00 Bohr mag/cell
     absolute magnetization    =     0.01 Bohr mag/cell

     iteration # 11     ecut=    40.42 Ry     beta=0.10
     Davidson diagonalization with overlap
     ethr =  1.09E-09,  avg # of iterations =  2.0

     negative rho (up, down):  1.350E-02 1.350E-02
 
     Magnetic moment per site:
     atom:    1    charge:    3.1244    magn:   -0.0001    constr:    0.0000
     atom:    2    charge:    2.0634    magn:    0.0001    constr:    0.0000
     atom:    3    charge:    3.1200    magn:   -0.0000    constr:    0.0000
     atom:    4    charge:    2.0623    magn:   -0.0000    constr:    0.0000
     atom:    5    charge:    3.1144    magn:    0.0000    constr:    0.0000
     atom:    6    charge:    2.0539    magn:   -0.0001    constr:    0.0000
     atom:    7    charge:    3.1164    magn:    0.0000    constr:    0.0000
     atom:    8    charge:    2.0568    magn:   -0.0000    constr:    0.0000
     atom:    9    charge:    3.1244    magn:   -0.0001    constr:    0.0000
     atom:   10    charge:    2.0635    magn:    0.0001    constr:    0.0000
     atom:   11    charge:    3.1198    magn:    0.0000    constr:    0.0000
     atom:   12    charge:    2.0623    magn:   -0.0000    constr:    0.0000
     atom:   13    charge:    3.1144    magn:    0.0000    constr:    0.0000
     atom:   14    charge:    2.0703    magn:   -0.0000    constr:    0.0000
     atom:   15    charge:    3.1165    magn:    0.0000    constr:    0.0000
     atom:   16    charge:    2.0568    magn:   -0.0000    constr:    0.0000
     atom:   17    charge:    2.0362    magn:    0.0005    constr:    0.0000
     atom:   18    charge:    3.1239    magn:   -0.0000    constr:    0.0000
     atom:   19    charge:    2.0608    magn:    0.0000    constr:    0.0000
     atom:   20    charge:    2.0606    magn:    0.0000    constr:    0.0000
     atom:   21    charge:    2.0606    magn:    0.0000    constr:    0.0000
     atom:   22    charge:    3.1199    magn:    0.0000    constr:    0.0000
     atom:   23    charge:    2.0663    magn:   -0.0000    constr:    0.0000
     atom:   24    charge:    2.0503    magn:   -0.0000    constr:    0.0000
     atom:   25    charge:    2.0623    magn:   -0.0000    constr:    0.0000
     atom:   26    charge:    3.1143    magn:    0.0000    constr:    0.0000
     atom:   27    charge:    2.0576    magn:   -0.0001    constr:    0.0000
     atom:   28    charge:    2.0593    magn:   -0.0001    constr:    0.0000
     atom:   29    charge:    2.0596    magn:   -0.0001    constr:    0.0000
     atom:   30    charge:    3.1193    magn:    0.0000    constr:    0.0000
     atom:   31    charge:    2.0570    magn:   -0.0000    constr:    0.0000
     atom:   32    charge:    2.0568    magn:   -0.0000    constr:    0.0000
     atom:   33    charge:    2.0362    magn:    0.0005    constr:    0.0000
     atom:   34    charge:    3.1239    magn:   -0.0000    constr:    0.0000
     atom:   35    charge:    2.0608    magn:    0.0000    constr:    0.0000
     atom:   36    charge:    2.0606    magn:    0.0000    constr:    0.0000
     atom:   37    charge:    2.0606    magn:    0.0000    constr:    0.0000
     atom:   38    charge:    3.1199    magn:    0.0000    constr:    0.0000
     atom:   39    charge:    2.0563    magn:   -0.0000    constr:    0.0000
     atom:   40    charge:    2.0508    magn:   -0.0001    constr:    0.0000
     atom:   41    charge:    2.0623    magn:   -0.0000    constr:    0.0000
     atom:   42    charge:    3.1217    magn:    0.0000    constr:    0.0000
     atom:   43    charge:    2.0574    magn:   -0.0001    constr:    0.0000
     atom:   44    charge:    2.0593    magn:   -0.0001    constr:    0.0000
     atom:   45    charge:    2.0596    magn:   -0.0001    constr:    0.0000
     atom:   46    charge:    3.1193    magn:    0.0000    constr:    0.0000
     atom:   47    charge:    2.0568    magn:   -0.0000    constr:    0.0000
     atom:   48    charge:    2.0568    magn:   -0.0000    constr:    0.0000
     atom:   49    charge:    2.0626    magn:   -0.0000    constr:    0.0000
     atom:   50    charge:    0.3956    magn:   -0.0000    constr:    0.0000

     total cpu time spent up to now is     2558.2 secs

     total energy              =   -3005.52867678 Ry
     Harris-Foulkes estimate   =   -3005.52867680 Ry
     estimated scf accuracy    <       0.00000168 Ry

     total magnetization       =     0.00 Bohr mag/cell
     absolute magnetization    =     0.01 Bohr mag/cell

     iteration # 12     ecut=    40.42 Ry     beta=0.10
     Davidson diagonalization with overlap
     ethr =  4.29E-10,  avg # of iterations =  2.0

     negative rho (up, down):  1.350E-02 1.350E-02
 
     Magnetic moment per site:
     atom:    1    charge:    3.1244    magn:   -0.0001    constr:    0.0000
     atom:    2    charge:    2.0634    magn:    0.0001    constr:    0.0000
     atom:    3    charge:    3.1200    magn:   -0.0000    constr:    0.0000
     atom:    4    charge:    2.0623    magn:   -0.0000    constr:    0.0000
     atom:    5    charge:    3.1144    magn:    0.0000    constr:    0.0000
     atom:    6    charge:    2.0539    magn:   -0.0001    constr:    0.0000
     atom:    7    charge:    3.1164    magn:    0.0000    constr:    0.0000
     atom:    8    charge:    2.0568    magn:   -0.0000    constr:    0.0000
     atom:    9    charge:    3.1244    magn:   -0.0001    constr:    0.0000
     atom:   10    charge:    2.0635    magn:    0.0001    constr:    0.0000
     atom:   11    charge:    3.1198    magn:   -0.0000    constr:    0.0000
     atom:   12    charge:    2.0623    magn:   -0.0000    constr:    0.0000
     atom:   13    charge:    3.1144    magn:    0.0000    constr:    0.0000
     atom:   14    charge:    2.0703    magn:   -0.0000    constr:    0.0000
     atom:   15    charge:    3.1165    magn:    0.0000    constr:    0.0000
     atom:   16    charge:    2.0568    magn:   -0.0000    constr:    0.0000
     atom:   17    charge:    2.0362    magn:    0.0005    constr:    0.0000
     atom:   18    charge:    3.1239    magn:   -0.0000    constr:    0.0000
     atom:   19    charge:    2.0608    magn:    0.0000    constr:    0.0000
     atom:   20    charge:    2.0606    magn:    0.0000    constr:    0.0000
     atom:   21    charge:    2.0606    magn:    0.0000    constr:    0.0000
     atom:   22    charge:    3.1199    magn:    0.0000    constr:    0.0000
     atom:   23    charge:    2.0663    magn:   -0.0000    constr:    0.0000
     atom:   24    charge:    2.0503    magn:   -0.0000    constr:    0.0000
     atom:   25    charge:    2.0623    magn:   -0.0000    constr:    0.0000
     atom:   26    charge:    3.1143    magn:    0.0000    constr:    0.0000
     atom:   27    charge:    2.0576    magn:   -0.0001    constr:    0.0000
     atom:   28    charge:    2.0593    magn:   -0.0001    constr:    0.0000
     atom:   29    charge:    2.0596    magn:   -0.0001    constr:    0.0000
     atom:   30    charge:    3.1193    magn:    0.0000    constr:    0.0000
     atom:   31    charge:    2.0570    magn:   -0.0000    constr:    0.0000
     atom:   32    charge:    2.0568    magn:   -0.0000    constr:    0.0000
     atom:   33    charge:    2.0362    magn:    0.0005    constr:    0.0000
     atom:   34    charge:    3.1239    magn:   -0.0000    constr:    0.0000
     atom:   35    charge:    2.0608    magn:    0.0000    constr:    0.0000
     atom:   36    charge:    2.0606    magn:    0.0000    constr:    0.0000
     atom:   37    charge:    2.0606    magn:    0.0000    constr:    0.0000
     atom:   38    charge:    3.1199    magn:    0.0000    constr:    0.0000
     atom:   39    charge:    2.0563    magn:   -0.0000    constr:    0.0000
     atom:   40    charge:    2.0507    magn:   -0.0001    constr:    0.0000
     atom:   41    charge:    2.0623    magn:   -0.0000    constr:    0.0000
     atom:   42    charge:    3.1217    magn:    0.0000    constr:    0.0000
     atom:   43    charge:    2.0574    magn:   -0.0001    constr:    0.0000
     atom:   44    charge:    2.0593    magn:   -0.0001    constr:    0.0000
     atom:   45    charge:    2.0596    magn:   -0.0001    constr:    0.0000
     atom:   46    charge:    3.1193    magn:    0.0000    constr:    0.0000
     atom:   47    charge:    2.0568    magn:   -0.0000    constr:    0.0000
     atom:   48    charge:    2.0568    magn:   -0.0000    constr:    0.0000
     atom:   49    charge:    2.0626    magn:   -0.0000    constr:    0.0000
     atom:   50    charge:    0.3956    magn:   -0.0000    constr:    0.0000

     total cpu time spent up to now is     2727.0 secs

     total energy              =   -3005.52867704 Ry
     Harris-Foulkes estimate   =   -3005.52867694 Ry
     estimated scf accuracy    <       0.00000091 Ry

     total magnetization       =     0.00 Bohr mag/cell
     absolute magnetization    =     0.01 Bohr mag/cell

     iteration # 13     ecut=    40.42 Ry     beta=0.10
     Davidson diagonalization with overlap
     ethr =  2.33E-10,  avg # of iterations =  1.0

     negative rho (up, down):  1.350E-02 1.350E-02
 
     Magnetic moment per site:
     atom:    1    charge:    3.1244    magn:   -0.0001    constr:    0.0000
     atom:    2    charge:    2.0634    magn:    0.0001    constr:    0.0000
     atom:    3    charge:    3.1200    magn:   -0.0000    constr:    0.0000
     atom:    4    charge:    2.0623    magn:    0.0000    constr:    0.0000
     atom:    5    charge:    3.1144    magn:    0.0000    constr:    0.0000
     atom:    6    charge:    2.0539    magn:   -0.0000    constr:    0.0000
     atom:    7    charge:    3.1164    magn:    0.0000    constr:    0.0000
     atom:    8    charge:    2.0567    magn:   -0.0000    constr:    0.0000
     atom:    9    charge:    3.1244    magn:   -0.0001    constr:    0.0000
     atom:   10    charge:    2.0635    magn:    0.0001    constr:    0.0000
     atom:   11    charge:    3.1198    magn:   -0.0000    constr:    0.0000
     atom:   12    charge:    2.0623    magn:    0.0000    constr:    0.0000
     atom:   13    charge:    3.1144    magn:    0.0000    constr:    0.0000
     atom:   14    charge:    2.0703    magn:   -0.0000    constr:    0.0000
     atom:   15    charge:    3.1165    magn:    0.0000    constr:    0.0000
     atom:   16    charge:    2.0567    magn:   -0.0000    constr:    0.0000
     atom:   17    charge:    2.0362    magn:    0.0004    constr:    0.0000
     atom:   18    charge:    3.1239    magn:   -0.0000    constr:    0.0000
     atom:   19    charge:    2.0608    magn:    0.0000    constr:    0.0000
     atom:   20    charge:    2.0606    magn:    0.0000    constr:    0.0000
     atom:   21    charge:    2.0606    magn:    0.0000    constr:    0.0000
     atom:   22    charge:    3.1199    magn:    0.0000    constr:    0.0000
     atom:   23    charge:    2.0663    magn:   -0.0000    constr:    0.0000
     atom:   24    charge:    2.0503    magn:   -0.0000    constr:    0.0000
     atom:   25    charge:    2.0623    magn:    0.0000    constr:    0.0000
     atom:   26    charge:    3.1143    magn:    0.0000    constr:    0.0000
     atom:   27    charge:    2.0577    magn:   -0.0001    constr:    0.0000
     atom:   28    charge:    2.0593    magn:   -0.0000    constr:    0.0000
     atom:   29    charge:    2.0596    magn:   -0.0000    constr:    0.0000
     atom:   30    charge:    3.1193    magn:    0.0000    constr:    0.0000
     atom:   31    charge:    2.0569    magn:   -0.0000    constr:    0.0000
     atom:   32    charge:    2.0568    magn:   -0.0000    constr:    0.0000
     atom:   33    charge:    2.0362    magn:    0.0004    constr:    0.0000
     atom:   34    charge:    3.1239    magn:   -0.0000    constr:    0.0000
     atom:   35    charge:    2.0608    magn:    0.0000    constr:    0.0000
     atom:   36    charge:    2.0606    magn:    0.0000    constr:    0.0000
     atom:   37    charge:    2.0606    magn:    0.0000    constr:    0.0000
     atom:   38    charge:    3.1199    magn:    0.0000    constr:    0.0000
     atom:   39    charge:    2.0563    magn:   -0.0000    constr:    0.0000
     atom:   40    charge:    2.0508    magn:   -0.0000    constr:    0.0000
     atom:   41    charge:    2.0623    magn:    0.0000    constr:    0.0000
     atom:   42    charge:    3.1217    magn:    0.0000    constr:    0.0000
     atom:   43    charge:    2.0574    magn:   -0.0000    constr:    0.0000
     atom:   44    charge:    2.0593    magn:   -0.0000    constr:    0.0000
     atom:   45    charge:    2.0596    magn:   -0.0000    constr:    0.0000
     atom:   46    charge:    3.1193    magn:    0.0000    constr:    0.0000
     atom:   47    charge:    2.0568    magn:   -0.0000    constr:    0.0000
     atom:   48    charge:    2.0568    magn:   -0.0000    constr:    0.0000
     atom:   49    charge:    2.0626    magn:   -0.0000    constr:    0.0000
     atom:   50    charge:    0.3956    magn:   -0.0000    constr:    0.0000

     total cpu time spent up to now is     2881.0 secs

     End of self-consistent calculation

 ------ SPIN UP ------------


          k = 0.0000 0.0000 0.0000 ( 34665 PWs)   bands (ev):

   -58.5081 -58.4731 -57.5971 -57.5674 -57.5614 -57.4847 -57.4705 -57.4309
   -57.3247 -57.2981 -57.2659 -57.2302 -57.1208 -57.0856 -57.0167 -56.9788
   -34.9530 -34.7771 -34.7483 -34.7144 -34.6194 -34.5626 -34.0963 -34.0520
   -34.0128 -33.8709 -33.8501 -33.7912 -33.7703 -33.7644 -33.7551 -33.7462
   -33.7399 -33.7167 -33.7031 -33.6968 -33.6935 -33.6726 -33.6619 -33.6578
   -33.6521 -33.6359 -33.6321 -33.5874 -33.5517 -33.5503 -33.5395 -33.4996
   -33.4984 -33.4915 -33.4618 -33.4478 -33.4361 -33.4350 -33.4070 -33.3869
   -33.3392 -33.2940 -33.2495 -33.2493 -33.2298 -33.2056 -33.1478 -33.0978
   -18.6718 -18.2488 -18.1040 -18.0050 -17.9137 -17.7445 -17.7317 -17.6237
   -17.5938 -17.5699 -17.4592 -17.2622 -17.2210 -17.2141 -17.1492 -17.0521
   -17.0309 -17.0096 -16.9413 -16.9001 -16.8496 -16.8135 -16.8101 -16.7861
   -16.6927 -16.6301 -16.6164 -16.5108 -16.4977 -16.3501 -16.2865 -15.8006
   -15.7403  -6.2499  -5.8822  -5.6949  -5.4984  -5.4165  -5.3143  -5.1894
    -5.1645  -5.0802  -4.9485  -4.8573  -4.8019  -4.7891  -4.7169  -4.6424
    -4.6144  -4.5456  -4.5319  -4.4193  -4.4162  -4.3608  -4.3438  -4.2501
    -4.2254  -4.1716  -4.1094  -4.0951  -4.0897  -4.0781  -3.9954  -3.9801
    -3.9117  -3.8378  -3.8329  -3.7444  -3.7338  -3.7298  -3.6216  -3.6180
    -3.5844  -3.4727  -3.4505  -3.4109  -3.2995  -3.1270  -3.0922  -3.0384
    -2.9714  -2.9598  -2.8977  -2.8842  -2.8779  -2.7696  -2.7535  -2.7377
    -2.6466  -2.5935  -2.5064  -2.4340  -2.4297  -2.3977  -2.3377  -2.2884
    -2.2342  -2.1869  -2.1721  -2.1238  -2.0835  -2.0761  -1.9296  -1.8444
    -1.8301  -1.8249  -1.8151  -1.7113  -1.6245  -1.5690  -1.5564  -1.5210
    -1.5180  -1.5039  -1.4538  -1.3683  -1.3476  -1.3271  -1.3108  -1.2868
    -1.2784  -1.1595  -1.0696  -0.9888  -0.9543  -0.8830  -0.8724  -0.8200
    -0.7532  -0.7186  -0.6682  -0.3739   0.8234   0.9207   1.2137   1.4964
     1.6040   1.6906   1.7195   1.8121   1.8441   1.9255   1.9549   2.0216
     2.0294   2.1735   2.1875   2.2592   2.2844   2.3137   2.3943   2.4174
     2.4655   2.4730   2.5093   2.5228   2.6056   2.6278   2.6727   2.7190
     2.7483   2.7522   2.8014   2.8306   2.8577   2.8761   2.8873   2.9960
     3.0121   3.0353   3.2093   3.2122   3.2404   3.2537   3.3495   3.4082
     3.4507   3.5011   3.5957   3.7458   3.8798   3.8927   4.0808   4.2719
     4.4036   4.4879   4.5048   4.6478   4.7986   4.9255   4.9630   5.0655
     5.1890   5.2019   5.2321   5.2474   5.3295   5.3381   5.3441   5.4592
     5.4803   5.5281   5.6921   5.7121   5.7845   5.8809   5.9055   5.9108
     6.0004   6.0441   6.2263   6.2901   6.3442   6.4036   6.5835   6.6109
     7.1017   7.7730   7.9911   8.0123   8.1675   8.2212   8.5759   8.7199
     8.7994   9.0632   9.1772   9.2230   9.3496   9.4579   9.6014

          k = 0.0000 0.0280 0.0000 ( 34717 PWs)   bands (ev):

   -58.5058 -58.4754 -57.5947 -57.5665 -57.5637 -57.4857 -57.4684 -57.4330
   -57.3230 -57.2998 -57.2636 -57.2325 -57.1185 -57.0880 -57.0142 -56.9813
   -34.9276 -34.7751 -34.7502 -34.7082 -34.6260 -34.5896 -34.0708 -34.0267
   -33.9896 -33.8649 -33.8439 -33.7875 -33.7730 -33.7643 -33.7435 -33.7427
   -33.7392 -33.7305 -33.7011 -33.6973 -33.6898 -33.6847 -33.6794 -33.6673
   -33.6488 -33.6394 -33.6286 -33.5839 -33.5715 -33.5241 -33.5147 -33.5045
   -33.4945 -33.4890 -33.4601 -33.4487 -33.4396 -33.4379 -33.4261 -33.4132
   -33.3333 -33.2905 -33.2557 -33.2479 -33.2311 -33.2105 -33.1752 -33.1265
   -18.6135 -18.1898 -18.0964 -17.9594 -17.8835 -17.8084 -17.7010 -17.5807
   -17.5754 -17.5385 -17.4899 -17.3141 -17.1920 -17.1918 -17.1404 -17.0827
   -16.9897 -16.9844 -16.9710 -16.9314 -16.8696 -16.8260 -16.8152 -16.7848
   -16.7061 -16.6554 -16.6202 -16.5388 -16.5304 -16.3696 -16.3266 -15.8148
   -15.7658  -6.1645  -5.8809  -5.6107  -5.4186  -5.3452  -5.2443  -5.1386
    -5.1082  -5.0104  -4.9321  -4.8718  -4.8599  -4.7328  -4.7259  -4.6291
    -4.5908  -4.5648  -4.5162  -4.4608  -4.3992  -4.3890  -4.3796  -4.3132
    -4.2688  -4.2128  -4.1911  -4.1755  -4.1666  -4.1223  -4.0428  -4.0014
    -3.9567  -3.9195  -3.8983  -3.7852  -3.6457  -3.6221  -3.5462  -3.5077
    -3.5009  -3.4685  -3.3459  -3.3192  -3.1499  -3.1156  -3.0843  -3.0071
    -2.9451  -2.9408  -2.9209  -2.9020  -2.8618  -2.7526  -2.7175  -2.6715
    -2.6583  -2.6172  -2.4699  -2.4576  -2.4079  -2.3933  -2.3564  -2.3276
    -2.2308  -2.1914  -2.1340  -2.1304  -2.1114  -2.0355  -1.9661  -1.9584
    -1.9139  -1.8271  -1.7717  -1.7650  -1.7119  -1.6762  -1.6355  -1.5870
    -1.5687  -1.5635  -1.5029  -1.4715  -1.4348  -1.3773  -1.3688  -1.2549
    -1.1927  -1.1424  -1.1159  -1.0796  -1.0355  -1.0135  -0.9252  -0.8038
    -0.7733  -0.7485  -0.7327  -0.4155   0.9561   0.9606   1.2152   1.6258
     1.6845   1.6914   1.7237   1.8009   1.8081   1.8849   2.0234   2.0922
     2.0992   2.2001   2.2690   2.2902   2.3165   2.3250   2.3409   2.3606
     2.4520   2.4923   2.5103   2.6167   2.6187   2.6586   2.6764   2.7363
     2.7794   2.7878   2.7925   2.8046   2.8582   2.8781   2.9423   2.9645
     2.9879   3.0502   3.1939   3.2367   3.2705   3.3029   3.3437   3.3548
     3.4281   3.4478   3.5566   3.6949   3.8350   3.9620   4.0390   4.3322
     4.5038   4.5061   4.5151   4.7215   4.8144   4.9664   5.0131   5.0861
     5.1014   5.1981   5.2325   5.2930   5.3222   5.3345   5.4300   5.4412
     5.4898   5.4968   5.6095   5.6739   5.7314   5.8046   5.8240   5.8907
     5.9289   6.0385   6.1959   6.2321   6.2496   6.3799   6.5415   6.6274
     7.2200   7.2725   7.7507   8.0839   8.2070   8.3312   8.5752   8.7265
     8.8448   8.9797   9.1712   9.2473   9.3339   9.3497   9.5085

          k = 0.0000 0.0560 0.0000 ( 34721 PWs)   bands (ev):

   -58.4994 -58.4818 -57.5882 -57.5705 -57.5644 -57.4877 -57.4632 -57.4383
   -57.3186 -57.3043 -57.2577 -57.2385 -57.1121 -57.0944 -57.0073 -56.9883
   -34.8577 -34.7699 -34.7554 -34.6910 -34.6627 -34.6435 -34.0006 -33.9581
   -33.9298 -33.8488 -33.8271 -33.8041 -33.7920 -33.7814 -33.7789 -33.7530
   -33.7429 -33.7398 -33.7061 -33.6985 -33.6798 -33.6773 -33.6751 -33.6662
   -33.6494 -33.6486 -33.6117 -33.6064 -33.5736 -33.5162 -33.4899 -33.4836
   -33.4802 -33.4768 -33.4688 -33.4554 -33.4517 -33.4454 -33.4426 -33.4314
   -33.3171 -33.2874 -33.2723 -33.2491 -33.2440 -33.2347 -33.2230 -33.1969
   -18.4523 -18.0929 -18.0200 -17.9921 -17.8336 -17.8007 -17.6155 -17.5925
   -17.5735 -17.4768 -17.4573 -17.4200 -17.2420 -17.1390 -17.1123 -17.1000
   -17.0390 -16.9941 -16.9279 -16.9143 -16.8948 -16.8596 -16.7812 -16.7646
   -16.7296 -16.7245 -16.6391 -16.6229 -16.5943 -16.4328 -16.4079 -15.8435
   -15.8195  -5.9251  -5.8792  -5.3773  -5.2464  -5.1985  -5.1585  -5.0587
    -5.0484  -5.0151  -4.9571  -4.9360  -4.7506  -4.7119  -4.6795  -4.5977
    -4.5917  -4.5493  -4.5448  -4.5081  -4.4942  -4.4356  -4.4218  -4.4150
    -4.3914  -4.3271  -4.2669  -4.2192  -4.1763  -4.1425  -4.1025  -4.0333
    -4.0192  -3.8614  -3.7531  -3.6108  -3.6039  -3.5827  -3.4835  -3.4650
    -3.3623  -3.2855  -3.2774  -3.2530  -3.2161  -3.1615  -3.1507  -3.0390
    -2.9964  -2.9473  -2.8909  -2.8645  -2.7817  -2.6822  -2.6755  -2.6285
    -2.5102  -2.4991  -2.4936  -2.4277  -2.3713  -2.3539  -2.3342  -2.3231
    -2.2690  -2.2533  -2.2218  -2.1866  -2.1693  -2.1469  -2.0666  -2.0649
    -2.0542  -1.9959  -1.8775  -1.8080  -1.7862  -1.7665  -1.7540  -1.6936
    -1.6544  -1.6541  -1.6275  -1.5814  -1.5596  -1.4751  -1.4299  -1.3729
[...]
    -4.3124  -4.2786  -4.2097  -4.1710  -4.1601  -4.1435  -4.0376  -4.0298
    -3.9684  -3.9321  -3.7031  -3.6887  -3.6368  -3.6031  -3.5549  -3.5434
    -3.4496  -3.4265  -3.3563  -3.3253  -3.3165  -3.3004  -3.2222  -3.1279
    -3.0747  -3.0686  -3.0151  -3.0079  -2.9740  -2.9418  -2.9195  -2.8302
    -2.7990  -2.7414  -2.6405  -2.6100  -2.6064  -2.5365  -2.5076  -2.4842
    -2.4651  -2.4264  -2.3276  -2.3208  -2.2677  -2.2521  -2.2350  -2.1791
    -2.1784  -2.0789  -2.0445  -1.9843  -1.9604  -1.8353  -1.7684  -1.7147
    -1.6864  -1.6717  -1.6524  -1.5773  -1.4075  -1.3914  -1.3264  -1.2964
    -1.2876  -1.2594  -1.1342  -1.1056  -1.0761  -0.9725  -0.9085  -0.8944
    -0.8125  -0.8073  -0.7511  -0.7496   1.3367   1.3380   1.4586   1.4600
     1.7454   1.7455   1.8525   1.8540   2.0289   2.0297   2.1273   2.2235
     2.2794   2.2858   2.3865   2.4427   2.4531   2.4541   2.5202   2.5705
     2.5706   2.5868   2.6439   2.6537   2.7478   2.7533   2.7844   2.7948
     2.8376   2.8725   2.9275   2.9829   3.0010   3.0028   3.0310   3.0574
     3.0668   3.1573   3.1887   3.1965   3.2384   3.2701   3.3385   3.3400
     3.3947   3.3966   3.4874   3.6119   3.6621   3.6753   4.1214   4.1217
     4.2955   4.5645   4.5657   4.6625   4.7295   4.7728   4.8261   4.8297
     4.9307   4.9594   4.9984   5.0034   5.4195   5.4610   5.4735   5.6030
     5.6908   5.7072   5.7549   5.7649   5.7826   5.8374   5.8490   5.9358
     5.9807   6.0750   6.2052   6.2417   6.3348   6.3460   6.5815   6.8771
     7.1303   7.1618   7.5850   7.6162   7.9474   7.9484   8.0421   8.1203
     8.4349   8.4499   8.5570   8.6832   9.1497   9.1737   9.3008

          k =-0.0759 0.0000 0.0000 ( 34758 PWs)   bands (ev):

   -58.5082 -58.4731 -57.5968 -57.5677 -57.5613 -57.4848 -57.4704 -57.4308
   -57.3247 -57.2981 -57.2658 -57.2301 -57.1213 -57.0860 -57.0167 -56.9787
   -34.9546 -34.7771 -34.7484 -34.7112 -34.6198 -34.5628 -34.0972 -34.0604
   -34.0133 -33.8498 -33.8173 -33.7942 -33.7913 -33.7858 -33.7561 -33.7554
   -33.7400 -33.7207 -33.7025 -33.7025 -33.6727 -33.6684 -33.6620 -33.6578
   -33.6530 -33.6301 -33.6184 -33.5810 -33.5538 -33.5515 -33.5396 -33.5247
   -33.4955 -33.4898 -33.4667 -33.4476 -33.4343 -33.4342 -33.4070 -33.3871
   -33.3395 -33.2939 -33.2603 -33.2500 -33.2251 -33.2057 -33.1485 -33.0981
   -18.4434 -18.1209 -18.0990 -18.0524 -17.9577 -17.8565 -17.6728 -17.5911
   -17.5683 -17.5184 -17.4300 -17.3839 -17.2478 -17.2422 -17.2264 -17.2114
   -17.1322 -17.0370 -16.9810 -16.9557 -16.8215 -16.8103 -16.7701 -16.6678
   -16.6581 -16.6302 -16.6197 -16.5887 -16.4959 -16.3461 -16.2866 -15.7947
   -15.7377  -5.8725  -5.6348  -5.5522  -5.4660  -5.3934  -5.1406  -5.1156
    -5.0617  -5.0007  -4.9723  -4.8083  -4.7491  -4.7419  -4.7345  -4.6070
    -4.5951  -4.4605  -4.4241  -4.3714  -4.2837  -4.2765  -4.1990  -4.1984
    -4.1165  -4.1014  -4.0800  -3.9866  -3.9695  -3.9652  -3.9351  -3.8526
    -3.8052  -3.7891  -3.7853  -3.7594  -3.6985  -3.6913  -3.6483  -3.6174
    -3.5158  -3.4895  -3.4704  -3.3151  -3.2273  -3.2164  -3.1793  -3.1330
    -3.0835  -2.9977  -2.9900  -2.9275  -2.9247  -2.8969  -2.8866  -2.8385
    -2.8000  -2.7427  -2.6698  -2.6624  -2.5826  -2.5400  -2.4874  -2.4519
    -2.3502  -2.3274  -2.2549  -2.1573  -2.1373  -1.9858  -1.9663  -1.9375
    -1.9237  -1.9054  -1.8242  -1.8112  -1.6906  -1.6755  -1.6745  -1.6155
    -1.5651  -1.5236  -1.4569  -1.4342  -1.3834  -1.3730  -1.3676  -1.3558
    -1.3395  -1.2750  -1.2522  -1.1132  -1.1030  -1.0674  -0.9147  -0.9074
    -0.8923  -0.8867  -0.8730  -0.6981   0.8666   1.0814   1.2045   1.2108
     1.5860   1.7149   1.7514   1.8025   1.8477   1.8841   1.9807   2.1243
     2.1506   2.2703   2.3357   2.3582   2.4026   2.4305   2.4582   2.4707
     2.5056   2.5100   2.6231   2.6673   2.7174   2.7352   2.7682   2.8166
     2.8312   2.8438   2.9445   2.9644   2.9681   2.9681   2.9872   3.0342
     3.0496   3.0967   3.1472   3.1841   3.2367   3.3022   3.3710   3.4342
     3.5300   3.6145   3.6304   3.6525   3.7590   3.7682   3.8029   4.1585
     4.1769   4.3125   4.3730   4.4999   4.6224   4.8126   4.8870   4.9208
     4.9726   5.2715   5.3505   5.4971   5.5275   5.5943   5.6087   5.6857
     5.7158   5.7639   5.8337   5.8995   5.9994   6.1079   6.1241   6.2880
     6.3010   6.3203   6.3425   6.3446   6.3595   6.4638   6.5055   6.5974
     6.6792   6.8180   7.2351   7.4131   8.0081   8.1266   8.2075   8.5748
     8.7209   8.8981   9.0804   9.2006   9.3207   9.7842   9.9124

          k =-0.0759 0.0280 0.0000 ( 34680 PWs)   bands (ev):

   -58.5058 -58.4755 -57.5944 -57.5667 -57.5637 -57.4857 -57.4683 -57.4329
   -57.3230 -57.2998 -57.2636 -57.2324 -57.1189 -57.0884 -57.0142 -56.9813
   -34.9291 -34.7752 -34.7503 -34.7051 -34.6259 -34.5898 -34.0715 -34.0355
   -33.9900 -33.8437 -33.8126 -33.7938 -33.7877 -33.7675 -33.7581 -33.7572
   -33.7395 -33.7295 -33.7074 -33.7046 -33.6847 -33.6782 -33.6674 -33.6671
   -33.6490 -33.6271 -33.6182 -33.5776 -33.5716 -33.5309 -33.5184 -33.5148
   -33.4962 -33.4876 -33.4644 -33.4483 -33.4402 -33.4362 -33.4267 -33.4126
   -33.3337 -33.2905 -33.2573 -33.2561 -33.2272 -33.2104 -33.1757 -33.1265
   -18.3870 -18.0953 -18.0918 -18.0088 -17.9120 -17.8474 -17.6475 -17.6421
   -17.5282 -17.5203 -17.4041 -17.3631 -17.2783 -17.2027 -17.1949 -17.1798
   -17.1128 -17.0250 -17.0089 -16.9681 -16.8582 -16.8492 -16.7860 -16.6851
   -16.6825 -16.6783 -16.6245 -16.6033 -16.5341 -16.3664 -16.3276 -15.8092
   -15.7640  -5.8709  -5.5384  -5.4082  -5.3933  -5.3227  -5.0391  -5.0196
    -4.9797  -4.8772  -4.8719  -4.8530  -4.8220  -4.7253  -4.6325  -4.5516
    -4.5461  -4.4776  -4.4450  -4.4261  -4.3551  -4.3294  -4.3262  -4.2008
    -4.1615  -4.1506  -4.1329  -4.0324  -4.0030  -3.9671  -3.9231  -3.9138
    -3.8468  -3.8442  -3.7555  -3.7425  -3.6971  -3.6431  -3.6201  -3.5912
    -3.5459  -3.4413  -3.3759  -3.2849  -3.2222  -3.1797  -3.1356  -3.1129
    -3.0676  -3.0435  -3.0133  -2.9730  -2.9229  -2.8946  -2.8743  -2.8061
    -2.7854  -2.7449  -2.7132  -2.6927  -2.5865  -2.5671  -2.4556  -2.4156
    -2.3778  -2.3253  -2.2840  -2.2684  -2.2358  -2.1783  -2.1433  -2.0447
    -2.0093  -1.9241  -1.8845  -1.8337  -1.7972  -1.7838  -1.7208  -1.6857
    -1.6163  -1.5836  -1.5441  -1.5214  -1.4048  -1.3605  -1.3353  -1.2890
    -1.2776  -1.2068  -1.1568  -1.1072  -1.0653  -1.0358  -1.0184  -0.9100
    -0.8876  -0.8459  -0.8376  -0.6564   0.9359   1.1574   1.2520   1.2800
     1.6789   1.7798   1.7844   1.8144   1.9004   1.9436   1.9831   2.1187
     2.1883   2.2989   2.3376   2.3454   2.4483   2.4607   2.4819   2.5166
     2.5305   2.5481   2.6909   2.7223   2.7282   2.7454   2.7666   2.7782
     2.7912   2.8430   2.9303   2.9595   2.9753   2.9761   2.9952   3.0391
     3.0855   3.1041   3.2110   3.2171   3.2306   3.3347   3.3673   3.4246
     3.4951   3.5861   3.6027   3.6275   3.7032   3.7253   3.7788   4.1804
     4.2260   4.3061   4.3702   4.6200   4.6280   4.6432   4.9113   4.9187
     4.9848   5.2915   5.3500   5.3503   5.4066   5.4840   5.6003   5.6199
     5.6582   5.6922   5.7929   5.9540   6.0165   6.0590   6.1468   6.1811
     6.1966   6.2622   6.2631   6.3783   6.4466   6.4524   6.5154   6.5948
     6.8069   6.9483   7.3520   7.4010   7.5397   8.1047   8.2224   8.4974
     9.0233   9.0828   9.2000   9.3344   9.3435   9.3769   9.4813

          k =-0.0759 0.0560 0.0000 ( 34616 PWs)   bands (ev):

   -58.4995 -58.4819 -57.5879 -57.5702 -57.5648 -57.4877 -57.4631 -57.4382
   -57.3185 -57.3042 -57.2576 -57.2384 -57.1125 -57.0948 -57.0073 -56.9882
   -34.8589 -34.7699 -34.7555 -34.6885 -34.6633 -34.6427 -34.0012 -33.9681
   -33.9301 -33.8269 -33.8105 -33.8012 -33.7937 -33.7806 -33.7798 -33.7623
   -33.7455 -33.7356 -33.7193 -33.7063 -33.7062 -33.6781 -33.6671 -33.6642
   -33.6500 -33.6119 -33.6116 -33.6065 -33.5689 -33.5140 -33.5021 -33.4875
   -33.4787 -33.4783 -33.4676 -33.4583 -33.4566 -33.4455 -33.4421 -33.4297
   -33.3175 -33.2875 -33.2727 -33.2501 -33.2494 -33.2334 -33.2229 -33.1967
   -18.2316 -18.0860 -18.0278 -17.9073 -17.8312 -17.7981 -17.7940 -17.5857
   -17.5663 -17.4158 -17.3915 -17.3251 -17.2082 -17.1720 -17.1125 -17.1028
   -17.0704 -17.0549 -17.0349 -17.0210 -16.9438 -16.9148 -16.8358 -16.7923
   -16.7250 -16.7101 -16.6390 -16.6327 -16.6254 -16.4338 -16.4007 -15.8391
   -15.8183  -5.8687  -5.2676  -5.2028  -5.1430  -5.0153  -5.0049  -4.9982
    -4.9180  -4.7683  -4.7079  -4.6345  -4.6164  -4.5951  -4.5762  -4.5360
    -4.5083  -4.4973  -4.4223  -4.3966  -4.3728  -4.3452  -4.3148  -4.2809
    -4.2763  -4.2576  -4.2377  -4.1821  -4.1229  -4.0488  -3.9635  -3.9228
    -3.8352  -3.8089  -3.7939  -3.7641  -3.7295  -3.6778  -3.5567  -3.5041
    -3.4557  -3.4109  -3.3700  -3.3539  -3.3217  -3.2796  -3.2662  -3.1993
    -3.1573  -3.1542  -2.9758  -2.9209  -2.9169  -2.8952  -2.8873  -2.8226
    -2.7915  -2.7732  -2.7415  -2.7039  -2.6445  -2.6208  -2.5879  -2.5461
    -2.4552  -2.4294  -2.3976  -2.3490  -2.3234  -2.3099  -2.2334  -2.1289
    -2.1172  -2.0764  -2.0552  -1.9061  -1.8960  -1.7811  -1.7632  -1.7460
    -1.7319  -1.6657  -1.6178  -1.5251  -1.4803  -1.3963  -1.3199  -1.2617
    -1.2151  -1.2000  -1.1554  -1.0524  -0.9824  -0.9335  -0.9181  -0.9012
    -0.8622  -0.8447  -0.8066  -0.7346   1.1374   1.3062   1.3568   1.4928
     1.6955   1.8523   1.8687   1.8939   1.9199   2.0247   2.1077   2.1392
     2.2120   2.2742   2.3426   2.4004   2.4756   2.4797   2.5275   2.5920
     2.6204   2.6601   2.6737   2.6969   2.7054   2.7459   2.8226   2.8307
     2.8641   2.8871   2.9504   2.9724   3.0231   3.0381   3.0506   3.0746
     3.0980   3.1552   3.1831   3.2037   3.2769   3.2878   3.2972   3.4020
     3.4424   3.4873   3.5914   3.6059   3.6500   3.6829   3.7811   4.2414
     4.2620   4.3119   4.3918   4.4135   4.7022   4.7453   4.8065   4.8705
     4.9865   5.0419   5.0878   5.1583   5.3935   5.4598   5.4905   5.6119
     5.6467   5.7806   5.8175   5.8791   5.9151   5.9303   5.9597   6.1029
     6.1079   6.1593   6.2978   6.3191   6.3955   6.4238   6.6399   6.8493
     6.9261   7.1241   7.3018   7.5741   7.7790   7.9091   8.1986   8.2931
     8.4841   8.5040   8.6214   8.7532   9.0507   9.2565   9.4267

          k =-0.0759-0.0840 0.0000 ( 34556 PWs)   bands (ev):

   -58.4915 -58.4898 -57.5791 -57.5791 -57.5637 -57.4888 -57.4593 -57.4420
   -57.3144 -57.3084 -57.2521 -57.2439 -57.1037 -57.1037 -56.9986 -56.9969
   -34.7636 -34.7629 -34.7615 -34.7612 -34.6664 -34.6649 -33.9042 -33.9038
   -33.8982 -33.8824 -33.8458 -33.8037 -33.8037 -33.7919 -33.7746 -33.7727
   -33.7672 -33.7583 -33.7267 -33.6954 -33.6910 -33.6717 -33.6689 -33.6631
   -33.6476 -33.6229 -33.5765 -33.5657 -33.5646 -33.5513 -33.5354 -33.5179
   -33.4830 -33.4802 -33.4758 -33.4648 -33.4501 -33.4501 -33.3488 -33.3484
   -33.3453 -33.3354 -33.2952 -33.2949 -33.2423 -33.2413 -33.2367 -33.2295
   -18.0842 -18.0164 -18.0161 -17.9462 -17.9442 -17.7017 -17.6591 -17.6588
   -17.6568 -17.3868 -17.2590 -17.2506 -17.2480 -17.1580 -17.1512 -17.0961
   -17.0567 -17.0091 -16.9927 -16.9797 -16.9781 -16.9764 -16.9704 -16.7710
   -16.7491 -16.7344 -16.7323 -16.6431 -16.6410 -16.4671 -16.4427 -15.8506
   -15.8504  -5.8678  -5.0867  -5.0770  -5.0084  -5.0063  -4.8745  -4.8742
    -4.8701  -4.8640  -4.6206  -4.6156  -4.6117  -4.5478  -4.4861  -4.4155
    -4.4133  -4.4119  -4.3779  -4.3635  -4.3490  -4.3385  -4.3206  -4.2711
    -4.2677  -4.2381  -4.2372  -4.2211  -4.1113  -4.0558  -3.9947  -3.9740
    -3.9385  -3.8629  -3.8516  -3.8488  -3.7325  -3.6530  -3.6421  -3.6381
    -3.5143  -3.5126  -3.3587  -3.3553  -3.3465  -3.3111  -3.2417  -3.2072
    -3.1401  -3.1117  -3.0574  -3.0474  -3.0153  -3.0005  -2.9799  -2.9012
    -2.8542  -2.7612  -2.7247  -2.6827  -2.6399  -2.6094  -2.5760  -2.5546
    -2.5255  -2.4506  -2.4269  -2.4202  -2.3935  -2.3362  -2.2794  -2.2489
    -2.1355  -2.0658  -2.0519  -2.0411  -1.9219  -1.8517  -1.8416  -1.7018
    -1.6574  -1.6301  -1.6178  -1.5928  -1.3500  -1.3101  -1.2930  -1.2804
    -1.2539  -1.2069  -1.1265  -1.0372  -0.9808  -0.9476  -0.9344  -0.8978
    -0.8749  -0.8384  -0.7722  -0.7585   1.4004   1.4044   1.4160   1.4217
     1.7637   1.7644   1.8922   1.8940   2.0450   2.1017   2.1044   2.1585
     2.2313   2.2605   2.3549   2.4279   2.4348   2.5037   2.5392   2.5949
     2.6022   2.6322   2.7588   2.7590   2.7704   2.7868   2.8042   2.8348
     2.8819   2.9054   2.9495   3.0381   3.0414   3.0446   3.0670   3.0824
     3.1588   3.1938   3.1944   3.2364   3.2574   3.2808   3.2953   3.2982
     3.3629   3.3871   3.5385   3.6165   3.6858   3.6866   3.9396   3.9401
     4.3402   4.4235   4.4496   4.5094   4.6318   4.6609   4.7009   4.7676
     4.9574   4.9753   4.9847   4.9935   5.4701   5.4730   5.4908   5.7049
     5.7315   5.7338   5.7980   5.8154   5.8942   5.8984   5.9385   6.0399
     6.0824   6.0899   6.1681   6.2349   6.2936   6.3917   6.6785   7.1159
     7.4103   7.4220   7.4687   7.5306   7.7074   7.7099   7.8488   7.9265
     8.2666   8.2720   8.4443   8.5718   9.0540   9.0739   9.1856

     the Fermi energy is    -0.4899 ev

!    total energy              =   -3005.52867776 Ry
     Harris-Foulkes estimate   =   -3005.52867709 Ry
     estimated scf accuracy    <       0.00000013 Ry

     The total energy is the sum of the following terms:

     one-electron contribution =  -41015.10184252 Ry
     hartree contribution      =   20573.33106567 Ry
     xc contribution           =    -546.70865560 Ry
     ewald contribution        =   17982.97040965 Ry
     smearing contrib. (-TS)   =      -0.01965497 Ry

     total magnetization       =     0.00 Bohr mag/cell
     absolute magnetization    =     0.00 Bohr mag/cell

     convergence has been achieved in  13 iterations

     Forces acting on atoms (Ry/au):


     negative rho (up, down):  1.350E-02 1.350E-02
     atom    1 type  1   force =     0.00002913   -0.00109974   -0.10416877
     atom    2 type  2   force =     0.00002027    0.00000000    0.03806920
     atom    3 type  1   force =    -0.00006545    0.00000000   -0.02279436
     atom    4 type  2   force =    -0.00614764    0.00312954   -0.00580191
     atom    5 type  1   force =     0.00032287    0.00047507   -0.00067743
     atom    6 type  2   force =    -0.00036668    0.00000000   -0.00048133
     atom    7 type  1   force =    -0.00085286    0.00000000   -0.00377664
     atom    8 type  2   force =    -0.00010651    0.00000904   -0.00083878
     atom    9 type  1   force =     0.00002913    0.00109974   -0.10416877
     atom   10 type  2   force =     0.00011874    0.00000000    0.03425094
     atom   11 type  1   force =    -0.00007832    0.00000000    0.01138905
     atom   12 type  2   force =    -0.00614764   -0.00312954   -0.00580191
     atom   13 type  1   force =     0.00032287   -0.00047507   -0.00067743
     atom   14 type  2   force =    -0.00047457    0.00000000   -0.00116129
     atom   15 type  1   force =     0.00006529    0.00000000    0.00121616
     atom   16 type  2   force =    -0.00010651   -0.00000904   -0.00083878
     atom   17 type  2   force =     0.00011774    0.00000000    0.06644016
     atom   18 type  1   force =     0.00011038    0.00000000    0.13065063
     atom   19 type  2   force =    -0.00014122    0.00000000   -0.08410039
     atom   20 type  2   force =    -0.05780137    0.00012992   -0.03633439
     atom   21 type  2   force =     0.05808199    0.00016374   -0.03623898
     atom   22 type  1   force =    -0.00000648    0.00088249    0.07796451
     atom   23 type  2   force =    -0.00015227    0.00000000    0.00132527
     atom   24 type  2   force =    -0.00024503    0.00000000   -0.03622396
     atom   25 type  2   force =     0.00593751    0.00310948   -0.00552442
     atom   26 type  1   force =    -0.00035856    0.00000000    0.00021940
     atom   27 type  2   force =     0.00036891    0.00000000    0.00146714
     atom   28 type  2   force =    -0.00020230    0.00031925   -0.00035132
     atom   29 type  2   force =    -0.00035563    0.00017453    0.00005319
     atom   30 type  1   force =     0.00033946    0.00044562    0.00047011
     atom   31 type  2   force =    -0.00063092    0.00000000    0.00025737
     atom   32 type  2   force =     0.00053719   -0.00025439    0.00056166
     atom   33 type  2   force =     0.00005117    0.00000000    0.06643979
     atom   34 type  1   force =     0.00012222    0.00000000    0.13042732
     atom   35 type  2   force =    -0.00003735    0.00000000   -0.08361237
     atom   36 type  2   force =    -0.05780137   -0.00012992   -0.03633439
     atom   37 type  2   force =     0.05808199   -0.00016374   -0.03623898
     atom   38 type  1   force =    -0.00000648   -0.00088249    0.07796451
     atom   39 type  2   force =     0.00000810    0.00000000   -0.00028495
     atom   40 type  2   force =     0.00005523    0.00000000   -0.03531496
     atom   41 type  2   force =     0.00593751   -0.00310948   -0.00552442
     atom   42 type  1   force =    -0.00054253    0.00000000    0.00098303
     atom   43 type  2   force =     0.00034293    0.00000000    0.00161473
     atom   44 type  2   force =    -0.00020230   -0.00031925   -0.00035132
     atom   45 type  2   force =    -0.00035563   -0.00017453    0.00005319
     atom   46 type  1   force =     0.00033946   -0.00044562    0.00047011
     atom   47 type  2   force =     0.00146913    0.00000000    0.00068494
     atom   48 type  2   force =     0.00053719    0.00025439    0.00056166
     atom   49 type  2   force =     0.03983773    0.00000000    0.02540513
     atom   50 type  3   force =    -0.03999851    0.00000000   -0.02131694

     Total force =     0.346410     Total SCF correction =     0.001186
 !ASE

     Writing output data file calc.save
 
     init_run     :     49.14s CPU     57.11s WALL (       1 calls)
     electrons    :   2492.26s CPU   2823.87s WALL (       1 calls)
     forces       :     41.91s CPU     44.03s WALL (       1 calls)

     Called by init_run:
     wfcinit      :     42.07s CPU     49.38s WALL (       1 calls)
     potinit      :      1.29s CPU      1.53s WALL (       1 calls)

     Called by electrons:
     c_bands      :   2148.59s CPU   2421.45s WALL (      13 calls)
     sum_band     :    286.94s CPU    338.93s WALL (      13 calls)
     v_of_rho     :     14.12s CPU     16.89s WALL (      14 calls)
     newd         :     45.78s CPU     49.81s WALL (      14 calls)
     mix_rho      :      0.53s CPU      0.74s WALL (      13 calls)
     vdW_energy   :      3.18s CPU      3.67s WALL (      15 calls)
     vdW_ffts     :      3.44s CPU      4.31s WALL (      30 calls)
     vdW_v        :      1.55s CPU      1.75s WALL (      15 calls)

     Called by c_bands:
     init_us_2    :      6.15s CPU      6.72s WALL (     896 calls)
     cegterg      :   2110.05s CPU   2380.95s WALL (     416 calls)

     Called by *egterg:
     h_psi        :    840.19s CPU   1033.98s WALL (    1869 calls)
     s_psi        :    144.79s CPU    150.00s WALL (    1869 calls)
     g_psi        :      4.28s CPU      4.40s WALL (    1421 calls)
     cdiaghg      :    646.06s CPU    664.09s WALL (    1837 calls)

     Called by h_psi:
     add_vuspsi   :    146.11s CPU    151.98s WALL (    1869 calls)

     General routines
     calbec       :    214.61s CPU    221.29s WALL (    2317 calls)
     fft          :      7.19s CPU      9.01s WALL (    1191 calls)
     ffts         :      0.06s CPU      0.08s WALL (      54 calls)
     fftw         :    469.46s CPU    694.93s WALL (  709456 calls)
     interpolate  :      0.42s CPU      0.62s WALL (      54 calls)
     davcio       :      0.01s CPU      0.98s WALL (      32 calls)
 
     Parallel routines
     fft_scatter  :    229.61s CPU    367.29s WALL (  710701 calls)
 
     PWSCF        : 43m 4.80s CPU    48m48.15s WALL

 
   This run was terminated on:  18: 4:13  10Feb2018            

=------------------------------------------------------------------------------=
   JOB DONE.
=------------------------------------------------------------------------------=
