  python dir          : /home/vossj/suncat/lib/python2.7/site-packages/espresso
  espresso dir        : /home/vossj/suncat/esdld/espresso-dynpy-beef/bin
  pseudo dir          : /home/alatimer/bin/psp/esp_psp_w_gbrvRu/
  ase-espresso py git : ffa2778-git



     Program PWSCF v.5.1rc2 (svn rev. ) starts on 25Feb2018 at 21:48:59 

     This program is part of the open-source Quantum ESPRESSO suite
     for quantum simulation of materials; please cite
         "P. Giannozzi et al., J. Phys.:Condens. Matter 21 395502 (2009);
          URL http://www.quantum-espresso.org", 
     in publications or presentations arising from this work. More details at
     http://www.quantum-espresso.org/quote

     Parallel version (MPI), running on    16 processors
     R & G space division:  proc/nbgrp/npool/nimage =      16
     Reading input from pw.inp
     Message from routine read_cards :
     DEPRECATED: no units specified in CELL_PARAMETERS card

     Current dimensions of program PWSCF are:
     Max number of different atomic species (ntypx) = 10
     Max number of k-points (npk) =  40000
     Max angular momentum in pseudopotentials (lmaxx) =  3

     **************************************************************************
     Initializing libbeef V0.1.1 with the BEEF-vdW functional.
     Citation: Wellendorff et al., PRB 85, 235149 (2012).
     **************************************************************************


     IMPORTANT: XC functional enforced from input :
     Exchange-correlation      = BEEF ( 1  4 27 13 2)
     Any further DFT definition will be discarded
     Please, verify this is what you really want


     Subspace diagonalization in iterative solution of the eigenvalue problem:
     a serial algorithm will be used

 
     Parallelization info
     --------------------
     sticks:   dense  smooth     PW     G-vecs:    dense   smooth      PW
     Min         281     112     31                68535    17318    2565
     Max         282     113     32                68545    17369    2582
     Sum        4501    1795    503              1096637   277353   41113
 
     Generating pointlists ...
     new r_m :   0.4125 (alat units)  0.7795 (a.u.) for type    1
     new r_m :   0.4125 (alat units)  0.7795 (a.u.) for type    2
     new r_m :   0.4125 (alat units)  0.7795 (a.u.) for type    3
     new r_m :   0.4125 (alat units)  0.7795 (a.u.) for type    4


     bravais-lattice index     =            0
     lattice parameter (alat)  =       1.8897  a.u.
     unit-cell volume          =    7990.9933 (a.u.)^3
     number of atoms/cell      =           54
     number of atomic types    =            4
     number of electrons       =       398.00
     number of Kohn-Sham states=          299
     kinetic-energy cutoff     =      40.4243  Ry
     charge density cutoff     =     404.2426  Ry
     convergence threshold     =      7.3E-07
     mixing beta               =       0.1000
     number of iterations used =           10  plain     mixing
     Exchange-correlation      = BEEF ( 1  4 27 13 2)
     nstep                     =           50


     celldm(1)=   1.889726  celldm(2)=   0.000000  celldm(3)=   0.000000
     celldm(4)=   0.000000  celldm(5)=   0.000000  celldm(6)=   0.000000

     crystal axes: (cart. coord. in units of alat)
               a(1) = (   6.590708   0.000000   0.000000 )  
               a(2) = (   0.000000   5.950229   0.000000 )  
               a(3) = (   0.000000   0.000000  30.195235 )  

     reciprocal axes: (cart. coord. in units 2 pi/alat)
               b(1) = (  0.151729  0.000000  0.000000 )  
               b(2) = (  0.000000  0.168061  0.000000 )  
               b(3) = (  0.000000  0.000000  0.033118 )  


     PseudoPot. # 1 for Ti read from file:
     /home/alatimer/bin/psp/esp_psp_w_gbrvRu/Ti.UPF
     MD5 check sum: 8e4df49b7f0d34bbd5052bf3f5ea0213
     Pseudo is Ultrasoft, Zval = 12.0
     Generated by new atomic code, or converted to UPF format
     Using radial grid of  851 points,  6 beta functions with: 
                l(1) =   0
                l(2) =   0
                l(3) =   1
                l(4) =   1
                l(5) =   2
                l(6) =   2
     Q(r) pseudized with  8 coefficients,  rinner =    1.000   1.000   1.000
                                                       1.000   1.000

     PseudoPot. # 2 for  O read from file:
     /home/alatimer/bin/psp/esp_psp_w_gbrvRu/O.UPF
     MD5 check sum: e057bbcf3229fb5d8c36c0c92f9568b4
     Pseudo is Ultrasoft + core correction, Zval =  6.0
     Generated using "atomic" code by A. Dal Corso  v.5.0.2 svn rev. 9415
     Using radial grid of 1095 points,  4 beta functions with: 
                l(1) =   0
                l(2) =   0
                l(3) =   1
                l(4) =   1
     Q(r) pseudized with 0 coefficients 


     PseudoPot. # 3 for  C read from file:
     /home/alatimer/bin/psp/esp_psp_w_gbrvRu/C.UPF
     MD5 check sum: ab446d787031eba755f1d5ee46644bb0
     Pseudo is Ultrasoft + core correction, Zval =  4.0
     Generated using "atomic" code by A. Dal Corso  v.5.0.2 svn rev. 9415
     Using radial grid of 1073 points,  4 beta functions with: 
                l(1) =   0
                l(2) =   0
                l(3) =   1
                l(4) =   1
     Q(r) pseudized with 0 coefficients 


     PseudoPot. # 4 for  H read from file:
     /home/alatimer/bin/psp/esp_psp_w_gbrvRu/H.UPF
     MD5 check sum: bd57da0722753ddfd9833a65b40bb853
     Pseudo is Ultrasoft, Zval =  1.0
     Generated using "atomic" code by A. Dal Corso  v.5.0.2 svn rev. 9415
     Using radial grid of  929 points,  2 beta functions with: 
                l(1) =   0
                l(2) =   0
     Q(r) pseudized with 0 coefficients 


     vdW kernel table read from file vdW_kernel_table
     MD5 check sum: 095c7af220d748ca6e76c0b4c6cfb241

     atomic species   valence    mass     pseudopotential
        Ti1           12.00    47.88000     Ti( 1.00)
        O1             6.00    15.99940      O( 1.00)
        C1             4.00    12.01100      C( 1.00)
        H1             1.00     1.00794      H( 1.00)

     Starting magnetic structure 
     atomic species   magnetization
        Ti1          0.250
        O1           0.500
        C1           0.750
        H1           0.000

     No symmetry found



   Cartesian axes

     site n.     atom                  positions (alat units)
         1           Ti1 tau(   1) = (   1.6476770   0.7437786   2.6545865  )
         2           O1  tau(   2) = (   1.6476770   2.2313359   3.9361215  )
         3           Ti1 tau(   3) = (   1.6476770   2.2313359   5.9499405  )
         4           O1  tau(   4) = (   0.3661420   0.7437786   5.9499405  )
         5           Ti1 tau(   5) = (   1.6407309   0.9134410   9.3139491  )
         6           O1  tau(   6) = (   1.6648823   2.2608486  10.4895904  )
         7           Ti1 tau(   7) = (   1.7578240   2.2899216  13.0472362  )
         8           O1  tau(   8) = (   0.4801583   0.7600008  12.7739736  )
         9           Ti1 tau(   9) = (   1.6476770   3.7188931   2.6545865  )
        10           O1  tau(  10) = (   1.6476770   5.2064503   3.9361215  )
        11           Ti1 tau(  11) = (   1.6476770   5.2064503   5.9499405  )
        12           O1  tau(  12) = (   0.3661420   3.7188931   5.9499405  )
        13           Ti1 tau(  13) = (   1.6336050   3.7786827   9.1566831  )
        14           O1  tau(  14) = (   1.6678212   5.2513959  10.5409436  )
        15           Ti1 tau(  15) = (   1.7144009   5.2558216  12.3462911  )
        16           O1  tau(  16) = (   0.4635505   3.7986228  12.7318280  )
        17           O1  tau(  17) = (   1.6476770   2.2313359   1.3730516  )
        18           Ti1 tau(  18) = (   4.9430310   2.2313359   2.6545865  )
        19           O1  tau(  19) = (   4.9430310   2.2313359   4.6684056  )
        20           O1  tau(  20) = (   6.2245660   0.7437786   2.6545865  )
        21           O1  tau(  21) = (   3.6614961   0.7437786   2.6545865  )
        22           Ti1 tau(  22) = (   4.9430310   0.7437786   5.9499405  )
        23           O1  tau(  23) = (   1.6683653   2.2752577   7.9427336  )
        24           O1  tau(  24) = (   4.9430310   2.2313359   7.2314755  )
        25           O1  tau(  25) = (   2.9292120   0.7437786   5.9499405  )
        26           Ti1 tau(  26) = (   4.9404121   2.2664794   9.4552217  )
        27           O1  tau(  27) = (   5.0099888   2.2616732  11.2946145  )
        28           O1  tau(  28) = (   6.2612001   0.7714827   9.2659748  )
        29           O1  tau(  29) = (   3.6791272   0.7744986   9.2965846  )
        30           Ti1 tau(  30) = (   5.0117873   0.7976728  12.8161605  )
        31           O1  tau(  31) = (   4.9963122   2.2836652  13.8750618  )
        32           O1  tau(  32) = (   2.9819382   0.7448324  12.7109220  )
        33           O1  tau(  33) = (   1.6476770   5.2064503   1.3730516  )
        34           Ti1 tau(  34) = (   4.9430310   5.2064503   2.6545865  )
        35           O1  tau(  35) = (   4.9430310   5.2064503   4.6684056  )
        36           O1  tau(  36) = (   6.2245660   3.7188931   2.6545865  )
        37           O1  tau(  37) = (   3.6614961   3.7188931   2.6545865  )
        38           Ti1 tau(  38) = (   4.9430310   3.7188931   5.9499405  )
        39           O1  tau(  39) = (   1.6664207   5.2035600   7.9365221  )
        40           O1  tau(  40) = (   4.9430310   5.2064503   7.2314755  )
        41           O1  tau(  41) = (   2.9292120   3.7188931   5.9499405  )
        42           Ti1 tau(  42) = (   4.9524353   5.2460635   9.4426343  )
        43           O1  tau(  43) = (   5.0107556   5.2394944  11.2927493  )
        44           O1  tau(  44) = (   6.2663940   3.7551737   9.2646230  )
        45           O1  tau(  45) = (   3.6780957   3.7542261   9.2971476  )
        46           Ti1 tau(  46) = (   5.0587989   3.7766986  12.8010349  )
        47           O1  tau(  47) = (   5.0196089   5.2502198  13.8813978  )
        48           O1  tau(  48) = (   2.9624133   3.7943242  12.7299881  )
        49           O1  tau(  49) = (   1.7427453   2.2533568  14.8070015  )
        50           C1  tau(  50) = (   2.7196098   4.2826273  16.2318421  )
        51           H1  tau(  51) = (   3.3037454   4.9255546  15.5827400  )
        52           H1  tau(  52) = (   3.3286606   3.7870117  16.9822022  )
        53           H1  tau(  53) = (   2.3125587   3.4026405  15.5729816  )
        54           H1  tau(  54) = (   1.8391288   4.7650601  16.6448379  )

     number of k points=    40  Fermi-Dirac smearing, width (Ry)=  0.0073
                       cart. coord. in units 2pi/alat
        k(    1) = (   0.0000000   0.0000000   0.0000000), wk =   0.0277778
        k(    2) = (   0.0000000   0.0280101   0.0000000), wk =   0.0555556
        k(    3) = (   0.0000000   0.0560203   0.0000000), wk =   0.0555556
        k(    4) = (   0.0000000  -0.0840304   0.0000000), wk =   0.0277778
        k(    5) = (   0.0252881   0.0000000   0.0000000), wk =   0.0555556
        k(    6) = (   0.0252881   0.0280101   0.0000000), wk =   0.0555556
        k(    7) = (   0.0252881   0.0560203   0.0000000), wk =   0.0555556
        k(    8) = (   0.0252881  -0.0840304   0.0000000), wk =   0.0555556
        k(    9) = (   0.0505763   0.0000000   0.0000000), wk =   0.0555556
        k(   10) = (   0.0505763   0.0280101   0.0000000), wk =   0.0555556
        k(   11) = (   0.0505763   0.0560203   0.0000000), wk =   0.0555556
        k(   12) = (   0.0505763  -0.0840304   0.0000000), wk =   0.0555556
        k(   13) = (  -0.0758644   0.0000000   0.0000000), wk =   0.0277778
        k(   14) = (  -0.0758644   0.0280101   0.0000000), wk =   0.0555556
        k(   15) = (  -0.0758644   0.0560203   0.0000000), wk =   0.0555556
        k(   16) = (  -0.0758644  -0.0840304   0.0000000), wk =   0.0277778
        k(   17) = (  -0.0252881   0.0280101   0.0000000), wk =   0.0555556
        k(   18) = (  -0.0252881   0.0560203   0.0000000), wk =   0.0555556
        k(   19) = (  -0.0505763   0.0280101   0.0000000), wk =   0.0555556
        k(   20) = (  -0.0505763   0.0560203   0.0000000), wk =   0.0555556
        k(   21) = (   0.0000000   0.0000000   0.0000000), wk =   0.0277778
        k(   22) = (   0.0000000   0.0280101   0.0000000), wk =   0.0555556
        k(   23) = (   0.0000000   0.0560203   0.0000000), wk =   0.0555556
        k(   24) = (   0.0000000  -0.0840304   0.0000000), wk =   0.0277778
        k(   25) = (   0.0252881   0.0000000   0.0000000), wk =   0.0555556
        k(   26) = (   0.0252881   0.0280101   0.0000000), wk =   0.0555556
        k(   27) = (   0.0252881   0.0560203   0.0000000), wk =   0.0555556
        k(   28) = (   0.0252881  -0.0840304   0.0000000), wk =   0.0555556
        k(   29) = (   0.0505763   0.0000000   0.0000000), wk =   0.0555556
        k(   30) = (   0.0505763   0.0280101   0.0000000), wk =   0.0555556
        k(   31) = (   0.0505763   0.0560203   0.0000000), wk =   0.0555556
        k(   32) = (   0.0505763  -0.0840304   0.0000000), wk =   0.0555556
        k(   33) = (  -0.0758644   0.0000000   0.0000000), wk =   0.0277778
        k(   34) = (  -0.0758644   0.0280101   0.0000000), wk =   0.0555556
        k(   35) = (  -0.0758644   0.0560203   0.0000000), wk =   0.0555556
        k(   36) = (  -0.0758644  -0.0840304   0.0000000), wk =   0.0277778
        k(   37) = (  -0.0252881   0.0280101   0.0000000), wk =   0.0555556
        k(   38) = (  -0.0252881   0.0560203   0.0000000), wk =   0.0555556
        k(   39) = (  -0.0505763   0.0280101   0.0000000), wk =   0.0555556
        k(   40) = (  -0.0505763   0.0560203   0.0000000), wk =   0.0555556

     Dense  grid:  1096637 G-vectors     FFT dimensions: (  80,  72, 375)

     Smooth grid:   277353 G-vectors     FFT dimensions: (  54,  45, 240)

     Largest allocated arrays     est. size (Mb)     dimensions
        Kohn-Sham Wavefunctions         9.95 Mb     (    2180,  299)
        NL pseudopotentials            18.89 Mb     (    2180,  568)
        Each V/rho on FFT grid          4.22 Mb     (  138240,   2)
        Each G-vector array             0.52 Mb     (   68538)
        G-vector shells                 0.25 Mb     (   33046)
     Largest temporary arrays     est. size (Mb)     dimensions
        Auxiliary wavefunctions        39.78 Mb     (    2180, 1196)
        Each subspace H/S matrix       21.83 Mb     (    1196, 1196)
        Each <psi_i|beta_j> matrix      2.59 Mb     (     568,  299)
        Arrays for rho mixing          21.09 Mb     (  138240,   10)

     Check: negative/imaginary core charge=   -0.000049    0.000000

     The initial density is read from file :
     ./calc.save/charge-density.dat


     negative rho (up, down):  1.189E-02 1.196E-02


     ************************************************************************
     *
     * You are using vdW-DF for exchange-correlation in this calculation.
     * Please cite the following three references that made this development
     * possible:
     *
     *   M. Dion, H. Rydberg, E. Schroder, D. C. Langreth, and
     *   B. I. Lundqvist, Phys. Rev. Lett. 92, 246401 (2004).
     *
     *   T. Thonhauser, V. R. Cooper, S. Li, A. Puzder, P. Hyldgaard, and
     *   D. C. Langreth, Phys. Rev. B 76, 125112 (2007).
     *
     *   G. Roman-Perez and J. M. Soler, Phys. Rev. Lett. 103, 096102 (2009).
     *
     *
     * If you are using vdW-DF2, please also cite:
     *
     *   K. Lee, E. D. Murray, L. Kong, B. I. Lundqvist, and
     *   D. C. Langreth, Phys. Rev. B 82, 081101(R) (2010).
     *
     *
     * If you are calculating the stress with vdW-DF, please also cite:
     *
     *   R. Sabatini, E. Kucukbenli, B. Kolb, T. Thonhauser, and
     *   S. de Gironcoli, J. Phys.: Condens. Matter 24, 424209 (2012).
     *
     ************************************************************************

     Carrying out vdW-DF run using the following parameters:

     Nqs =      20    Nr_points =    1024   r_max =   100.000
     q_mesh =
               0.00001000     0.04494208     0.09755937     0.15916263
               0.23128650     0.31572767     0.41458969     0.53033537
               0.66584808     0.82450364     1.01025438     1.22772762
               1.48234092     1.78043706     2.12944203     2.53805004
               3.01644009     3.57652955     4.23227104     5.00000000

     Gradients computed in reciprocal space

     ************************************************************************


     Starting wfc are  300 randomized atomic wfcs

     total cpu time spent up to now is       76.0 secs

     Self-consistent Calculation

     iteration #  1     ecut=    40.42 Ry     beta=0.10
     Davidson diagonalization with overlap
     ethr =  1.00E-05,  avg # of iterations = 15.6

     negative rho (up, down):  1.190E-02 1.197E-02
 
     Magnetic moment per site:
     atom:    1    charge:    3.1243    magn:   -0.0003    constr:    0.0000
     atom:    2    charge:    2.0891    magn:    0.0003    constr:    0.0000
     atom:    3    charge:    3.1198    magn:   -0.0000    constr:    0.0000
     atom:    4    charge:    2.0868    magn:   -0.0000    constr:    0.0000
     atom:    5    charge:    3.1161    magn:   -0.0002    constr:    0.0000
     atom:    6    charge:    2.0805    magn:    0.0021    constr:    0.0000
     atom:    7    charge:    3.1244    magn:   -0.0052    constr:    0.0000
     atom:    8    charge:    2.0798    magn:    0.0246    constr:    0.0000
     atom:    9    charge:    3.1243    magn:   -0.0003    constr:    0.0000
     atom:   10    charge:    2.0892    magn:    0.0004    constr:    0.0000
     atom:   11    charge:    3.1198    magn:   -0.0000    constr:    0.0000
     atom:   12    charge:    2.0871    magn:   -0.0000    constr:    0.0000
     atom:   13    charge:    3.1151    magn:   -0.0002    constr:    0.0000
     atom:   14    charge:    2.0942    magn:    0.0022    constr:    0.0000
     atom:   15    charge:    3.1182    magn:   -0.0008    constr:    0.0000
     atom:   16    charge:    2.0833    magn:    0.0045    constr:    0.0000
     atom:   17    charge:    2.0586    magn:    0.0018    constr:    0.0000
     atom:   18    charge:    3.1237    magn:   -0.0001    constr:    0.0000
     atom:   19    charge:    2.0875    magn:    0.0001    constr:    0.0000
     atom:   20    charge:    2.0845    magn:    0.0002    constr:    0.0000
     atom:   21    charge:    2.0845    magn:    0.0002    constr:    0.0000
     atom:   22    charge:    3.1199    magn:    0.0000    constr:    0.0000
     atom:   23    charge:    2.0909    magn:    0.0002    constr:    0.0000
     atom:   24    charge:    2.0760    magn:   -0.0002    constr:    0.0000
     atom:   25    charge:    2.0868    magn:    0.0000    constr:    0.0000
     atom:   26    charge:    3.1126    magn:   -0.0002    constr:    0.0000
     atom:   27    charge:    2.0815    magn:    0.0024    constr:    0.0000
     atom:   28    charge:    2.0847    magn:    0.0006    constr:    0.0000
     atom:   29    charge:    2.0867    magn:    0.0007    constr:    0.0000
     atom:   30    charge:    3.1174    magn:   -0.0008    constr:    0.0000
     atom:   31    charge:    2.0819    magn:    0.0006    constr:    0.0000
     atom:   32    charge:    2.0835    magn:    0.0062    constr:    0.0000
     atom:   33    charge:    2.0586    magn:    0.0019    constr:    0.0000
     atom:   34    charge:    3.1237    magn:   -0.0001    constr:    0.0000
     atom:   35    charge:    2.0875    magn:    0.0001    constr:    0.0000
     atom:   36    charge:    2.0845    magn:    0.0002    constr:    0.0000
     atom:   37    charge:    2.0845    magn:    0.0002    constr:    0.0000
     atom:   38    charge:    3.1199    magn:    0.0000    constr:    0.0000
     atom:   39    charge:    2.0842    magn:    0.0002    constr:    0.0000
     atom:   40    charge:    2.0763    magn:   -0.0003    constr:    0.0000
     atom:   41    charge:    2.0871    magn:   -0.0000    constr:    0.0000
     atom:   42    charge:    3.1151    magn:   -0.0002    constr:    0.0000
     atom:   43    charge:    2.0814    magn:    0.0029    constr:    0.0000
     atom:   44    charge:    2.0859    magn:    0.0008    constr:    0.0000
     atom:   45    charge:    2.0865    magn:    0.0004    constr:    0.0000
     atom:   46    charge:    3.1150    magn:   -0.0007    constr:    0.0000
     atom:   47    charge:    2.0798    magn:    0.0046    constr:    0.0000
     atom:   48    charge:    2.0837    magn:    0.0135    constr:    0.0000
     atom:   49    charge:    2.0434    magn:    0.2363    constr:    0.0000
     atom:   50    charge:    0.6703    magn:    0.0553    constr:    0.0000
     atom:   51    charge:    0.4221    magn:    0.0011    constr:    0.0000
     atom:   52    charge:    0.4225    magn:    0.0009    constr:    0.0000
     atom:   53    charge:    0.3655    magn:    0.0245    constr:    0.0000
     atom:   54    charge:    0.4229    magn:    0.0007    constr:    0.0000

     total cpu time spent up to now is     1019.7 secs

     total energy              =   -3021.14852515 Ry
     Harris-Foulkes estimate   =   -3021.20564104 Ry
     estimated scf accuracy    <       0.32883291 Ry

     total magnetization       =     1.03 Bohr mag/cell
     absolute magnetization    =     1.21 Bohr mag/cell

     iteration #  2     ecut=    40.42 Ry     beta=0.10
     Davidson diagonalization with overlap
     ethr =  8.26E-05,  avg # of iterations =  5.5

     negative rho (up, down):  1.190E-02 1.197E-02
 
     Magnetic moment per site:
     atom:    1    charge:    3.1243    magn:   -0.0003    constr:    0.0000
     atom:    2    charge:    2.0896    magn:    0.0003    constr:    0.0000
     atom:    3    charge:    3.1198    magn:   -0.0000    constr:    0.0000
     atom:    4    charge:    2.0870    magn:   -0.0000    constr:    0.0000
     atom:    5    charge:    3.1161    magn:   -0.0002    constr:    0.0000
     atom:    6    charge:    2.0795    magn:    0.0021    constr:    0.0000
     atom:    7    charge:    3.1249    magn:   -0.0052    constr:    0.0000
     atom:    8    charge:    2.0793    magn:    0.0247    constr:    0.0000
     atom:    9    charge:    3.1243    magn:   -0.0003    constr:    0.0000
     atom:   10    charge:    2.0898    magn:    0.0003    constr:    0.0000
     atom:   11    charge:    3.1198    magn:   -0.0000    constr:    0.0000
     atom:   12    charge:    2.0873    magn:   -0.0000    constr:    0.0000
     atom:   13    charge:    3.1150    magn:   -0.0002    constr:    0.0000
     atom:   14    charge:    2.0938    magn:    0.0022    constr:    0.0000
     atom:   15    charge:    3.1182    magn:   -0.0008    constr:    0.0000
     atom:   16    charge:    2.0827    magn:    0.0045    constr:    0.0000
     atom:   17    charge:    2.0616    magn:    0.0018    constr:    0.0000
     atom:   18    charge:    3.1240    magn:   -0.0001    constr:    0.0000
     atom:   19    charge:    2.0875    magn:    0.0001    constr:    0.0000
     atom:   20    charge:    2.0847    magn:    0.0002    constr:    0.0000
     atom:   21    charge:    2.0847    magn:    0.0002    constr:    0.0000
     atom:   22    charge:    3.1201    magn:    0.0000    constr:    0.0000
     atom:   23    charge:    2.0909    magn:    0.0002    constr:    0.0000
     atom:   24    charge:    2.0755    magn:   -0.0002    constr:    0.0000
     atom:   25    charge:    2.0870    magn:    0.0000    constr:    0.0000
     atom:   26    charge:    3.1127    magn:   -0.0002    constr:    0.0000
     atom:   27    charge:    2.0801    magn:    0.0024    constr:    0.0000
     atom:   28    charge:    2.0840    magn:    0.0006    constr:    0.0000
     atom:   29    charge:    2.0861    magn:    0.0007    constr:    0.0000
     atom:   30    charge:    3.1172    magn:   -0.0008    constr:    0.0000
     atom:   31    charge:    2.0819    magn:    0.0006    constr:    0.0000
     atom:   32    charge:    2.0829    magn:    0.0063    constr:    0.0000
     atom:   33    charge:    2.0616    magn:    0.0018    constr:    0.0000
     atom:   34    charge:    3.1240    magn:   -0.0001    constr:    0.0000
     atom:   35    charge:    2.0875    magn:    0.0001    constr:    0.0000
     atom:   36    charge:    2.0847    magn:    0.0002    constr:    0.0000
     atom:   37    charge:    2.0847    magn:    0.0002    constr:    0.0000
     atom:   38    charge:    3.1201    magn:    0.0000    constr:    0.0000
     atom:   39    charge:    2.0841    magn:    0.0002    constr:    0.0000
     atom:   40    charge:    2.0758    magn:   -0.0003    constr:    0.0000
     atom:   41    charge:    2.0873    magn:   -0.0000    constr:    0.0000
     atom:   42    charge:    3.1152    magn:   -0.0002    constr:    0.0000
     atom:   43    charge:    2.0801    magn:    0.0029    constr:    0.0000
     atom:   44    charge:    2.0852    magn:    0.0008    constr:    0.0000
     atom:   45    charge:    2.0860    magn:    0.0004    constr:    0.0000
     atom:   46    charge:    3.1149    magn:   -0.0007    constr:    0.0000
     atom:   47    charge:    2.0796    magn:    0.0047    constr:    0.0000
     atom:   48    charge:    2.0834    magn:    0.0136    constr:    0.0000
     atom:   49    charge:    2.0439    magn:    0.2357    constr:    0.0000
     atom:   50    charge:    0.6701    magn:    0.0555    constr:    0.0000
     atom:   51    charge:    0.4221    magn:    0.0011    constr:    0.0000
     atom:   52    charge:    0.4225    magn:    0.0009    constr:    0.0000
     atom:   53    charge:    0.3650    magn:    0.0248    constr:    0.0000
     atom:   54    charge:    0.4229    magn:    0.0007    constr:    0.0000

     total cpu time spent up to now is     1290.1 secs

     total energy              =   -3021.16633971 Ry
     Harris-Foulkes estimate   =   -3021.19251357 Ry
     estimated scf accuracy    <       0.26443621 Ry

     total magnetization       =     1.07 Bohr mag/cell
     absolute magnetization    =     1.24 Bohr mag/cell

     iteration #  3     ecut=    40.42 Ry     beta=0.10
     Davidson diagonalization with overlap
     ethr =  6.64E-05,  avg # of iterations =  4.6

     negative rho (up, down):  1.190E-02 1.197E-02
 
     Magnetic moment per site:
     atom:    1    charge:    3.1244    magn:   -0.0003    constr:    0.0000
     atom:    2    charge:    2.0898    magn:    0.0003    constr:    0.0000
     atom:    3    charge:    3.1198    magn:   -0.0000    constr:    0.0000
     atom:    4    charge:    2.0866    magn:   -0.0001    constr:    0.0000
     atom:    5    charge:    3.1161    magn:   -0.0002    constr:    0.0000
     atom:    6    charge:    2.0792    magn:    0.0022    constr:    0.0000
     atom:    7    charge:    3.1251    magn:   -0.0051    constr:    0.0000
     atom:    8    charge:    2.0794    magn:    0.0248    constr:    0.0000
     atom:    9    charge:    3.1244    magn:   -0.0003    constr:    0.0000
     atom:   10    charge:    2.0900    magn:    0.0003    constr:    0.0000
     atom:   11    charge:    3.1198    magn:   -0.0000    constr:    0.0000
     atom:   12    charge:    2.0869    magn:   -0.0000    constr:    0.0000
     atom:   13    charge:    3.1150    magn:   -0.0002    constr:    0.0000
     atom:   14    charge:    2.0937    magn:    0.0022    constr:    0.0000
     atom:   15    charge:    3.1184    magn:   -0.0008    constr:    0.0000
     atom:   16    charge:    2.0831    magn:    0.0044    constr:    0.0000
     atom:   17    charge:    2.0641    magn:    0.0017    constr:    0.0000
     atom:   18    charge:    3.1240    magn:   -0.0001    constr:    0.0000
     atom:   19    charge:    2.0875    magn:    0.0001    constr:    0.0000
     atom:   20    charge:    2.0848    magn:    0.0002    constr:    0.0000
     atom:   21    charge:    2.0848    magn:    0.0002    constr:    0.0000
     atom:   22    charge:    3.1199    magn:    0.0000    constr:    0.0000
     atom:   23    charge:    2.0904    magn:    0.0003    constr:    0.0000
     atom:   24    charge:    2.0747    magn:   -0.0002    constr:    0.0000
     atom:   25    charge:    2.0866    magn:    0.0000    constr:    0.0000
     atom:   26    charge:    3.1126    magn:   -0.0002    constr:    0.0000
     atom:   27    charge:    2.0801    magn:    0.0024    constr:    0.0000
     atom:   28    charge:    2.0834    magn:    0.0006    constr:    0.0000
     atom:   29    charge:    2.0856    magn:    0.0008    constr:    0.0000
     atom:   30    charge:    3.1172    magn:   -0.0008    constr:    0.0000
     atom:   31    charge:    2.0821    magn:    0.0006    constr:    0.0000
     atom:   32    charge:    2.0833    magn:    0.0061    constr:    0.0000
     atom:   33    charge:    2.0641    magn:    0.0017    constr:    0.0000
     atom:   34    charge:    3.1240    magn:   -0.0001    constr:    0.0000
     atom:   35    charge:    2.0875    magn:    0.0001    constr:    0.0000
     atom:   36    charge:    2.0848    magn:    0.0002    constr:    0.0000
     atom:   37    charge:    2.0848    magn:    0.0002    constr:    0.0000
     atom:   38    charge:    3.1200    magn:    0.0000    constr:    0.0000
     atom:   39    charge:    2.0835    magn:    0.0002    constr:    0.0000
     atom:   40    charge:    2.0749    magn:   -0.0002    constr:    0.0000
     atom:   41    charge:    2.0868    magn:   -0.0000    constr:    0.0000
     atom:   42    charge:    3.1151    magn:   -0.0002    constr:    0.0000
     atom:   43    charge:    2.0802    magn:    0.0030    constr:    0.0000
     atom:   44    charge:    2.0846    magn:    0.0008    constr:    0.0000
     atom:   45    charge:    2.0854    magn:    0.0004    constr:    0.0000
     atom:   46    charge:    3.1148    magn:   -0.0007    constr:    0.0000
     atom:   47    charge:    2.0802    magn:    0.0047    constr:    0.0000
     atom:   48    charge:    2.0838    magn:    0.0137    constr:    0.0000
     atom:   49    charge:    2.0463    magn:    0.2339    constr:    0.0000
     atom:   50    charge:    0.6700    magn:    0.0558    constr:    0.0000
     atom:   51    charge:    0.4222    magn:    0.0012    constr:    0.0000
     atom:   52    charge:    0.4224    magn:    0.0009    constr:    0.0000
     atom:   53    charge:    0.3638    magn:    0.0255    constr:    0.0000
     atom:   54    charge:    0.4228    magn:    0.0008    constr:    0.0000

     total cpu time spent up to now is     1546.9 secs

     total energy              =   -3021.15850451 Ry
     Harris-Foulkes estimate   =   -3021.17250285 Ry
     estimated scf accuracy    <       0.06995800 Ry

     total magnetization       =     1.04 Bohr mag/cell
     absolute magnetization    =     1.21 Bohr mag/cell

     iteration #  4     ecut=    40.42 Ry     beta=0.10
     Davidson diagonalization with overlap
     ethr =  1.76E-05,  avg # of iterations =  7.6

     negative rho (up, down):  1.191E-02 1.197E-02
 
     Magnetic moment per site:
     atom:    1    charge:    3.1244    magn:   -0.0003    constr:    0.0000
     atom:    2    charge:    2.0898    magn:    0.0003    constr:    0.0000
     atom:    3    charge:    3.1198    magn:   -0.0000    constr:    0.0000
     atom:    4    charge:    2.0868    magn:   -0.0001    constr:    0.0000
     atom:    5    charge:    3.1162    magn:   -0.0002    constr:    0.0000
     atom:    6    charge:    2.0788    magn:    0.0022    constr:    0.0000
     atom:    7    charge:    3.1246    magn:   -0.0051    constr:    0.0000
     atom:    8    charge:    2.0793    magn:    0.0249    constr:    0.0000
     atom:    9    charge:    3.1244    magn:   -0.0003    constr:    0.0000
     atom:   10    charge:    2.0899    magn:    0.0003    constr:    0.0000
     atom:   11    charge:    3.1198    magn:   -0.0000    constr:    0.0000
     atom:   12    charge:    2.0871    magn:   -0.0000    constr:    0.0000
     atom:   13    charge:    3.1150    magn:   -0.0001    constr:    0.0000
     atom:   14    charge:    2.0937    magn:    0.0022    constr:    0.0000
     atom:   15    charge:    3.1184    magn:   -0.0008    constr:    0.0000
     atom:   16    charge:    2.0831    magn:    0.0044    constr:    0.0000
     atom:   17    charge:    2.0627    magn:    0.0017    constr:    0.0000
     atom:   18    charge:    3.1240    magn:   -0.0001    constr:    0.0000
     atom:   19    charge:    2.0875    magn:    0.0001    constr:    0.0000
     atom:   20    charge:    2.0848    magn:    0.0002    constr:    0.0000
     atom:   21    charge:    2.0848    magn:    0.0002    constr:    0.0000
     atom:   22    charge:    3.1200    magn:    0.0000    constr:    0.0000
     atom:   23    charge:    2.0908    magn:    0.0003    constr:    0.0000
     atom:   24    charge:    2.0752    magn:   -0.0001    constr:    0.0000
     atom:   25    charge:    2.0868    magn:    0.0000    constr:    0.0000
     atom:   26    charge:    3.1127    magn:   -0.0002    constr:    0.0000
     atom:   27    charge:    2.0799    magn:    0.0025    constr:    0.0000
     atom:   28    charge:    2.0836    magn:    0.0006    constr:    0.0000
     atom:   29    charge:    2.0858    magn:    0.0008    constr:    0.0000
     atom:   30    charge:    3.1171    magn:   -0.0008    constr:    0.0000
     atom:   31    charge:    2.0822    magn:    0.0007    constr:    0.0000
     atom:   32    charge:    2.0833    magn:    0.0061    constr:    0.0000
     atom:   33    charge:    2.0627    magn:    0.0017    constr:    0.0000
     atom:   34    charge:    3.1240    magn:   -0.0001    constr:    0.0000
     atom:   35    charge:    2.0875    magn:    0.0001    constr:    0.0000
     atom:   36    charge:    2.0848    magn:    0.0002    constr:    0.0000
     atom:   37    charge:    2.0848    magn:    0.0002    constr:    0.0000
     atom:   38    charge:    3.1200    magn:    0.0000    constr:    0.0000
     atom:   39    charge:    2.0839    magn:    0.0002    constr:    0.0000
     atom:   40    charge:    2.0755    magn:   -0.0002    constr:    0.0000
     atom:   41    charge:    2.0871    magn:   -0.0000    constr:    0.0000
     atom:   42    charge:    3.1152    magn:   -0.0002    constr:    0.0000
     atom:   43    charge:    2.0800    magn:    0.0030    constr:    0.0000
     atom:   44    charge:    2.0849    magn:    0.0008    constr:    0.0000
     atom:   45    charge:    2.0856    magn:    0.0004    constr:    0.0000
     atom:   46    charge:    3.1148    magn:   -0.0007    constr:    0.0000
     atom:   47    charge:    2.0803    magn:    0.0047    constr:    0.0000
     atom:   48    charge:    2.0839    magn:    0.0138    constr:    0.0000
     atom:   49    charge:    2.0481    magn:    0.2328    constr:    0.0000
     atom:   50    charge:    0.6700    magn:    0.0559    constr:    0.0000
     atom:   51    charge:    0.4222    magn:    0.0012    constr:    0.0000
     atom:   52    charge:    0.4223    magn:    0.0009    constr:    0.0000
     atom:   53    charge:    0.3631    magn:    0.0259    constr:    0.0000
     atom:   54    charge:    0.4227    magn:    0.0008    constr:    0.0000

     total cpu time spent up to now is     1856.6 secs

     total energy              =   -3021.15327657 Ry
     Harris-Foulkes estimate   =   -3021.16448996 Ry
     estimated scf accuracy    <       0.11641913 Ry

     total magnetization       =     1.04 Bohr mag/cell
     absolute magnetization    =     1.21 Bohr mag/cell

     iteration #  5     ecut=    40.42 Ry     beta=0.10
     Davidson diagonalization with overlap
     ethr =  1.76E-05,  avg # of iterations =  1.9

     negative rho (up, down):  1.191E-02 1.198E-02
 
     Magnetic moment per site:
     atom:    1    charge:    3.1246    magn:   -0.0003    constr:    0.0000
     atom:    2    charge:    2.0899    magn:    0.0003    constr:    0.0000
     atom:    3    charge:    3.1198    magn:   -0.0000    constr:    0.0000
     atom:    4    charge:    2.0866    magn:   -0.0001    constr:    0.0000
     atom:    5    charge:    3.1162    magn:   -0.0002    constr:    0.0000
     atom:    6    charge:    2.0788    magn:    0.0023    constr:    0.0000
     atom:    7    charge:    3.1204    magn:   -0.0049    constr:    0.0000
     atom:    8    charge:    2.0790    magn:    0.0255    constr:    0.0000
     atom:    9    charge:    3.1246    magn:   -0.0003    constr:    0.0000
     atom:   10    charge:    2.0900    magn:    0.0003    constr:    0.0000
     atom:   11    charge:    3.1198    magn:   -0.0000    constr:    0.0000
     atom:   12    charge:    2.0870    magn:   -0.0000    constr:    0.0000
     atom:   13    charge:    3.1150    magn:   -0.0001    constr:    0.0000
     atom:   14    charge:    2.0938    magn:    0.0023    constr:    0.0000
     atom:   15    charge:    3.1186    magn:   -0.0008    constr:    0.0000
     atom:   16    charge:    2.0829    magn:    0.0045    constr:    0.0000
     atom:   17    charge:    2.0638    magn:    0.0015    constr:    0.0000
     atom:   18    charge:    3.1239    magn:   -0.0001    constr:    0.0000
     atom:   19    charge:    2.0876    magn:    0.0001    constr:    0.0000
     atom:   20    charge:    2.0848    magn:    0.0001    constr:    0.0000
     atom:   21    charge:    2.0848    magn:    0.0001    constr:    0.0000
     atom:   22    charge:    3.1198    magn:    0.0000    constr:    0.0000
     atom:   23    charge:    2.0908    magn:    0.0003    constr:    0.0000
     atom:   24    charge:    2.0755    magn:   -0.0001    constr:    0.0000
     atom:   25    charge:    2.0866    magn:    0.0000    constr:    0.0000
     atom:   26    charge:    3.1127    magn:   -0.0002    constr:    0.0000
     atom:   27    charge:    2.0798    magn:    0.0025    constr:    0.0000
     atom:   28    charge:    2.0837    magn:    0.0006    constr:    0.0000
     atom:   29    charge:    2.0858    magn:    0.0008    constr:    0.0000
     atom:   30    charge:    3.1170    magn:   -0.0008    constr:    0.0000
     atom:   31    charge:    2.0825    magn:    0.0007    constr:    0.0000
     atom:   32    charge:    2.0830    magn:    0.0061    constr:    0.0000
     atom:   33    charge:    2.0638    magn:    0.0015    constr:    0.0000
     atom:   34    charge:    3.1239    magn:   -0.0001    constr:    0.0000
     atom:   35    charge:    2.0876    magn:    0.0001    constr:    0.0000
     atom:   36    charge:    2.0848    magn:    0.0001    constr:    0.0000
     atom:   37    charge:    2.0848    magn:    0.0001    constr:    0.0000
     atom:   38    charge:    3.1199    magn:    0.0000    constr:    0.0000
     atom:   39    charge:    2.0838    magn:    0.0002    constr:    0.0000
     atom:   40    charge:    2.0757    magn:   -0.0002    constr:    0.0000
     atom:   41    charge:    2.0869    magn:   -0.0000    constr:    0.0000
     atom:   42    charge:    3.1151    magn:   -0.0002    constr:    0.0000
     atom:   43    charge:    2.0800    magn:    0.0031    constr:    0.0000
     atom:   44    charge:    2.0849    magn:    0.0009    constr:    0.0000
     atom:   45    charge:    2.0856    magn:    0.0004    constr:    0.0000
     atom:   46    charge:    3.1147    magn:   -0.0007    constr:    0.0000
     atom:   47    charge:    2.0809    magn:    0.0049    constr:    0.0000
     atom:   48    charge:    2.0840    magn:    0.0142    constr:    0.0000
     atom:   49    charge:    2.0527    magn:    0.2312    constr:    0.0000
     atom:   50    charge:    0.6709    magn:    0.0558    constr:    0.0000
     atom:   51    charge:    0.4222    magn:    0.0012    constr:    0.0000
     atom:   52    charge:    0.4223    magn:    0.0009    constr:    0.0000
     atom:   53    charge:    0.3625    magn:    0.0260    constr:    0.0000
     atom:   54    charge:    0.4227    magn:    0.0008    constr:    0.0000

     total cpu time spent up to now is     2063.7 secs

     total energy              =   -3021.14840272 Ry
     Harris-Foulkes estimate   =   -3021.15708288 Ry
     estimated scf accuracy    <       0.02056203 Ry

     total magnetization       =     1.06 Bohr mag/cell
     absolute magnetization    =     1.22 Bohr mag/cell

     iteration #  6     ecut=    40.42 Ry     beta=0.10
     Davidson diagonalization with overlap
     ethr =  5.17E-06,  avg # of iterations =  7.1

     negative rho (up, down):  1.192E-02 1.199E-02
 
     Magnetic moment per site:
     atom:    1    charge:    3.1245    magn:   -0.0002    constr:    0.0000
     atom:    2    charge:    2.0895    magn:    0.0002    constr:    0.0000
     atom:    3    charge:    3.1198    magn:   -0.0000    constr:    0.0000
     atom:    4    charge:    2.0868    magn:   -0.0001    constr:    0.0000
     atom:    5    charge:    3.1161    magn:   -0.0002    constr:    0.0000
     atom:    6    charge:    2.0793    magn:    0.0023    constr:    0.0000
     atom:    7    charge:    3.1179    magn:   -0.0049    constr:    0.0000
     atom:    8    charge:    2.0789    magn:    0.0260    constr:    0.0000
     atom:    9    charge:    3.1245    magn:   -0.0002    constr:    0.0000
     atom:   10    charge:    2.0897    magn:    0.0003    constr:    0.0000
     atom:   11    charge:    3.1198    magn:   -0.0000    constr:    0.0000
     atom:   12    charge:    2.0871    magn:   -0.0000    constr:    0.0000
     atom:   13    charge:    3.1150    magn:   -0.0001    constr:    0.0000
     atom:   14    charge:    2.0940    magn:    0.0023    constr:    0.0000
     atom:   15    charge:    3.1186    magn:   -0.0008    constr:    0.0000
     atom:   16    charge:    2.0830    magn:    0.0044    constr:    0.0000
     atom:   17    charge:    2.0620    magn:    0.0014    constr:    0.0000
     atom:   18    charge:    3.1240    magn:   -0.0001    constr:    0.0000
     atom:   19    charge:    2.0875    magn:    0.0001    constr:    0.0000
     atom:   20    charge:    2.0847    magn:    0.0001    constr:    0.0000
     atom:   21    charge:    2.0847    magn:    0.0001    constr:    0.0000
     atom:   22    charge:    3.1199    magn:    0.0000    constr:    0.0000
     atom:   23    charge:    2.0910    magn:    0.0003    constr:    0.0000
     atom:   24    charge:    2.0757    magn:   -0.0001    constr:    0.0000
     atom:   25    charge:    2.0868    magn:    0.0000    constr:    0.0000
     atom:   26    charge:    3.1127    magn:   -0.0002    constr:    0.0000
     atom:   27    charge:    2.0801    magn:    0.0026    constr:    0.0000
     atom:   28    charge:    2.0841    magn:    0.0007    constr:    0.0000
     atom:   29    charge:    2.0862    magn:    0.0008    constr:    0.0000
     atom:   30    charge:    3.1170    magn:   -0.0008    constr:    0.0000
     atom:   31    charge:    2.0828    magn:    0.0007    constr:    0.0000
     atom:   32    charge:    2.0830    magn:    0.0061    constr:    0.0000
     atom:   33    charge:    2.0620    magn:    0.0015    constr:    0.0000
     atom:   34    charge:    3.1240    magn:   -0.0001    constr:    0.0000
     atom:   35    charge:    2.0875    magn:    0.0001    constr:    0.0000
     atom:   36    charge:    2.0847    magn:    0.0001    constr:    0.0000
     atom:   37    charge:    2.0847    magn:    0.0001    constr:    0.0000
     atom:   38    charge:    3.1200    magn:    0.0000    constr:    0.0000
     atom:   39    charge:    2.0841    magn:    0.0002    constr:    0.0000
     atom:   40    charge:    2.0760    magn:   -0.0002    constr:    0.0000
     atom:   41    charge:    2.0871    magn:   -0.0000    constr:    0.0000
     atom:   42    charge:    3.1151    magn:   -0.0002    constr:    0.0000
     atom:   43    charge:    2.0802    magn:    0.0031    constr:    0.0000
     atom:   44    charge:    2.0853    magn:    0.0009    constr:    0.0000
     atom:   45    charge:    2.0861    magn:    0.0005    constr:    0.0000
     atom:   46    charge:    3.1147    magn:   -0.0007    constr:    0.0000
     atom:   47    charge:    2.0812    magn:    0.0050    constr:    0.0000
     atom:   48    charge:    2.0839    magn:    0.0145    constr:    0.0000
     atom:   49    charge:    2.0545    magn:    0.2307    constr:    0.0000
     atom:   50    charge:    0.6718    magn:    0.0553    constr:    0.0000
     atom:   51    charge:    0.4222    magn:    0.0012    constr:    0.0000
     atom:   52    charge:    0.4224    magn:    0.0009    constr:    0.0000
     atom:   53    charge:    0.3632    magn:    0.0255    constr:    0.0000
     atom:   54    charge:    0.4227    magn:    0.0007    constr:    0.0000

     total cpu time spent up to now is     2382.2 secs

     total energy              =   -3021.14494158 Ry
     Harris-Foulkes estimate   =   -3021.15246205 Ry
     estimated scf accuracy    <       0.08122267 Ry

     total magnetization       =     1.01 Bohr mag/cell
     absolute magnetization    =     1.18 Bohr mag/cell

     iteration #  7     ecut=    40.42 Ry     beta=0.10
     Davidson diagonalization with overlap
     ethr =  5.17E-06,  avg # of iterations =  6.5

     negative rho (up, down):  1.191E-02 1.198E-02
 
     Magnetic moment per site:
     atom:    1    charge:    3.1244    magn:   -0.0002    constr:    0.0000
     atom:    2    charge:    2.0897    magn:    0.0002    constr:    0.0000
     atom:    3    charge:    3.1198    magn:   -0.0000    constr:    0.0000
     atom:    4    charge:    2.0867    magn:   -0.0001    constr:    0.0000
     atom:    5    charge:    3.1161    magn:   -0.0002    constr:    0.0000
     atom:    6    charge:    2.0798    magn:    0.0024    constr:    0.0000
     atom:    7    charge:    3.1165    magn:   -0.0049    constr:    0.0000
     atom:    8    charge:    2.0791    magn:    0.0264    constr:    0.0000
     atom:    9    charge:    3.1244    magn:   -0.0002    constr:    0.0000
     atom:   10    charge:    2.0898    magn:    0.0002    constr:    0.0000
     atom:   11    charge:    3.1198    magn:   -0.0000    constr:    0.0000
     atom:   12    charge:    2.0870    magn:   -0.0000    constr:    0.0000
     atom:   13    charge:    3.1150    magn:   -0.0001    constr:    0.0000
     atom:   14    charge:    2.0940    magn:    0.0023    constr:    0.0000
     atom:   15    charge:    3.1185    magn:   -0.0008    constr:    0.0000
     atom:   16    charge:    2.0829    magn:    0.0045    constr:    0.0000
     atom:   17    charge:    2.0625    magn:    0.0014    constr:    0.0000
     atom:   18    charge:    3.1240    magn:   -0.0001    constr:    0.0000
     atom:   19    charge:    2.0875    magn:    0.0001    constr:    0.0000
     atom:   20    charge:    2.0847    magn:    0.0001    constr:    0.0000
     atom:   21    charge:    2.0847    magn:    0.0001    constr:    0.0000
     atom:   22    charge:    3.1200    magn:    0.0000    constr:    0.0000
     atom:   23    charge:    2.0908    magn:    0.0003    constr:    0.0000
     atom:   24    charge:    2.0753    magn:   -0.0001    constr:    0.0000
     atom:   25    charge:    2.0867    magn:    0.0000    constr:    0.0000
     atom:   26    charge:    3.1126    magn:   -0.0002    constr:    0.0000
     atom:   27    charge:    2.0804    magn:    0.0026    constr:    0.0000
     atom:   28    charge:    2.0839    magn:    0.0007    constr:    0.0000
     atom:   29    charge:    2.0861    magn:    0.0008    constr:    0.0000
     atom:   30    charge:    3.1171    magn:   -0.0008    constr:    0.0000
     atom:   31    charge:    2.0829    magn:    0.0007    constr:    0.0000
     atom:   32    charge:    2.0830    magn:    0.0062    constr:    0.0000
     atom:   33    charge:    2.0625    magn:    0.0014    constr:    0.0000
     atom:   34    charge:    3.1240    magn:   -0.0001    constr:    0.0000
     atom:   35    charge:    2.0875    magn:    0.0000    constr:    0.0000
     atom:   36    charge:    2.0847    magn:    0.0001    constr:    0.0000
     atom:   37    charge:    2.0847    magn:    0.0001    constr:    0.0000
     atom:   38    charge:    3.1200    magn:    0.0000    constr:    0.0000
     atom:   39    charge:    2.0839    magn:    0.0002    constr:    0.0000
     atom:   40    charge:    2.0756    magn:   -0.0002    constr:    0.0000
     atom:   41    charge:    2.0870    magn:   -0.0000    constr:    0.0000
     atom:   42    charge:    3.1151    magn:   -0.0002    constr:    0.0000
     atom:   43    charge:    2.0803    magn:    0.0032    constr:    0.0000
     atom:   44    charge:    2.0851    magn:    0.0009    constr:    0.0000
     atom:   45    charge:    2.0859    magn:    0.0005    constr:    0.0000
     atom:   46    charge:    3.1147    magn:   -0.0007    constr:    0.0000
     atom:   47    charge:    2.0811    magn:    0.0050    constr:    0.0000
     atom:   48    charge:    2.0837    magn:    0.0148    constr:    0.0000
     atom:   49    charge:    2.0543    magn:    0.2310    constr:    0.0000
     atom:   50    charge:    0.6724    magn:    0.0546    constr:    0.0000
     atom:   51    charge:    0.4221    magn:    0.0011    constr:    0.0000
     atom:   52    charge:    0.4225    magn:    0.0008    constr:    0.0000
     atom:   53    charge:    0.3644    magn:    0.0249    constr:    0.0000
     atom:   54    charge:    0.4228    magn:    0.0007    constr:    0.0000

     total cpu time spent up to now is     2672.0 secs

     total energy              =   -3021.14870495 Ry
     Harris-Foulkes estimate   =   -3021.15050644 Ry
     estimated scf accuracy    <       0.02490601 Ry

     total magnetization       =     1.06 Bohr mag/cell
     absolute magnetization    =     1.22 Bohr mag/cell

     iteration #  8     ecut=    40.42 Ry     beta=0.10
     Davidson diagonalization with overlap
     ethr =  5.17E-06,  avg # of iterations =  1.1

     negative rho (up, down):  1.191E-02 1.198E-02
 
     Magnetic moment per site:
     atom:    1    charge:    3.1244    magn:   -0.0002    constr:    0.0000
     atom:    2    charge:    2.0897    magn:    0.0002    constr:    0.0000
     atom:    3    charge:    3.1198    magn:   -0.0000    constr:    0.0000
     atom:    4    charge:    2.0867    magn:   -0.0001    constr:    0.0000
     atom:    5    charge:    3.1161    magn:   -0.0002    constr:    0.0000
     atom:    6    charge:    2.0798    magn:    0.0024    constr:    0.0000
     atom:    7    charge:    3.1164    magn:   -0.0049    constr:    0.0000
     atom:    8    charge:    2.0791    magn:    0.0267    constr:    0.0000
     atom:    9    charge:    3.1244    magn:   -0.0002    constr:    0.0000
     atom:   10    charge:    2.0898    magn:    0.0002    constr:    0.0000
     atom:   11    charge:    3.1198    magn:   -0.0000    constr:    0.0000
     atom:   12    charge:    2.0870    magn:   -0.0000    constr:    0.0000
     atom:   13    charge:    3.1150    magn:   -0.0002    constr:    0.0000
     atom:   14    charge:    2.0940    magn:    0.0024    constr:    0.0000
     atom:   15    charge:    3.1184    magn:   -0.0008    constr:    0.0000
     atom:   16    charge:    2.0829    magn:    0.0045    constr:    0.0000
     atom:   17    charge:    2.0626    magn:    0.0013    constr:    0.0000
     atom:   18    charge:    3.1240    magn:   -0.0001    constr:    0.0000
     atom:   19    charge:    2.0876    magn:    0.0000    constr:    0.0000
     atom:   20    charge:    2.0847    magn:    0.0001    constr:    0.0000
     atom:   21    charge:    2.0847    magn:    0.0001    constr:    0.0000
     atom:   22    charge:    3.1199    magn:    0.0000    constr:    0.0000
     atom:   23    charge:    2.0907    magn:    0.0003    constr:    0.0000
     atom:   24    charge:    2.0753    magn:   -0.0001    constr:    0.0000
     atom:   25    charge:    2.0867    magn:    0.0000    constr:    0.0000
     atom:   26    charge:    3.1127    magn:   -0.0002    constr:    0.0000
     atom:   27    charge:    2.0804    magn:    0.0026    constr:    0.0000
     atom:   28    charge:    2.0839    magn:    0.0007    constr:    0.0000
     atom:   29    charge:    2.0860    magn:    0.0008    constr:    0.0000
     atom:   30    charge:    3.1171    magn:   -0.0008    constr:    0.0000
     atom:   31    charge:    2.0828    magn:    0.0007    constr:    0.0000
     atom:   32    charge:    2.0829    magn:    0.0062    constr:    0.0000
     atom:   33    charge:    2.0626    magn:    0.0013    constr:    0.0000
     atom:   34    charge:    3.1239    magn:   -0.0001    constr:    0.0000
     atom:   35    charge:    2.0876    magn:    0.0000    constr:    0.0000
     atom:   36    charge:    2.0847    magn:    0.0001    constr:    0.0000
     atom:   37    charge:    2.0847    magn:    0.0001    constr:    0.0000
     atom:   38    charge:    3.1200    magn:    0.0000    constr:    0.0000
     atom:   39    charge:    2.0839    magn:    0.0002    constr:    0.0000
     atom:   40    charge:    2.0755    magn:   -0.0002    constr:    0.0000
     atom:   41    charge:    2.0870    magn:   -0.0000    constr:    0.0000
     atom:   42    charge:    3.1151    magn:   -0.0002    constr:    0.0000
     atom:   43    charge:    2.0803    magn:    0.0032    constr:    0.0000
     atom:   44    charge:    2.0851    magn:    0.0009    constr:    0.0000
     atom:   45    charge:    2.0858    magn:    0.0005    constr:    0.0000
     atom:   46    charge:    3.1147    magn:   -0.0007    constr:    0.0000
     atom:   47    charge:    2.0809    magn:    0.0051    constr:    0.0000
     atom:   48    charge:    2.0836    magn:    0.0150    constr:    0.0000
     atom:   49    charge:    2.0542    magn:    0.2311    constr:    0.0000
     atom:   50    charge:    0.6724    magn:    0.0543    constr:    0.0000
     atom:   51    charge:    0.4220    magn:    0.0010    constr:    0.0000
     atom:   52    charge:    0.4226    magn:    0.0008    constr:    0.0000
     atom:   53    charge:    0.3650    magn:    0.0246    constr:    0.0000
     atom:   54    charge:    0.4229    magn:    0.0007    constr:    0.0000

     total cpu time spent up to now is     2868.0 secs

     total energy              =   -3021.14931877 Ry
     Harris-Foulkes estimate   =   -3021.14939514 Ry
     estimated scf accuracy    <       0.00073705 Ry

     total magnetization       =     1.05 Bohr mag/cell
     absolute magnetization    =     1.22 Bohr mag/cell

     iteration #  9     ecut=    40.42 Ry     beta=0.10
     Davidson diagonalization with overlap
     ethr =  1.85E-07,  avg # of iterations =  5.1

     negative rho (up, down):  1.191E-02 1.198E-02
 
     Magnetic moment per site:
     atom:    1    charge:    3.1244    magn:   -0.0002    constr:    0.0000
     atom:    2    charge:    2.0897    magn:    0.0002    constr:    0.0000
     atom:    3    charge:    3.1198    magn:   -0.0000    constr:    0.0000
     atom:    4    charge:    2.0867    magn:   -0.0001    constr:    0.0000
     atom:    5    charge:    3.1162    magn:   -0.0002    constr:    0.0000
     atom:    6    charge:    2.0796    magn:    0.0024    constr:    0.0000
     atom:    7    charge:    3.1171    magn:   -0.0050    constr:    0.0000
     atom:    8    charge:    2.0792    magn:    0.0271    constr:    0.0000
     atom:    9    charge:    3.1245    magn:   -0.0002    constr:    0.0000
     atom:   10    charge:    2.0898    magn:    0.0002    constr:    0.0000
     atom:   11    charge:    3.1198    magn:   -0.0000    constr:    0.0000
     atom:   12    charge:    2.0870    magn:   -0.0000    constr:    0.0000
     atom:   13    charge:    3.1150    magn:   -0.0002    constr:    0.0000
     atom:   14    charge:    2.0939    magn:    0.0024    constr:    0.0000
     atom:   15    charge:    3.1184    magn:   -0.0008    constr:    0.0000
     atom:   16    charge:    2.0828    magn:    0.0045    constr:    0.0000
     atom:   17    charge:    2.0626    magn:    0.0012    constr:    0.0000
     atom:   18    charge:    3.1239    magn:   -0.0000    constr:    0.0000
     atom:   19    charge:    2.0876    magn:    0.0000    constr:    0.0000
     atom:   20    charge:    2.0847    magn:    0.0001    constr:    0.0000
     atom:   21    charge:    2.0847    magn:    0.0001    constr:    0.0000
     atom:   22    charge:    3.1199    magn:    0.0000    constr:    0.0000
     atom:   23    charge:    2.0908    magn:    0.0003    constr:    0.0000
     atom:   24    charge:    2.0754    magn:   -0.0001    constr:    0.0000
     atom:   25    charge:    2.0867    magn:    0.0000    constr:    0.0000
     atom:   26    charge:    3.1127    magn:   -0.0002    constr:    0.0000
     atom:   27    charge:    2.0802    magn:    0.0027    constr:    0.0000
     atom:   28    charge:    2.0838    magn:    0.0007    constr:    0.0000
     atom:   29    charge:    2.0860    magn:    0.0008    constr:    0.0000
     atom:   30    charge:    3.1171    magn:   -0.0008    constr:    0.0000
     atom:   31    charge:    2.0826    magn:    0.0007    constr:    0.0000
     atom:   32    charge:    2.0829    magn:    0.0062    constr:    0.0000
     atom:   33    charge:    2.0625    magn:    0.0012    constr:    0.0000
     atom:   34    charge:    3.1239    magn:   -0.0000    constr:    0.0000
     atom:   35    charge:    2.0876    magn:    0.0000    constr:    0.0000
     atom:   36    charge:    2.0847    magn:    0.0001    constr:    0.0000
     atom:   37    charge:    2.0847    magn:    0.0001    constr:    0.0000
     atom:   38    charge:    3.1199    magn:    0.0000    constr:    0.0000
     atom:   39    charge:    2.0839    magn:    0.0002    constr:    0.0000
     atom:   40    charge:    2.0756    magn:   -0.0001    constr:    0.0000
     atom:   41    charge:    2.0870    magn:   -0.0000    constr:    0.0000
     atom:   42    charge:    3.1152    magn:   -0.0002    constr:    0.0000
     atom:   43    charge:    2.0802    magn:    0.0033    constr:    0.0000
     atom:   44    charge:    2.0850    magn:    0.0009    constr:    0.0000
     atom:   45    charge:    2.0858    magn:    0.0005    constr:    0.0000
     atom:   46    charge:    3.1147    magn:   -0.0007    constr:    0.0000
     atom:   47    charge:    2.0807    magn:    0.0052    constr:    0.0000
     atom:   48    charge:    2.0836    magn:    0.0152    constr:    0.0000
     atom:   49    charge:    2.0544    magn:    0.2313    constr:    0.0000
     atom:   50    charge:    0.6719    magn:    0.0539    constr:    0.0000
     atom:   51    charge:    0.4220    magn:    0.0010    constr:    0.0000
     atom:   52    charge:    0.4227    magn:    0.0008    constr:    0.0000
     atom:   53    charge:    0.3658    magn:    0.0244    constr:    0.0000
     atom:   54    charge:    0.4230    magn:    0.0006    constr:    0.0000

     total cpu time spent up to now is     3133.5 secs

     total energy              =   -3021.14933663 Ry
     Harris-Foulkes estimate   =   -3021.14936053 Ry
     estimated scf accuracy    <       0.00018004 Ry

     total magnetization       =     1.05 Bohr mag/cell
     absolute magnetization    =     1.21 Bohr mag/cell

     iteration # 10     ecut=    40.42 Ry     beta=0.10
     Davidson diagonalization with overlap
     ethr =  4.52E-08,  avg # of iterations =  2.9

     negative rho (up, down):  1.190E-02 1.197E-02
 
     Magnetic moment per site:
     atom:    1    charge:    3.1244    magn:   -0.0002    constr:    0.0000
     atom:    2    charge:    2.0897    magn:    0.0002    constr:    0.0000
     atom:    3    charge:    3.1198    magn:   -0.0000    constr:    0.0000
     atom:    4    charge:    2.0867    magn:   -0.0001    constr:    0.0000
     atom:    5    charge:    3.1161    magn:   -0.0002    constr:    0.0000
     atom:    6    charge:    2.0795    magn:    0.0024    constr:    0.0000
     atom:    7    charge:    3.1173    magn:   -0.0050    constr:    0.0000
     atom:    8    charge:    2.0793    magn:    0.0275    constr:    0.0000
     atom:    9    charge:    3.1245    magn:   -0.0002    constr:    0.0000
     atom:   10    charge:    2.0898    magn:    0.0002    constr:    0.0000
     atom:   11    charge:    3.1198    magn:   -0.0000    constr:    0.0000
     atom:   12    charge:    2.0870    magn:   -0.0000    constr:    0.0000
     atom:   13    charge:    3.1150    magn:   -0.0002    constr:    0.0000
     atom:   14    charge:    2.0939    magn:    0.0024    constr:    0.0000
     atom:   15    charge:    3.1184    magn:   -0.0008    constr:    0.0000
     atom:   16    charge:    2.0829    magn:    0.0046    constr:    0.0000
     atom:   17    charge:    2.0624    magn:    0.0011    constr:    0.0000
     atom:   18    charge:    3.1239    magn:   -0.0000    constr:    0.0000
     atom:   19    charge:    2.0876    magn:    0.0000    constr:    0.0000
     atom:   20    charge:    2.0847    magn:    0.0001    constr:    0.0000
     atom:   21    charge:    2.0847    magn:    0.0001    constr:    0.0000
     atom:   22    charge:    3.1199    magn:    0.0000    constr:    0.0000
     atom:   23    charge:    2.0908    magn:    0.0003    constr:    0.0000
     atom:   24    charge:    2.0754    magn:   -0.0001    constr:    0.0000
     atom:   25    charge:    2.0867    magn:    0.0000    constr:    0.0000
     atom:   26    charge:    3.1127    magn:   -0.0003    constr:    0.0000
     atom:   27    charge:    2.0802    magn:    0.0027    constr:    0.0000
     atom:   28    charge:    2.0839    magn:    0.0007    constr:    0.0000
     atom:   29    charge:    2.0860    magn:    0.0009    constr:    0.0000
     atom:   30    charge:    3.1171    magn:   -0.0008    constr:    0.0000
     atom:   31    charge:    2.0825    magn:    0.0007    constr:    0.0000
     atom:   32    charge:    2.0830    magn:    0.0063    constr:    0.0000
     atom:   33    charge:    2.0624    magn:    0.0011    constr:    0.0000
     atom:   34    charge:    3.1239    magn:   -0.0000    constr:    0.0000
     atom:   35    charge:    2.0876    magn:    0.0000    constr:    0.0000
     atom:   36    charge:    2.0847    magn:    0.0001    constr:    0.0000
     atom:   37    charge:    2.0847    magn:    0.0001    constr:    0.0000
     atom:   38    charge:    3.1200    magn:    0.0000    constr:    0.0000
     atom:   39    charge:    2.0839    magn:    0.0002    constr:    0.0000
     atom:   40    charge:    2.0756    magn:   -0.0001    constr:    0.0000
     atom:   41    charge:    2.0870    magn:   -0.0000    constr:    0.0000
     atom:   42    charge:    3.1151    magn:   -0.0002    constr:    0.0000
     atom:   43    charge:    2.0802    magn:    0.0034    constr:    0.0000
     atom:   44    charge:    2.0851    magn:    0.0009    constr:    0.0000
     atom:   45    charge:    2.0858    magn:    0.0005    constr:    0.0000
     atom:   46    charge:    3.1147    magn:   -0.0007    constr:    0.0000
     atom:   47    charge:    2.0806    magn:    0.0052    constr:    0.0000
     atom:   48    charge:    2.0837    magn:    0.0155    constr:    0.0000
     atom:   49    charge:    2.0548    magn:    0.2314    constr:    0.0000
     atom:   50    charge:    0.6714    magn:    0.0534    constr:    0.0000
     atom:   51    charge:    0.4219    magn:    0.0009    constr:    0.0000
     atom:   52    charge:    0.4228    magn:    0.0008    constr:    0.0000
     atom:   53    charge:    0.3666    magn:    0.0241    constr:    0.0000
     atom:   54    charge:    0.4231    magn:    0.0006    constr:    0.0000

     total cpu time spent up to now is     3359.5 secs

     total energy              =   -3021.14932606 Ry
     Harris-Foulkes estimate   =   -3021.14934785 Ry
     estimated scf accuracy    <       0.00023073 Ry

     total magnetization       =     1.05 Bohr mag/cell
     absolute magnetization    =     1.21 Bohr mag/cell

     iteration # 11     ecut=    40.42 Ry     beta=0.10
     Davidson diagonalization with overlap
     ethr =  4.52E-08,  avg # of iterations =  2.8

     negative rho (up, down):  1.190E-02 1.197E-02
 
     Magnetic moment per site:
     atom:    1    charge:    3.1244    magn:   -0.0002    constr:    0.0000
     atom:    2    charge:    2.0897    magn:    0.0002    constr:    0.0000
     atom:    3    charge:    3.1198    magn:   -0.0000    constr:    0.0000
     atom:    4    charge:    2.0867    magn:   -0.0001    constr:    0.0000
     atom:    5    charge:    3.1161    magn:   -0.0003    constr:    0.0000
     atom:    6    charge:    2.0794    magn:    0.0024    constr:    0.0000
     atom:    7    charge:    3.1176    magn:   -0.0050    constr:    0.0000
     atom:    8    charge:    2.0793    magn:    0.0277    constr:    0.0000
     atom:    9    charge:    3.1244    magn:   -0.0002    constr:    0.0000
     atom:   10    charge:    2.0898    magn:    0.0002    constr:    0.0000
     atom:   11    charge:    3.1198    magn:   -0.0000    constr:    0.0000
     atom:   12    charge:    2.0870    magn:   -0.0000    constr:    0.0000
     atom:   13    charge:    3.1150    magn:   -0.0002    constr:    0.0000
     atom:   14    charge:    2.0938    magn:    0.0024    constr:    0.0000
     atom:   15    charge:    3.1184    magn:   -0.0008    constr:    0.0000
     atom:   16    charge:    2.0829    magn:    0.0046    constr:    0.0000
     atom:   17    charge:    2.0625    magn:    0.0010    constr:    0.0000
     atom:   18    charge:    3.1239    magn:   -0.0000    constr:    0.0000
     atom:   19    charge:    2.0876    magn:    0.0000    constr:    0.0000
     atom:   20    charge:    2.0847    magn:    0.0001    constr:    0.0000
     atom:   21    charge:    2.0847    magn:    0.0001    constr:    0.0000
     atom:   22    charge:    3.1199    magn:    0.0000    constr:    0.0000
     atom:   23    charge:    2.0908    magn:    0.0003    constr:    0.0000
     atom:   24    charge:    2.0754    magn:   -0.0000    constr:    0.0000
     atom:   25    charge:    2.0867    magn:    0.0000    constr:    0.0000
     atom:   26    charge:    3.1127    magn:   -0.0003    constr:    0.0000
     atom:   27    charge:    2.0802    magn:    0.0028    constr:    0.0000
     atom:   28    charge:    2.0839    magn:    0.0008    constr:    0.0000
     atom:   29    charge:    2.0860    magn:    0.0009    constr:    0.0000
     atom:   30    charge:    3.1171    magn:   -0.0008    constr:    0.0000
     atom:   31    charge:    2.0825    magn:    0.0007    constr:    0.0000
     atom:   32    charge:    2.0830    magn:    0.0063    constr:    0.0000
     atom:   33    charge:    2.0624    magn:    0.0010    constr:    0.0000
     atom:   34    charge:    3.1239    magn:   -0.0000    constr:    0.0000
     atom:   35    charge:    2.0876    magn:    0.0000    constr:    0.0000
     atom:   36    charge:    2.0847    magn:    0.0001    constr:    0.0000
     atom:   37    charge:    2.0847    magn:    0.0001    constr:    0.0000
     atom:   38    charge:    3.1200    magn:    0.0000    constr:    0.0000
     atom:   39    charge:    2.0839    magn:    0.0002    constr:    0.0000
     atom:   40    charge:    2.0756    magn:   -0.0001    constr:    0.0000
     atom:   41    charge:    2.0870    magn:   -0.0000    constr:    0.0000
     atom:   42    charge:    3.1151    magn:   -0.0002    constr:    0.0000
     atom:   43    charge:    2.0802    magn:    0.0034    constr:    0.0000
     atom:   44    charge:    2.0850    magn:    0.0010    constr:    0.0000
     atom:   45    charge:    2.0858    magn:    0.0005    constr:    0.0000
     atom:   46    charge:    3.1147    magn:   -0.0007    constr:    0.0000
     atom:   47    charge:    2.0806    magn:    0.0053    constr:    0.0000
     atom:   48    charge:    2.0837    magn:    0.0156    constr:    0.0000
     atom:   49    charge:    2.0550    magn:    0.2315    constr:    0.0000
     atom:   50    charge:    0.6711    magn:    0.0532    constr:    0.0000
     atom:   51    charge:    0.4219    magn:    0.0009    constr:    0.0000
     atom:   52    charge:    0.4228    magn:    0.0008    constr:    0.0000
     atom:   53    charge:    0.3668    magn:    0.0241    constr:    0.0000
     atom:   54    charge:    0.4232    magn:    0.0007    constr:    0.0000

     total cpu time spent up to now is     3583.6 secs

     total energy              =   -3021.14933819 Ry
     Harris-Foulkes estimate   =   -3021.14934906 Ry
     estimated scf accuracy    <       0.00017606 Ry

     total magnetization       =     1.05 Bohr mag/cell
     absolute magnetization    =     1.22 Bohr mag/cell

     iteration # 12     ecut=    40.42 Ry     beta=0.10
     Davidson diagonalization with overlap
     ethr =  4.42E-08,  avg # of iterations =  1.1

     negative rho (up, down):  1.190E-02 1.197E-02
 
     Magnetic moment per site:
     atom:    1    charge:    3.1244    magn:   -0.0002    constr:    0.0000
     atom:    2    charge:    2.0897    magn:    0.0001    constr:    0.0000
     atom:    3    charge:    3.1198    magn:   -0.0000    constr:    0.0000
     atom:    4    charge:    2.0867    magn:   -0.0001    constr:    0.0000
     atom:    5    charge:    3.1161    magn:   -0.0003    constr:    0.0000
     atom:    6    charge:    2.0795    magn:    0.0024    constr:    0.0000
     atom:    7    charge:    3.1177    magn:   -0.0050    constr:    0.0000
     atom:    8    charge:    2.0793    magn:    0.0279    constr:    0.0000
     atom:    9    charge:    3.1244    magn:   -0.0002    constr:    0.0000
     atom:   10    charge:    2.0898    magn:    0.0002    constr:    0.0000
     atom:   11    charge:    3.1198    magn:   -0.0000    constr:    0.0000
     atom:   12    charge:    2.0870    magn:   -0.0000    constr:    0.0000
     atom:   13    charge:    3.1150    magn:   -0.0002    constr:    0.0000
     atom:   14    charge:    2.0939    magn:    0.0024    constr:    0.0000
     atom:   15    charge:    3.1184    magn:   -0.0008    constr:    0.0000
     atom:   16    charge:    2.0829    magn:    0.0046    constr:    0.0000
     atom:   17    charge:    2.0624    magn:    0.0010    constr:    0.0000
     atom:   18    charge:    3.1240    magn:   -0.0000    constr:    0.0000
     atom:   19    charge:    2.0875    magn:    0.0000    constr:    0.0000
     atom:   20    charge:    2.0847    magn:    0.0001    constr:    0.0000
     atom:   21    charge:    2.0847    magn:    0.0001    constr:    0.0000
     atom:   22    charge:    3.1199    magn:    0.0000    constr:    0.0000
     atom:   23    charge:    2.0908    magn:    0.0003    constr:    0.0000
     atom:   24    charge:    2.0754    magn:   -0.0000    constr:    0.0000
     atom:   25    charge:    2.0867    magn:    0.0000    constr:    0.0000
     atom:   26    charge:    3.1127    magn:   -0.0003    constr:    0.0000
     atom:   27    charge:    2.0802    magn:    0.0028    constr:    0.0000
     atom:   28    charge:    2.0839    magn:    0.0008    constr:    0.0000
     atom:   29    charge:    2.0860    magn:    0.0009    constr:    0.0000
     atom:   30    charge:    3.1171    magn:   -0.0009    constr:    0.0000
     atom:   31    charge:    2.0825    magn:    0.0007    constr:    0.0000
     atom:   32    charge:    2.0830    magn:    0.0063    constr:    0.0000
     atom:   33    charge:    2.0624    magn:    0.0010    constr:    0.0000
     atom:   34    charge:    3.1239    magn:   -0.0000    constr:    0.0000
     atom:   35    charge:    2.0875    magn:    0.0000    constr:    0.0000
     atom:   36    charge:    2.0847    magn:    0.0001    constr:    0.0000
     atom:   37    charge:    2.0847    magn:    0.0001    constr:    0.0000
     atom:   38    charge:    3.1200    magn:    0.0000    constr:    0.0000
     atom:   39    charge:    2.0839    magn:    0.0002    constr:    0.0000
     atom:   40    charge:    2.0756    magn:   -0.0001    constr:    0.0000
     atom:   41    charge:    2.0870    magn:   -0.0000    constr:    0.0000
     atom:   42    charge:    3.1151    magn:   -0.0002    constr:    0.0000
     atom:   43    charge:    2.0802    magn:    0.0034    constr:    0.0000
     atom:   44    charge:    2.0851    magn:    0.0010    constr:    0.0000
     atom:   45    charge:    2.0858    magn:    0.0006    constr:    0.0000
     atom:   46    charge:    3.1147    magn:   -0.0008    constr:    0.0000
     atom:   47    charge:    2.0806    magn:    0.0053    constr:    0.0000
     atom:   48    charge:    2.0838    magn:    0.0157    constr:    0.0000
     atom:   49    charge:    2.0551    magn:    0.2316    constr:    0.0000
     atom:   50    charge:    0.6711    magn:    0.0531    constr:    0.0000
     atom:   51    charge:    0.4220    magn:    0.0009    constr:    0.0000
     atom:   52    charge:    0.4228    magn:    0.0008    constr:    0.0000
     atom:   53    charge:    0.3669    magn:    0.0240    constr:    0.0000
     atom:   54    charge:    0.4232    magn:    0.0007    constr:    0.0000

     total cpu time spent up to now is     3779.0 secs

     total energy              =   -3021.14934629 Ry
     Harris-Foulkes estimate   =   -3021.14934882 Ry
     estimated scf accuracy    <       0.00004959 Ry

     total magnetization       =     1.05 Bohr mag/cell
     absolute magnetization    =     1.22 Bohr mag/cell

     iteration # 13     ecut=    40.42 Ry     beta=0.10
     Davidson diagonalization with overlap
     ethr =  1.25E-08,  avg # of iterations =  2.8

     negative rho (up, down):  1.190E-02 1.197E-02
 
     Magnetic moment per site:
     atom:    1    charge:    3.1244    magn:   -0.0001    constr:    0.0000
     atom:    2    charge:    2.0897    magn:    0.0001    constr:    0.0000
     atom:    3    charge:    3.1198    magn:   -0.0000    constr:    0.0000
     atom:    4    charge:    2.0867    magn:   -0.0001    constr:    0.0000
     atom:    5    charge:    3.1161    magn:   -0.0003    constr:    0.0000
     atom:    6    charge:    2.0795    magn:    0.0025    constr:    0.0000
     atom:    7    charge:    3.1178    magn:   -0.0050    constr:    0.0000
     atom:    8    charge:    2.0793    magn:    0.0280    constr:    0.0000
     atom:    9    charge:    3.1244    magn:   -0.0001    constr:    0.0000
     atom:   10    charge:    2.0898    magn:    0.0001    constr:    0.0000
     atom:   11    charge:    3.1198    magn:   -0.0000    constr:    0.0000
     atom:   12    charge:    2.0870    magn:   -0.0000    constr:    0.0000
     atom:   13    charge:    3.1150    magn:   -0.0002    constr:    0.0000
     atom:   14    charge:    2.0939    magn:    0.0025    constr:    0.0000
     atom:   15    charge:    3.1184    magn:   -0.0008    constr:    0.0000
     atom:   16    charge:    2.0829    magn:    0.0046    constr:    0.0000
     atom:   17    charge:    2.0625    magn:    0.0009    constr:    0.0000
     atom:   18    charge:    3.1239    magn:   -0.0000    constr:    0.0000
     atom:   19    charge:    2.0875    magn:    0.0000    constr:    0.0000
     atom:   20    charge:    2.0847    magn:    0.0001    constr:    0.0000
     atom:   21    charge:    2.0847    magn:    0.0001    constr:    0.0000
     atom:   22    charge:    3.1199    magn:    0.0000    constr:    0.0000
     atom:   23    charge:    2.0908    magn:    0.0003    constr:    0.0000
     atom:   24    charge:    2.0754    magn:   -0.0000    constr:    0.0000
     atom:   25    charge:    2.0867    magn:    0.0000    constr:    0.0000
     atom:   26    charge:    3.1127    magn:   -0.0003    constr:    0.0000
     atom:   27    charge:    2.0802    magn:    0.0028    constr:    0.0000
     atom:   28    charge:    2.0839    magn:    0.0008    constr:    0.0000
     atom:   29    charge:    2.0860    magn:    0.0009    constr:    0.0000
     atom:   30    charge:    3.1171    magn:   -0.0009    constr:    0.0000
     atom:   31    charge:    2.0826    magn:    0.0007    constr:    0.0000
     atom:   32    charge:    2.0830    magn:    0.0064    constr:    0.0000
     atom:   33    charge:    2.0624    magn:    0.0009    constr:    0.0000
     atom:   34    charge:    3.1239    magn:   -0.0000    constr:    0.0000
     atom:   35    charge:    2.0875    magn:    0.0000    constr:    0.0000
     atom:   36    charge:    2.0847    magn:    0.0001    constr:    0.0000
     atom:   37    charge:    2.0847    magn:    0.0001    constr:    0.0000
     atom:   38    charge:    3.1200    magn:    0.0000    constr:    0.0000
     atom:   39    charge:    2.0839    magn:    0.0002    constr:    0.0000
     atom:   40    charge:    2.0756    magn:   -0.0001    constr:    0.0000
     atom:   41    charge:    2.0870    magn:   -0.0000    constr:    0.0000
     atom:   42    charge:    3.1151    magn:   -0.0003    constr:    0.0000
     atom:   43    charge:    2.0802    magn:    0.0035    constr:    0.0000
     atom:   44    charge:    2.0851    magn:    0.0010    constr:    0.0000
     atom:   45    charge:    2.0858    magn:    0.0006    constr:    0.0000
     atom:   46    charge:    3.1147    magn:   -0.0008    constr:    0.0000
     atom:   47    charge:    2.0806    magn:    0.0054    constr:    0.0000
     atom:   48    charge:    2.0838    magn:    0.0158    constr:    0.0000
     atom:   49    charge:    2.0552    magn:    0.2317    constr:    0.0000
     atom:   50    charge:    0.6711    magn:    0.0530    constr:    0.0000
     atom:   51    charge:    0.4220    magn:    0.0009    constr:    0.0000
     atom:   52    charge:    0.4227    magn:    0.0009    constr:    0.0000
     atom:   53    charge:    0.3669    magn:    0.0240    constr:    0.0000
     atom:   54    charge:    0.4232    magn:    0.0007    constr:    0.0000

     total cpu time spent up to now is     4002.7 secs

     total energy              =   -3021.14934999 Ry
     Harris-Foulkes estimate   =   -3021.14935178 Ry
     estimated scf accuracy    <       0.00005200 Ry

     total magnetization       =     1.05 Bohr mag/cell
     absolute magnetization    =     1.22 Bohr mag/cell

     iteration # 14     ecut=    40.42 Ry     beta=0.10
     Davidson diagonalization with overlap
     ethr =  1.25E-08,  avg # of iterations =  1.0

     negative rho (up, down):  1.190E-02 1.197E-02
 
     Magnetic moment per site:
     atom:    1    charge:    3.1244    magn:   -0.0001    constr:    0.0000
     atom:    2    charge:    2.0897    magn:    0.0001    constr:    0.0000
     atom:    3    charge:    3.1198    magn:   -0.0000    constr:    0.0000
     atom:    4    charge:    2.0867    magn:   -0.0001    constr:    0.0000
     atom:    5    charge:    3.1161    magn:   -0.0003    constr:    0.0000
     atom:    6    charge:    2.0795    magn:    0.0025    constr:    0.0000
     atom:    7    charge:    3.1179    magn:   -0.0051    constr:    0.0000
     atom:    8    charge:    2.0793    magn:    0.0283    constr:    0.0000
     atom:    9    charge:    3.1244    magn:   -0.0001    constr:    0.0000
     atom:   10    charge:    2.0898    magn:    0.0001    constr:    0.0000
     atom:   11    charge:    3.1198    magn:   -0.0000    constr:    0.0000
     atom:   12    charge:    2.0871    magn:   -0.0000    constr:    0.0000
     atom:   13    charge:    3.1150    magn:   -0.0002    constr:    0.0000
     atom:   14    charge:    2.0939    magn:    0.0025    constr:    0.0000
     atom:   15    charge:    3.1184    magn:   -0.0009    constr:    0.0000
     atom:   16    charge:    2.0829    magn:    0.0046    constr:    0.0000
     atom:   17    charge:    2.0624    magn:    0.0008    constr:    0.0000
     atom:   18    charge:    3.1240    magn:   -0.0000    constr:    0.0000
     atom:   19    charge:    2.0875    magn:    0.0000    constr:    0.0000
     atom:   20    charge:    2.0847    magn:    0.0001    constr:    0.0000
[...]
    -1.7215  -1.5179  -1.4614  -1.4498  -1.4332  -1.3958  -1.3287  -1.1484
    -1.1393  -1.0845  -1.0612  -1.0447  -0.9689  -0.9013  -0.8724  -0.7833
    -0.7315  -0.7244  -0.6973  -0.6662  -0.6017  -0.5712  -0.5601   0.1906
     1.6045   1.6079   1.6205   1.6259   1.9683   1.9691   2.0980   2.0990
     2.2846   2.3045   2.3177   2.3988   2.4258   2.4926   2.5836   2.6385
     2.6596   2.7050   2.7902   2.8209   2.9071   2.9407   2.9625   2.9816
     3.0014   3.0066   3.0438   3.1028   3.1266   3.2130   3.2390   3.2477
     3.2634   3.2901   3.3468   3.3930   3.4069   3.4121   3.4770   3.4846
     3.4959   3.5220   3.5541   3.6189   3.6693   3.7187   3.7998   3.8867
     3.9319   3.9659   4.1433   4.1437   4.6137   4.6230   4.6456   4.7332
     4.8992   4.9093   4.9800   5.0948   5.1654   5.1697   5.1902   5.5824
     5.6782   5.6868   5.6993   5.9295   5.9349   5.9874   6.0209   6.0249
     6.1071   6.1142   6.1822   6.2693   6.2808   6.2863   6.3877   6.4710
     6.5087   6.6162   7.0630   7.2224   7.3265   7.3873   7.5517   7.5867
     7.7127   7.7657   7.9186   8.1058   8.2933   8.3373   8.4483   8.8642
     9.0087   9.0632   9.2111

          k =-0.0253 0.0280 0.0000 ( 34687 PWs)   bands (ev):

   -58.3009 -58.2705 -57.3827 -57.3778 -57.3485 -57.3093 -57.2558 -57.0780
   -57.0599 -57.0551 -57.0205 -56.9175 -56.8870 -56.8336 -56.7936 -56.7604
   -34.7233 -34.5699 -34.5450 -34.5028 -34.4212 -34.3850 -33.8547 -33.8439
   -33.7271 -33.6623 -33.6283 -33.5887 -33.5633 -33.5492 -33.5458 -33.5364
   -33.5263 -33.5161 -33.5146 -33.4943 -33.4845 -33.4636 -33.4508 -33.4230
   -33.3300 -33.3232 -33.3142 -33.3072 -33.2999 -33.2967 -33.2781 -33.2599
   -33.2475 -33.2362 -33.2351 -33.2264 -33.2000 -33.1671 -33.1325 -33.0937
   -33.0709 -33.0621 -33.0547 -33.0216 -33.0059 -32.9901 -32.9742 -32.9060
   -18.3662 -17.9358 -17.7717 -17.7268 -17.5187 -17.5110 -17.3644 -17.3625
   -17.3359 -17.3093 -17.1063 -17.0630 -16.9789 -16.9331 -16.8682 -16.8229
   -16.7855 -16.7293 -16.7272 -16.6646 -16.6562 -16.5600 -16.5379 -16.4806
   -16.4562 -16.4004 -16.3536 -16.3310 -16.1497 -16.1145 -15.9257 -15.6086
   -15.5600 -10.8014  -5.8370  -5.3051  -5.1391  -5.1188  -4.9895  -4.9469
    -4.9092  -4.8031  -4.6942  -4.6724  -4.6317  -4.5308  -4.4936  -4.4362
    -4.4028  -4.3089  -4.2844  -4.2450  -4.1926  -4.1745  -4.1329  -4.1218
    -4.0879  -4.0459  -4.0090  -3.9869  -3.9467  -3.9028  -3.8710  -3.7906
    -3.7749  -3.7194  -3.6770  -3.6188  -3.5923  -3.5806  -3.4964  -3.3863
    -3.3380  -3.3161  -3.2824  -3.2570  -3.2177  -3.1751  -3.1077  -3.0921
    -2.9154  -2.8783  -2.8174  -2.7734  -2.7188  -2.6825  -2.6718  -2.6134
    -2.5825  -2.5045  -2.4957  -2.4374  -2.4085  -2.3494  -2.2803  -2.2555
    -2.2110  -2.1878  -2.1011  -2.0365  -1.9612  -1.9366  -1.9158  -1.8441
    -1.8352  -1.7866  -1.7343  -1.6873  -1.6301  -1.5904  -1.5579  -1.5071
    -1.4734  -1.4307  -1.4022  -1.3772  -1.3562  -1.3391  -1.3068  -1.2860
    -1.1991  -1.1255  -1.0917  -1.0069  -0.9830  -0.9502  -0.9237  -0.8810
    -0.8386  -0.8121  -0.6274  -0.6067  -0.5810  -0.5187  -0.2612   0.2122
     1.1564   1.2500   1.4340   1.8233   1.8627   1.9299   1.9664   2.0342
     2.0458   2.1958   2.3091   2.3531   2.3927   2.4513   2.4713   2.5137
     2.5315   2.5555   2.5958   2.6573   2.7099   2.7273   2.7959   2.8372
     2.8840   2.9221   2.9423   2.9946   3.0016   3.0275   3.0517   3.1046
     3.1769   3.2000   3.2404   3.2753   3.3212   3.3626   3.4357   3.4772
     3.5112   3.5712   3.6217   3.6564   3.7018   3.7639   3.8745   3.8998
     4.0235   4.2378   4.3044   4.4403   4.6324   4.7298   4.8552   4.8751
     5.0137   5.0446   5.1322   5.2120   5.2648   5.4191   5.4658   5.5550
     5.6729   5.7030   5.7187   5.8236   5.8616   5.8895   5.9265   5.9459
     5.9747   6.0047   6.0830   6.1288   6.1909   6.2985   6.4042   6.4559
     6.4737   6.5886   6.7569   6.8145   7.3758   7.4872   7.7885   7.8868
     8.0883   8.2266   8.4879   8.5309   8.7808   8.8899   9.0761   9.3077
     9.3736   9.5273   9.6112

          k =-0.0253 0.0560 0.0000 ( 34699 PWs)   bands (ev):

   -58.2945 -58.2770 -57.3793 -57.3726 -57.3549 -57.3116 -57.2551 -57.0777
   -57.0601 -57.0506 -57.0255 -56.9111 -56.8935 -56.8340 -56.7869 -56.7672
   -34.6534 -34.5646 -34.5502 -34.4858 -34.4582 -34.4387 -33.7849 -33.7747
   -33.6766 -33.6470 -33.6115 -33.5879 -33.5838 -33.5823 -33.5712 -33.5648
   -33.5383 -33.5257 -33.5149 -33.4884 -33.4792 -33.4549 -33.4511 -33.3913
   -33.3643 -33.3183 -33.3163 -33.2944 -33.2802 -33.2706 -33.2549 -33.2537
   -33.2526 -33.2445 -33.2412 -33.2264 -33.2134 -33.1656 -33.1162 -33.1099
   -33.0862 -33.0714 -33.0679 -33.0481 -33.0216 -33.0068 -33.0011 -32.9765
   -18.2085 -17.7986 -17.7755 -17.6053 -17.5968 -17.4521 -17.3898 -17.3651
   -17.2428 -17.2326 -17.1913 -17.0536 -16.9435 -16.9147 -16.8769 -16.8271
   -16.7885 -16.7397 -16.7283 -16.7121 -16.6758 -16.5759 -16.5439 -16.5273
   -16.4951 -16.4330 -16.4058 -16.3885 -16.2102 -16.1957 -15.9247 -15.6374
   -15.6138 -10.8031  -5.6018  -5.0778  -5.0207  -4.9518  -4.9182  -4.8138
    -4.7917  -4.7532  -4.6834  -4.6540  -4.5220  -4.5032  -4.4414  -4.3911
    -4.3735  -4.3645  -4.3165  -4.2722  -4.2461  -4.2358  -4.1994  -4.1670
    -4.1228  -4.1130  -4.0504  -4.0183  -3.9797  -3.9515  -3.9212  -3.8826
    -3.8218  -3.7857  -3.6916  -3.6030  -3.5763  -3.5306  -3.4536  -3.3784
    -3.3596  -3.2794  -3.1816  -3.1549  -3.1152  -3.1074  -3.0543  -3.0202
    -2.9776  -2.9229  -2.8404  -2.7896  -2.7589  -2.6980  -2.6064  -2.5910
    -2.5193  -2.5037  -2.4537  -2.3860  -2.3705  -2.3163  -2.2958  -2.2518
    -2.1864  -2.1327  -2.1175  -2.0832  -2.0482  -2.0007  -1.9801  -1.9465
    -1.9263  -1.9016  -1.8890  -1.8402  -1.7633  -1.6966  -1.6841  -1.5869
    -1.5674  -1.5412  -1.5139  -1.4781  -1.4397  -1.4082  -1.3780  -1.3235
    -1.2856  -1.2179  -1.1536  -1.0477  -1.0089  -0.9674  -0.9334  -0.8533
    -0.7665  -0.7251  -0.7017  -0.6369  -0.6062  -0.5524  -0.3583   0.1933
     1.2907   1.4726   1.5679   1.7619   1.7773   1.9156   1.9823   2.0627
     2.2690   2.2801   2.3494   2.3851   2.4235   2.4938   2.5303   2.5638
     2.5796   2.6114   2.6707   2.7198   2.7268   2.7734   2.8155   2.8776
     2.8905   2.9308   2.9748   3.0161   3.0390   3.0526   3.0614   3.1188
     3.1664   3.2050   3.2236   3.3039   3.3260   3.3547   3.3945   3.4630
     3.5213   3.5494   3.6258   3.6891   3.7261   3.7445   3.7785   3.8248
     3.9064   4.1292   4.4108   4.5048   4.7218   4.8650   4.9145   4.9774
     5.0046   5.1144   5.2011   5.2302   5.3637   5.4361   5.4569   5.5336
     5.5697   5.6309   5.6701   5.7202   5.7497   5.8119   5.8260   5.8782
     5.9372   5.9555   5.9991   6.1010   6.1420   6.2248   6.3417   6.4368
     6.4614   6.4830   6.7263   6.7720   7.0715   7.2867   7.6690   7.8253
     8.0909   8.2306   8.3173   8.4902   8.7690   8.8940   9.0087   9.1810
     9.3723   9.5519   9.6458

          k =-0.0506 0.0280 0.0000 ( 34685 PWs)   bands (ev):

   -58.3009 -58.2705 -57.3817 -57.3787 -57.3485 -57.3093 -57.2558 -57.0780
   -57.0593 -57.0556 -57.0205 -56.9175 -56.8870 -56.8335 -56.7937 -56.7604
   -34.7241 -34.5699 -34.5450 -34.5012 -34.4212 -34.3851 -33.8552 -33.8479
   -33.7274 -33.6427 -33.6281 -33.5888 -33.5685 -33.5510 -33.5498 -33.5419
   -33.5265 -33.5235 -33.5135 -33.4942 -33.4846 -33.4516 -33.4510 -33.4248
   -33.3302 -33.3157 -33.3140 -33.3094 -33.2996 -33.2909 -33.2779 -33.2619
   -33.2569 -33.2352 -33.2351 -33.2295 -33.1994 -33.1673 -33.1325 -33.0874
   -33.0709 -33.0614 -33.0547 -33.0313 -33.0050 -32.9900 -32.9743 -32.9060
   -18.2579 -17.8598 -17.8457 -17.6952 -17.5823 -17.4513 -17.4327 -17.3401
   -17.3106 -17.2341 -17.1757 -17.0796 -16.9898 -16.9469 -16.9170 -16.8857
   -16.7877 -16.7625 -16.7512 -16.6918 -16.6281 -16.5448 -16.4990 -16.4844
   -16.4552 -16.4013 -16.3728 -16.3438 -16.1457 -16.1149 -15.9267 -15.6068
   -15.5601 -10.8012  -5.5357  -5.1827  -5.1498  -5.1137  -4.9445  -4.8652
    -4.7630  -4.7047  -4.6767  -4.6481  -4.5946  -4.5763  -4.5190  -4.4025
    -4.3550  -4.3080  -4.2364  -4.2104  -4.1743  -4.1600  -4.1429  -4.0522
    -4.0356  -4.0079  -3.9699  -3.9246  -3.8805  -3.8307  -3.8073  -3.7732
    -3.7088  -3.6651  -3.6353  -3.5896  -3.5765  -3.5157  -3.4823  -3.4511
    -3.3753  -3.3629  -3.2966  -3.2609  -3.1998  -3.1404  -3.1087  -3.0515
    -3.0017  -2.9734  -2.8968  -2.8311  -2.7519  -2.6931  -2.6849  -2.6607
    -2.6130  -2.5898  -2.5741  -2.5177  -2.5048  -2.3977  -2.3350  -2.3266
    -2.2656  -2.2001  -2.1810  -2.1551  -2.0768  -2.0123  -2.0004  -1.9420
    -1.9200  -1.8842  -1.8104  -1.7201  -1.7040  -1.6807  -1.6116  -1.5809
    -1.5192  -1.4774  -1.4537  -1.3889  -1.3748  -1.3232  -1.3054  -1.2544
    -1.2394  -1.1146  -1.0547  -1.0342  -1.0070  -0.9519  -0.9315  -0.8734
    -0.8207  -0.7909  -0.7234  -0.6783  -0.6571  -0.5327  -0.3872   0.1954
     1.1433   1.3432   1.4684   1.5692   1.9373   1.9474   1.9696   2.0615
     2.1288   2.2050   2.2604   2.3373   2.4167   2.4449   2.5325   2.5530
     2.5966   2.6734   2.7040   2.7113   2.7622   2.8338   2.8572   2.8864
     2.9484   2.9583   2.9888   3.0007   3.0229   3.1057   3.1160   3.1454
     3.1934   3.2227   3.2994   3.3222   3.3710   3.4077   3.4232   3.4624
     3.4911   3.5610   3.6103   3.6793   3.7844   3.7888   3.8078   3.9175
     4.0212   4.0927   4.1128   4.4272   4.5143   4.6774   4.7567   4.8217
     4.8492   4.9301   4.9703   5.3028   5.3405   5.4702   5.5540   5.5746
     5.6518   5.7767   5.8005   5.8686   5.9077   5.9355   5.9638   6.0763
     6.0977   6.1833   6.2556   6.3428   6.3930   6.4005   6.4493   6.4977
     6.5484   6.5628   6.7192   6.9152   7.0651   7.2181   7.5528   7.6068
     7.7228   8.2118   8.4088   8.4798   8.8673   8.9358   9.0611   9.2213
     9.4210   9.6042   9.6785

          k =-0.0506 0.0560 0.0000 ( 34596 PWs)   bands (ev):

   -58.2945 -58.2770 -57.3789 -57.3729 -57.3549 -57.3116 -57.2550 -57.0777
   -57.0599 -57.0509 -57.0255 -56.9111 -56.8935 -56.8339 -56.7870 -56.7672
   -34.6540 -34.5646 -34.5502 -34.4845 -34.4584 -34.4382 -33.7852 -33.7792
   -33.6767 -33.6313 -33.6114 -33.5871 -33.5853 -33.5821 -33.5658 -33.5648
   -33.5415 -33.5275 -33.5254 -33.4896 -33.4876 -33.4548 -33.4395 -33.3929
   -33.3647 -33.3178 -33.3041 -33.2914 -33.2826 -33.2726 -33.2561 -33.2533
   -33.2521 -33.2443 -33.2407 -33.2366 -33.2133 -33.1659 -33.1162 -33.1110
   -33.0776 -33.0713 -33.0679 -33.0480 -33.0263 -33.0098 -33.0016 -32.9763
   -18.1053 -17.8163 -17.6970 -17.6105 -17.5947 -17.5531 -17.3762 -17.3660
   -17.2149 -17.2014 -17.1072 -17.0860 -16.9733 -16.9085 -16.8643 -16.8332
   -16.8188 -16.7970 -16.7544 -16.7289 -16.7161 -16.6077 -16.5930 -16.5032
   -16.4912 -16.4293 -16.4098 -16.4053 -16.2094 -16.1919 -15.9245 -15.6361
   -15.6142 -10.8028  -5.2992  -4.9890  -4.9377  -4.9288  -4.7802  -4.7728
    -4.7136  -4.6369  -4.5218  -4.5016  -4.4962  -4.4143  -4.3924  -4.3754
    -4.3567  -4.3228  -4.3050  -4.2434  -4.1965  -4.1729  -4.1633  -4.1092
    -4.0972  -4.0587  -4.0341  -3.9865  -3.9748  -3.8991  -3.8791  -3.8187
    -3.7662  -3.7011  -3.6739  -3.6111  -3.6006  -3.5520  -3.4972  -3.4300
    -3.3919  -3.3063  -3.2555  -3.2275  -3.1303  -3.1257  -3.0768  -3.0482
    -2.9917  -2.9747  -2.9539  -2.8990  -2.7979  -2.7605  -2.7455  -2.6993
    -2.6227  -2.5818  -2.5411  -2.4979  -2.4746  -2.4100  -2.3875  -2.3666
    -2.3457  -2.2858  -2.1908  -2.1676  -2.1430  -2.1223  -2.1054  -2.0456
    -2.0095  -1.9670  -1.9449  -1.8795  -1.8456  -1.7790  -1.7248  -1.6557
    -1.5650  -1.5463  -1.5352  -1.4979  -1.4398  -1.3860  -1.3511  -1.3032
    -1.2393  -1.1682  -1.0726  -1.0210  -0.9874  -0.9021  -0.8500  -0.8433
    -0.7895  -0.7056  -0.6939  -0.6710  -0.6535  -0.5506  -0.4727   0.1969
     1.3113   1.5009   1.6496   1.6714   1.8561   2.0071   2.0356   2.0715
     2.2469   2.2621   2.3717   2.3823   2.4386   2.4675   2.5530   2.5936
     2.6580   2.7055   2.7354   2.7537   2.8204   2.8609   2.8833   2.9155
     2.9521   2.9648   3.0175   3.0464   3.0814   3.1206   3.1561   3.1947
     3.2016   3.2580   3.2898   3.3294   3.3411   3.3885   3.4408   3.4719
     3.4982   3.5605   3.6145   3.6695   3.7115   3.7618   3.8268   3.8515
     3.9256   3.9936   4.1560   4.5247   4.6004   4.6197   4.7695   4.8425
     4.8949   4.9747   5.0243   5.1953   5.3132   5.3868   5.4458   5.5495
     5.6013   5.6196   5.6761   5.7276   5.8928   5.9056   5.9912   6.0159
     6.0792   6.1164   6.1816   6.2151   6.3167   6.3508   6.4149   6.4306
     6.5476   6.6239   6.7610   6.8102   7.1816   7.3517   7.4995   7.6127
     7.9326   8.0094   8.0994   8.3731   8.6023   8.7181   8.7998   9.0359
     9.1883   9.3298   9.4355

     the Fermi energy is    -0.2880 ev

!    total energy              =   -3021.14935400 Ry
     Harris-Foulkes estimate   =   -3021.14935325 Ry
     estimated scf accuracy    <       0.00000024 Ry

     The total energy is the sum of the following terms:

     one-electron contribution =  -40450.71137214 Ry
     hartree contribution      =   20296.81200356 Ry
     xc contribution           =    -553.22824308 Ry
     ewald contribution        =   17685.99832392 Ry
     smearing contrib. (-TS)   =      -0.02006627 Ry

     total magnetization       =     1.05 Bohr mag/cell
     absolute magnetization    =     1.22 Bohr mag/cell

     convergence has been achieved in  16 iterations

     Forces acting on atoms (Ry/au):


     negative rho (up, down):  1.190E-02 1.196E-02
     atom    1 type  1   force =     0.00016652   -0.00090270   -0.10463427
     atom    2 type  2   force =     0.00016347    0.00068383    0.03993644
     atom    3 type  1   force =     0.00076742   -0.00173960   -0.02043423
     atom    4 type  2   force =    -0.00323920    0.00315868   -0.00325794
     atom    5 type  1   force =     0.00040651    0.00017407    0.00074013
     atom    6 type  2   force =    -0.00019041   -0.00015221   -0.00061810
     atom    7 type  1   force =    -0.00015343    0.00046738   -0.02030973
     atom    8 type  2   force =    -0.00180879   -0.00153871   -0.00047341
     atom    9 type  1   force =    -0.00001166    0.00058705   -0.10476364
     atom   10 type  2   force =     0.00036410   -0.00022313    0.03604066
     atom   11 type  1   force =     0.00072453    0.00183985    0.00266457
     atom   12 type  2   force =    -0.00516195   -0.00265866   -0.00519602
     atom   13 type  1   force =     0.00043664    0.00004596    0.00007197
     atom   14 type  2   force =     0.00013516   -0.00005657   -0.00068628
     atom   15 type  1   force =     0.00052078   -0.00047272    0.00061600
     atom   16 type  2   force =    -0.00189130    0.00197704   -0.00094793
     atom   17 type  2   force =    -0.00001332   -0.00000644    0.06657702
     atom   18 type  1   force =     0.00008320    0.00005775    0.13157048
     atom   19 type  2   force =     0.00019844   -0.00050478   -0.08521449
     atom   20 type  2   force =    -0.05791721    0.00018079   -0.03602773
     atom   21 type  2   force =     0.05781519   -0.00001436   -0.03599365
     atom   22 type  1   force =    -0.00039679    0.00076337    0.08015788
     atom   23 type  2   force =     0.00020881   -0.00003164   -0.00011128
     atom   24 type  2   force =     0.00067856    0.00188344   -0.03471922
     atom   25 type  2   force =     0.00418879    0.00333061   -0.00511496
     atom   26 type  1   force =     0.00043217   -0.00007239    0.00017464
     atom   27 type  2   force =    -0.00002700   -0.00013128   -0.00009586
     atom   28 type  2   force =    -0.00003870   -0.00016814   -0.00008763
     atom   29 type  2   force =     0.00008642   -0.00006275    0.00001148
     atom   30 type  1   force =    -0.00111850   -0.00007229   -0.00010893
     atom   31 type  2   force =     0.00016208   -0.00004153    0.00020100
     atom   32 type  2   force =     0.00162304   -0.00213212   -0.00073134
     atom   33 type  2   force =    -0.00017000    0.00007320    0.06626820
     atom   34 type  1   force =     0.00005451   -0.00000286    0.13126655
     atom   35 type  2   force =     0.00018975   -0.00014545   -0.08487137
     atom   36 type  2   force =    -0.05779107    0.00004633   -0.03565296
     atom   37 type  2   force =     0.05799198   -0.00016585   -0.03603609
     atom   38 type  1   force =    -0.00035142   -0.00022409    0.07987864
     atom   39 type  2   force =     0.00006837   -0.00025112   -0.00023728
     atom   40 type  2   force =     0.00046326    0.00124498   -0.03530101
     atom   41 type  2   force =     0.00595435   -0.00242780   -0.00723612
     atom   42 type  1   force =     0.00026258   -0.00004664    0.00004929
     atom   43 type  2   force =    -0.00018467   -0.00004378   -0.00014933
     atom   44 type  2   force =    -0.00005987   -0.00013159   -0.00012545
     atom   45 type  2   force =     0.00006864   -0.00014779   -0.00001290
     atom   46 type  1   force =     0.00030265   -0.00017783   -0.00013463
     atom   47 type  2   force =    -0.00003543    0.00001868    0.00056942
     atom   48 type  2   force =     0.00160575    0.00201475   -0.00014042
     atom   49 type  2   force =    -0.00167413   -0.00198494    0.02185606
     atom   50 type  3   force =    -0.00199737   -0.00293712   -0.00130800
     atom   51 type  4   force =    -0.00089425   -0.00057213   -0.00019015
     atom   52 type  4   force =    -0.00050389    0.00014243    0.00040486
     atom   53 type  4   force =     0.00025233    0.00169323    0.00174517
     atom   54 type  4   force =    -0.00074568   -0.00014242    0.00012190

     Total force =     0.343662     Total SCF correction =     0.001183
 !ASE

     Writing output data file calc.save
 
     init_run     :     64.69s CPU     75.51s WALL (       1 calls)
     electrons    :   4083.74s CPU   4575.10s WALL (       1 calls)
     forces       :     49.52s CPU     50.71s WALL (       1 calls)

     Called by init_run:
     wfcinit      :     56.56s CPU     66.71s WALL (       1 calls)
     potinit      :      1.37s CPU      1.65s WALL (       1 calls)

     Called by electrons:
     c_bands      :   3580.33s CPU   3987.59s WALL (      16 calls)
     sum_band     :    431.39s CPU    507.64s WALL (      16 calls)
     v_of_rho     :     17.50s CPU     20.91s WALL (      17 calls)
     newd         :     57.71s CPU     62.21s WALL (      17 calls)
     mix_rho      :      0.71s CPU      0.94s WALL (      16 calls)
     vdW_energy   :      3.83s CPU      4.27s WALL (      18 calls)
     vdW_ffts     :      4.44s CPU      5.61s WALL (      36 calls)
     vdW_v        :      1.72s CPU      2.00s WALL (      18 calls)

     Called by c_bands:
     init_us_2    :      9.74s CPU     10.46s WALL (    1360 calls)
     cegterg      :   3521.71s CPU   3926.22s WALL (     640 calls)

     Called by *egterg:
     h_psi        :   1301.47s CPU   1588.49s WALL (    3507 calls)
     s_psi        :    228.32s CPU    235.84s WALL (    3507 calls)
     g_psi        :      6.45s CPU      6.63s WALL (    2827 calls)
     cdiaghg      :   1232.81s CPU   1259.51s WALL (    3467 calls)

     Called by h_psi:
     add_vuspsi   :    230.48s CPU    237.13s WALL (    3507 calls)

     General routines
     calbec       :    342.94s CPU    349.54s WALL (    4187 calls)
     fft          :      9.34s CPU     11.67s WALL (    1434 calls)
     ffts         :      0.07s CPU      0.09s WALL (      66 calls)
     fftw         :    723.84s CPU   1066.75s WALL ( 1084900 calls)
     interpolate  :      0.52s CPU      0.74s WALL (      66 calls)
     davcio       :      0.05s CPU      1.67s WALL (      40 calls)
 
     Parallel routines
     fft_scatter  :    355.77s CPU    563.38s WALL ( 1086400 calls)
 
     PWSCF        :     1h 9m CPU        1h18m WALL

 
   This run was terminated on:  23: 7:24  25Feb2018            

=------------------------------------------------------------------------------=
   JOB DONE.
=------------------------------------------------------------------------------=
