  python dir          : /home/vossj/suncat/lib/python2.7/site-packages/espresso
  espresso dir        : /home/vossj/suncat/esdld/espresso-dynpy-beef/bin
  pseudo dir          : /home/alatimer/bin/psp/esp_psp_w_gbrvRu/
  ase-espresso py git : ffa2778-git



     Program PWSCF v.5.1rc2 (svn rev. ) starts on 12Feb2018 at 12:36:48 

     This program is part of the open-source Quantum ESPRESSO suite
     for quantum simulation of materials; please cite
         "P. Giannozzi et al., J. Phys.:Condens. Matter 21 395502 (2009);
          URL http://www.quantum-espresso.org", 
     in publications or presentations arising from this work. More details at
     http://www.quantum-espresso.org/quote

     Parallel version (MPI), running on    16 processors
     R & G space division:  proc/nbgrp/npool/nimage =      16
     Reading input from pw.inp
     Message from routine read_cards :
     DEPRECATED: no units specified in CELL_PARAMETERS card

     Current dimensions of program PWSCF are:
     Max number of different atomic species (ntypx) = 10
     Max number of k-points (npk) =  40000
     Max angular momentum in pseudopotentials (lmaxx) =  3

     **************************************************************************
     Initializing libbeef V0.1.1 with the BEEF-vdW functional.
     Citation: Wellendorff et al., PRB 85, 235149 (2012).
     **************************************************************************


     IMPORTANT: XC functional enforced from input :
     Exchange-correlation      = BEEF ( 1  4 27 13 2)
     Any further DFT definition will be discarded
     Please, verify this is what you really want


     Subspace diagonalization in iterative solution of the eigenvalue problem:
     a serial algorithm will be used

 
     Parallelization info
     --------------------
     sticks:   dense  smooth     PW     G-vecs:    dense   smooth      PW
     Min         281     112     31                68535    17318    2565
     Max         282     113     32                68545    17369    2582
     Sum        4501    1795    503              1096637   277353   41113
 
     Generating pointlists ...
     new r_m :   0.4125 (alat units)  0.7795 (a.u.) for type    1
     new r_m :   0.3995 (alat units)  0.7549 (a.u.) for type    2
     new r_m :   0.4125 (alat units)  0.7795 (a.u.) for type    3
     new r_m :   0.3995 (alat units)  0.7549 (a.u.) for type    4


     bravais-lattice index     =            0
     lattice parameter (alat)  =       1.8897  a.u.
     unit-cell volume          =    7990.9933 (a.u.)^3
     number of atoms/cell      =           54
     number of atomic types    =            4
     number of electrons       =       398.00
     number of Kohn-Sham states=          299
     kinetic-energy cutoff     =      40.4243  Ry
     charge density cutoff     =     404.2426  Ry
     convergence threshold     =      7.3E-07
     mixing beta               =       0.1000
     number of iterations used =           10  plain     mixing
     Exchange-correlation      = BEEF ( 1  4 27 13 2)
     nstep                     =           50


     celldm(1)=   1.889726  celldm(2)=   0.000000  celldm(3)=   0.000000
     celldm(4)=   0.000000  celldm(5)=   0.000000  celldm(6)=   0.000000

     crystal axes: (cart. coord. in units of alat)
               a(1) = (   6.590708   0.000000   0.000000 )  
               a(2) = (   0.000000   5.950229   0.000000 )  
               a(3) = (   0.000000   0.000000  30.195235 )  

     reciprocal axes: (cart. coord. in units 2 pi/alat)
               b(1) = (  0.151729  0.000000  0.000000 )  
               b(2) = (  0.000000  0.168061  0.000000 )  
               b(3) = (  0.000000  0.000000  0.033118 )  


     PseudoPot. # 1 for Ti read from file:
     /home/alatimer/bin/psp/esp_psp_w_gbrvRu/Ti.UPF
     MD5 check sum: 8e4df49b7f0d34bbd5052bf3f5ea0213
     Pseudo is Ultrasoft, Zval = 12.0
     Generated by new atomic code, or converted to UPF format
     Using radial grid of  851 points,  6 beta functions with: 
                l(1) =   0
                l(2) =   0
                l(3) =   1
                l(4) =   1
                l(5) =   2
                l(6) =   2
     Q(r) pseudized with  8 coefficients,  rinner =    1.000   1.000   1.000
                                                       1.000   1.000

     PseudoPot. # 2 for  O read from file:
     /home/alatimer/bin/psp/esp_psp_w_gbrvRu/O.UPF
     MD5 check sum: e057bbcf3229fb5d8c36c0c92f9568b4
     Pseudo is Ultrasoft + core correction, Zval =  6.0
     Generated using "atomic" code by A. Dal Corso  v.5.0.2 svn rev. 9415
     Using radial grid of 1095 points,  4 beta functions with: 
                l(1) =   0
                l(2) =   0
                l(3) =   1
                l(4) =   1
     Q(r) pseudized with 0 coefficients 


     PseudoPot. # 3 for  C read from file:
     /home/alatimer/bin/psp/esp_psp_w_gbrvRu/C.UPF
     MD5 check sum: ab446d787031eba755f1d5ee46644bb0
     Pseudo is Ultrasoft + core correction, Zval =  4.0
     Generated using "atomic" code by A. Dal Corso  v.5.0.2 svn rev. 9415
     Using radial grid of 1073 points,  4 beta functions with: 
                l(1) =   0
                l(2) =   0
                l(3) =   1
                l(4) =   1
     Q(r) pseudized with 0 coefficients 


     PseudoPot. # 4 for  H read from file:
     /home/alatimer/bin/psp/esp_psp_w_gbrvRu/H.UPF
     MD5 check sum: bd57da0722753ddfd9833a65b40bb853
     Pseudo is Ultrasoft, Zval =  1.0
     Generated using "atomic" code by A. Dal Corso  v.5.0.2 svn rev. 9415
     Using radial grid of  929 points,  2 beta functions with: 
                l(1) =   0
                l(2) =   0
     Q(r) pseudized with 0 coefficients 


     vdW kernel table read from file vdW_kernel_table
     MD5 check sum: 095c7af220d748ca6e76c0b4c6cfb241

     atomic species   valence    mass     pseudopotential
        Ti1           12.00    47.88000     Ti( 1.00)
        O1             6.00    15.99940      O( 1.00)
        C1             4.00    12.01100      C( 1.00)
        H1             1.00     1.00794      H( 1.00)

     Starting magnetic structure 
     atomic species   magnetization
        Ti1          0.250
        O1           0.500
        C1           0.750
        H1           0.000

     No symmetry found



   Cartesian axes

     site n.     atom                  positions (alat units)
         1           Ti1 tau(   1) = (   1.6476770   0.7437786   2.6545865  )
         2           O1  tau(   2) = (   1.6476770   2.2313359   3.9361215  )
         3           Ti1 tau(   3) = (   1.6476770   2.2313359   5.9499405  )
         4           O1  tau(   4) = (   0.3661420   0.7437786   5.9499405  )
         5           Ti1 tau(   5) = (   1.7592931   0.7557636   9.1813031  )
         6           O1  tau(   6) = (   1.6162490   2.2572048  10.5951269  )
         7           Ti1 tau(   7) = (   1.5595004   2.2680265  12.4668274  )
         8           O1  tau(   8) = (   0.3709531   0.7738127  12.6996540  )
         9           Ti1 tau(   9) = (   1.6476770   3.7188931   2.6545865  )
        10           O1  tau(  10) = (   1.6476770   5.2064503   3.9361215  )
        11           Ti1 tau(  11) = (   1.6476770   5.2064503   5.9499405  )
        12           O1  tau(  12) = (   0.3661420   3.7188931   5.9499405  )
        13           Ti1 tau(  13) = (   1.7607536   3.7112867   9.1949733  )
        14           O1  tau(  14) = (   1.6133076   5.2250699  10.5465640  )
        15           Ti1 tau(  15) = (   1.6492307   5.2431137  12.3448001  )
        16           O1  tau(  16) = (   0.3719744   3.7598389  12.7007434  )
        17           O1  tau(  17) = (   1.6476770   2.2313359   1.3730516  )
        18           Ti1 tau(  18) = (   4.9430310   2.2313359   2.6545865  )
        19           O1  tau(  19) = (   4.9430310   2.2313359   4.6684056  )
        20           O1  tau(  20) = (   6.2245660   0.7437786   2.6545865  )
        21           O1  tau(  21) = (   3.6614961   0.7437786   2.6545865  )
        22           Ti1 tau(  22) = (   4.9430310   0.7437786   5.9499405  )
        23           O1  tau(  23) = (   1.6387103   2.2391978   8.0037664  )
        24           O1  tau(  24) = (   4.9430310   2.2313359   7.2314755  )
        25           O1  tau(  25) = (   2.9292120   0.7437786   5.9499405  )
        26           Ti1 tau(  26) = (   5.0158092   2.2383949   9.3973727  )
        27           O1  tau(  27) = (   4.9391445   2.2276729  11.2675731  )
        28           O1  tau(  28) = (   6.2094020   0.7514556   9.2742047  )
        29           O1  tau(  29) = (   3.6131301   0.7515640   9.2682932  )
        30           Ti1 tau(  30) = (   4.8940083   0.8207741  12.7348365  )
        31           O1  tau(  31) = (   4.8487174   2.2703822  13.8475395  )
        32           O1  tau(  32) = (   2.8766274   0.7418004  12.6316555  )
        33           O1  tau(  33) = (   1.6476770   5.2064503   1.3730516  )
        34           Ti1 tau(  34) = (   4.9430310   5.2064503   2.6545865  )
        35           O1  tau(  35) = (   4.9430310   5.2064503   4.6684056  )
        36           O1  tau(  36) = (   6.2245660   3.7188931   2.6545865  )
        37           O1  tau(  37) = (   3.6614961   3.7188931   2.6545865  )
        38           Ti1 tau(  38) = (   4.9430310   3.7188931   5.9499405  )
        39           O1  tau(  39) = (   1.6418458   5.2133935   8.0066417  )
        40           O1  tau(  40) = (   4.9430310   5.2064503   7.2314755  )
        41           O1  tau(  41) = (   2.9292120   3.7188931   5.9499405  )
        42           Ti1 tau(  42) = (   5.0218241   5.2139137   9.3870600  )
        43           O1  tau(  43) = (   4.9399496   5.2040061  11.2598200  )
        44           O1  tau(  44) = (   6.2073000   3.7245411   9.2731052  )
        45           O1  tau(  45) = (   3.6137513   3.7232133   9.2682466  )
        46           Ti1 tau(  46) = (   4.8936935   3.8094630  12.7397413  )
        47           O1  tau(  47) = (   4.9051259   5.2510468  13.8339921  )
        48           O1  tau(  48) = (   2.8743370   3.7938830  12.6403791  )
        49           C1  tau(  49) = (   1.0587210   2.2268971  15.9366084  )
        50           O1  tau(  50) = (   1.8917182   2.2355032  14.7378010  )
        51           H1  tau(  51) = (   0.0310076   2.2200215  15.5603933  )
        52           H1  tau(  52) = (   2.8355400   2.2288152  14.9543747  )
        53           H1  tau(  53) = (   1.2478062   1.3326534  16.5039879  )
        54           H1  tau(  54) = (   1.2341453   3.1195140  16.5098874  )

     number of k points=    40  Fermi-Dirac smearing, width (Ry)=  0.0073
                       cart. coord. in units 2pi/alat
        k(    1) = (   0.0000000   0.0000000   0.0000000), wk =   0.0277778
        k(    2) = (   0.0000000   0.0280101   0.0000000), wk =   0.0555556
        k(    3) = (   0.0000000   0.0560203   0.0000000), wk =   0.0555556
        k(    4) = (   0.0000000  -0.0840304   0.0000000), wk =   0.0277778
        k(    5) = (   0.0252881   0.0000000   0.0000000), wk =   0.0555556
        k(    6) = (   0.0252881   0.0280101   0.0000000), wk =   0.0555556
        k(    7) = (   0.0252881   0.0560203   0.0000000), wk =   0.0555556
        k(    8) = (   0.0252881  -0.0840304   0.0000000), wk =   0.0555556
        k(    9) = (   0.0505763   0.0000000   0.0000000), wk =   0.0555556
        k(   10) = (   0.0505763   0.0280101   0.0000000), wk =   0.0555556
        k(   11) = (   0.0505763   0.0560203   0.0000000), wk =   0.0555556
        k(   12) = (   0.0505763  -0.0840304   0.0000000), wk =   0.0555556
        k(   13) = (  -0.0758644   0.0000000   0.0000000), wk =   0.0277778
        k(   14) = (  -0.0758644   0.0280101   0.0000000), wk =   0.0555556
        k(   15) = (  -0.0758644   0.0560203   0.0000000), wk =   0.0555556
        k(   16) = (  -0.0758644  -0.0840304   0.0000000), wk =   0.0277778
        k(   17) = (  -0.0252881   0.0280101   0.0000000), wk =   0.0555556
        k(   18) = (  -0.0252881   0.0560203   0.0000000), wk =   0.0555556
        k(   19) = (  -0.0505763   0.0280101   0.0000000), wk =   0.0555556
        k(   20) = (  -0.0505763   0.0560203   0.0000000), wk =   0.0555556
        k(   21) = (   0.0000000   0.0000000   0.0000000), wk =   0.0277778
        k(   22) = (   0.0000000   0.0280101   0.0000000), wk =   0.0555556
        k(   23) = (   0.0000000   0.0560203   0.0000000), wk =   0.0555556
        k(   24) = (   0.0000000  -0.0840304   0.0000000), wk =   0.0277778
        k(   25) = (   0.0252881   0.0000000   0.0000000), wk =   0.0555556
        k(   26) = (   0.0252881   0.0280101   0.0000000), wk =   0.0555556
        k(   27) = (   0.0252881   0.0560203   0.0000000), wk =   0.0555556
        k(   28) = (   0.0252881  -0.0840304   0.0000000), wk =   0.0555556
        k(   29) = (   0.0505763   0.0000000   0.0000000), wk =   0.0555556
        k(   30) = (   0.0505763   0.0280101   0.0000000), wk =   0.0555556
        k(   31) = (   0.0505763   0.0560203   0.0000000), wk =   0.0555556
        k(   32) = (   0.0505763  -0.0840304   0.0000000), wk =   0.0555556
        k(   33) = (  -0.0758644   0.0000000   0.0000000), wk =   0.0277778
        k(   34) = (  -0.0758644   0.0280101   0.0000000), wk =   0.0555556
        k(   35) = (  -0.0758644   0.0560203   0.0000000), wk =   0.0555556
        k(   36) = (  -0.0758644  -0.0840304   0.0000000), wk =   0.0277778
        k(   37) = (  -0.0252881   0.0280101   0.0000000), wk =   0.0555556
        k(   38) = (  -0.0252881   0.0560203   0.0000000), wk =   0.0555556
        k(   39) = (  -0.0505763   0.0280101   0.0000000), wk =   0.0555556
        k(   40) = (  -0.0505763   0.0560203   0.0000000), wk =   0.0555556

     Dense  grid:  1096637 G-vectors     FFT dimensions: (  80,  72, 375)

     Smooth grid:   277353 G-vectors     FFT dimensions: (  54,  45, 240)

     Largest allocated arrays     est. size (Mb)     dimensions
        Kohn-Sham Wavefunctions         9.95 Mb     (    2180,  299)
        NL pseudopotentials            18.89 Mb     (    2180,  568)
        Each V/rho on FFT grid          4.22 Mb     (  138240,   2)
        Each G-vector array             0.52 Mb     (   68538)
        G-vector shells                 0.25 Mb     (   33046)
     Largest temporary arrays     est. size (Mb)     dimensions
        Auxiliary wavefunctions        39.78 Mb     (    2180, 1196)
        Each subspace H/S matrix       21.83 Mb     (    1196, 1196)
        Each <psi_i|beta_j> matrix      2.59 Mb     (     568,  299)
        Arrays for rho mixing          21.09 Mb     (  138240,   10)

     Check: negative/imaginary core charge=   -0.000049    0.000000

     The initial density is read from file :
     ./calc.save/charge-density.dat


     negative rho (up, down):  1.209E-02 1.209E-02


     ************************************************************************
     *
     * You are using vdW-DF for exchange-correlation in this calculation.
     * Please cite the following three references that made this development
     * possible:
     *
     *   M. Dion, H. Rydberg, E. Schroder, D. C. Langreth, and
     *   B. I. Lundqvist, Phys. Rev. Lett. 92, 246401 (2004).
     *
     *   T. Thonhauser, V. R. Cooper, S. Li, A. Puzder, P. Hyldgaard, and
     *   D. C. Langreth, Phys. Rev. B 76, 125112 (2007).
     *
     *   G. Roman-Perez and J. M. Soler, Phys. Rev. Lett. 103, 096102 (2009).
     *
     *
     * If you are using vdW-DF2, please also cite:
     *
     *   K. Lee, E. D. Murray, L. Kong, B. I. Lundqvist, and
     *   D. C. Langreth, Phys. Rev. B 82, 081101(R) (2010).
     *
     *
     * If you are calculating the stress with vdW-DF, please also cite:
     *
     *   R. Sabatini, E. Kucukbenli, B. Kolb, T. Thonhauser, and
     *   S. de Gironcoli, J. Phys.: Condens. Matter 24, 424209 (2012).
     *
     ************************************************************************

     Carrying out vdW-DF run using the following parameters:

     Nqs =      20    Nr_points =    1024   r_max =   100.000
     q_mesh =
               0.00001000     0.04494208     0.09755937     0.15916263
               0.23128650     0.31572767     0.41458969     0.53033537
               0.66584808     0.82450364     1.01025438     1.22772762
               1.48234092     1.78043706     2.12944203     2.53805004
               3.01644009     3.57652955     4.23227104     5.00000000

     Gradients computed in reciprocal space

     ************************************************************************


     Starting wfc are  300 randomized atomic wfcs

     total cpu time spent up to now is       69.7 secs

     Self-consistent Calculation

     iteration #  1     ecut=    40.42 Ry     beta=0.10
     Davidson diagonalization with overlap
     ethr =  1.00E-05,  avg # of iterations = 14.4

     negative rho (up, down):  1.209E-02 1.209E-02
 
     Magnetic moment per site:
     atom:    1    charge:    3.1250    magn:   -0.0002    constr:    0.0000
     atom:    2    charge:    1.9452    magn:    0.0000    constr:    0.0000
     atom:    3    charge:    3.1197    magn:    0.0000    constr:    0.0000
     atom:    4    charge:    1.9504    magn:   -0.0001    constr:    0.0000
     atom:    5    charge:    3.1166    magn:    0.0000    constr:    0.0000
     atom:    6    charge:    1.9477    magn:   -0.0001    constr:    0.0000
     atom:    7    charge:    3.1153    magn:    0.0001    constr:    0.0000
     atom:    8    charge:    1.9451    magn:   -0.0001    constr:    0.0000
     atom:    9    charge:    3.1250    magn:   -0.0002    constr:    0.0000
     atom:   10    charge:    1.9452    magn:    0.0000    constr:    0.0000
     atom:   11    charge:    3.1196    magn:    0.0000    constr:    0.0000
     atom:   12    charge:    1.9504    magn:   -0.0001    constr:    0.0000
     atom:   13    charge:    3.1158    magn:    0.0000    constr:    0.0000
     atom:   14    charge:    1.9587    magn:   -0.0001    constr:    0.0000
     atom:   15    charge:    3.1188    magn:    0.0001    constr:    0.0000
     atom:   16    charge:    1.9445    magn:   -0.0001    constr:    0.0000
     atom:   17    charge:    1.9187    magn:    0.0004    constr:    0.0000
     atom:   18    charge:    3.1241    magn:   -0.0001    constr:    0.0000
     atom:   19    charge:    1.9408    magn:   -0.0000    constr:    0.0000
     atom:   20    charge:    1.9471    magn:    0.0000    constr:    0.0000
     atom:   21    charge:    1.9471    magn:    0.0000    constr:    0.0000
     atom:   22    charge:    3.1197    magn:    0.0000    constr:    0.0000
     atom:   23    charge:    1.9567    magn:   -0.0001    constr:    0.0000
     atom:   24    charge:    1.9378    magn:   -0.0001    constr:    0.0000
     atom:   25    charge:    1.9505    magn:   -0.0001    constr:    0.0000
     atom:   26    charge:    3.1146    magn:    0.0001    constr:    0.0000
     atom:   27    charge:    1.9397    magn:   -0.0001    constr:    0.0000
     atom:   28    charge:    1.9517    magn:   -0.0001    constr:    0.0000
     atom:   29    charge:    1.9476    magn:   -0.0001    constr:    0.0000
     atom:   30    charge:    3.1166    magn:    0.0000    constr:    0.0000
     atom:   31    charge:    1.9447    magn:   -0.0000    constr:    0.0000
     atom:   32    charge:    1.9440    magn:   -0.0001    constr:    0.0000
     atom:   33    charge:    1.9187    magn:    0.0004    constr:    0.0000
     atom:   34    charge:    3.1241    magn:   -0.0001    constr:    0.0000
     atom:   35    charge:    1.9408    magn:   -0.0000    constr:    0.0000
     atom:   36    charge:    1.9471    magn:    0.0000    constr:    0.0000
     atom:   37    charge:    1.9471    magn:    0.0000    constr:    0.0000
     atom:   38    charge:    3.1197    magn:    0.0000    constr:    0.0000
     atom:   39    charge:    1.9550    magn:   -0.0001    constr:    0.0000
     atom:   40    charge:    1.9381    magn:   -0.0001    constr:    0.0000
     atom:   41    charge:    1.9505    magn:   -0.0001    constr:    0.0000
     atom:   42    charge:    3.1142    magn:    0.0001    constr:    0.0000
     atom:   43    charge:    1.9412    magn:   -0.0001    constr:    0.0000
     atom:   44    charge:    1.9518    magn:   -0.0001    constr:    0.0000
     atom:   45    charge:    1.9468    magn:   -0.0001    constr:    0.0000
     atom:   46    charge:    3.1164    magn:    0.0000    constr:    0.0000
     atom:   47    charge:    1.9433    magn:   -0.0000    constr:    0.0000
     atom:   48    charge:    1.9444    magn:   -0.0001    constr:    0.0000
     atom:   49    charge:    0.6612    magn:   -0.0001    constr:    0.0000
     atom:   50    charge:    1.9546    magn:   -0.0001    constr:    0.0000
     atom:   51    charge:    0.4011    magn:    0.0000    constr:    0.0000
     atom:   52    charge:    0.4011    magn:    0.0000    constr:    0.0000
     atom:   53    charge:    0.4048    magn:    0.0000    constr:    0.0000
     atom:   54    charge:    0.4055    magn:    0.0000    constr:    0.0000

     total cpu time spent up to now is      807.7 secs

     total energy              =   -3021.42380492 Ry
     Harris-Foulkes estimate   =   -3021.42730298 Ry
     estimated scf accuracy    <       0.02260383 Ry

     total magnetization       =     0.00 Bohr mag/cell
     absolute magnetization    =     0.01 Bohr mag/cell

     iteration #  2     ecut=    40.42 Ry     beta=0.10
     Davidson diagonalization with overlap
     ethr =  5.68E-06,  avg # of iterations =  2.4

     negative rho (up, down):  1.208E-02 1.208E-02
 
     Magnetic moment per site:
     atom:    1    charge:    3.1250    magn:   -0.0002    constr:    0.0000
     atom:    2    charge:    1.9452    magn:    0.0000    constr:    0.0000
     atom:    3    charge:    3.1197    magn:    0.0000    constr:    0.0000
     atom:    4    charge:    1.9504    magn:   -0.0000    constr:    0.0000
     atom:    5    charge:    3.1166    magn:    0.0000    constr:    0.0000
     atom:    6    charge:    1.9478    magn:   -0.0001    constr:    0.0000
     atom:    7    charge:    3.1152    magn:    0.0000    constr:    0.0000
     atom:    8    charge:    1.9450    magn:   -0.0001    constr:    0.0000
     atom:    9    charge:    3.1250    magn:   -0.0002    constr:    0.0000
     atom:   10    charge:    1.9452    magn:    0.0000    constr:    0.0000
     atom:   11    charge:    3.1196    magn:    0.0000    constr:    0.0000
     atom:   12    charge:    1.9504    magn:   -0.0000    constr:    0.0000
     atom:   13    charge:    3.1158    magn:    0.0000    constr:    0.0000
     atom:   14    charge:    1.9587    magn:   -0.0001    constr:    0.0000
     atom:   15    charge:    3.1188    magn:    0.0001    constr:    0.0000
     atom:   16    charge:    1.9443    magn:   -0.0001    constr:    0.0000
     atom:   17    charge:    1.9186    magn:    0.0004    constr:    0.0000
     atom:   18    charge:    3.1240    magn:   -0.0001    constr:    0.0000
     atom:   19    charge:    1.9408    magn:   -0.0000    constr:    0.0000
     atom:   20    charge:    1.9471    magn:    0.0000    constr:    0.0000
     atom:   21    charge:    1.9471    magn:    0.0000    constr:    0.0000
     atom:   22    charge:    3.1196    magn:    0.0000    constr:    0.0000
     atom:   23    charge:    1.9567    magn:   -0.0001    constr:    0.0000
     atom:   24    charge:    1.9379    magn:   -0.0000    constr:    0.0000
     atom:   25    charge:    1.9505    magn:   -0.0000    constr:    0.0000
     atom:   26    charge:    3.1145    magn:    0.0000    constr:    0.0000
     atom:   27    charge:    1.9397    magn:   -0.0001    constr:    0.0000
     atom:   28    charge:    1.9517    magn:   -0.0001    constr:    0.0000
     atom:   29    charge:    1.9476    magn:   -0.0001    constr:    0.0000
     atom:   30    charge:    3.1166    magn:    0.0000    constr:    0.0000
     atom:   31    charge:    1.9446    magn:   -0.0000    constr:    0.0000
     atom:   32    charge:    1.9440    magn:   -0.0001    constr:    0.0000
     atom:   33    charge:    1.9186    magn:    0.0004    constr:    0.0000
     atom:   34    charge:    3.1240    magn:   -0.0001    constr:    0.0000
     atom:   35    charge:    1.9408    magn:   -0.0000    constr:    0.0000
     atom:   36    charge:    1.9471    magn:    0.0000    constr:    0.0000
     atom:   37    charge:    1.9471    magn:    0.0000    constr:    0.0000
     atom:   38    charge:    3.1196    magn:    0.0000    constr:    0.0000
     atom:   39    charge:    1.9550    magn:   -0.0001    constr:    0.0000
     atom:   40    charge:    1.9382    magn:   -0.0000    constr:    0.0000
     atom:   41    charge:    1.9505    magn:   -0.0000    constr:    0.0000
     atom:   42    charge:    3.1142    magn:    0.0000    constr:    0.0000
     atom:   43    charge:    1.9413    magn:   -0.0001    constr:    0.0000
     atom:   44    charge:    1.9518    magn:   -0.0001    constr:    0.0000
     atom:   45    charge:    1.9469    magn:   -0.0001    constr:    0.0000
     atom:   46    charge:    3.1164    magn:    0.0000    constr:    0.0000
     atom:   47    charge:    1.9434    magn:   -0.0000    constr:    0.0000
     atom:   48    charge:    1.9444    magn:   -0.0001    constr:    0.0000
     atom:   49    charge:    0.6608    magn:   -0.0000    constr:    0.0000
     atom:   50    charge:    1.9490    magn:   -0.0001    constr:    0.0000
     atom:   51    charge:    0.3983    magn:    0.0000    constr:    0.0000
     atom:   52    charge:    0.4022    magn:    0.0000    constr:    0.0000
     atom:   53    charge:    0.4087    magn:    0.0000    constr:    0.0000
     atom:   54    charge:    0.4094    magn:    0.0000    constr:    0.0000

     total cpu time spent up to now is      994.2 secs

     total energy              =   -3021.41869291 Ry
     Harris-Foulkes estimate   =   -3021.42412040 Ry
     estimated scf accuracy    <       0.01334879 Ry

     total magnetization       =     0.00 Bohr mag/cell
     absolute magnetization    =     0.01 Bohr mag/cell

     iteration #  3     ecut=    40.42 Ry     beta=0.10
     Davidson diagonalization with overlap
     ethr =  3.35E-06,  avg # of iterations =  7.0

     negative rho (up, down):  1.208E-02 1.208E-02
 
     Magnetic moment per site:
     atom:    1    charge:    3.1251    magn:   -0.0001    constr:    0.0000
     atom:    2    charge:    1.9451    magn:    0.0000    constr:    0.0000
     atom:    3    charge:    3.1198    magn:    0.0000    constr:    0.0000
     atom:    4    charge:    1.9504    magn:   -0.0000    constr:    0.0000
     atom:    5    charge:    3.1166    magn:    0.0000    constr:    0.0000
     atom:    6    charge:    1.9476    magn:   -0.0001    constr:    0.0000
     atom:    7    charge:    3.1158    magn:    0.0000    constr:    0.0000
     atom:    8    charge:    1.9452    magn:   -0.0001    constr:    0.0000
     atom:    9    charge:    3.1251    magn:   -0.0001    constr:    0.0000
     atom:   10    charge:    1.9451    magn:    0.0000    constr:    0.0000
     atom:   11    charge:    3.1197    magn:    0.0000    constr:    0.0000
     atom:   12    charge:    1.9504    magn:   -0.0000    constr:    0.0000
     atom:   13    charge:    3.1159    magn:    0.0000    constr:    0.0000
     atom:   14    charge:    1.9586    magn:   -0.0001    constr:    0.0000
     atom:   15    charge:    3.1189    magn:    0.0000    constr:    0.0000
     atom:   16    charge:    1.9445    magn:   -0.0001    constr:    0.0000
     atom:   17    charge:    1.9182    magn:    0.0003    constr:    0.0000
     atom:   18    charge:    3.1239    magn:   -0.0001    constr:    0.0000
     atom:   19    charge:    1.9408    magn:   -0.0000    constr:    0.0000
     atom:   20    charge:    1.9471    magn:    0.0000    constr:    0.0000
     atom:   21    charge:    1.9471    magn:    0.0000    constr:    0.0000
     atom:   22    charge:    3.1196    magn:    0.0000    constr:    0.0000
     atom:   23    charge:    1.9565    magn:   -0.0001    constr:    0.0000
     atom:   24    charge:    1.9381    magn:   -0.0000    constr:    0.0000
     atom:   25    charge:    1.9505    magn:   -0.0000    constr:    0.0000
     atom:   26    charge:    3.1145    magn:    0.0000    constr:    0.0000
     atom:   27    charge:    1.9399    magn:   -0.0000    constr:    0.0000
     atom:   28    charge:    1.9517    magn:   -0.0001    constr:    0.0000
     atom:   29    charge:    1.9476    magn:   -0.0001    constr:    0.0000
     atom:   30    charge:    3.1167    magn:    0.0000    constr:    0.0000
     atom:   31    charge:    1.9447    magn:   -0.0000    constr:    0.0000
     atom:   32    charge:    1.9439    magn:   -0.0001    constr:    0.0000
     atom:   33    charge:    1.9182    magn:    0.0003    constr:    0.0000
     atom:   34    charge:    3.1238    magn:   -0.0001    constr:    0.0000
     atom:   35    charge:    1.9408    magn:   -0.0000    constr:    0.0000
     atom:   36    charge:    1.9471    magn:    0.0000    constr:    0.0000
     atom:   37    charge:    1.9471    magn:    0.0000    constr:    0.0000
     atom:   38    charge:    3.1196    magn:    0.0000    constr:    0.0000
     atom:   39    charge:    1.9549    magn:   -0.0001    constr:    0.0000
     atom:   40    charge:    1.9384    magn:   -0.0000    constr:    0.0000
     atom:   41    charge:    1.9505    magn:   -0.0000    constr:    0.0000
     atom:   42    charge:    3.1141    magn:    0.0000    constr:    0.0000
     atom:   43    charge:    1.9414    magn:   -0.0000    constr:    0.0000
     atom:   44    charge:    1.9517    magn:   -0.0001    constr:    0.0000
     atom:   45    charge:    1.9468    magn:   -0.0001    constr:    0.0000
     atom:   46    charge:    3.1165    magn:    0.0000    constr:    0.0000
     atom:   47    charge:    1.9431    magn:   -0.0000    constr:    0.0000
     atom:   48    charge:    1.9443    magn:   -0.0001    constr:    0.0000
     atom:   49    charge:    0.6604    magn:   -0.0000    constr:    0.0000
     atom:   50    charge:    1.9500    magn:   -0.0000    constr:    0.0000
     atom:   51    charge:    0.3970    magn:    0.0000    constr:    0.0000
     atom:   52    charge:    0.4022    magn:    0.0000    constr:    0.0000
     atom:   53    charge:    0.4105    magn:    0.0000    constr:    0.0000
     atom:   54    charge:    0.4112    magn:    0.0000    constr:    0.0000

     total cpu time spent up to now is     1263.7 secs

     total energy              =   -3021.41895963 Ry
     Harris-Foulkes estimate   =   -3021.41997683 Ry
     estimated scf accuracy    <       0.00275309 Ry

     total magnetization       =     0.00 Bohr mag/cell
     absolute magnetization    =     0.00 Bohr mag/cell

     iteration #  4     ecut=    40.42 Ry     beta=0.10
     Davidson diagonalization with overlap
     ethr =  6.92E-07,  avg # of iterations =  5.0

     negative rho (up, down):  1.209E-02 1.209E-02
 
     Magnetic moment per site:
     atom:    1    charge:    3.1250    magn:   -0.0001    constr:    0.0000
     atom:    2    charge:    1.9451    magn:    0.0000    constr:    0.0000
     atom:    3    charge:    3.1198    magn:    0.0000    constr:    0.0000
     atom:    4    charge:    1.9504    magn:   -0.0000    constr:    0.0000
     atom:    5    charge:    3.1166    magn:    0.0000    constr:    0.0000
     atom:    6    charge:    1.9475    magn:   -0.0001    constr:    0.0000
     atom:    7    charge:    3.1160    magn:    0.0000    constr:    0.0000
     atom:    8    charge:    1.9454    magn:   -0.0001    constr:    0.0000
     atom:    9    charge:    3.1250    magn:   -0.0001    constr:    0.0000
     atom:   10    charge:    1.9452    magn:    0.0000    constr:    0.0000
     atom:   11    charge:    3.1197    magn:    0.0000    constr:    0.0000
     atom:   12    charge:    1.9504    magn:   -0.0000    constr:    0.0000
     atom:   13    charge:    3.1158    magn:    0.0000    constr:    0.0000
     atom:   14    charge:    1.9586    magn:   -0.0001    constr:    0.0000
     atom:   15    charge:    3.1189    magn:    0.0000    constr:    0.0000
     atom:   16    charge:    1.9447    magn:   -0.0001    constr:    0.0000
     atom:   17    charge:    1.9183    magn:    0.0003    constr:    0.0000
     atom:   18    charge:    3.1239    magn:   -0.0001    constr:    0.0000
     atom:   19    charge:    1.9408    magn:   -0.0000    constr:    0.0000
     atom:   20    charge:    1.9470    magn:    0.0000    constr:    0.0000
     atom:   21    charge:    1.9470    magn:    0.0000    constr:    0.0000
     atom:   22    charge:    3.1196    magn:    0.0000    constr:    0.0000
     atom:   23    charge:    1.9565    magn:   -0.0001    constr:    0.0000
     atom:   24    charge:    1.9380    magn:   -0.0000    constr:    0.0000
     atom:   25    charge:    1.9505    magn:   -0.0000    constr:    0.0000
     atom:   26    charge:    3.1145    magn:    0.0000    constr:    0.0000
     atom:   27    charge:    1.9399    magn:   -0.0000    constr:    0.0000
     atom:   28    charge:    1.9517    magn:   -0.0000    constr:    0.0000
     atom:   29    charge:    1.9476    magn:   -0.0001    constr:    0.0000
     atom:   30    charge:    3.1167    magn:    0.0000    constr:    0.0000
     atom:   31    charge:    1.9447    magn:   -0.0000    constr:    0.0000
     atom:   32    charge:    1.9439    magn:   -0.0001    constr:    0.0000
     atom:   33    charge:    1.9182    magn:    0.0003    constr:    0.0000
     atom:   34    charge:    3.1239    magn:   -0.0001    constr:    0.0000
     atom:   35    charge:    1.9408    magn:   -0.0000    constr:    0.0000
     atom:   36    charge:    1.9470    magn:    0.0000    constr:    0.0000
     atom:   37    charge:    1.9470    magn:    0.0000    constr:    0.0000
     atom:   38    charge:    3.1196    magn:    0.0000    constr:    0.0000
     atom:   39    charge:    1.9548    magn:   -0.0001    constr:    0.0000
     atom:   40    charge:    1.9383    magn:   -0.0000    constr:    0.0000
     atom:   41    charge:    1.9505    magn:   -0.0000    constr:    0.0000
     atom:   42    charge:    3.1141    magn:    0.0000    constr:    0.0000
     atom:   43    charge:    1.9414    magn:   -0.0000    constr:    0.0000
     atom:   44    charge:    1.9517    magn:   -0.0000    constr:    0.0000
     atom:   45    charge:    1.9468    magn:   -0.0001    constr:    0.0000
     atom:   46    charge:    3.1165    magn:    0.0000    constr:    0.0000
     atom:   47    charge:    1.9430    magn:   -0.0000    constr:    0.0000
     atom:   48    charge:    1.9443    magn:   -0.0001    constr:    0.0000
     atom:   49    charge:    0.6599    magn:   -0.0000    constr:    0.0000
     atom:   50    charge:    1.9525    magn:   -0.0000    constr:    0.0000
     atom:   51    charge:    0.3960    magn:    0.0000    constr:    0.0000
     atom:   52    charge:    0.4019    magn:    0.0000    constr:    0.0000
     atom:   53    charge:    0.4118    magn:    0.0000    constr:    0.0000
     atom:   54    charge:    0.4125    magn:    0.0000    constr:    0.0000

     total cpu time spent up to now is     1489.7 secs

     total energy              =   -3021.41878844 Ry
     Harris-Foulkes estimate   =   -3021.41912436 Ry
     estimated scf accuracy    <       0.00074133 Ry

     total magnetization       =     0.00 Bohr mag/cell
     absolute magnetization    =     0.00 Bohr mag/cell

     iteration #  5     ecut=    40.42 Ry     beta=0.10
     Davidson diagonalization with overlap
     ethr =  1.86E-07,  avg # of iterations =  5.2

     negative rho (up, down):  1.209E-02 1.209E-02
 
     Magnetic moment per site:
     atom:    1    charge:    3.1250    magn:   -0.0001    constr:    0.0000
     atom:    2    charge:    1.9452    magn:    0.0000    constr:    0.0000
     atom:    3    charge:    3.1197    magn:    0.0000    constr:    0.0000
     atom:    4    charge:    1.9504    magn:   -0.0000    constr:    0.0000
     atom:    5    charge:    3.1166    magn:    0.0000    constr:    0.0000
     atom:    6    charge:    1.9476    magn:   -0.0000    constr:    0.0000
     atom:    7    charge:    3.1157    magn:    0.0000    constr:    0.0000
     atom:    8    charge:    1.9454    magn:   -0.0000    constr:    0.0000
     atom:    9    charge:    3.1250    magn:   -0.0001    constr:    0.0000
     atom:   10    charge:    1.9452    magn:    0.0000    constr:    0.0000
     atom:   11    charge:    3.1197    magn:    0.0000    constr:    0.0000
     atom:   12    charge:    1.9504    magn:   -0.0000    constr:    0.0000
     atom:   13    charge:    3.1158    magn:    0.0000    constr:    0.0000
     atom:   14    charge:    1.9587    magn:   -0.0000    constr:    0.0000
     atom:   15    charge:    3.1188    magn:    0.0000    constr:    0.0000
     atom:   16    charge:    1.9447    magn:   -0.0000    constr:    0.0000
     atom:   17    charge:    1.9184    magn:    0.0002    constr:    0.0000
     atom:   18    charge:    3.1239    magn:   -0.0000    constr:    0.0000
     atom:   19    charge:    1.9408    magn:   -0.0000    constr:    0.0000
     atom:   20    charge:    1.9471    magn:    0.0000    constr:    0.0000
     atom:   21    charge:    1.9471    magn:    0.0000    constr:    0.0000
     atom:   22    charge:    3.1197    magn:    0.0000    constr:    0.0000
     atom:   23    charge:    1.9566    magn:   -0.0000    constr:    0.0000
     atom:   24    charge:    1.9378    magn:   -0.0000    constr:    0.0000
     atom:   25    charge:    1.9505    magn:   -0.0000    constr:    0.0000
     atom:   26    charge:    3.1145    magn:    0.0000    constr:    0.0000
     atom:   27    charge:    1.9397    magn:   -0.0000    constr:    0.0000
     atom:   28    charge:    1.9517    magn:   -0.0000    constr:    0.0000
     atom:   29    charge:    1.9476    magn:   -0.0000    constr:    0.0000
     atom:   30    charge:    3.1167    magn:    0.0000    constr:    0.0000
     atom:   31    charge:    1.9447    magn:   -0.0000    constr:    0.0000
     atom:   32    charge:    1.9440    magn:   -0.0000    constr:    0.0000
     atom:   33    charge:    1.9184    magn:    0.0002    constr:    0.0000
     atom:   34    charge:    3.1239    magn:   -0.0000    constr:    0.0000
     atom:   35    charge:    1.9408    magn:   -0.0000    constr:    0.0000
     atom:   36    charge:    1.9471    magn:    0.0000    constr:    0.0000
     atom:   37    charge:    1.9471    magn:    0.0000    constr:    0.0000
     atom:   38    charge:    3.1196    magn:    0.0000    constr:    0.0000
     atom:   39    charge:    1.9550    magn:   -0.0000    constr:    0.0000
     atom:   40    charge:    1.9382    magn:   -0.0000    constr:    0.0000
     atom:   41    charge:    1.9505    magn:   -0.0000    constr:    0.0000
     atom:   42    charge:    3.1141    magn:    0.0000    constr:    0.0000
     atom:   43    charge:    1.9413    magn:   -0.0000    constr:    0.0000
     atom:   44    charge:    1.9517    magn:   -0.0000    constr:    0.0000
     atom:   45    charge:    1.9468    magn:   -0.0000    constr:    0.0000
     atom:   46    charge:    3.1165    magn:    0.0000    constr:    0.0000
     atom:   47    charge:    1.9430    magn:   -0.0000    constr:    0.0000
     atom:   48    charge:    1.9444    magn:   -0.0000    constr:    0.0000
     atom:   49    charge:    0.6598    magn:   -0.0000    constr:    0.0000
     atom:   50    charge:    1.9547    magn:   -0.0000    constr:    0.0000
     atom:   51    charge:    0.3963    magn:    0.0000    constr:    0.0000
     atom:   52    charge:    0.4014    magn:    0.0000    constr:    0.0000
     atom:   53    charge:    0.4115    magn:    0.0000    constr:    0.0000
     atom:   54    charge:    0.4122    magn:    0.0000    constr:    0.0000

     total cpu time spent up to now is     1720.8 secs

     total energy              =   -3021.41882037 Ry
     Harris-Foulkes estimate   =   -3021.41887418 Ry
     estimated scf accuracy    <       0.00014473 Ry

     total magnetization       =     0.00 Bohr mag/cell
     absolute magnetization    =     0.00 Bohr mag/cell

     iteration #  6     ecut=    40.42 Ry     beta=0.10
     Davidson diagonalization with overlap
     ethr =  3.64E-08,  avg # of iterations =  3.4

     negative rho (up, down):  1.209E-02 1.209E-02
 
     Magnetic moment per site:
     atom:    1    charge:    3.1250    magn:   -0.0001    constr:    0.0000
     atom:    2    charge:    1.9452    magn:    0.0000    constr:    0.0000
     atom:    3    charge:    3.1198    magn:    0.0000    constr:    0.0000
     atom:    4    charge:    1.9504    magn:   -0.0000    constr:    0.0000
     atom:    5    charge:    3.1166    magn:    0.0000    constr:    0.0000
     atom:    6    charge:    1.9477    magn:   -0.0000    constr:    0.0000
     atom:    7    charge:    3.1157    magn:    0.0000    constr:    0.0000
     atom:    8    charge:    1.9453    magn:   -0.0000    constr:    0.0000
     atom:    9    charge:    3.1250    magn:   -0.0001    constr:    0.0000
     atom:   10    charge:    1.9452    magn:    0.0000    constr:    0.0000
     atom:   11    charge:    3.1197    magn:    0.0000    constr:    0.0000
     atom:   12    charge:    1.9504    magn:   -0.0000    constr:    0.0000
     atom:   13    charge:    3.1158    magn:    0.0000    constr:    0.0000
     atom:   14    charge:    1.9587    magn:   -0.0000    constr:    0.0000
     atom:   15    charge:    3.1188    magn:    0.0000    constr:    0.0000
     atom:   16    charge:    1.9446    magn:   -0.0000    constr:    0.0000
     atom:   17    charge:    1.9184    magn:    0.0002    constr:    0.0000
     atom:   18    charge:    3.1239    magn:   -0.0000    constr:    0.0000
     atom:   19    charge:    1.9408    magn:   -0.0000    constr:    0.0000
     atom:   20    charge:    1.9471    magn:    0.0000    constr:    0.0000
     atom:   21    charge:    1.9471    magn:    0.0000    constr:    0.0000
     atom:   22    charge:    3.1196    magn:    0.0000    constr:    0.0000
     atom:   23    charge:    1.9566    magn:   -0.0000    constr:    0.0000
     atom:   24    charge:    1.9379    magn:   -0.0000    constr:    0.0000
     atom:   25    charge:    1.9505    magn:   -0.0000    constr:    0.0000
     atom:   26    charge:    3.1145    magn:    0.0000    constr:    0.0000
     atom:   27    charge:    1.9398    magn:   -0.0000    constr:    0.0000
     atom:   28    charge:    1.9517    magn:   -0.0000    constr:    0.0000
     atom:   29    charge:    1.9476    magn:   -0.0000    constr:    0.0000
     atom:   30    charge:    3.1167    magn:    0.0000    constr:    0.0000
     atom:   31    charge:    1.9447    magn:   -0.0000    constr:    0.0000
     atom:   32    charge:    1.9440    magn:   -0.0000    constr:    0.0000
     atom:   33    charge:    1.9184    magn:    0.0002    constr:    0.0000
     atom:   34    charge:    3.1239    magn:   -0.0000    constr:    0.0000
     atom:   35    charge:    1.9408    magn:   -0.0000    constr:    0.0000
     atom:   36    charge:    1.9471    magn:    0.0000    constr:    0.0000
     atom:   37    charge:    1.9471    magn:    0.0000    constr:    0.0000
     atom:   38    charge:    3.1196    magn:    0.0000    constr:    0.0000
     atom:   39    charge:    1.9550    magn:   -0.0000    constr:    0.0000
     atom:   40    charge:    1.9383    magn:   -0.0000    constr:    0.0000
     atom:   41    charge:    1.9505    magn:   -0.0000    constr:    0.0000
     atom:   42    charge:    3.1141    magn:    0.0000    constr:    0.0000
     atom:   43    charge:    1.9413    magn:   -0.0000    constr:    0.0000
     atom:   44    charge:    1.9518    magn:   -0.0000    constr:    0.0000
     atom:   45    charge:    1.9468    magn:   -0.0000    constr:    0.0000
     atom:   46    charge:    3.1165    magn:    0.0000    constr:    0.0000
     atom:   47    charge:    1.9431    magn:   -0.0000    constr:    0.0000
     atom:   48    charge:    1.9444    magn:   -0.0000    constr:    0.0000
     atom:   49    charge:    0.6598    magn:   -0.0000    constr:    0.0000
     atom:   50    charge:    1.9545    magn:   -0.0000    constr:    0.0000
     atom:   51    charge:    0.3962    magn:    0.0000    constr:    0.0000
     atom:   52    charge:    0.4014    magn:    0.0000    constr:    0.0000
     atom:   53    charge:    0.4117    magn:    0.0000    constr:    0.0000
     atom:   54    charge:    0.4124    magn:    0.0000    constr:    0.0000

     total cpu time spent up to now is     1928.0 secs

     total energy              =   -3021.41883680 Ry
     Harris-Foulkes estimate   =   -3021.41884515 Ry
     estimated scf accuracy    <       0.00002979 Ry

     total magnetization       =     0.00 Bohr mag/cell
     absolute magnetization    =     0.00 Bohr mag/cell

     iteration #  7     ecut=    40.42 Ry     beta=0.10
     Davidson diagonalization with overlap
     ethr =  7.48E-09,  avg # of iterations =  3.8

     negative rho (up, down):  1.210E-02 1.210E-02
 
     Magnetic moment per site:
     atom:    1    charge:    3.1250    magn:   -0.0001    constr:    0.0000
     atom:    2    charge:    1.9451    magn:    0.0000    constr:    0.0000
     atom:    3    charge:    3.1198    magn:    0.0000    constr:    0.0000
     atom:    4    charge:    1.9504    magn:   -0.0000    constr:    0.0000
     atom:    5    charge:    3.1166    magn:    0.0000    constr:    0.0000
     atom:    6    charge:    1.9477    magn:   -0.0000    constr:    0.0000
     atom:    7    charge:    3.1157    magn:    0.0000    constr:    0.0000
     atom:    8    charge:    1.9452    magn:   -0.0000    constr:    0.0000
     atom:    9    charge:    3.1250    magn:   -0.0001    constr:    0.0000
     atom:   10    charge:    1.9452    magn:    0.0000    constr:    0.0000
     atom:   11    charge:    3.1197    magn:    0.0000    constr:    0.0000
     atom:   12    charge:    1.9504    magn:   -0.0000    constr:    0.0000
     atom:   13    charge:    3.1158    magn:    0.0000    constr:    0.0000
     atom:   14    charge:    1.9587    magn:   -0.0000    constr:    0.0000
     atom:   15    charge:    3.1188    magn:    0.0000    constr:    0.0000
     atom:   16    charge:    1.9445    magn:   -0.0000    constr:    0.0000
     atom:   17    charge:    1.9184    magn:    0.0002    constr:    0.0000
     atom:   18    charge:    3.1239    magn:   -0.0000    constr:    0.0000
     atom:   19    charge:    1.9408    magn:   -0.0000    constr:    0.0000
     atom:   20    charge:    1.9471    magn:    0.0000    constr:    0.0000
     atom:   21    charge:    1.9471    magn:    0.0000    constr:    0.0000
     atom:   22    charge:    3.1196    magn:    0.0000    constr:    0.0000
     atom:   23    charge:    1.9566    magn:   -0.0000    constr:    0.0000
     atom:   24    charge:    1.9379    magn:   -0.0000    constr:    0.0000
     atom:   25    charge:    1.9505    magn:   -0.0000    constr:    0.0000
     atom:   26    charge:    3.1145    magn:    0.0000    constr:    0.0000
     atom:   27    charge:    1.9398    magn:   -0.0000    constr:    0.0000
     atom:   28    charge:    1.9517    magn:   -0.0000    constr:    0.0000
     atom:   29    charge:    1.9476    magn:   -0.0000    constr:    0.0000
     atom:   30    charge:    3.1167    magn:    0.0000    constr:    0.0000
     atom:   31    charge:    1.9447    magn:   -0.0000    constr:    0.0000
     atom:   32    charge:    1.9440    magn:   -0.0000    constr:    0.0000
     atom:   33    charge:    1.9184    magn:    0.0002    constr:    0.0000
     atom:   34    charge:    3.1239    magn:   -0.0000    constr:    0.0000
     atom:   35    charge:    1.9408    magn:   -0.0000    constr:    0.0000
     atom:   36    charge:    1.9471    magn:    0.0000    constr:    0.0000
     atom:   37    charge:    1.9471    magn:    0.0000    constr:    0.0000
     atom:   38    charge:    3.1196    magn:    0.0000    constr:    0.0000
     atom:   39    charge:    1.9550    magn:   -0.0000    constr:    0.0000
     atom:   40    charge:    1.9383    magn:   -0.0000    constr:    0.0000
     atom:   41    charge:    1.9505    magn:   -0.0000    constr:    0.0000
     atom:   42    charge:    3.1141    magn:    0.0000    constr:    0.0000
     atom:   43    charge:    1.9413    magn:   -0.0000    constr:    0.0000
     atom:   44    charge:    1.9517    magn:   -0.0000    constr:    0.0000
     atom:   45    charge:    1.9469    magn:   -0.0000    constr:    0.0000
     atom:   46    charge:    3.1165    magn:    0.0000    constr:    0.0000
     atom:   47    charge:    1.9431    magn:   -0.0000    constr:    0.0000
     atom:   48    charge:    1.9444    magn:   -0.0000    constr:    0.0000
     atom:   49    charge:    0.6597    magn:   -0.0000    constr:    0.0000
     atom:   50    charge:    1.9547    magn:   -0.0000    constr:    0.0000
     atom:   51    charge:    0.3965    magn:    0.0000    constr:    0.0000
     atom:   52    charge:    0.4013    magn:    0.0000    constr:    0.0000
     atom:   53    charge:    0.4114    magn:    0.0000    constr:    0.0000
     atom:   54    charge:    0.4121    magn:    0.0000    constr:    0.0000

     total cpu time spent up to now is     2139.8 secs

     total energy              =   -3021.41883842 Ry
     Harris-Foulkes estimate   =   -3021.41884248 Ry
     estimated scf accuracy    <       0.00001557 Ry

     total magnetization       =     0.00 Bohr mag/cell
     absolute magnetization    =     0.00 Bohr mag/cell

     iteration #  8     ecut=    40.42 Ry     beta=0.10
     Davidson diagonalization with overlap
     ethr =  3.91E-09,  avg # of iterations =  3.0

     negative rho (up, down):  1.210E-02 1.210E-02
 
     Magnetic moment per site:
     atom:    1    charge:    3.1250    magn:   -0.0000    constr:    0.0000
     atom:    2    charge:    1.9451    magn:    0.0000    constr:    0.0000
     atom:    3    charge:    3.1198    magn:    0.0000    constr:    0.0000
     atom:    4    charge:    1.9504    magn:   -0.0000    constr:    0.0000
     atom:    5    charge:    3.1166    magn:    0.0000    constr:    0.0000
     atom:    6    charge:    1.9476    magn:   -0.0000    constr:    0.0000
     atom:    7    charge:    3.1156    magn:    0.0000    constr:    0.0000
     atom:    8    charge:    1.9452    magn:   -0.0000    constr:    0.0000
     atom:    9    charge:    3.1250    magn:   -0.0000    constr:    0.0000
     atom:   10    charge:    1.9452    magn:    0.0000    constr:    0.0000
     atom:   11    charge:    3.1197    magn:    0.0000    constr:    0.0000
     atom:   12    charge:    1.9504    magn:   -0.0000    constr:    0.0000
     atom:   13    charge:    3.1158    magn:    0.0000    constr:    0.0000
     atom:   14    charge:    1.9587    magn:   -0.0000    constr:    0.0000
     atom:   15    charge:    3.1188    magn:    0.0000    constr:    0.0000
     atom:   16    charge:    1.9445    magn:   -0.0000    constr:    0.0000
     atom:   17    charge:    1.9184    magn:    0.0001    constr:    0.0000
     atom:   18    charge:    3.1240    magn:   -0.0000    constr:    0.0000
     atom:   19    charge:    1.9408    magn:   -0.0000    constr:    0.0000
     atom:   20    charge:    1.9471    magn:    0.0000    constr:    0.0000
     atom:   21    charge:    1.9471    magn:    0.0000    constr:    0.0000
     atom:   22    charge:    3.1196    magn:    0.0000    constr:    0.0000
     atom:   23    charge:    1.9566    magn:   -0.0000    constr:    0.0000
     atom:   24    charge:    1.9379    magn:   -0.0000    constr:    0.0000
     atom:   25    charge:    1.9505    magn:   -0.0000    constr:    0.0000
     atom:   26    charge:    3.1145    magn:    0.0000    constr:    0.0000
     atom:   27    charge:    1.9398    magn:   -0.0000    constr:    0.0000
     atom:   28    charge:    1.9517    magn:   -0.0000    constr:    0.0000
     atom:   29    charge:    1.9476    magn:   -0.0000    constr:    0.0000
     atom:   30    charge:    3.1167    magn:    0.0000    constr:    0.0000
     atom:   31    charge:    1.9447    magn:   -0.0000    constr:    0.0000
     atom:   32    charge:    1.9440    magn:   -0.0000    constr:    0.0000
     atom:   33    charge:    1.9184    magn:    0.0001    constr:    0.0000
     atom:   34    charge:    3.1239    magn:   -0.0000    constr:    0.0000
     atom:   35    charge:    1.9408    magn:   -0.0000    constr:    0.0000
     atom:   36    charge:    1.9471    magn:    0.0000    constr:    0.0000
     atom:   37    charge:    1.9471    magn:    0.0000    constr:    0.0000
     atom:   38    charge:    3.1196    magn:    0.0000    constr:    0.0000
     atom:   39    charge:    1.9549    magn:   -0.0000    constr:    0.0000
     atom:   40    charge:    1.9383    magn:   -0.0000    constr:    0.0000
     atom:   41    charge:    1.9505    magn:   -0.0000    constr:    0.0000
     atom:   42    charge:    3.1141    magn:    0.0000    constr:    0.0000
     atom:   43    charge:    1.9413    magn:   -0.0000    constr:    0.0000
     atom:   44    charge:    1.9517    magn:   -0.0000    constr:    0.0000
     atom:   45    charge:    1.9468    magn:   -0.0000    constr:    0.0000
     atom:   46    charge:    3.1165    magn:    0.0000    constr:    0.0000
     atom:   47    charge:    1.9431    magn:   -0.0000    constr:    0.0000
     atom:   48    charge:    1.9444    magn:   -0.0000    constr:    0.0000
     atom:   49    charge:    0.6597    magn:   -0.0000    constr:    0.0000
     atom:   50    charge:    1.9546    magn:   -0.0000    constr:    0.0000
     atom:   51    charge:    0.3967    magn:    0.0000    constr:    0.0000
     atom:   52    charge:    0.4013    magn:    0.0000    constr:    0.0000
     atom:   53    charge:    0.4112    magn:    0.0000    constr:    0.0000
     atom:   54    charge:    0.4120    magn:    0.0000    constr:    0.0000

     total cpu time spent up to now is     2337.9 secs

     total energy              =   -3021.41883909 Ry
     Harris-Foulkes estimate   =   -3021.41883954 Ry
     estimated scf accuracy    <       0.00000368 Ry

     total magnetization       =     0.00 Bohr mag/cell
     absolute magnetization    =     0.00 Bohr mag/cell

     iteration #  9     ecut=    40.42 Ry     beta=0.10
     Davidson diagonalization with overlap
     ethr =  9.26E-10,  avg # of iterations =  3.0

     negative rho (up, down):  1.210E-02 1.210E-02
 
     Magnetic moment per site:
     atom:    1    charge:    3.1250    magn:   -0.0000    constr:    0.0000
     atom:    2    charge:    1.9452    magn:    0.0000    constr:    0.0000
     atom:    3    charge:    3.1197    magn:    0.0000    constr:    0.0000
     atom:    4    charge:    1.9504    magn:   -0.0000    constr:    0.0000
     atom:    5    charge:    3.1166    magn:    0.0000    constr:    0.0000
     atom:    6    charge:    1.9477    magn:   -0.0000    constr:    0.0000
     atom:    7    charge:    3.1156    magn:    0.0000    constr:    0.0000
     atom:    8    charge:    1.9453    magn:   -0.0000    constr:    0.0000
     atom:    9    charge:    3.1250    magn:   -0.0000    constr:    0.0000
     atom:   10    charge:    1.9452    magn:    0.0000    constr:    0.0000
     atom:   11    charge:    3.1197    magn:    0.0000    constr:    0.0000
     atom:   12    charge:    1.9504    magn:   -0.0000    constr:    0.0000
     atom:   13    charge:    3.1158    magn:    0.0000    constr:    0.0000
     atom:   14    charge:    1.9587    magn:   -0.0000    constr:    0.0000
     atom:   15    charge:    3.1188    magn:    0.0000    constr:    0.0000
     atom:   16    charge:    1.9446    magn:   -0.0000    constr:    0.0000
     atom:   17    charge:    1.9184    magn:    0.0001    constr:    0.0000
     atom:   18    charge:    3.1239    magn:   -0.0000    constr:    0.0000
     atom:   19    charge:    1.9408    magn:   -0.0000    constr:    0.0000
     atom:   20    charge:    1.9471    magn:    0.0000    constr:    0.0000
     atom:   21    charge:    1.9471    magn:    0.0000    constr:    0.0000
     atom:   22    charge:    3.1196    magn:    0.0000    constr:    0.0000
     atom:   23    charge:    1.9566    magn:   -0.0000    constr:    0.0000
     atom:   24    charge:    1.9379    magn:   -0.0000    constr:    0.0000
     atom:   25    charge:    1.9505    magn:   -0.0000    constr:    0.0000
     atom:   26    charge:    3.1145    magn:    0.0000    constr:    0.0000
     atom:   27    charge:    1.9397    magn:   -0.0000    constr:    0.0000
     atom:   28    charge:    1.9517    magn:   -0.0000    constr:    0.0000
     atom:   29    charge:    1.9476    magn:   -0.0000    constr:    0.0000
     atom:   30    charge:    3.1167    magn:    0.0000    constr:    0.0000
     atom:   31    charge:    1.9446    magn:   -0.0000    constr:    0.0000
     atom:   32    charge:    1.9440    magn:   -0.0000    constr:    0.0000
     atom:   33    charge:    1.9184    magn:    0.0001    constr:    0.0000
     atom:   34    charge:    3.1239    magn:   -0.0000    constr:    0.0000
     atom:   35    charge:    1.9408    magn:   -0.0000    constr:    0.0000
     atom:   36    charge:    1.9471    magn:    0.0000    constr:    0.0000
     atom:   37    charge:    1.9471    magn:    0.0000    constr:    0.0000
     atom:   38    charge:    3.1196    magn:    0.0000    constr:    0.0000
     atom:   39    charge:    1.9550    magn:   -0.0000    constr:    0.0000
     atom:   40    charge:    1.9383    magn:   -0.0000    constr:    0.0000
     atom:   41    charge:    1.9505    magn:   -0.0000    constr:    0.0000
     atom:   42    charge:    3.1141    magn:    0.0000    constr:    0.0000
     atom:   43    charge:    1.9413    magn:   -0.0000    constr:    0.0000
     atom:   44    charge:    1.9518    magn:   -0.0000    constr:    0.0000
     atom:   45    charge:    1.9468    magn:   -0.0000    constr:    0.0000
     atom:   46    charge:    3.1165    magn:    0.0000    constr:    0.0000
     atom:   47    charge:    1.9431    magn:   -0.0000    constr:    0.0000
     atom:   48    charge:    1.9444    magn:   -0.0000    constr:    0.0000
     atom:   49    charge:    0.6596    magn:   -0.0000    constr:    0.0000
     atom:   50    charge:    1.9545    magn:   -0.0000    constr:    0.0000
     atom:   51    charge:    0.3968    magn:    0.0000    constr:    0.0000
     atom:   52    charge:    0.4013    magn:    0.0000    constr:    0.0000
     atom:   53    charge:    0.4112    magn:    0.0000    constr:    0.0000
     atom:   54    charge:    0.4119    magn:    0.0000    constr:    0.0000

     total cpu time spent up to now is     2537.4 secs

     End of self-consistent calculation

 ------ SPIN UP ------------


          k = 0.0000 0.0000 0.0000 ( 34665 PWs)   bands (ev):

   -57.6849 -57.6500 -57.3009 -57.2646 -57.2132 -57.0949 -57.0584 -57.0573
   -57.0315 -57.0225 -56.9731 -56.9377 -56.7130 -56.6755 -56.1360 -56.1007
   -34.1211 -33.9672 -33.9387 -33.8860 -33.8532 -33.7917 -33.7312 -33.6339
   -33.6013 -33.5903 -33.5525 -33.5238 -33.5017 -33.4908 -33.4729 -33.4660
   -33.4452 -33.4375 -33.4120 -33.3839 -33.3089 -33.2771 -33.2569 -33.2476
   -33.2374 -33.2355 -33.2280 -33.2256 -33.2220 -33.2144 -33.2099 -33.1976
   -33.1634 -33.1631 -33.1595 -33.1239 -33.1014 -32.9792 -32.9606 -32.9397
   -32.8907 -32.7878 -32.5538 -32.4883 -32.4623 -32.3580 -32.2664 -32.1580
   -20.1089 -17.9959 -17.8272 -17.5404 -17.4440 -17.3558 -17.2353 -17.0620
   -17.0529 -16.9581 -16.9242 -16.8708 -16.7670 -16.7607 -16.7100 -16.6921
   -16.6857 -16.6455 -16.5977 -16.5851 -16.5210 -16.3986 -16.3859 -16.3840
   -16.3018 -16.2527 -16.1790 -16.1523 -16.1353 -15.9619 -15.9131 -14.7209
   -14.6372 -11.4961  -7.1287  -5.4187  -5.3714  -5.3002  -5.2251  -5.1829
    -5.1275  -5.1012  -4.8239  -4.8047  -4.4572  -4.4261  -4.3446  -4.3390
    -4.3051  -4.2187  -4.0741  -4.0451  -4.0391  -4.0027  -3.9826  -3.9753
    -3.9471  -3.9372  -3.9322  -3.8250  -3.7723  -3.7471  -3.7204  -3.7049
    -3.6173  -3.6008  -3.5698  -3.5606  -3.5049  -3.4937  -3.3933  -3.3821
    -3.3625  -3.2742  -3.2239  -3.1802  -2.9985  -2.9206  -2.8653  -2.8220
    -2.6802  -2.5892  -2.5750  -2.5664  -2.5583  -2.5507  -2.4169  -2.3987
    -2.3215  -2.2541  -2.2320  -2.1896  -2.1846  -2.1570  -2.1222  -2.0769
    -2.0322  -2.0105  -2.0037  -1.8712  -1.8526  -1.7554  -1.7194  -1.6102
    -1.5271  -1.5248  -1.4737  -1.4643  -1.4478  -1.4083  -1.3077  -1.2942
    -1.2869  -1.2638  -1.2268  -1.1192  -1.0790  -1.0712  -1.0508  -1.0025
    -0.9381  -0.8992  -0.8086  -0.7503  -0.5952  -0.5722  -0.5554  -0.4613
    -0.3597  -0.2296  -0.0715  -0.0105   0.1446   0.2612   0.2749   1.6564
     1.6891   2.0007   2.0159   2.0822   2.1141   2.2200   2.2607   2.3037
     2.4469   2.5130   2.5414   2.5445   2.5572   2.6469   2.6644   2.6723
     2.7313   2.8156   2.8448   2.8563   2.9285   3.0173   3.0507   3.1181
     3.1189   3.1325   3.1761   3.2175   3.2247   3.2400   3.2561   3.2680
     3.2743   3.3057   3.4139   3.4451   3.4736   3.4834   3.5419   3.6026
     3.6705   3.7113   3.8250   3.9977   4.0322   4.1088   4.1934   4.3312
     4.3559   4.4054   4.5865   4.6124   4.8215   4.8554   5.1020   5.1837
     5.2555   5.3444   5.4805   5.5216   5.5329   5.6117   5.6914   5.7307
     5.8148   5.8803   5.8925   5.9004   5.9710   6.0209   6.0617   6.0816
     6.1579   6.2446   6.2628   6.3139   6.3932   6.5861   6.6522   6.7494
     6.8551   7.0054   7.0488   7.1601   7.3158   7.5550   7.9131   8.2610
     8.3609   8.6469   8.8049   8.8512   8.9384   9.0029   9.0884   9.2180
     9.3602   9.3751   9.5219

          k = 0.0000 0.0280 0.0000 ( 34717 PWs)   bands (ev):

   -57.6826 -57.6523 -57.2985 -57.2671 -57.2128 -57.0926 -57.0606 -57.0551
   -57.0320 -57.0248 -56.9708 -56.9400 -56.7105 -56.6780 -56.1337 -56.1031
   -34.0958 -33.9652 -33.9405 -33.8798 -33.8273 -33.7982 -33.7582 -33.6112
   -33.5945 -33.5653 -33.5272 -33.5209 -33.5037 -33.4838 -33.4742 -33.4673
   -33.4537 -33.4424 -33.4101 -33.3770 -33.3028 -33.2753 -33.2706 -33.2491
   -33.2398 -33.2335 -33.2331 -33.2248 -33.2228 -33.2210 -33.2207 -33.2002
   -33.1874 -33.1683 -33.1603 -33.1279 -33.1246 -32.9753 -32.9592 -32.9410
   -32.8957 -32.8158 -32.5281 -32.4866 -32.4641 -32.3519 -32.2726 -32.1855
   -20.1088 -17.9341 -17.7696 -17.4874 -17.3918 -17.3121 -17.2087 -17.0749
   -17.0227 -16.9843 -16.9774 -16.8719 -16.8027 -16.7445 -16.6879 -16.6729
   -16.6601 -16.6464 -16.6381 -16.6284 -16.5799 -16.4224 -16.3671 -16.3543
   -16.3285 -16.2823 -16.1961 -16.1581 -16.1397 -15.9926 -15.9502 -14.7309
   -14.6606 -11.4958  -7.1284  -5.3477  -5.3056  -5.2924  -5.1890  -5.1119
    -5.0515  -5.0255  -4.7484  -4.6887  -4.4189  -4.3845  -4.3795  -4.2957
    -4.2848  -4.1462  -4.1073  -4.0981  -4.0765  -4.0553  -4.0170  -4.0147
    -3.9514  -3.9452  -3.9337  -3.8752  -3.8369  -3.8300  -3.8194  -3.7507
    -3.7077  -3.6866  -3.6509  -3.6011  -3.5598  -3.5431  -3.4172  -3.3514
    -3.3102  -3.2205  -3.1991  -3.0902  -2.9195  -2.8559  -2.7342  -2.7088
    -2.5997  -2.5872  -2.5107  -2.4946  -2.4620  -2.4249  -2.3972  -2.3930
    -2.3707  -2.3447  -2.2742  -2.2610  -2.1534  -2.1278  -2.1211  -2.0772
    -2.0069  -1.9833  -1.9387  -1.8620  -1.7964  -1.7579  -1.6914  -1.6655
    -1.6263  -1.6088  -1.5471  -1.5102  -1.4670  -1.4214  -1.4193  -1.3803
    -1.3393  -1.2568  -1.2019  -1.1986  -1.1445  -1.0783  -1.0597  -1.0066
    -0.9941  -0.8893  -0.8566  -0.7749  -0.7473  -0.6913  -0.5926  -0.5732
    -0.3780  -0.2571  -0.0788  -0.0647   0.1594   0.2148   0.2414   1.7429
     1.7886   1.9999   2.0821   2.1492   2.1665   2.2349   2.2895   2.3292
     2.4407   2.4766   2.5127   2.5519   2.6019   2.6172   2.6470   2.7078
     2.7488   2.7873   2.8134   2.9299   2.9395   2.9692   2.9931   3.0248
     3.1284   3.1339   3.1494   3.1901   3.2076   3.2215   3.2750   3.3208
     3.3498   3.3855   3.4241   3.4903   3.5232   3.5658   3.5784   3.6627
     3.6811   3.7027   3.7884   3.9761   4.0514   4.1305   4.2047   4.3035
     4.3368   4.4086   4.5545   4.6885   4.8738   4.9419   5.1062   5.2738
     5.3164   5.3489   5.5523   5.5722   5.6159   5.6241   5.7028   5.7330
     5.7993   5.8079   5.8673   5.8942   5.9114   5.9615   6.0747   6.1262
     6.1628   6.1719   6.1806   6.2213   6.2902   6.5681   6.6178   6.6999
     6.8464   6.9540   6.9820   7.0766   7.2411   7.5645   7.9183   8.0149
     8.0692   8.4650   8.5512   8.7925   8.8767   8.9880   9.0918   9.1163
     9.2708   9.4109   9.4945

          k = 0.0000 0.0560 0.0000 ( 34721 PWs)   bands (ev):

   -57.6762 -57.6588 -57.2920 -57.2736 -57.2119 -57.0866 -57.0667 -57.0488
   -57.0328 -57.0313 -56.9643 -56.9465 -56.7039 -56.6847 -56.1272 -56.1096
   -34.0260 -33.9599 -33.9456 -33.8627 -33.8312 -33.8156 -33.7562 -33.5790
   -33.5550 -33.5535 -33.5178 -33.5105 -33.4912 -33.4872 -33.4577 -33.4570
   -33.4367 -33.4073 -33.4019 -33.3575 -33.2980 -33.2979 -33.2967 -33.2863
   -33.2710 -33.2610 -33.2528 -33.2445 -33.2382 -33.2294 -33.2190 -33.2170
   -33.1932 -33.1813 -33.1537 -33.1480 -33.1090 -32.9702 -32.9556 -32.9444
   -32.9087 -32.8855 -32.4818 -32.4689 -32.4574 -32.3354 -32.2895 -32.2596
   -20.1084 -17.7630 -17.6110 -17.3561 -17.2589 -17.2427 -17.2022 -17.1528
   -17.1198 -16.9459 -16.9398 -16.9044 -16.8580 -16.8008 -16.7709 -16.7122
   -16.7010 -16.6670 -16.6058 -16.5817 -16.5223 -16.4878 -16.4033 -16.3629
   -16.3457 -16.2876 -16.2254 -16.1791 -16.1429 -16.0934 -16.0229 -14.7492
   -14.7112 -11.4949  -7.1276  -5.3182  -5.2616  -5.0612  -5.0149  -4.9073
    -4.8428  -4.8046  -4.5468  -4.4883  -4.4564  -4.4013  -4.3953  -4.3504
    -4.3146  -4.2456  -4.2187  -4.1964  -4.1814  -4.1708  -4.1404  -4.0603
    -4.0411  -3.9896  -3.9687  -3.9524  -3.9161  -3.8738  -3.8378  -3.8033
    -3.7811  -3.7163  -3.6207  -3.5714  -3.4189  -3.4131  -3.3532  -3.2524
    -3.2225  -3.1998  -3.1774  -3.0682  -2.8849  -2.8283  -2.8233  -2.7829
    -2.7067  -2.6540  -2.5340  -2.4593  -2.4293  -2.3083  -2.3009  -2.2961
    -2.2874  -2.2331  -2.1911  -2.1634  -2.1344  -2.1021  -2.0169  -1.9939
    -1.9462  -1.9319  -1.9001  -1.8909  -1.8691  -1.8345  -1.8003  -1.7683
    -1.7298  -1.6789  -1.6086  -1.5264  -1.5112  -1.4937  -1.4389  -1.4045
    -1.3647  -1.3497  -1.3339  -1.2744  -1.2233  -1.2014  -1.1447  -1.0950
    -1.0731  -1.0086  -0.9094  -0.8763  -0.8346  -0.7703  -0.7466  -0.6467
    -0.5713  -0.4472  -0.2256   0.1040   0.1566   0.1915   0.1982   1.8785
     2.0383   2.1148   2.1230   2.2272   2.2507   2.2840   2.3835   2.4047
     2.4095   2.4275   2.4510   2.4908   2.5169   2.5555   2.6904   2.7117
     2.7513   2.7897   2.8452   2.9198   2.9320   2.9550   2.9864   2.9904
     3.0316   3.1144   3.1550   3.1726   3.2663   3.2782   3.3026   3.3434
     3.3846   3.4041   3.4552   3.5521   3.5590   3.6534   3.6933   3.7435
     3.7769   3.8371   3.8739   3.9038   3.9485   4.1454   4.1572   4.1722
     4.3441   4.3890   4.5770   4.9173   5.0308   5.0582   5.1892   5.3918
     5.3952   5.4940   5.5343   5.5652   5.6664   5.7375   5.7393   5.7488
     5.7941   5.8017   5.8108   5.8694   5.8992   5.9413   5.9875   6.0005
     6.0177   6.0694   6.1682   6.1830   6.3058   6.3768   6.4088   6.6129
     6.6706   6.7936   6.8779   7.0420   7.1890   7.3385   7.4365   7.7192
     8.0721   8.1966   8.3386   8.5890   8.8875   9.0006   9.2849   9.3190
     9.4264   9.4323   9.5608

          k = 0.0000-0.0840 0.0000 ( 34678 PWs)   bands (ev):

   -57.6676 -57.6674 -57.2845 -57.2812 -57.2115 -57.0811 -57.0722 -57.0401
   -57.0400 -57.0333 -56.9560 -56.9549 -56.6968 -56.6918 -56.1184 -56.1184
   -33.9528 -33.9526 -33.9294 -33.9293 -33.8393 -33.8392 -33.6694 -33.6453
   -33.5491 -33.5454 -33.5093 -33.5012 -33.4969 -33.4577 -33.4338 -33.4055
   -33.3987 -33.3926 -33.3600 -33.3597 -33.3432 -33.3322 -33.3262 -33.3073
   -33.3059 -33.2699 -33.2629 -33.2607 -33.2542 -33.2480 -33.2175 -33.2158
   -33.1987 -33.1968 -33.1468 -33.1459 -33.0317 -33.0107 -32.9525 -32.9472
   -32.9225 -32.9196 -32.4753 -32.4753 -32.3595 -32.3594 -32.3124 -32.3124
   -20.1083 -17.5518 -17.4894 -17.3964 -17.3759 -17.2131 -17.1576 -17.0509
   -17.0447 -16.9990 -16.9851 -16.9726 -16.8545 -16.8262 -16.8262 -16.7861
   -16.7794 -16.5794 -16.5774 -16.5063 -16.5039 -16.4734 -16.4720 -16.3878
   -16.3852 -16.2471 -16.2450 -16.1867 -16.1829 -16.1146 -16.0856 -14.7480
   -14.7478 -11.4945  -7.1271  -5.3242  -5.2465  -4.7826  -4.7198  -4.7188
    -4.6381  -4.6255  -4.6209  -4.5866  -4.5549  -4.4917  -4.4822  -4.3846
    -4.3570  -4.3242  -4.3215  -4.2938  -4.2810  -4.2658  -4.2600  -4.0372
    -4.0172  -4.0077  -3.9937  -3.9762  -3.9235  -3.7929  -3.7774  -3.7731
    -3.7028  -3.6784  -3.6230  -3.4957  -3.4610  -3.3249  -3.3123  -3.2716
    -3.1234  -3.1012  -3.0302  -3.0043  -2.9478  -2.9134  -2.7891  -2.7721
    -2.6826  -2.6784  -2.5612  -2.5239  -2.4966  -2.4797  -2.4618  -2.4325
    -2.4231  -2.4034  -2.3152  -2.2293  -2.0171  -1.9927  -1.9545  -1.9291
    -1.9112  -1.8139  -1.8076  -1.7941  -1.7663  -1.7301  -1.7160  -1.6835
    -1.6493  -1.6243  -1.5975  -1.5410  -1.4971  -1.4726  -1.4662  -1.4354
    -1.4109  -1.4028  -1.3958  -1.3646  -1.3426  -1.3093  -1.2113  -1.1716
    -1.0896  -1.0577  -1.0033  -0.9631  -0.9563  -0.9450  -0.9318  -0.5078
    -0.5029  -0.4406  -0.4262   0.1565   0.1566   0.1990   0.2008   2.0532
     2.0563   2.2332   2.2337   2.2365   2.2540   2.3026   2.3569   2.3608
     2.3609   2.3892   2.4003   2.5449   2.5682   2.5693   2.6183   2.6807
     2.7312   2.7518   2.7655   2.9081   2.9386   3.0052   3.0133   3.0740
     3.0754   3.1179   3.1289   3.1970   3.2362   3.2498   3.2628   3.4202
     3.4413   3.4523   3.4551   3.4886   3.5001   3.7425   3.7819   3.8209
     3.8242   3.8480   3.9238   3.9463   3.9860   4.0871   4.0894   4.1394
     4.1400   4.4360   4.6845   4.9762   5.0159   5.2723   5.3437   5.4729
     5.5047   5.5219   5.5219   5.5663   5.6006   5.6627   5.6810   5.6894
     5.8156   5.8205   5.8420   5.8651   5.8768   5.8816   5.9019   5.9886
     6.0327   6.0714   6.0797   6.1719   6.2029   6.3929   6.4698   6.5688
     6.6114   6.7458   6.7777   6.9615   7.0409   7.0896   7.3236   7.6677
     7.8917   8.1623   8.3917   8.7787   8.8317   8.8665   9.1319   9.6286
     9.7055   9.7534   9.7713

          k = 0.0253 0.0000 0.0000 ( 34707 PWs)   bands (ev):

   -57.6849 -57.6500 -57.3009 -57.2646 -57.2132 -57.0948 -57.0584 -57.0574
   -57.0315 -57.0225 -56.9731 -56.9377 -56.7130 -56.6755 -56.1360 -56.1007
   -34.1214 -33.9672 -33.9387 -33.8853 -33.8533 -33.7917 -33.7313 -33.6346
   -33.6013 -33.5919 -33.5528 -33.5204 -33.5155 -33.4917 -33.4660 -33.4580
   -33.4440 -33.4375 -33.4120 -33.3770 -33.3088 -33.2772 -33.2566 -33.2477
   -33.2414 -33.2386 -33.2292 -33.2261 -33.2215 -33.2145 -33.2100 -33.1974
   -33.1633 -33.1631 -33.1599 -33.1239 -33.1015 -32.9792 -32.9630 -32.9388
   -32.8907 -32.7880 -32.5537 -32.4894 -32.4617 -32.3580 -32.2664 -32.1581
   -20.1087 -17.9660 -17.7873 -17.4981 -17.4152 -17.3391 -17.2418 -17.1310
   -17.0766 -16.9588 -16.9238 -16.8544 -16.8048 -16.7860 -16.7722 -16.7660
   -16.7121 -16.6793 -16.5394 -16.5145 -16.4389 -16.4357 -16.3865 -16.3561
   -16.3197 -16.2972 -16.1675 -16.1503 -16.1365 -15.9617 -15.9129 -14.7197
   -14.6371 -11.4950  -7.1257  -5.3939  -5.2995  -5.2582  -5.2054  -5.0802
    -5.0287  -4.9963  -4.8185  -4.8001  -4.6008  -4.4542  -4.4218  -4.3158
    -4.2953  -4.2853  -4.2290  -4.0829  -4.0188  -4.0147  -3.9797  -3.9313
    -3.9235  -3.8937  -3.8158  -3.7853  -3.7343  -3.7062  -3.6797  -3.6775
    -3.6028  -3.5813  -3.5532  -3.5450  -3.5015  -3.4339  -3.3396  -3.2947
    -3.2377  -3.2241  -3.1721  -3.0914  -3.0184  -2.9603  -2.9089  -2.8823
    -2.7394  -2.6572  -2.6154  -2.5833  -2.5656  -2.5144  -2.5042  -2.4883
    -2.4160  -2.3207  -2.3071  -2.2208  -2.2045  -2.1674  -2.1491  -2.0538
    -1.9931  -1.9826  -1.9489  -1.8668  -1.8402  -1.7381  -1.7234  -1.6367
    -1.5699  -1.5662  -1.5213  -1.4478  -1.4417  -1.3508  -1.3425  -1.3279
    -1.3212  -1.2739  -1.2594  -1.1726  -1.1116  -1.1025  -1.0701  -1.0366
    -0.9580  -0.8990  -0.8140  -0.7729  -0.7590  -0.6354  -0.6252  -0.5370
    -0.4045  -0.2239  -0.1008  -0.0395   0.1305   0.2184   0.2193   1.6760
     1.7389   2.0151   2.0878   2.1640   2.2410   2.2551   2.2859   2.3935
     2.4018   2.4738   2.5209   2.5390   2.5550   2.5934   2.6134   2.6521
     2.6713   2.7515   2.7740   2.8844   2.9014   2.9872   3.0482   3.1231
     3.1348   3.1621   3.1775   3.2187   3.2254   3.2698   3.2832   3.3531
     3.3947   3.4194   3.4671   3.4885   3.5492   3.5782   3.6085   3.6140
     3.6808   3.7473   3.7644   3.9302   4.0186   4.1128   4.1876   4.2927
     4.3877   4.4057   4.5660   4.6757   4.8802   4.9226   4.9431   5.0836
     5.1363   5.1612   5.2072   5.3598   5.5667   5.6224   5.7051   5.8783
     5.8976   5.9418   5.9729   6.0301   6.0928   6.1138   6.1777   6.2258
     6.2344   6.2678   6.2776   6.3230   6.4621   6.5247   6.6479   6.6763
     6.8311   6.8797   7.0477   7.1430   7.3156   7.7260   7.8278   8.0701
     8.3336   8.3818   8.4338   8.6548   8.8558   8.8890   9.1414   9.3461
     9.3711   9.4636   9.4932

          k = 0.0253 0.0280 0.0000 ( 34687 PWs)   bands (ev):

   -57.6826 -57.6523 -57.2985 -57.2671 -57.2128 -57.0926 -57.0606 -57.0552
   -57.0320 -57.0248 -56.9708 -56.9400 -56.7105 -56.6780 -56.1337 -56.1031
   -34.0961 -33.9652 -33.9405 -33.8791 -33.8274 -33.7981 -33.7583 -33.6119
   -33.5945 -33.5669 -33.5274 -33.5176 -33.5050 -33.4992 -33.4744 -33.4544
   -33.4490 -33.4412 -33.4101 -33.3702 -33.3027 -33.2755 -33.2684 -33.2491
   -33.2399 -33.2372 -33.2333 -33.2325 -33.2224 -33.2210 -33.2200 -33.1989
   -33.1875 -33.1683 -33.1603 -33.1278 -33.1246 -32.9753 -32.9613 -32.9403
   -32.8957 -32.8158 -32.5280 -32.4875 -32.4636 -32.3519 -32.2726 -32.1855
   -20.1086 -17.9057 -17.7306 -17.4470 -17.3654 -17.2920 -17.2154 -17.1147
   -17.0813 -16.9902 -16.9487 -16.8417 -16.8163 -16.7875 -16.7660 -16.7544
   -16.6992 -16.6818 -16.5832 -16.5599 -16.4912 -16.4582 -16.3640 -16.3485
   -16.3388 -16.3147 -16.1846 -16.1577 -16.1395 -15.9930 -15.9499 -14.7299
   -14.6607 -11.4946  -7.1253  -5.3371  -5.3046  -5.1859  -5.1606  -5.0041
    -4.9505  -4.9164  -4.7434  -4.6858  -4.5450  -4.3884  -4.3555  -4.3314
    -4.2434  -4.2363  -4.1708  -4.1006  -4.0702  -4.0480  -4.0171  -4.0036
    -3.9612  -3.9271  -3.8967  -3.8514  -3.8066  -3.7938  -3.7687  -3.7055
    -3.6794  -3.6468  -3.6000  -3.5894  -3.5258  -3.5119  -3.3489  -3.2985
    -3.2361  -3.2044  -3.1365  -3.0597  -2.9673  -2.9336  -2.7717  -2.6922
    -2.6669  -2.6213  -2.5957  -2.5186  -2.4875  -2.4391  -2.4323  -2.4052
    -2.3899  -2.3711  -2.3237  -2.2870  -2.2006  -2.1620  -2.1003  -2.0841
    -2.0520  -1.9826  -1.9327  -1.8771  -1.8512  -1.8122  -1.7458  -1.6577
    -1.6290  -1.6005  -1.5726  -1.5462  -1.4929  -1.4457  -1.4240  -1.3846
    -1.3300  -1.3123  -1.2530  -1.2383  -1.1930  -1.0996  -1.0830  -1.0450
    -0.9995  -0.8737  -0.8259  -0.8199  -0.7482  -0.7248  -0.6786  -0.6429
    -0.4155  -0.2679  -0.1180  -0.0728   0.1626   0.1917   0.2019   1.7350
     1.8590   2.0304   2.1161   2.2121   2.2627   2.2976   2.3321   2.4136
     2.4320   2.4837   2.5050   2.5404   2.5468   2.5697   2.6079   2.6901
     2.7211   2.7434   2.8037   2.8236   2.9479   3.0041   3.0256   3.0526
     3.1234   3.1518   3.1608   3.1885   3.2240   3.2593   3.3611   3.3885
     3.4203   3.4525   3.4785   3.5271   3.5696   3.5862   3.6524   3.6750
     3.6883   3.7252   3.7668   3.9109   4.0112   4.1547   4.1996   4.2696
     4.3203   4.4639   4.5224   4.7695   4.9459   4.9623   5.0101   5.0919
     5.1750   5.1908   5.2417   5.3979   5.6496   5.6859   5.7375   5.7893
     5.8655   5.8787   5.8858   6.0243   6.0854   6.0951   6.1350   6.1603
     6.2088   6.2147   6.2270   6.2476   6.4422   6.5361   6.6227   6.6691
     6.7890   6.8787   6.9767   7.1446   7.2325   7.4965   7.9040   8.0171
     8.1028   8.2159   8.4410   8.5768   8.6423   8.7676   8.9341   9.2486
     9.3410   9.4325   9.5095

          k = 0.0253 0.0560 0.0000 ( 34699 PWs)   bands (ev):

   -57.6762 -57.6588 -57.2920 -57.2736 -57.2119 -57.0865 -57.0666 -57.0488
   -57.0328 -57.0313 -56.9643 -56.9465 -56.7039 -56.6847 -56.1272 -56.1096
   -34.0262 -33.9599 -33.9456 -33.8622 -33.8313 -33.8154 -33.7563 -33.5790
   -33.5550 -33.5541 -33.5179 -33.5085 -33.4930 -33.4911 -33.4577 -33.4573
   -33.4358 -33.4074 -33.3966 -33.3521 -33.2988 -33.2972 -33.2935 -33.2861
   -33.2712 -33.2614 -33.2528 -33.2434 -33.2383 -33.2316 -33.2231 -33.2193
   -33.1934 -33.1820 -33.1537 -33.1479 -33.1088 -32.9702 -32.9571 -32.9443
   -32.9087 -32.8855 -32.4825 -32.4686 -32.4573 -32.3354 -32.2896 -32.2596
   -20.1082 -17.7394 -17.5753 -17.3268 -17.2480 -17.2264 -17.1771 -17.1535
   -17.1226 -16.9818 -16.9537 -16.8658 -16.8608 -16.8102 -16.7792 -16.7587
   -16.7326 -16.6535 -16.6035 -16.5863 -16.5642 -16.5133 -16.4112 -16.3935
   -16.3390 -16.2706 -16.2183 -16.1783 -16.1427 -16.0942 -16.0223 -14.7485
   -14.7114 -11.4937  -7.1244  -5.3177  -5.2685  -5.0071  -4.9349  -4.7959
    -4.7415  -4.6952  -4.5430  -4.4808  -4.4735  -4.3973  -4.3800  -4.3230
    -4.2545  -4.2161  -4.2008  -4.1759  -4.1320  -4.1256  -4.0893  -4.0467
    -4.0158  -3.9954  -3.9758  -3.9185  -3.9091  -3.8589  -3.8419  -3.8053
    -3.7580  -3.7014  -3.6392  -3.5564  -3.4595  -3.3936  -3.3235  -3.2670
    -3.2223  -3.2064  -3.1790  -2.9961  -2.9293  -2.8471  -2.8146  -2.7637
    -2.7446  -2.6310  -2.5786  -2.4953  -2.4744  -2.4215  -2.3772  -2.3495
    -2.3280  -2.3096  -2.2719  -2.2473  -2.1745  -2.1269  -2.1127  -2.0249
    -1.9951  -1.9939  -1.9313  -1.9226  -1.8870  -1.8456  -1.8183  -1.7956
    -1.7301  -1.6880  -1.6624  -1.6216  -1.5576  -1.5212  -1.4781  -1.4586
    -1.4166  -1.3565  -1.3227  -1.2887  -1.2081  -1.1897  -1.1228  -1.0909
    -1.0518  -0.9989  -0.8950  -0.8613  -0.8047  -0.7851  -0.7269  -0.6670
    -0.5911  -0.4489  -0.2397   0.1050   0.1417   0.1687   0.2013   1.8758
     2.0620   2.1498   2.1929   2.2478   2.2891   2.3205   2.3648   2.3990
     2.4434   2.4768   2.4979   2.5253   2.5344   2.5989   2.7107   2.7385
     2.7553   2.7908   2.8402   2.8555   2.9202   2.9696   2.9913   3.0036
     3.0438   3.0492   3.1732   3.2243   3.3030   3.3443   3.3576   3.3995
     3.4240   3.4542   3.4776   3.5573   3.5745   3.6469   3.6732   3.7508
     3.8097   3.8362   3.8757   3.9159   3.9201   4.0890   4.1305   4.1792
     4.3568   4.4020   4.6276   4.9768   5.0284   5.1248   5.1553   5.1728
     5.2775   5.3043   5.3313   5.4499   5.5266   5.5751   5.6536   5.7745
     5.8364   5.8657   5.9061   5.9435   5.9719   6.0081   6.0541   6.0716
     6.1516   6.1704   6.2340   6.3327   6.3927   6.4101   6.4808   6.6427
     6.6993   6.8094   6.8531   7.0402   7.1412   7.3713   7.4724   7.5755
     7.9472   8.1619   8.3336   8.5035   8.6425   8.8505   9.0318   9.1240
     9.1705   9.4691   9.5909

          k = 0.0253-0.0840 0.0000 ( 34722 PWs)   bands (ev):

   -57.6676 -57.6674 -57.2845 -57.2812 -57.2115 -57.0810 -57.0721 -57.0401
   -57.0400 -57.0333 -56.9560 -56.9549 -56.6968 -56.6918 -56.1184 -56.1184
   -33.9528 -33.9526 -33.9297 -33.9295 -33.8390 -33.8388 -33.6695 -33.6455
   -33.5491 -33.5454 -33.5098 -33.5010 -33.4967 -33.4577 -33.4330 -33.4060
   -33.4005 -33.3951 -33.3609 -33.3608 -33.3440 -33.3253 -33.3194 -33.3059
   -33.3044 -33.2697 -33.2627 -33.2610 -33.2544 -33.2465 -33.2211 -33.2196
   -33.2004 -33.1985 -33.1468 -33.1459 -33.0316 -33.0107 -32.9531 -32.9481
   -32.9225 -32.9196 -32.4756 -32.4756 -32.3595 -32.3595 -32.3124 -32.3124
   -20.1081 -17.5384 -17.4711 -17.3681 -17.3496 -17.1971 -17.1365 -17.0444
   -17.0336 -16.9865 -16.9616 -16.9580 -16.8741 -16.8656 -16.8525 -16.7710
[...]
    -1.2832  -1.2555  -1.2478  -1.1757  -1.1449  -1.0149  -1.0052  -0.9969
    -0.9729  -0.9312  -0.8883  -0.8210  -0.7383  -0.6844  -0.6320  -0.5792
    -0.5751  -0.5185  -0.5018   0.0792   0.0793   0.2239   0.2256   2.1680
     2.1688   2.2152   2.2170   2.2558   2.2568   2.2836   2.3152   2.5029
     2.5078   2.5421   2.5725   2.6253   2.6333   2.6939   2.6956   2.7066
     2.7077   2.8621   2.9271   2.9984   3.0141   3.0501   3.0576   3.1163
     3.2367   3.2647   3.2884   3.3492   3.3897   3.4062   3.4608   3.5092
     3.5165   3.5386   3.5659   3.5975   3.6200   3.6971   3.7176   3.7625
     3.8520   3.9081   3.9242   3.9662   3.9666   4.1099   4.1169   4.1255
     4.1260   4.6325   4.7965   4.8009   4.8140   4.8881   4.9356   4.9408
     4.9579   5.0029   5.0447   5.2648   5.3523   5.3752   5.3848   5.7345
     5.8144   5.9252   5.9436   5.9953   6.0541   6.1431   6.3104   6.3653
     6.3809   6.3904   6.4254   6.5809   6.5963   6.6782   6.6784   6.7183
     6.7610   6.8538   6.8548   6.8660   6.8669   7.3458   7.3874   7.5078
     7.6490   7.8233   7.9899   8.1644   8.2118   8.3045   8.3178   8.7943
     8.9142   9.0100   9.0751

          k =-0.0253 0.0280 0.0000 ( 34687 PWs)   bands (ev):

   -57.6827 -57.6524 -57.2985 -57.2670 -57.2127 -57.0925 -57.0606 -57.0552
   -57.0319 -57.0248 -56.9707 -56.9400 -56.7105 -56.6780 -56.1339 -56.1033
   -34.0961 -33.9653 -33.9406 -33.8792 -33.8273 -33.7982 -33.7583 -33.6119
   -33.5945 -33.5669 -33.5274 -33.5176 -33.5050 -33.4992 -33.4743 -33.4544
   -33.4489 -33.4411 -33.4101 -33.3702 -33.3027 -33.2755 -33.2684 -33.2491
   -33.2396 -33.2372 -33.2334 -33.2324 -33.2224 -33.2209 -33.2200 -33.1989
   -33.1875 -33.1682 -33.1602 -33.1278 -33.1245 -32.9753 -32.9613 -32.9402
   -32.8957 -32.8158 -32.5283 -32.4877 -32.4638 -32.3522 -32.2728 -32.1857
   -20.1086 -17.9058 -17.7306 -17.4470 -17.3655 -17.2920 -17.2155 -17.1146
   -17.0815 -16.9899 -16.9487 -16.8421 -16.8163 -16.7884 -16.7656 -16.7542
   -16.6992 -16.6820 -16.5830 -16.5595 -16.4913 -16.4582 -16.3641 -16.3486
   -16.3389 -16.3147 -16.1846 -16.1577 -16.1394 -15.9930 -15.9500 -14.7295
   -14.6602 -11.4946  -7.1253  -5.3370  -5.3046  -5.1858  -5.1605  -5.0044
    -4.9506  -4.9167  -4.7435  -4.6865  -4.5449  -4.3881  -4.3554  -4.3317
    -4.2446  -4.2331  -4.1721  -4.0992  -4.0743  -4.0478  -4.0196  -4.0038
    -3.9600  -3.9253  -3.8981  -3.8523  -3.8066  -3.7955  -3.7688  -3.7055
    -3.6823  -3.6455  -3.5998  -3.5885  -3.5242  -3.5111  -3.3555  -3.2883
    -3.2383  -3.2061  -3.1343  -3.0580  -2.9684  -2.9297  -2.7707  -2.6915
    -2.6662  -2.6217  -2.5954  -2.5161  -2.4883  -2.4361  -2.4319  -2.4071
    -2.3907  -2.3692  -2.3234  -2.2860  -2.2024  -2.1595  -2.1060  -2.0878
    -2.0475  -1.9787  -1.9341  -1.8801  -1.8501  -1.8125  -1.7267  -1.6907
    -1.6365  -1.5833  -1.5769  -1.5437  -1.4994  -1.4538  -1.4199  -1.3773
    -1.3300  -1.3170  -1.2642  -1.2254  -1.1814  -1.1027  -1.0845  -1.0433
    -0.9986  -0.8785  -0.8251  -0.8176  -0.7390  -0.7244  -0.6908  -0.6438
    -0.4165  -0.2679  -0.1185  -0.0725   0.1628   0.1921   0.2023   1.7348
     1.8589   2.0303   2.1176   2.2119   2.2638   2.3010   2.3347   2.4207
     2.4302   2.4666   2.5020   2.5452   2.5476   2.5646   2.6248   2.6848
     2.7213   2.7550   2.7920   2.8293   2.9564   3.0035   3.0210   3.0440
     3.1245   3.1535   3.1612   3.1899   3.2244   3.2565   3.3645   3.3878
     3.4182   3.4359   3.4799   3.5234   3.5789   3.5879   3.6531   3.6749
     3.6881   3.7262   3.7662   3.9098   4.0099   4.1564   4.1997   4.2701
     4.3203   4.4643   4.5226   4.7705   4.9535   4.9621   5.0008   5.0919
     5.1740   5.1904   5.2414   5.3969   5.6524   5.6782   5.7336   5.7994
     5.8637   5.8785   5.8865   6.0238   6.0841   6.0916   6.1387   6.1615
     6.2064   6.2145   6.2266   6.2547   6.4421   6.5334   6.6229   6.6747
     6.7930   6.8720   6.9766   7.1449   7.2327   7.4967   7.9036   8.0158
     8.1028   8.2135   8.4364   8.5775   8.6393   8.7694   8.9415   9.2516
     9.3377   9.4326   9.5086

          k =-0.0253 0.0560 0.0000 ( 34699 PWs)   bands (ev):

   -57.6763 -57.6589 -57.2919 -57.2736 -57.2119 -57.0865 -57.0666 -57.0488
   -57.0328 -57.0313 -56.9643 -56.9465 -56.7039 -56.6846 -56.1275 -56.1098
   -34.0263 -33.9600 -33.9457 -33.8623 -33.8314 -33.8155 -33.7562 -33.5790
   -33.5550 -33.5540 -33.5179 -33.5084 -33.4930 -33.4911 -33.4577 -33.4573
   -33.4357 -33.4073 -33.3964 -33.3521 -33.2988 -33.2971 -33.2935 -33.2861
   -33.2712 -33.2614 -33.2528 -33.2433 -33.2382 -33.2317 -33.2230 -33.2192
   -33.1932 -33.1820 -33.1537 -33.1478 -33.1088 -32.9702 -32.9569 -32.9443
   -32.9087 -32.8854 -32.4827 -32.4688 -32.4575 -32.3356 -32.2898 -32.2598
   -20.1083 -17.7394 -17.5753 -17.3268 -17.2480 -17.2265 -17.1773 -17.1535
   -17.1224 -16.9818 -16.9537 -16.8659 -16.8611 -16.8108 -16.7796 -16.7587
   -16.7324 -16.6532 -16.6034 -16.5859 -16.5642 -16.5135 -16.4112 -16.3936
   -16.3391 -16.2706 -16.2183 -16.1784 -16.1426 -16.0942 -16.0223 -14.7481
   -14.7110 -11.4938  -7.1244  -5.3178  -5.2683  -5.0067  -4.9349  -4.7965
    -4.7415  -4.6953  -4.5430  -4.4793  -4.4739  -4.3970  -4.3803  -4.3278
    -4.2549  -4.2171  -4.2004  -4.1758  -4.1319  -4.1252  -4.0909  -4.0468
    -4.0149  -3.9927  -3.9771  -3.9196  -3.9090  -3.8573  -3.8450  -3.8060
    -3.7575  -3.6996  -3.6402  -3.5564  -3.4589  -3.3941  -3.3274  -3.2679
    -3.2226  -3.2005  -3.1732  -2.9972  -2.9262  -2.8488  -2.8116  -2.7671
    -2.7417  -2.6304  -2.5777  -2.4959  -2.4729  -2.4228  -2.3784  -2.3465
    -2.3282  -2.3090  -2.2741  -2.2497  -2.1742  -2.1269  -2.1119  -2.0216
    -2.0040  -1.9867  -1.9297  -1.9274  -1.8889  -1.8461  -1.8139  -1.7899
    -1.7277  -1.6945  -1.6565  -1.6264  -1.5637  -1.5228  -1.4881  -1.4441
    -1.4162  -1.3557  -1.3315  -1.2864  -1.2090  -1.1905  -1.1217  -1.0890
    -1.0521  -0.9997  -0.9068  -0.8620  -0.7974  -0.7852  -0.7208  -0.6666
    -0.5911  -0.4505  -0.2412   0.1052   0.1421   0.1691   0.2016   1.8756
     2.0619   2.1528   2.1929   2.2448   2.2873   2.3210   2.3507   2.3979
     2.4612   2.4748   2.5026   2.5302   2.5354   2.5990   2.7098   2.7411
     2.7615   2.7904   2.8443   2.8567   2.9096   2.9671   2.9881   3.0038
     3.0403   3.0502   3.1875   3.2251   3.3072   3.3333   3.3496   3.3872
     3.4284   3.4521   3.4763   3.5599   3.5742   3.6508   3.6749   3.7515
     3.8099   3.8337   3.8767   3.9143   3.9221   4.0898   4.1304   4.1793
     4.3566   4.4020   4.6284   4.9783   5.0354   5.1233   5.1507   5.1707
     5.2750   5.3021   5.3327   5.4416   5.5282   5.5749   5.6568   5.7785
     5.8377   5.8638   5.9095   5.9449   5.9673   6.0025   6.0568   6.0760
     6.1510   6.1690   6.2420   6.3227   6.3929   6.4186   6.4769   6.6464
     6.7020   6.8093   6.8469   7.0408   7.1393   7.3713   7.4729   7.5744
     7.9462   8.1605   8.3340   8.5046   8.6430   8.8538   9.0377   9.1254
     9.1671   9.4724   9.5928

          k =-0.0506 0.0280 0.0000 ( 34685 PWs)   bands (ev):

   -57.6827 -57.6524 -57.2985 -57.2670 -57.2127 -57.0924 -57.0605 -57.0553
   -57.0319 -57.0248 -56.9707 -56.9400 -56.7105 -56.6780 -56.1339 -56.1033
   -34.0968 -33.9653 -33.9406 -33.8778 -33.8276 -33.7981 -33.7584 -33.6133
   -33.5945 -33.5703 -33.5280 -33.5186 -33.5105 -33.5027 -33.4743 -33.4539
   -33.4388 -33.4317 -33.4101 -33.3540 -33.3024 -33.2757 -33.2640 -33.2500
   -33.2491 -33.2444 -33.2394 -33.2341 -33.2224 -33.2209 -33.2189 -33.1964
   -33.1879 -33.1684 -33.1602 -33.1276 -33.1245 -32.9753 -32.9656 -32.9389
   -32.8957 -32.8158 -32.5281 -32.4896 -32.4629 -32.3521 -32.2729 -32.1857
   -20.1082 -17.8434 -17.6371 -17.3529 -17.3235 -17.2329 -17.2070 -17.2009
   -17.1061 -17.0268 -16.9488 -16.9038 -16.8516 -16.8421 -16.8406 -16.8151
   -16.7458 -16.7312 -16.5423 -16.5110 -16.4840 -16.4229 -16.4003 -16.3572
   -16.3511 -16.2976 -16.1753 -16.1563 -16.1382 -15.9943 -15.9498 -14.7275
   -14.6602 -11.4923  -7.1191  -5.3399  -5.3033  -5.1748  -4.8785  -4.8187
    -4.7045  -4.6883  -4.6573  -4.6387  -4.6141  -4.4954  -4.4129  -4.3296
    -4.2992  -4.2856  -4.1424  -4.1099  -4.0430  -4.0110  -3.9932  -3.9772
    -3.9673  -3.8942  -3.8442  -3.7998  -3.7568  -3.7439  -3.7030  -3.6758
    -3.6391  -3.6167  -3.5672  -3.5342  -3.4352  -3.3158  -3.2784  -3.2476
    -3.2113  -3.1553  -3.0858  -3.0421  -2.9375  -2.9224  -2.8620  -2.8248
    -2.7287  -2.6804  -2.6433  -2.6344  -2.5883  -2.5761  -2.5211  -2.4783
    -2.4206  -2.3722  -2.3658  -2.3197  -2.2931  -2.2378  -2.1627  -2.1190
    -2.0975  -2.0467  -2.0133  -1.9592  -1.9253  -1.8904  -1.8422  -1.8144
    -1.7385  -1.7239  -1.6960  -1.6244  -1.5248  -1.4916  -1.4689  -1.4018
    -1.3495  -1.3319  -1.2628  -1.2479  -1.2207  -1.1316  -1.1079  -0.9973
    -0.9647  -0.8651  -0.8403  -0.7977  -0.7633  -0.7481  -0.6883  -0.6754
    -0.4964  -0.2974  -0.2443  -0.0599   0.1233   0.1526   0.1762   1.7183
     1.9192   2.0744   2.1399   2.1437   2.1875   2.2580   2.3791   2.3882
     2.4222   2.4563   2.5339   2.5843   2.5886   2.6184   2.7008   2.7137
     2.7593   2.8200   2.8504   2.9188   2.9734   2.9986   3.0567   3.0778
     3.1101   3.1778   3.1866   3.2152   3.3186   3.3749   3.3914   3.4271
     3.4627   3.4753   3.5638   3.6032   3.6189   3.6702   3.6910   3.7010
     3.7337   3.7874   3.8326   3.8864   3.9501   4.0760   4.1825   4.2961
     4.3097   4.4365   4.6314   4.7069   4.7783   4.8268   4.8739   4.9874
     5.0295   5.1377   5.2372   5.4843   5.6082   5.6503   5.7320   5.8135
     5.8736   5.8873   5.9405   5.9581   5.9898   6.0995   6.1282   6.1525
     6.2356   6.4481   6.4913   6.5578   6.5931   6.6128   6.7018   6.7398
     6.8100   6.8311   6.9875   7.1027   7.1785   7.3785   7.5693   7.7013
     8.0999   8.1731   8.2241   8.3703   8.7103   8.9610   9.0013   9.0333
     9.3420   9.4015   9.5987

          k =-0.0506 0.0560 0.0000 ( 34596 PWs)   bands (ev):

   -57.6763 -57.6589 -57.2919 -57.2736 -57.2119 -57.0864 -57.0666 -57.0489
   -57.0328 -57.0313 -56.9643 -56.9465 -56.7039 -56.6846 -56.1275 -56.1098
   -34.0268 -33.9600 -33.9457 -33.8611 -33.8316 -33.8151 -33.7564 -33.5789
   -33.5553 -33.5549 -33.5183 -33.5045 -33.4985 -33.4954 -33.4582 -33.4576
   -33.4337 -33.4073 -33.3869 -33.3385 -33.3029 -33.2980 -33.2857 -33.2839
   -33.2715 -33.2613 -33.2527 -33.2410 -33.2383 -33.2364 -33.2323 -33.2243
   -33.1933 -33.1835 -33.1536 -33.1475 -33.1083 -32.9702 -32.9598 -32.9440
   -32.9086 -32.8853 -32.4838 -32.4684 -32.4574 -32.3356 -32.2897 -32.2597
   -20.1078 -17.6888 -17.4864 -17.2743 -17.2236 -17.1804 -17.1592 -17.1454
   -17.0722 -17.0226 -16.9900 -16.8979 -16.8405 -16.8340 -16.8263 -16.7894
   -16.7611 -16.7031 -16.6456 -16.6041 -16.5940 -16.5356 -16.4974 -16.3802
   -16.3263 -16.2493 -16.2103 -16.1768 -16.1421 -16.0959 -16.0215 -14.7469
   -14.7113 -11.4914  -7.1179  -5.3172  -5.2831  -4.9980  -4.6452  -4.6021
    -4.4986  -4.4824  -4.4667  -4.4388  -4.4140  -4.3515  -4.3096  -4.2864
    -4.2108  -4.1908  -4.1324  -4.1166  -4.0659  -4.0506  -4.0305  -4.0195
    -3.9969  -3.9786  -3.9524  -3.8981  -3.8777  -3.8731  -3.8053  -3.7706
    -3.7144  -3.6459  -3.6148  -3.5083  -3.4749  -3.3733  -3.3128  -3.2466
    -3.2416  -3.2303  -3.1395  -3.0025  -2.9189  -2.8890  -2.8363  -2.8151
    -2.7410  -2.7118  -2.6696  -2.5939  -2.5775  -2.5515  -2.5108  -2.4746
    -2.4126  -2.3901  -2.3504  -2.3140  -2.3012  -2.2857  -2.2399  -2.1618
    -2.1375  -2.1065  -2.0991  -2.0624  -2.0307  -1.9850  -1.9670  -1.8859
    -1.8750  -1.8354  -1.8161  -1.7102  -1.6220  -1.5898  -1.5568  -1.4627
    -1.3935  -1.3590  -1.2914  -1.2466  -1.1915  -1.0966  -1.0597  -1.0035
    -0.9893  -0.9216  -0.8377  -0.8032  -0.7541  -0.7397  -0.6760  -0.6420
    -0.6372  -0.5010  -0.3086   0.0913   0.1254   0.1434   0.2070   1.8810
     2.0907   2.1833   2.2166   2.2365   2.2580   2.3147   2.3654   2.4103
     2.4183   2.5524   2.5867   2.5957   2.6225   2.6456   2.7008   2.7707
     2.7970   2.8206   2.8556   2.8981   2.9800   3.0221   3.0445   3.0794
     3.1139   3.1530   3.1841   3.2734   3.3513   3.3836   3.4135   3.4579
     3.4957   3.5167   3.5389   3.5599   3.6307   3.6640   3.7286   3.7593
     3.7972   3.8688   3.8970   3.9335   3.9396   3.9712   4.1255   4.1888
     4.3032   4.4912   4.7361   4.8209   4.8338   4.9117   4.9609   5.1065
     5.1818   5.2418   5.2857   5.3303   5.3881   5.4525   5.5109   5.6428
     5.7947   5.8414   5.8955   5.9654   6.0421   6.1379   6.2278   6.2700
     6.2985   6.3493   6.4321   6.4647   6.5056   6.5886   6.6601   6.7292
     6.7433   6.8323   6.8488   6.9963   7.0413   7.4099   7.4214   7.5557
     7.7375   7.9329   8.0620   8.3523   8.5555   8.5802   8.7007   8.9913
     9.2062   9.3190   9.4550

     the Fermi energy is     1.0108 ev

!    total energy              =   -3021.41883942 Ry
     Harris-Foulkes estimate   =   -3021.41883942 Ry
     estimated scf accuracy    <       0.00000051 Ry

     The total energy is the sum of the following terms:

     one-electron contribution =  -41234.41600764 Ry
     hartree contribution      =   20691.68526564 Ry
     xc contribution           =    -553.68622759 Ry
     ewald contribution        =   18074.99834040 Ry
     smearing contrib. (-TS)   =      -0.00021023 Ry

     total magnetization       =     0.00 Bohr mag/cell
     absolute magnetization    =     0.00 Bohr mag/cell

     convergence has been achieved in   9 iterations

     Forces acting on atoms (Ry/au):


     negative rho (up, down):  1.210E-02 1.210E-02
     atom    1 type  1   force =     0.00001210   -0.00035468   -0.13366150
     atom    2 type  2   force =     0.00000142    0.00002758    0.07203921
     atom    3 type  1   force =    -0.00135660    0.00030830   -0.06084387
     atom    4 type  2   force =     0.00289517    0.00048789    0.00634628
     atom    5 type  1   force =     0.00027846    0.00184191    0.00364018
     atom    6 type  2   force =     0.00006605    0.00000931   -0.00301597
     atom    7 type  1   force =    -0.00049293   -0.00075645    0.00545525
     atom    8 type  2   force =     0.00082930   -0.00028607   -0.00076938
     atom    9 type  1   force =    -0.00003093    0.00001899   -0.13341890
     atom   10 type  2   force =    -0.00007004    0.00006509    0.07122083
     atom   11 type  1   force =    -0.00131622   -0.00024013   -0.05576098
     atom   12 type  2   force =     0.00299065   -0.00006881    0.00606362
     atom   13 type  1   force =     0.00029754   -0.00147212    0.00358313
     atom   14 type  2   force =    -0.00119737   -0.00038893   -0.00306059
     atom   15 type  1   force =    -0.00055447    0.00022461    0.00460965
     atom   16 type  2   force =     0.00045293   -0.00011020   -0.00014907
     atom   17 type  2   force =    -0.00007092   -0.00007073    0.07933412
     atom   18 type  1   force =     0.00013461   -0.00017114    0.11926406
     atom   19 type  2   force =    -0.00010948   -0.00017486   -0.06675664
     atom   20 type  2   force =    -0.06322729    0.00014840   -0.03225238
     atom   21 type  2   force =     0.06320124    0.00001539   -0.03245932
     atom   22 type  1   force =     0.00072133    0.00108099    0.05982999
     atom   23 type  2   force =    -0.00017707    0.00005552   -0.00186939
     atom   24 type  2   force =    -0.00143886   -0.00000050   -0.02337041
     atom   25 type  2   force =    -0.00313189    0.00058865    0.00783560
     atom   26 type  1   force =     0.00062197    0.00028965    0.00471980
     atom   27 type  2   force =     0.00052123    0.00060379   -0.00385471
     atom   28 type  2   force =     0.00012661   -0.00008709   -0.00123536
     atom   29 type  2   force =     0.00022686   -0.00034427   -0.00062017
     atom   30 type  1   force =     0.00031650   -0.00058484    0.00376929
     atom   31 type  2   force =     0.00050302    0.00011745   -0.00257063
     atom   32 type  2   force =     0.00009850   -0.00008869   -0.00132725
     atom   33 type  2   force =    -0.00012034    0.00003697    0.07893535
     atom   34 type  1   force =     0.00006477   -0.00022012    0.11918566
     atom   35 type  2   force =    -0.00030668   -0.00005485   -0.06645827
     atom   36 type  2   force =    -0.06318778   -0.00005291   -0.03234119
     atom   37 type  2   force =     0.06333198   -0.00020124   -0.03249605
     atom   38 type  1   force =     0.00066014   -0.00098379    0.06004765
     atom   39 type  2   force =    -0.00045386    0.00010653   -0.00261590
     atom   40 type  2   force =    -0.00119639    0.00030762   -0.02228608
     atom   41 type  2   force =    -0.00317108   -0.00014770    0.00786256
     atom   42 type  1   force =     0.00050276    0.00006677    0.00384414
     atom   43 type  2   force =     0.00069032    0.00024158   -0.00304560
     atom   44 type  2   force =     0.00021283    0.00010266   -0.00120223
     atom   45 type  2   force =     0.00020390    0.00030722   -0.00065394
     atom   46 type  1   force =     0.00055901    0.00016431    0.00382911
     atom   47 type  2   force =     0.00013704   -0.00030225   -0.00116237
     atom   48 type  2   force =     0.00017930    0.00014615   -0.00106365
     atom   49 type  3   force =    -0.01200297   -0.00088085   -0.04994032
     atom   50 type  2   force =    -0.00540288   -0.00034656    0.01455410
     atom   51 type  4   force =     0.00941549    0.00011996    0.00935864
     atom   52 type  4   force =     0.00082181    0.00035482    0.00010011
     atom   53 type  4   force =     0.00392832   -0.01192092    0.01225647
     atom   54 type  4   force =     0.00401293    0.01247255    0.01257730

     Total force =     0.367633     Total SCF correction =     0.001890
 !ASE

     Writing output data file calc.save
 
     init_run     :     55.06s CPU     69.21s WALL (       1 calls)
     electrons    :   2065.81s CPU   2468.05s WALL (       1 calls)
     forces       :     40.44s CPU     41.52s WALL (       1 calls)

     Called by init_run:
     wfcinit      :     46.77s CPU     59.98s WALL (       1 calls)
     potinit      :      1.36s CPU      1.68s WALL (       1 calls)

     Called by electrons:
     c_bands      :   1817.28s CPU   2156.48s WALL (       9 calls)
     sum_band     :    208.84s CPU    265.88s WALL (       9 calls)
     v_of_rho     :      9.78s CPU     12.57s WALL (      10 calls)
     newd         :     33.69s CPU     37.16s WALL (      10 calls)
     mix_rho      :      0.32s CPU      0.46s WALL (       9 calls)
     vdW_energy   :      1.79s CPU      2.23s WALL (      11 calls)
     vdW_ffts     :      2.63s CPU      3.59s WALL (      22 calls)
     vdW_v        :      1.06s CPU      1.22s WALL (      11 calls)

     Called by c_bands:
     init_us_2    :      5.40s CPU      5.93s WALL (     800 calls)
     cegterg      :   1785.25s CPU   2122.28s WALL (     360 calls)

     Called by *egterg:
     h_psi        :    684.26s CPU    947.23s WALL (    2289 calls)
     s_psi        :     85.77s CPU     90.74s WALL (    2289 calls)
     g_psi        :      4.64s CPU      4.74s WALL (    1889 calls)
     cdiaghg      :    689.57s CPU    707.05s WALL (    2249 calls)

     Called by h_psi:
     add_vuspsi   :     86.23s CPU     90.99s WALL (    2289 calls)

     General routines
     calbec       :    129.13s CPU    132.17s WALL (    2689 calls)
     fft          :      5.53s CPU      7.35s WALL (     867 calls)
     ffts         :      0.06s CPU      0.08s WALL (      38 calls)
     fftw         :    440.83s CPU    746.89s WALL (  671646 calls)
     interpolate  :      0.28s CPU      0.49s WALL (      38 calls)
     davcio       :      0.16s CPU      3.55s WALL (      40 calls)
 
     Parallel routines
     fft_scatter  :    228.47s CPU    408.64s WALL (  672551 calls)
 
     PWSCF        : 36m 2.42s CPU    43m 4.11s WALL

 
   This run was terminated on:  13:19:52  12Feb2018            

=------------------------------------------------------------------------------=
   JOB DONE.
=------------------------------------------------------------------------------=
