  python dir          : /home/vossj/suncat/lib/python2.7/site-packages/espresso
  espresso dir        : /home/vossj/suncat/esdld/espresso-dynpy-beef/bin
  pseudo dir          : /home/alatimer/bin/psp/esp_psp_w_gbrvRu/
  ase-espresso py git : ffa2778-git



     Program PWSCF v.5.1rc2 (svn rev. ) starts on 10Feb2018 at 23:54: 0 

     This program is part of the open-source Quantum ESPRESSO suite
     for quantum simulation of materials; please cite
         "P. Giannozzi et al., J. Phys.:Condens. Matter 21 395502 (2009);
          URL http://www.quantum-espresso.org", 
     in publications or presentations arising from this work. More details at
     http://www.quantum-espresso.org/quote

     Parallel version (MPI), running on    16 processors
     R & G space division:  proc/nbgrp/npool/nimage =      16
     Reading input from pw.inp
     Message from routine read_cards :
     DEPRECATED: no units specified in CELL_PARAMETERS card

     Current dimensions of program PWSCF are:
     Max number of different atomic species (ntypx) = 10
     Max number of k-points (npk) =  40000
     Max angular momentum in pseudopotentials (lmaxx) =  3

     **************************************************************************
     Initializing libbeef V0.1.1 with the BEEF-vdW functional.
     Citation: Wellendorff et al., PRB 85, 235149 (2012).
     **************************************************************************


     IMPORTANT: XC functional enforced from input :
     Exchange-correlation      = BEEF ( 1  4 27 13 2)
     Any further DFT definition will be discarded
     Please, verify this is what you really want


     Subspace diagonalization in iterative solution of the eigenvalue problem:
     a serial algorithm will be used

 
     Parallelization info
     --------------------
     sticks:   dense  smooth     PW     G-vecs:    dense   smooth      PW
     Min         281     112     31                68535    17318    2565
     Max         282     113     32                68545    17369    2582
     Sum        4501    1795    503              1096637   277353   41113
 
     Generating pointlists ...
     new r_m :   0.4125 (alat units)  0.7795 (a.u.) for type    1
     new r_m :   0.3996 (alat units)  0.7551 (a.u.) for type    2
     new r_m :   0.3996 (alat units)  0.7551 (a.u.) for type    3


     bravais-lattice index     =            0
     lattice parameter (alat)  =       1.8897  a.u.
     unit-cell volume          =    7990.9933 (a.u.)^3
     number of atoms/cell      =           50
     number of atomic types    =            3
     number of electrons       =       391.00
     number of Kohn-Sham states=          295
     kinetic-energy cutoff     =      40.4243  Ry
     charge density cutoff     =     404.2426  Ry
     convergence threshold     =      7.3E-07
     mixing beta               =       0.1000
     number of iterations used =           10  plain     mixing
     Exchange-correlation      = BEEF ( 1  4 27 13 2)
     nstep                     =           50


     celldm(1)=   1.889726  celldm(2)=   0.000000  celldm(3)=   0.000000
     celldm(4)=   0.000000  celldm(5)=   0.000000  celldm(6)=   0.000000

     crystal axes: (cart. coord. in units of alat)
               a(1) = (   6.590708   0.000000   0.000000 )  
               a(2) = (   0.000000   5.950229   0.000000 )  
               a(3) = (   0.000000   0.000000  30.195235 )  

     reciprocal axes: (cart. coord. in units 2 pi/alat)
               b(1) = (  0.151729  0.000000  0.000000 )  
               b(2) = (  0.000000  0.168061  0.000000 )  
               b(3) = (  0.000000  0.000000  0.033118 )  


     PseudoPot. # 1 for Ti read from file:
     /home/alatimer/bin/psp/esp_psp_w_gbrvRu/Ti.UPF
     MD5 check sum: 8e4df49b7f0d34bbd5052bf3f5ea0213
     Pseudo is Ultrasoft, Zval = 12.0
     Generated by new atomic code, or converted to UPF format
     Using radial grid of  851 points,  6 beta functions with: 
                l(1) =   0
                l(2) =   0
                l(3) =   1
                l(4) =   1
                l(5) =   2
                l(6) =   2
     Q(r) pseudized with  8 coefficients,  rinner =    1.000   1.000   1.000
                                                       1.000   1.000

     PseudoPot. # 2 for  O read from file:
     /home/alatimer/bin/psp/esp_psp_w_gbrvRu/O.UPF
     MD5 check sum: e057bbcf3229fb5d8c36c0c92f9568b4
     Pseudo is Ultrasoft + core correction, Zval =  6.0
     Generated using "atomic" code by A. Dal Corso  v.5.0.2 svn rev. 9415
     Using radial grid of 1095 points,  4 beta functions with: 
                l(1) =   0
                l(2) =   0
                l(3) =   1
                l(4) =   1
     Q(r) pseudized with 0 coefficients 


     PseudoPot. # 3 for  H read from file:
     /home/alatimer/bin/psp/esp_psp_w_gbrvRu/H.UPF
     MD5 check sum: bd57da0722753ddfd9833a65b40bb853
     Pseudo is Ultrasoft, Zval =  1.0
     Generated using "atomic" code by A. Dal Corso  v.5.0.2 svn rev. 9415
     Using radial grid of  929 points,  2 beta functions with: 
                l(1) =   0
                l(2) =   0
     Q(r) pseudized with 0 coefficients 


     vdW kernel table read from file vdW_kernel_table
     MD5 check sum: 095c7af220d748ca6e76c0b4c6cfb241

     atomic species   valence    mass     pseudopotential
        Ti1           12.00    47.88000     Ti( 1.00)
        O1             6.00    15.99940      O( 1.00)
        H1             1.00     1.00794      H( 1.00)

     Starting magnetic structure 
     atomic species   magnetization
        Ti1          0.250
        O1           0.500
        H1           0.000

     No symmetry found



   Cartesian axes

     site n.     atom                  positions (alat units)
         1           Ti1 tau(   1) = (   1.6476770   0.7437786   2.6545865  )
         2           O1  tau(   2) = (   1.6476770   2.2313359   3.9361215  )
         3           Ti1 tau(   3) = (   1.6476770   2.2313359   5.9499405  )
         4           O1  tau(   4) = (   0.3661420   0.7437786   5.9499405  )
         5           Ti1 tau(   5) = (   1.6423058   0.7993178   9.2289010  )
         6           O1  tau(   6) = (   1.6406404   2.2313359  10.4535548  )
         7           Ti1 tau(   7) = (   1.6373334   2.2313359  13.0586656  )
         8           O1  tau(   8) = (   0.3716334   0.7231912  12.7369480  )
         9           Ti1 tau(   9) = (   1.6476770   3.7188931   2.6545865  )
        10           O1  tau(  10) = (   1.6476770   5.2064503   3.9361215  )
        11           Ti1 tau(  11) = (   1.6476770   5.2064503   5.9499405  )
        12           O1  tau(  12) = (   0.3661420   3.7188931   5.9499405  )
        13           Ti1 tau(  13) = (   1.6423059   3.6633529   9.2289023  )
        14           O1  tau(  14) = (   1.6396028   5.2064504  10.5374954  )
        15           Ti1 tau(  15) = (   1.6366369   5.2064504  12.3426698  )
        16           O1  tau(  16) = (   0.3716333   3.7394800  12.7369475  )
        17           O1  tau(  17) = (   1.6476770   2.2313359   1.3730516  )
        18           Ti1 tau(  18) = (   4.9430310   2.2313359   2.6545865  )
        19           O1  tau(  19) = (   4.9430310   2.2313359   4.6684056  )
        20           O1  tau(  20) = (   6.2245660   0.7437786   2.6545865  )
        21           O1  tau(  21) = (   3.6614961   0.7437786   2.6545865  )
        22           Ti1 tau(  22) = (   4.9430310   0.7437786   5.9499405  )
        23           O1  tau(  23) = (   1.6444126   2.2313359   7.9291264  )
        24           O1  tau(  24) = (   4.9430310   2.2313359   7.2314755  )
        25           O1  tau(  25) = (   2.9292120   0.7437786   5.9499405  )
        26           Ti1 tau(  26) = (   4.9374203   2.2313360   9.4425711  )
        27           O1  tau(  27) = (   4.9384755   2.2313359  11.2756104  )
        28           O1  tau(  28) = (   6.2333856   0.7395591   9.2701299  )
        29           O1  tau(  29) = (   3.6424277   0.7403199   9.2676498  )
        30           Ti1 tau(  30) = (   4.9388558   0.7382018  12.7898683  )
        31           O1  tau(  31) = (   4.8884434   2.2313358  13.8602379  )
        32           O1  tau(  32) = (   2.8718067   0.7224686  12.6922084  )
        33           O1  tau(  33) = (   1.6476770   5.2064503   1.3730516  )
        34           Ti1 tau(  34) = (   4.9430310   5.2064503   2.6545865  )
        35           O1  tau(  35) = (   4.9430310   5.2064503   4.6684056  )
        36           O1  tau(  36) = (   6.2245660   3.7188931   2.6545865  )
        37           O1  tau(  37) = (   3.6614961   3.7188931   2.6545865  )
        38           Ti1 tau(  38) = (   4.9430310   3.7188931   5.9499405  )
        39           O1  tau(  39) = (   1.6444418   5.2064506   7.9393866  )
        40           O1  tau(  40) = (   4.9430310   5.2064503   7.2314755  )
        41           O1  tau(  41) = (   2.9292120   3.7188931   5.9499405  )
        42           Ti1 tau(  42) = (   4.9387790   5.2064503   9.4241858  )
        43           O1  tau(  43) = (   4.9379278   5.2064504  11.2756977  )
        44           O1  tau(  44) = (   6.2333855   3.7231127   9.2701299  )
        45           O1  tau(  45) = (   3.6424278   3.7223520   9.2676499  )
        46           Ti1 tau(  46) = (   4.9388558   3.7244696  12.7898683  )
        47           O1  tau(  47) = (   4.8902929   5.2064502  13.8618696  )
        48           O1  tau(  48) = (   2.8718066   3.7402036  12.6922086  )
        49           O1  tau(  49) = (   1.7618258   2.2313358  14.8494317  )
        50           H1  tau(  50) = (   2.6007197   2.2013366  15.3328018  )

     number of k points=    40  Fermi-Dirac smearing, width (Ry)=  0.0073
                       cart. coord. in units 2pi/alat
        k(    1) = (   0.0000000   0.0000000   0.0000000), wk =   0.0277778
        k(    2) = (   0.0000000   0.0280101   0.0000000), wk =   0.0555556
        k(    3) = (   0.0000000   0.0560203   0.0000000), wk =   0.0555556
        k(    4) = (   0.0000000  -0.0840304   0.0000000), wk =   0.0277778
        k(    5) = (   0.0252881   0.0000000   0.0000000), wk =   0.0555556
        k(    6) = (   0.0252881   0.0280101   0.0000000), wk =   0.0555556
        k(    7) = (   0.0252881   0.0560203   0.0000000), wk =   0.0555556
        k(    8) = (   0.0252881  -0.0840304   0.0000000), wk =   0.0555556
        k(    9) = (   0.0505763   0.0000000   0.0000000), wk =   0.0555556
        k(   10) = (   0.0505763   0.0280101   0.0000000), wk =   0.0555556
        k(   11) = (   0.0505763   0.0560203   0.0000000), wk =   0.0555556
        k(   12) = (   0.0505763  -0.0840304   0.0000000), wk =   0.0555556
        k(   13) = (  -0.0758644   0.0000000   0.0000000), wk =   0.0277778
        k(   14) = (  -0.0758644   0.0280101   0.0000000), wk =   0.0555556
        k(   15) = (  -0.0758644   0.0560203   0.0000000), wk =   0.0555556
        k(   16) = (  -0.0758644  -0.0840304   0.0000000), wk =   0.0277778
        k(   17) = (  -0.0252881   0.0280101   0.0000000), wk =   0.0555556
        k(   18) = (  -0.0252881   0.0560203   0.0000000), wk =   0.0555556
        k(   19) = (  -0.0505763   0.0280101   0.0000000), wk =   0.0555556
        k(   20) = (  -0.0505763   0.0560203   0.0000000), wk =   0.0555556
        k(   21) = (   0.0000000   0.0000000   0.0000000), wk =   0.0277778
        k(   22) = (   0.0000000   0.0280101   0.0000000), wk =   0.0555556
        k(   23) = (   0.0000000   0.0560203   0.0000000), wk =   0.0555556
        k(   24) = (   0.0000000  -0.0840304   0.0000000), wk =   0.0277778
        k(   25) = (   0.0252881   0.0000000   0.0000000), wk =   0.0555556
        k(   26) = (   0.0252881   0.0280101   0.0000000), wk =   0.0555556
        k(   27) = (   0.0252881   0.0560203   0.0000000), wk =   0.0555556
        k(   28) = (   0.0252881  -0.0840304   0.0000000), wk =   0.0555556
        k(   29) = (   0.0505763   0.0000000   0.0000000), wk =   0.0555556
        k(   30) = (   0.0505763   0.0280101   0.0000000), wk =   0.0555556
        k(   31) = (   0.0505763   0.0560203   0.0000000), wk =   0.0555556
        k(   32) = (   0.0505763  -0.0840304   0.0000000), wk =   0.0555556
        k(   33) = (  -0.0758644   0.0000000   0.0000000), wk =   0.0277778
        k(   34) = (  -0.0758644   0.0280101   0.0000000), wk =   0.0555556
        k(   35) = (  -0.0758644   0.0560203   0.0000000), wk =   0.0555556
        k(   36) = (  -0.0758644  -0.0840304   0.0000000), wk =   0.0277778
        k(   37) = (  -0.0252881   0.0280101   0.0000000), wk =   0.0555556
        k(   38) = (  -0.0252881   0.0560203   0.0000000), wk =   0.0555556
        k(   39) = (  -0.0505763   0.0280101   0.0000000), wk =   0.0555556
        k(   40) = (  -0.0505763   0.0560203   0.0000000), wk =   0.0555556

     Dense  grid:  1096637 G-vectors     FFT dimensions: (  80,  72, 375)

     Smooth grid:   277353 G-vectors     FFT dimensions: (  54,  45, 240)

     Largest allocated arrays     est. size (Mb)     dimensions
        Kohn-Sham Wavefunctions         9.81 Mb     (    2180,  295)
        NL pseudopotentials            18.43 Mb     (    2180,  554)
        Each V/rho on FFT grid          4.22 Mb     (  138240,   2)
        Each G-vector array             0.52 Mb     (   68538)
        G-vector shells                 0.25 Mb     (   33046)
     Largest temporary arrays     est. size (Mb)     dimensions
        Auxiliary wavefunctions        39.25 Mb     (    2180, 1180)
        Each subspace H/S matrix       21.25 Mb     (    1180, 1180)
        Each <psi_i|beta_j> matrix      2.49 Mb     (     554,  295)
        Arrays for rho mixing          21.09 Mb     (  138240,   10)

     Check: negative/imaginary core charge=   -0.000049    0.000000

     The initial density is read from file :
     ./calc.save/charge-density.dat


     negative rho (up, down):  1.350E-02 1.350E-02


     ************************************************************************
     *
     * You are using vdW-DF for exchange-correlation in this calculation.
     * Please cite the following three references that made this development
     * possible:
     *
     *   M. Dion, H. Rydberg, E. Schroder, D. C. Langreth, and
     *   B. I. Lundqvist, Phys. Rev. Lett. 92, 246401 (2004).
     *
     *   T. Thonhauser, V. R. Cooper, S. Li, A. Puzder, P. Hyldgaard, and
     *   D. C. Langreth, Phys. Rev. B 76, 125112 (2007).
     *
     *   G. Roman-Perez and J. M. Soler, Phys. Rev. Lett. 103, 096102 (2009).
     *
     *
     * If you are using vdW-DF2, please also cite:
     *
     *   K. Lee, E. D. Murray, L. Kong, B. I. Lundqvist, and
     *   D. C. Langreth, Phys. Rev. B 82, 081101(R) (2010).
     *
     *
     * If you are calculating the stress with vdW-DF, please also cite:
     *
     *   R. Sabatini, E. Kucukbenli, B. Kolb, T. Thonhauser, and
     *   S. de Gironcoli, J. Phys.: Condens. Matter 24, 424209 (2012).
     *
     ************************************************************************

     Carrying out vdW-DF run using the following parameters:

     Nqs =      20    Nr_points =    1024   r_max =   100.000
     q_mesh =
               0.00001000     0.04494208     0.09755937     0.15916263
               0.23128650     0.31572767     0.41458969     0.53033537
               0.66584808     0.82450364     1.01025438     1.22772762
               1.48234092     1.78043706     2.12944203     2.53805004
               3.01644009     3.57652955     4.23227104     5.00000000

     Gradients computed in reciprocal space

     ************************************************************************


     Starting wfc are  293 randomized atomic wfcs +    2 random wfc

     total cpu time spent up to now is       72.7 secs

     Self-consistent Calculation

     iteration #  1     ecut=    40.42 Ry     beta=0.10
     Davidson diagonalization with overlap
     c_bands:  1 eigenvalues not converged
     c_bands:  1 eigenvalues not converged
     ethr =  1.00E-05,  avg # of iterations = 16.7

     Threshold (ethr) on eigenvalues was too large:
     Diagonalizing with lowered threshold

     Davidson diagonalization with overlap
     ethr =  2.23E-07,  avg # of iterations =  1.1

     negative rho (up, down):  1.350E-02 1.350E-02
 
     Magnetic moment per site:
     atom:    1    charge:    3.1244    magn:   -0.0002    constr:    0.0000
     atom:    2    charge:    1.9465    magn:    0.0002    constr:    0.0000
     atom:    3    charge:    3.1200    magn:    0.0000    constr:    0.0000
     atom:    4    charge:    1.9515    magn:   -0.0000    constr:    0.0000
     atom:    5    charge:    3.1144    magn:    0.0001    constr:    0.0000
     atom:    6    charge:    1.9404    magn:   -0.0002    constr:    0.0000
     atom:    7    charge:    3.1162    magn:    0.0000    constr:    0.0000
     atom:    8    charge:    1.9464    magn:   -0.0001    constr:    0.0000
     atom:    9    charge:    3.1244    magn:   -0.0002    constr:    0.0000
     atom:   10    charge:    1.9467    magn:    0.0002    constr:    0.0000
     atom:   11    charge:    3.1198    magn:    0.0000    constr:    0.0000
     atom:   12    charge:    1.9515    magn:   -0.0000    constr:    0.0000
     atom:   13    charge:    3.1144    magn:    0.0001    constr:    0.0000
     atom:   14    charge:    1.9542    magn:   -0.0000    constr:    0.0000
     atom:   15    charge:    3.1165    magn:    0.0000    constr:    0.0000
     atom:   16    charge:    1.9463    magn:   -0.0001    constr:    0.0000
     atom:   17    charge:    1.9197    magn:    0.0010    constr:    0.0000
     atom:   18    charge:    3.1239    magn:    0.0000    constr:    0.0000
     atom:   19    charge:    1.9419    magn:    0.0000    constr:    0.0000
     atom:   20    charge:    1.9484    magn:    0.0000    constr:    0.0000
     atom:   21    charge:    1.9484    magn:    0.0000    constr:    0.0000
     atom:   22    charge:    3.1199    magn:    0.0000    constr:    0.0000
     atom:   23    charge:    1.9555    magn:   -0.0001    constr:    0.0000
     atom:   24    charge:    1.9364    magn:   -0.0002    constr:    0.0000
     atom:   25    charge:    1.9515    magn:   -0.0000    constr:    0.0000
     atom:   26    charge:    3.1144    magn:    0.0001    constr:    0.0000
     atom:   27    charge:    1.9395    magn:   -0.0003    constr:    0.0000
     atom:   28    charge:    1.9494    magn:   -0.0002    constr:    0.0000
     atom:   29    charge:    1.9472    magn:   -0.0002    constr:    0.0000
     atom:   30    charge:    3.1194    magn:    0.0000    constr:    0.0000
     atom:   31    charge:    1.9474    magn:   -0.0000    constr:    0.0000
     atom:   32    charge:    1.9464    magn:   -0.0001    constr:    0.0000
     atom:   33    charge:    1.9197    magn:    0.0010    constr:    0.0000
     atom:   34    charge:    3.1239    magn:    0.0000    constr:    0.0000
     atom:   35    charge:    1.9419    magn:    0.0000    constr:    0.0000
     atom:   36    charge:    1.9484    magn:    0.0000    constr:    0.0000
     atom:   37    charge:    1.9484    magn:    0.0000    constr:    0.0000
     atom:   38    charge:    3.1199    magn:    0.0000    constr:    0.0000
     atom:   39    charge:    1.9474    magn:   -0.0001    constr:    0.0000
     atom:   40    charge:    1.9368    magn:   -0.0002    constr:    0.0000
     atom:   41    charge:    1.9515    magn:   -0.0000    constr:    0.0000
     atom:   42    charge:    3.1217    magn:    0.0001    constr:    0.0000
     atom:   43    charge:    1.9394    magn:   -0.0002    constr:    0.0000
     atom:   44    charge:    1.9494    magn:   -0.0002    constr:    0.0000
     atom:   45    charge:    1.9471    magn:   -0.0002    constr:    0.0000
     atom:   46    charge:    3.1193    magn:    0.0000    constr:    0.0000
     atom:   47    charge:    1.9474    magn:   -0.0001    constr:    0.0000
     atom:   48    charge:    1.9462    magn:   -0.0001    constr:    0.0000
     atom:   49    charge:    1.9581    magn:    0.0000    constr:    0.0000
     atom:   50    charge:    0.3935    magn:   -0.0000    constr:    0.0000

     total cpu time spent up to now is     1243.4 secs

     total energy              =   -3005.52979047 Ry
     Harris-Foulkes estimate   =   -3005.52985458 Ry
     estimated scf accuracy    <       0.00087082 Ry

     total magnetization       =     0.00 Bohr mag/cell
     absolute magnetization    =     0.01 Bohr mag/cell

     iteration #  2     ecut=    40.42 Ry     beta=0.10
     Davidson diagonalization with overlap
     ethr =  2.23E-07,  avg # of iterations =  1.0

     negative rho (up, down):  1.350E-02 1.350E-02
 
     Magnetic moment per site:
     atom:    1    charge:    3.1244    magn:   -0.0002    constr:    0.0000
     atom:    2    charge:    1.9465    magn:    0.0002    constr:    0.0000
     atom:    3    charge:    3.1200    magn:    0.0000    constr:    0.0000
     atom:    4    charge:    1.9515    magn:   -0.0000    constr:    0.0000
     atom:    5    charge:    3.1144    magn:    0.0001    constr:    0.0000
     atom:    6    charge:    1.9404    magn:   -0.0002    constr:    0.0000
     atom:    7    charge:    3.1162    magn:    0.0000    constr:    0.0000
     atom:    8    charge:    1.9464    magn:   -0.0001    constr:    0.0000
     atom:    9    charge:    3.1244    magn:   -0.0002    constr:    0.0000
     atom:   10    charge:    1.9466    magn:    0.0002    constr:    0.0000
     atom:   11    charge:    3.1198    magn:    0.0000    constr:    0.0000
     atom:   12    charge:    1.9515    magn:   -0.0000    constr:    0.0000
     atom:   13    charge:    3.1144    magn:    0.0001    constr:    0.0000
     atom:   14    charge:    1.9542    magn:   -0.0000    constr:    0.0000
     atom:   15    charge:    3.1165    magn:    0.0000    constr:    0.0000
     atom:   16    charge:    1.9463    magn:   -0.0001    constr:    0.0000
     atom:   17    charge:    1.9195    magn:    0.0010    constr:    0.0000
     atom:   18    charge:    3.1239    magn:    0.0000    constr:    0.0000
     atom:   19    charge:    1.9419    magn:    0.0000    constr:    0.0000
     atom:   20    charge:    1.9484    magn:    0.0000    constr:    0.0000
     atom:   21    charge:    1.9484    magn:    0.0000    constr:    0.0000
     atom:   22    charge:    3.1199    magn:    0.0000    constr:    0.0000
     atom:   23    charge:    1.9555    magn:   -0.0001    constr:    0.0000
     atom:   24    charge:    1.9365    magn:   -0.0002    constr:    0.0000
     atom:   25    charge:    1.9515    magn:   -0.0000    constr:    0.0000
     atom:   26    charge:    3.1144    magn:    0.0001    constr:    0.0000
     atom:   27    charge:    1.9395    magn:   -0.0003    constr:    0.0000
     atom:   28    charge:    1.9494    magn:   -0.0002    constr:    0.0000
     atom:   29    charge:    1.9472    magn:   -0.0002    constr:    0.0000
     atom:   30    charge:    3.1194    magn:    0.0000    constr:    0.0000
     atom:   31    charge:    1.9474    magn:   -0.0000    constr:    0.0000
     atom:   32    charge:    1.9464    magn:   -0.0001    constr:    0.0000
     atom:   33    charge:    1.9195    magn:    0.0010    constr:    0.0000
     atom:   34    charge:    3.1239    magn:    0.0000    constr:    0.0000
     atom:   35    charge:    1.9419    magn:    0.0000    constr:    0.0000
     atom:   36    charge:    1.9484    magn:    0.0000    constr:    0.0000
     atom:   37    charge:    1.9484    magn:    0.0000    constr:    0.0000
     atom:   38    charge:    3.1199    magn:    0.0000    constr:    0.0000
     atom:   39    charge:    1.9474    magn:   -0.0001    constr:    0.0000
     atom:   40    charge:    1.9369    magn:   -0.0002    constr:    0.0000
     atom:   41    charge:    1.9515    magn:   -0.0000    constr:    0.0000
     atom:   42    charge:    3.1217    magn:    0.0001    constr:    0.0000
     atom:   43    charge:    1.9394    magn:   -0.0002    constr:    0.0000
     atom:   44    charge:    1.9494    magn:   -0.0002    constr:    0.0000
     atom:   45    charge:    1.9472    magn:   -0.0002    constr:    0.0000
     atom:   46    charge:    3.1193    magn:    0.0000    constr:    0.0000
     atom:   47    charge:    1.9475    magn:   -0.0001    constr:    0.0000
     atom:   48    charge:    1.9462    magn:   -0.0001    constr:    0.0000
     atom:   49    charge:    1.9581    magn:    0.0000    constr:    0.0000
     atom:   50    charge:    0.3935    magn:   -0.0000    constr:    0.0000

     total cpu time spent up to now is     1448.3 secs

     total energy              =   -3005.52977508 Ry
     Harris-Foulkes estimate   =   -3005.52986459 Ry
     estimated scf accuracy    <       0.00191376 Ry

     total magnetization       =     0.00 Bohr mag/cell
     absolute magnetization    =     0.01 Bohr mag/cell

     iteration #  3     ecut=    40.42 Ry     beta=0.10
     Davidson diagonalization with overlap
     ethr =  2.23E-07,  avg # of iterations =  1.0

     negative rho (up, down):  1.350E-02 1.350E-02
 
     Magnetic moment per site:
     atom:    1    charge:    3.1244    magn:   -0.0002    constr:    0.0000
     atom:    2    charge:    1.9465    magn:    0.0002    constr:    0.0000
     atom:    3    charge:    3.1200    magn:    0.0000    constr:    0.0000
     atom:    4    charge:    1.9515    magn:   -0.0000    constr:    0.0000
     atom:    5    charge:    3.1144    magn:    0.0000    constr:    0.0000
     atom:    6    charge:    1.9404    magn:   -0.0001    constr:    0.0000
     atom:    7    charge:    3.1162    magn:    0.0000    constr:    0.0000
     atom:    8    charge:    1.9464    magn:   -0.0001    constr:    0.0000
     atom:    9    charge:    3.1244    magn:   -0.0002    constr:    0.0000
     atom:   10    charge:    1.9466    magn:    0.0002    constr:    0.0000
     atom:   11    charge:    3.1198    magn:    0.0000    constr:    0.0000
     atom:   12    charge:    1.9515    magn:   -0.0000    constr:    0.0000
     atom:   13    charge:    3.1144    magn:    0.0000    constr:    0.0000
     atom:   14    charge:    1.9542    magn:   -0.0000    constr:    0.0000
     atom:   15    charge:    3.1165    magn:    0.0000    constr:    0.0000
     atom:   16    charge:    1.9463    magn:   -0.0001    constr:    0.0000
     atom:   17    charge:    1.9196    magn:    0.0009    constr:    0.0000
     atom:   18    charge:    3.1239    magn:    0.0000    constr:    0.0000
     atom:   19    charge:    1.9419    magn:    0.0000    constr:    0.0000
     atom:   20    charge:    1.9484    magn:    0.0000    constr:    0.0000
     atom:   21    charge:    1.9484    magn:    0.0000    constr:    0.0000
     atom:   22    charge:    3.1199    magn:    0.0000    constr:    0.0000
     atom:   23    charge:    1.9555    magn:   -0.0001    constr:    0.0000
     atom:   24    charge:    1.9365    magn:   -0.0001    constr:    0.0000
     atom:   25    charge:    1.9515    magn:   -0.0000    constr:    0.0000
     atom:   26    charge:    3.1143    magn:    0.0001    constr:    0.0000
     atom:   27    charge:    1.9395    magn:   -0.0002    constr:    0.0000
     atom:   28    charge:    1.9494    magn:   -0.0002    constr:    0.0000
     atom:   29    charge:    1.9472    magn:   -0.0002    constr:    0.0000
     atom:   30    charge:    3.1194    magn:    0.0000    constr:    0.0000
     atom:   31    charge:    1.9474    magn:   -0.0000    constr:    0.0000
     atom:   32    charge:    1.9465    magn:   -0.0001    constr:    0.0000
     atom:   33    charge:    1.9195    magn:    0.0009    constr:    0.0000
     atom:   34    charge:    3.1239    magn:    0.0000    constr:    0.0000
     atom:   35    charge:    1.9419    magn:    0.0000    constr:    0.0000
     atom:   36    charge:    1.9484    magn:    0.0000    constr:    0.0000
     atom:   37    charge:    1.9484    magn:    0.0000    constr:    0.0000
     atom:   38    charge:    3.1199    magn:    0.0000    constr:    0.0000
     atom:   39    charge:    1.9474    magn:   -0.0001    constr:    0.0000
     atom:   40    charge:    1.9369    magn:   -0.0002    constr:    0.0000
     atom:   41    charge:    1.9515    magn:   -0.0000    constr:    0.0000
     atom:   42    charge:    3.1217    magn:    0.0001    constr:    0.0000
     atom:   43    charge:    1.9394    magn:   -0.0002    constr:    0.0000
     atom:   44    charge:    1.9494    magn:   -0.0002    constr:    0.0000
     atom:   45    charge:    1.9472    magn:   -0.0002    constr:    0.0000
     atom:   46    charge:    3.1192    magn:    0.0000    constr:    0.0000
     atom:   47    charge:    1.9475    magn:   -0.0001    constr:    0.0000
     atom:   48    charge:    1.9462    magn:   -0.0001    constr:    0.0000
     atom:   49    charge:    1.9579    magn:    0.0000    constr:    0.0000
     atom:   50    charge:    0.3938    magn:   -0.0000    constr:    0.0000

     total cpu time spent up to now is     1653.5 secs

     total energy              =   -3005.52977666 Ry
     Harris-Foulkes estimate   =   -3005.52982278 Ry
     estimated scf accuracy    <       0.00047720 Ry

     total magnetization       =     0.00 Bohr mag/cell
     absolute magnetization    =     0.01 Bohr mag/cell

     iteration #  4     ecut=    40.42 Ry     beta=0.10
     Davidson diagonalization with overlap
     ethr =  1.22E-07,  avg # of iterations =  2.0

     negative rho (up, down):  1.350E-02 1.350E-02
 
     Magnetic moment per site:
     atom:    1    charge:    3.1244    magn:   -0.0001    constr:    0.0000
     atom:    2    charge:    1.9465    magn:    0.0002    constr:    0.0000
     atom:    3    charge:    3.1200    magn:    0.0000    constr:    0.0000
     atom:    4    charge:    1.9515    magn:   -0.0000    constr:    0.0000
     atom:    5    charge:    3.1144    magn:    0.0000    constr:    0.0000
     atom:    6    charge:    1.9404    magn:   -0.0001    constr:    0.0000
     atom:    7    charge:    3.1162    magn:    0.0000    constr:    0.0000
     atom:    8    charge:    1.9463    magn:   -0.0000    constr:    0.0000
     atom:    9    charge:    3.1244    magn:   -0.0001    constr:    0.0000
     atom:   10    charge:    1.9466    magn:    0.0002    constr:    0.0000
     atom:   11    charge:    3.1198    magn:    0.0000    constr:    0.0000
     atom:   12    charge:    1.9515    magn:   -0.0000    constr:    0.0000
     atom:   13    charge:    3.1144    magn:    0.0000    constr:    0.0000
     atom:   14    charge:    1.9542    magn:   -0.0000    constr:    0.0000
     atom:   15    charge:    3.1165    magn:    0.0000    constr:    0.0000
     atom:   16    charge:    1.9464    magn:   -0.0000    constr:    0.0000
     atom:   17    charge:    1.9195    magn:    0.0008    constr:    0.0000
     atom:   18    charge:    3.1239    magn:   -0.0000    constr:    0.0000
     atom:   19    charge:    1.9419    magn:    0.0000    constr:    0.0000
     atom:   20    charge:    1.9484    magn:    0.0000    constr:    0.0000
     atom:   21    charge:    1.9484    magn:    0.0000    constr:    0.0000
     atom:   22    charge:    3.1199    magn:    0.0000    constr:    0.0000
     atom:   23    charge:    1.9555    magn:   -0.0000    constr:    0.0000
     atom:   24    charge:    1.9364    magn:   -0.0001    constr:    0.0000
     atom:   25    charge:    1.9515    magn:   -0.0000    constr:    0.0000
     atom:   26    charge:    3.1143    magn:    0.0001    constr:    0.0000
     atom:   27    charge:    1.9395    magn:   -0.0002    constr:    0.0000
     atom:   28    charge:    1.9494    magn:   -0.0001    constr:    0.0000
     atom:   29    charge:    1.9472    magn:   -0.0001    constr:    0.0000
     atom:   30    charge:    3.1193    magn:    0.0000    constr:    0.0000
     atom:   31    charge:    1.9474    magn:   -0.0000    constr:    0.0000
     atom:   32    charge:    1.9462    magn:   -0.0000    constr:    0.0000
     atom:   33    charge:    1.9195    magn:    0.0008    constr:    0.0000
     atom:   34    charge:    3.1239    magn:   -0.0000    constr:    0.0000
     atom:   35    charge:    1.9419    magn:    0.0000    constr:    0.0000
     atom:   36    charge:    1.9484    magn:    0.0000    constr:    0.0000
     atom:   37    charge:    1.9484    magn:    0.0000    constr:    0.0000
     atom:   38    charge:    3.1199    magn:    0.0000    constr:    0.0000
     atom:   39    charge:    1.9474    magn:   -0.0001    constr:    0.0000
     atom:   40    charge:    1.9368    magn:   -0.0001    constr:    0.0000
     atom:   41    charge:    1.9515    magn:   -0.0000    constr:    0.0000
     atom:   42    charge:    3.1217    magn:    0.0001    constr:    0.0000
     atom:   43    charge:    1.9394    magn:   -0.0002    constr:    0.0000
     atom:   44    charge:    1.9494    magn:   -0.0001    constr:    0.0000
     atom:   45    charge:    1.9472    magn:   -0.0001    constr:    0.0000
     atom:   46    charge:    3.1194    magn:    0.0000    constr:    0.0000
     atom:   47    charge:    1.9475    magn:   -0.0000    constr:    0.0000
     atom:   48    charge:    1.9464    magn:   -0.0000    constr:    0.0000
     atom:   49    charge:    1.9580    magn:    0.0000    constr:    0.0000
     atom:   50    charge:    0.3940    magn:   -0.0000    constr:    0.0000

     total cpu time spent up to now is     1879.6 secs

     total energy              =   -3005.52980529 Ry
     Harris-Foulkes estimate   =   -3005.52980021 Ry
     estimated scf accuracy    <       0.00009831 Ry

     total magnetization       =     0.00 Bohr mag/cell
     absolute magnetization    =     0.01 Bohr mag/cell

     iteration #  5     ecut=    40.42 Ry     beta=0.10
     Davidson diagonalization with overlap
     ethr =  2.51E-08,  avg # of iterations =  2.0

     negative rho (up, down):  1.350E-02 1.350E-02
 
     Magnetic moment per site:
     atom:    1    charge:    3.1244    magn:   -0.0001    constr:    0.0000
     atom:    2    charge:    1.9465    magn:    0.0001    constr:    0.0000
     atom:    3    charge:    3.1200    magn:    0.0000    constr:    0.0000
     atom:    4    charge:    1.9515    magn:   -0.0000    constr:    0.0000
     atom:    5    charge:    3.1144    magn:    0.0000    constr:    0.0000
     atom:    6    charge:    1.9404    magn:   -0.0001    constr:    0.0000
     atom:    7    charge:    3.1162    magn:    0.0000    constr:    0.0000
     atom:    8    charge:    1.9463    magn:   -0.0000    constr:    0.0000
     atom:    9    charge:    3.1244    magn:   -0.0001    constr:    0.0000
     atom:   10    charge:    1.9466    magn:    0.0002    constr:    0.0000
     atom:   11    charge:    3.1198    magn:    0.0000    constr:    0.0000
     atom:   12    charge:    1.9515    magn:   -0.0000    constr:    0.0000
     atom:   13    charge:    3.1144    magn:    0.0000    constr:    0.0000
     atom:   14    charge:    1.9542    magn:   -0.0000    constr:    0.0000
     atom:   15    charge:    3.1165    magn:    0.0000    constr:    0.0000
     atom:   16    charge:    1.9464    magn:   -0.0000    constr:    0.0000
     atom:   17    charge:    1.9195    magn:    0.0007    constr:    0.0000
     atom:   18    charge:    3.1239    magn:   -0.0000    constr:    0.0000
     atom:   19    charge:    1.9419    magn:    0.0000    constr:    0.0000
     atom:   20    charge:    1.9484    magn:    0.0000    constr:    0.0000
     atom:   21    charge:    1.9484    magn:    0.0000    constr:    0.0000
     atom:   22    charge:    3.1199    magn:    0.0000    constr:    0.0000
     atom:   23    charge:    1.9555    magn:   -0.0000    constr:    0.0000
     atom:   24    charge:    1.9364    magn:   -0.0001    constr:    0.0000
     atom:   25    charge:    1.9515    magn:   -0.0000    constr:    0.0000
     atom:   26    charge:    3.1143    magn:    0.0001    constr:    0.0000
     atom:   27    charge:    1.9395    magn:   -0.0002    constr:    0.0000
     atom:   28    charge:    1.9494    magn:   -0.0001    constr:    0.0000
     atom:   29    charge:    1.9472    magn:   -0.0001    constr:    0.0000
     atom:   30    charge:    3.1193    magn:    0.0000    constr:    0.0000
     atom:   31    charge:    1.9474    magn:   -0.0000    constr:    0.0000
     atom:   32    charge:    1.9462    magn:   -0.0000    constr:    0.0000
     atom:   33    charge:    1.9195    magn:    0.0008    constr:    0.0000
     atom:   34    charge:    3.1239    magn:   -0.0000    constr:    0.0000
     atom:   35    charge:    1.9419    magn:    0.0000    constr:    0.0000
     atom:   36    charge:    1.9484    magn:    0.0000    constr:    0.0000
     atom:   37    charge:    1.9484    magn:    0.0000    constr:    0.0000
     atom:   38    charge:    3.1199    magn:    0.0000    constr:    0.0000
     atom:   39    charge:    1.9474    magn:   -0.0001    constr:    0.0000
     atom:   40    charge:    1.9368    magn:   -0.0001    constr:    0.0000
     atom:   41    charge:    1.9515    magn:   -0.0000    constr:    0.0000
     atom:   42    charge:    3.1217    magn:    0.0001    constr:    0.0000
     atom:   43    charge:    1.9394    magn:   -0.0001    constr:    0.0000
     atom:   44    charge:    1.9494    magn:   -0.0001    constr:    0.0000
     atom:   45    charge:    1.9472    magn:   -0.0001    constr:    0.0000
     atom:   46    charge:    3.1194    magn:    0.0000    constr:    0.0000
     atom:   47    charge:    1.9475    magn:   -0.0000    constr:    0.0000
     atom:   48    charge:    1.9464    magn:   -0.0000    constr:    0.0000
     atom:   49    charge:    1.9580    magn:    0.0000    constr:    0.0000
     atom:   50    charge:    0.3940    magn:   -0.0000    constr:    0.0000

     total cpu time spent up to now is     2106.7 secs

     total energy              =   -3005.52981302 Ry
     Harris-Foulkes estimate   =   -3005.52981149 Ry
     estimated scf accuracy    <       0.00001572 Ry

     total magnetization       =     0.00 Bohr mag/cell
     absolute magnetization    =     0.01 Bohr mag/cell

     iteration #  6     ecut=    40.42 Ry     beta=0.10
     Davidson diagonalization with overlap
     ethr =  4.02E-09,  avg # of iterations =  1.9

     negative rho (up, down):  1.350E-02 1.350E-02
 
     Magnetic moment per site:
     atom:    1    charge:    3.1244    magn:   -0.0001    constr:    0.0000
     atom:    2    charge:    1.9465    magn:    0.0001    constr:    0.0000
     atom:    3    charge:    3.1200    magn:   -0.0000    constr:    0.0000
     atom:    4    charge:    1.9515    magn:   -0.0000    constr:    0.0000
     atom:    5    charge:    3.1144    magn:    0.0000    constr:    0.0000
     atom:    6    charge:    1.9404    magn:   -0.0001    constr:    0.0000
     atom:    7    charge:    3.1162    magn:    0.0000    constr:    0.0000
     atom:    8    charge:    1.9463    magn:   -0.0000    constr:    0.0000
     atom:    9    charge:    3.1244    magn:   -0.0001    constr:    0.0000
     atom:   10    charge:    1.9466    magn:    0.0001    constr:    0.0000
     atom:   11    charge:    3.1198    magn:    0.0000    constr:    0.0000
     atom:   12    charge:    1.9515    magn:   -0.0000    constr:    0.0000
     atom:   13    charge:    3.1144    magn:    0.0000    constr:    0.0000
     atom:   14    charge:    1.9542    magn:   -0.0000    constr:    0.0000
     atom:   15    charge:    3.1165    magn:    0.0000    constr:    0.0000
     atom:   16    charge:    1.9463    magn:   -0.0000    constr:    0.0000
     atom:   17    charge:    1.9196    magn:    0.0007    constr:    0.0000
     atom:   18    charge:    3.1239    magn:   -0.0000    constr:    0.0000
     atom:   19    charge:    1.9419    magn:    0.0000    constr:    0.0000
     atom:   20    charge:    1.9484    magn:    0.0000    constr:    0.0000
     atom:   21    charge:    1.9484    magn:    0.0000    constr:    0.0000
     atom:   22    charge:    3.1199    magn:    0.0000    constr:    0.0000
     atom:   23    charge:    1.9555    magn:   -0.0000    constr:    0.0000
     atom:   24    charge:    1.9364    magn:   -0.0001    constr:    0.0000
     atom:   25    charge:    1.9515    magn:   -0.0000    constr:    0.0000
     atom:   26    charge:    3.1143    magn:    0.0000    constr:    0.0000
     atom:   27    charge:    1.9395    magn:   -0.0001    constr:    0.0000
     atom:   28    charge:    1.9494    magn:   -0.0001    constr:    0.0000
     atom:   29    charge:    1.9472    magn:   -0.0001    constr:    0.0000
     atom:   30    charge:    3.1193    magn:    0.0000    constr:    0.0000
     atom:   31    charge:    1.9474    magn:   -0.0000    constr:    0.0000
     atom:   32    charge:    1.9463    magn:   -0.0000    constr:    0.0000
     atom:   33    charge:    1.9195    magn:    0.0007    constr:    0.0000
     atom:   34    charge:    3.1239    magn:   -0.0000    constr:    0.0000
     atom:   35    charge:    1.9419    magn:    0.0000    constr:    0.0000
     atom:   36    charge:    1.9484    magn:    0.0000    constr:    0.0000
     atom:   37    charge:    1.9484    magn:    0.0000    constr:    0.0000
     atom:   38    charge:    3.1199    magn:    0.0000    constr:    0.0000
     atom:   39    charge:    1.9474    magn:   -0.0001    constr:    0.0000
     atom:   40    charge:    1.9368    magn:   -0.0001    constr:    0.0000
     atom:   41    charge:    1.9515    magn:   -0.0000    constr:    0.0000
     atom:   42    charge:    3.1217    magn:    0.0000    constr:    0.0000
     atom:   43    charge:    1.9394    magn:   -0.0001    constr:    0.0000
     atom:   44    charge:    1.9494    magn:   -0.0001    constr:    0.0000
     atom:   45    charge:    1.9472    magn:   -0.0001    constr:    0.0000
     atom:   46    charge:    3.1193    magn:    0.0000    constr:    0.0000
     atom:   47    charge:    1.9474    magn:   -0.0000    constr:    0.0000
     atom:   48    charge:    1.9463    magn:   -0.0000    constr:    0.0000
     atom:   49    charge:    1.9581    magn:    0.0000    constr:    0.0000
     atom:   50    charge:    0.3940    magn:   -0.0000    constr:    0.0000

     total cpu time spent up to now is     2326.5 secs

     total energy              =   -3005.52981306 Ry
     Harris-Foulkes estimate   =   -3005.52981325 Ry
     estimated scf accuracy    <       0.00001004 Ry

     total magnetization       =     0.00 Bohr mag/cell
     absolute magnetization    =     0.01 Bohr mag/cell

     iteration #  7     ecut=    40.42 Ry     beta=0.10
     Davidson diagonalization with overlap
     ethr =  2.57E-09,  avg # of iterations =  2.0

     negative rho (up, down):  1.350E-02 1.350E-02
 
     Magnetic moment per site:
     atom:    1    charge:    3.1244    magn:   -0.0001    constr:    0.0000
     atom:    2    charge:    1.9465    magn:    0.0001    constr:    0.0000
     atom:    3    charge:    3.1200    magn:   -0.0000    constr:    0.0000
     atom:    4    charge:    1.9515    magn:   -0.0000    constr:    0.0000
     atom:    5    charge:    3.1144    magn:    0.0000    constr:    0.0000
     atom:    6    charge:    1.9404    magn:   -0.0001    constr:    0.0000
     atom:    7    charge:    3.1162    magn:    0.0000    constr:    0.0000
     atom:    8    charge:    1.9463    magn:   -0.0000    constr:    0.0000
     atom:    9    charge:    3.1244    magn:   -0.0001    constr:    0.0000
     atom:   10    charge:    1.9466    magn:    0.0001    constr:    0.0000
     atom:   11    charge:    3.1198    magn:    0.0000    constr:    0.0000
     atom:   12    charge:    1.9515    magn:   -0.0000    constr:    0.0000
     atom:   13    charge:    3.1144    magn:    0.0000    constr:    0.0000
     atom:   14    charge:    1.9542    magn:   -0.0000    constr:    0.0000
     atom:   15    charge:    3.1165    magn:    0.0000    constr:    0.0000
     atom:   16    charge:    1.9463    magn:   -0.0000    constr:    0.0000
     atom:   17    charge:    1.9196    magn:    0.0006    constr:    0.0000
     atom:   18    charge:    3.1239    magn:   -0.0000    constr:    0.0000
     atom:   19    charge:    1.9419    magn:    0.0000    constr:    0.0000
     atom:   20    charge:    1.9484    magn:    0.0000    constr:    0.0000
     atom:   21    charge:    1.9484    magn:    0.0000    constr:    0.0000
     atom:   22    charge:    3.1199    magn:    0.0000    constr:    0.0000
     atom:   23    charge:    1.9555    magn:   -0.0000    constr:    0.0000
     atom:   24    charge:    1.9364    magn:   -0.0001    constr:    0.0000
     atom:   25    charge:    1.9515    magn:   -0.0000    constr:    0.0000
     atom:   26    charge:    3.1143    magn:    0.0000    constr:    0.0000
     atom:   27    charge:    1.9395    magn:   -0.0001    constr:    0.0000
     atom:   28    charge:    1.9494    magn:   -0.0001    constr:    0.0000
     atom:   29    charge:    1.9472    magn:   -0.0001    constr:    0.0000
     atom:   30    charge:    3.1193    magn:    0.0000    constr:    0.0000
     atom:   31    charge:    1.9474    magn:   -0.0000    constr:    0.0000
     atom:   32    charge:    1.9463    magn:   -0.0000    constr:    0.0000
     atom:   33    charge:    1.9195    magn:    0.0006    constr:    0.0000
     atom:   34    charge:    3.1239    magn:   -0.0000    constr:    0.0000
     atom:   35    charge:    1.9419    magn:    0.0000    constr:    0.0000
     atom:   36    charge:    1.9484    magn:    0.0000    constr:    0.0000
     atom:   37    charge:    1.9484    magn:    0.0000    constr:    0.0000
     atom:   38    charge:    3.1199    magn:    0.0000    constr:    0.0000
     atom:   39    charge:    1.9474    magn:   -0.0001    constr:    0.0000
     atom:   40    charge:    1.9368    magn:   -0.0001    constr:    0.0000
     atom:   41    charge:    1.9515    magn:   -0.0000    constr:    0.0000
     atom:   42    charge:    3.1217    magn:    0.0000    constr:    0.0000
     atom:   43    charge:    1.9394    magn:   -0.0001    constr:    0.0000
     atom:   44    charge:    1.9494    magn:   -0.0001    constr:    0.0000
     atom:   45    charge:    1.9472    magn:   -0.0001    constr:    0.0000
     atom:   46    charge:    3.1193    magn:    0.0000    constr:    0.0000
     atom:   47    charge:    1.9475    magn:   -0.0000    constr:    0.0000
     atom:   48    charge:    1.9463    magn:   -0.0000    constr:    0.0000
     atom:   49    charge:    1.9581    magn:    0.0000    constr:    0.0000
     atom:   50    charge:    0.3940    magn:   -0.0000    constr:    0.0000

     total cpu time spent up to now is     2550.1 secs

     total energy              =   -3005.52981334 Ry
     Harris-Foulkes estimate   =   -3005.52981356 Ry
     estimated scf accuracy    <       0.00000228 Ry

     total magnetization       =     0.00 Bohr mag/cell
     absolute magnetization    =     0.01 Bohr mag/cell

     iteration #  8     ecut=    40.42 Ry     beta=0.10
     Davidson diagonalization with overlap
     ethr =  5.84E-10,  avg # of iterations =  2.0

     negative rho (up, down):  1.350E-02 1.350E-02
 
     Magnetic moment per site:
     atom:    1    charge:    3.1244    magn:   -0.0001    constr:    0.0000
     atom:    2    charge:    1.9465    magn:    0.0001    constr:    0.0000
     atom:    3    charge:    3.1200    magn:   -0.0000    constr:    0.0000
     atom:    4    charge:    1.9515    magn:    0.0000    constr:    0.0000
     atom:    5    charge:    3.1144    magn:    0.0000    constr:    0.0000
     atom:    6    charge:    1.9404    magn:   -0.0000    constr:    0.0000
     atom:    7    charge:    3.1162    magn:    0.0000    constr:    0.0000
     atom:    8    charge:    1.9463    magn:   -0.0000    constr:    0.0000
     atom:    9    charge:    3.1244    magn:   -0.0001    constr:    0.0000
     atom:   10    charge:    1.9466    magn:    0.0001    constr:    0.0000
     atom:   11    charge:    3.1198    magn:   -0.0000    constr:    0.0000
     atom:   12    charge:    1.9515    magn:    0.0000    constr:    0.0000
     atom:   13    charge:    3.1144    magn:    0.0000    constr:    0.0000
     atom:   14    charge:    1.9542    magn:   -0.0000    constr:    0.0000
     atom:   15    charge:    3.1165    magn:    0.0000    constr:    0.0000
     atom:   16    charge:    1.9463    magn:   -0.0000    constr:    0.0000
     atom:   17    charge:    1.9196    magn:    0.0004    constr:    0.0000
     atom:   18    charge:    3.1239    magn:   -0.0000    constr:    0.0000
     atom:   19    charge:    1.9419    magn:    0.0000    constr:    0.0000
     atom:   20    charge:    1.9484    magn:    0.0000    constr:    0.0000
     atom:   21    charge:    1.9484    magn:    0.0000    constr:    0.0000
     atom:   22    charge:    3.1199    magn:    0.0000    constr:    0.0000
     atom:   23    charge:    1.9555    magn:   -0.0000    constr:    0.0000
     atom:   24    charge:    1.9364    magn:   -0.0000    constr:    0.0000
     atom:   25    charge:    1.9515    magn:    0.0000    constr:    0.0000
     atom:   26    charge:    3.1143    magn:    0.0000    constr:    0.0000
     atom:   27    charge:    1.9395    magn:   -0.0001    constr:    0.0000
     atom:   28    charge:    1.9494    magn:   -0.0001    constr:    0.0000
     atom:   29    charge:    1.9471    magn:   -0.0001    constr:    0.0000
     atom:   30    charge:    3.1193    magn:    0.0000    constr:    0.0000
     atom:   31    charge:    1.9474    magn:   -0.0000    constr:    0.0000
     atom:   32    charge:    1.9464    magn:   -0.0000    constr:    0.0000
     atom:   33    charge:    1.9196    magn:    0.0005    constr:    0.0000
     atom:   34    charge:    3.1239    magn:   -0.0000    constr:    0.0000
     atom:   35    charge:    1.9419    magn:    0.0000    constr:    0.0000
     atom:   36    charge:    1.9484    magn:    0.0000    constr:    0.0000
     atom:   37    charge:    1.9484    magn:    0.0000    constr:    0.0000
     atom:   38    charge:    3.1199    magn:    0.0000    constr:    0.0000
     atom:   39    charge:    1.9474    magn:   -0.0000    constr:    0.0000
     atom:   40    charge:    1.9368    magn:   -0.0000    constr:    0.0000
     atom:   41    charge:    1.9515    magn:    0.0000    constr:    0.0000
     atom:   42    charge:    3.1217    magn:    0.0000    constr:    0.0000
     atom:   43    charge:    1.9394    magn:   -0.0001    constr:    0.0000
     atom:   44    charge:    1.9494    magn:   -0.0001    constr:    0.0000
     atom:   45    charge:    1.9472    magn:   -0.0001    constr:    0.0000
     atom:   46    charge:    3.1193    magn:    0.0000    constr:    0.0000
     atom:   47    charge:    1.9475    magn:   -0.0000    constr:    0.0000
     atom:   48    charge:    1.9463    magn:   -0.0000    constr:    0.0000
     atom:   49    charge:    1.9580    magn:   -0.0000    constr:    0.0000
     atom:   50    charge:    0.3941    magn:   -0.0000    constr:    0.0000

     total cpu time spent up to now is     2780.9 secs

     End of self-consistent calculation

 ------ SPIN UP ------------


          k = 0.0000 0.0000 0.0000 ( 34665 PWs)   bands (ev):

   -58.5100 -58.4749 -57.5987 -57.5691 -57.5630 -57.4865 -57.4734 -57.4337
   -57.3361 -57.3052 -57.2677 -57.2321 -57.1225 -57.0872 -57.0181 -56.9802
   -34.9548 -34.7789 -34.7501 -34.7162 -34.6213 -34.5644 -34.0979 -34.0537
   -34.0157 -33.8726 -33.8517 -33.7934 -33.7721 -33.7661 -33.7567 -33.7478
   -33.7426 -33.7253 -33.7047 -33.6985 -33.6961 -33.6754 -33.6649 -33.6604
   -33.6539 -33.6447 -33.6385 -33.5964 -33.5546 -33.5515 -33.5412 -33.5051
   -33.5004 -33.4933 -33.4634 -33.4496 -33.4378 -33.4369 -33.4170 -33.3887
   -33.3409 -33.2954 -33.2511 -33.2511 -33.2314 -33.2070 -33.1494 -33.0991
   -18.6736 -18.2588 -18.2214 -18.0134 -17.9155 -17.7471 -17.7335 -17.6312
   -17.5954 -17.5721 -17.4610 -17.2646 -17.2226 -17.2160 -17.1520 -17.0537
   -17.0329 -17.0114 -16.9433 -16.9019 -16.8533 -16.8182 -16.8117 -16.7877
   -16.6942 -16.6320 -16.6179 -16.5149 -16.5006 -16.3509 -16.2876 -15.8026
   -15.7423  -6.2517  -5.9800  -5.6968  -5.5005  -5.4189  -5.3169  -5.1911
    -5.1687  -5.0820  -4.9507  -4.8592  -4.8037  -4.7908  -4.7190  -4.6444
    -4.6161  -4.5476  -4.5342  -4.4210  -4.4182  -4.3625  -4.3467  -4.2522
    -4.2283  -4.1738  -4.1112  -4.0988  -4.0920  -4.0798  -3.9978  -3.9818
    -3.9136  -3.8422  -3.8363  -3.7463  -3.7382  -3.7317  -3.6234  -3.6190
    -3.5872  -3.4744  -3.4521  -3.4128  -3.3012  -3.1325  -3.0938  -3.0405
    -2.9768  -2.9617  -2.8993  -2.8857  -2.8813  -2.7715  -2.7554  -2.7395
    -2.6486  -2.5953  -2.5114  -2.4358  -2.4323  -2.3985  -2.3395  -2.2890
    -2.2362  -2.1785  -2.1740  -2.1253  -2.0830  -2.0779  -1.9312  -1.8484
    -1.8319  -1.8274  -1.8176  -1.7147  -1.6259  -1.5696  -1.5586  -1.5232
    -1.5212  -1.5050  -1.4537  -1.3700  -1.3492  -1.3287  -1.3127  -1.2894
    -1.2795  -1.1616  -1.0713  -0.9916  -0.9559  -0.8854  -0.8745  -0.8219
    -0.7551  -0.7193  -0.6692  -0.3756   0.8216   0.9189   1.2119   1.4947
     1.6022   1.6883   1.7177   1.8103   1.8423   1.9191   1.9528   2.0200
     2.0255   2.1710   2.1855   2.2573   2.2828   2.3117   2.3920   2.4157
     2.4638   2.4709   2.5076   2.5208   2.6027   2.6261   2.6712   2.7173
     2.7439   2.7502   2.7977   2.8286   2.8557   2.8745   2.8824   2.9941
     3.0084   3.0336   3.2081   3.2106   3.2376   3.2484   3.3474   3.4064
     3.4408   3.4993   3.5937   3.7443   3.8770   3.8911   4.0779   4.2698
     4.4017   4.4798   4.5029   4.6460   4.7917   4.9237   4.9614   5.0581
     5.1866   5.2001   5.2304   5.2457   5.3364   5.3387   5.3514   5.4573
     5.4779   5.5257   5.6904   5.7096   5.7879   5.8779   5.9037   5.9089
     5.9987   6.0384   6.2245   6.2883   6.3424   6.4100   6.5823   6.6087
     7.1057   7.7897   7.9897   8.0200   8.2197   8.2389   8.5744   8.7198
     8.7983   9.0636   9.1867   9.2279   9.3565   9.4738   9.6164

          k = 0.0000 0.0280 0.0000 ( 34717 PWs)   bands (ev):

   -58.5076 -58.4773 -57.5964 -57.5683 -57.5653 -57.4874 -57.4713 -57.4359
   -57.3347 -57.3066 -57.2655 -57.2344 -57.1201 -57.0896 -57.0156 -56.9827
   -34.9294 -34.7769 -34.7520 -34.7100 -34.6278 -34.5915 -34.0724 -34.0284
   -33.9925 -33.8666 -33.8455 -33.7896 -33.7746 -33.7659 -33.7452 -33.7446
   -33.7422 -33.7321 -33.7091 -33.6990 -33.6924 -33.6877 -33.6811 -33.6695
   -33.6527 -33.6421 -33.6407 -33.5929 -33.5745 -33.5254 -33.5164 -33.5098
   -33.4965 -33.4908 -33.4617 -33.4504 -33.4415 -33.4396 -33.4361 -33.4150
   -33.3349 -33.2918 -33.2573 -33.2497 -33.2328 -33.2118 -33.1768 -33.1278
   -18.6153 -18.2339 -18.1837 -17.9648 -17.8853 -17.8102 -17.7035 -17.5826
   -17.5818 -17.5407 -17.4917 -17.3166 -17.1938 -17.1935 -17.1427 -17.0849
   -16.9917 -16.9862 -16.9729 -16.9335 -16.8733 -16.8305 -16.8168 -16.7865
   -16.7076 -16.6573 -16.6217 -16.5423 -16.5340 -16.3703 -16.3278 -15.8168
   -15.7678  -6.1663  -5.9791  -5.6125  -5.4206  -5.3475  -5.2469  -5.1405
    -5.1122  -5.0122  -4.9339  -4.8735  -4.8619  -4.7347  -4.7281  -4.6312
    -4.5929  -4.5665  -4.5182  -4.4627  -4.4011  -4.3914  -4.3811  -4.3153
    -4.2709  -4.2154  -4.1931  -4.1787  -4.1692  -4.1248  -4.0460  -4.0041
    -3.9585  -3.9212  -3.9041  -3.7873  -3.6473  -3.6247  -3.5474  -3.5109
    -3.5031  -3.4705  -3.3478  -3.3209  -3.1517  -3.1171  -3.0863  -3.0138
    -2.9468  -2.9427  -2.9226  -2.9055  -2.8638  -2.7528  -2.7212  -2.6744
    -2.6602  -2.6190  -2.4716  -2.4596  -2.4120  -2.3945  -2.3587  -2.3289
    -2.2284  -2.1924  -2.1349  -2.1316  -2.1132  -2.0335  -1.9677  -1.9614
    -1.9163  -1.8317  -1.7736  -1.7672  -1.7129  -1.6772  -1.6352  -1.5876
    -1.5708  -1.5658  -1.5033  -1.4738  -1.4363  -1.3807  -1.3695  -1.2569
    -1.1946  -1.1443  -1.1184  -1.0813  -1.0375  -1.0159  -0.9275  -0.8049
    -0.7752  -0.7505  -0.7336  -0.4171   0.9543   0.9588   1.2134   1.6241
     1.6828   1.6896   1.7219   1.7991   1.8058   1.8829   2.0170   2.0881
     2.0975   2.1976   2.2670   2.2881   2.3147   2.3230   2.3392   2.3588
     2.4502   2.4907   2.5086   2.6146   2.6169   2.6539   2.6747   2.7342
     2.7776   2.7858   2.7898   2.8023   2.8562   2.8759   2.9347   2.9632
     2.9860   3.0485   3.1917   3.2349   3.2623   3.3002   3.3420   3.3532
     3.4222   3.4459   3.5546   3.6934   3.8332   3.9590   4.0362   4.3301
     4.4938   4.5043   4.5135   4.7196   4.8080   4.9643   5.0111   5.0787
     5.0996   5.1959   5.2308   5.2912   5.3205   5.3330   5.4393   5.4502
     5.4876   5.4946   5.6068   5.6707   5.7302   5.8030   5.8221   5.8938
     5.9233   6.0369   6.1942   6.2301   6.2481   6.3800   6.5471   6.6260
     7.2246   7.2710   7.8033   8.1170   8.2068   8.3299   8.5828   8.7275
     8.8446   8.9819   9.1735   9.2526   9.3346   9.3533   9.5116

          k = 0.0000 0.0560 0.0000 ( 34721 PWs)   bands (ev):

   -58.5013 -58.4837 -57.5899 -57.5721 -57.5661 -57.4894 -57.4660 -57.4411
   -57.3313 -57.3101 -57.2595 -57.2404 -57.1137 -57.0960 -57.0087 -56.9896
   -34.8595 -34.7717 -34.7572 -34.6928 -34.6645 -34.6454 -34.0022 -33.9598
   -33.9327 -33.8504 -33.8287 -33.8057 -33.7936 -33.7832 -33.7807 -33.7550
   -33.7460 -33.7415 -33.7089 -33.7002 -33.6824 -33.6817 -33.6770 -33.6704
   -33.6568 -33.6512 -33.6201 -33.6111 -33.5832 -33.5208 -33.4918 -33.4871
   -33.4856 -33.4820 -33.4706 -33.4570 -33.4536 -33.4470 -33.4443 -33.4328
   -33.3187 -33.2888 -33.2739 -33.2507 -33.2458 -33.2363 -33.2244 -33.1982
   -18.4541 -18.2247 -18.0235 -17.9939 -17.8367 -17.8026 -17.6175 -17.5944
   -17.5753 -17.4792 -17.4603 -17.4244 -17.2439 -17.1412 -17.1139 -17.1018
   -17.0427 -16.9964 -16.9301 -16.9162 -16.8964 -16.8619 -16.7828 -16.7689
   -16.7311 -16.7264 -16.6420 -16.6247 -16.5983 -16.4330 -16.4095 -15.8455
   -15.8216  -5.9777  -5.9269  -5.3789  -5.2482  -5.2004  -5.1606  -5.0612
    -5.0502  -5.0169  -4.9610  -4.9380  -4.7523  -4.7143  -4.6814  -4.5997
    -4.5934  -4.5513  -4.5468  -4.5101  -4.4960  -4.4388  -4.4239  -4.4173
    -4.3941  -4.3294  -4.2695  -4.2210  -4.1781  -4.1460  -4.1046  -4.0372
    -4.0221  -3.8654  -3.7551  -3.6127  -3.6060  -3.5846  -3.4857  -3.4671
    -3.3632  -3.2883  -3.2793  -3.2545  -3.2178  -3.1637  -3.1553  -3.0408
    -2.9982  -2.9490  -2.8931  -2.8663  -2.7881  -2.6840  -2.6774  -2.6303
    -2.5118  -2.5008  -2.4954  -2.4256  -2.3735  -2.3568  -2.3358  -2.3258
    -2.2692  -2.2566  -2.2225  -2.1916  -2.1710  -2.1494  -2.0694  -2.0666
    -2.0561  -1.9964  -1.8803  -1.8098  -1.7880  -1.7683  -1.7483  -1.6957
    -1.6559  -1.6553  -1.6295  -1.5816  -1.5594  -1.4771  -1.4326  -1.3750
    -1.2868  -1.1917  -1.1738  -1.1377  -1.0459  -1.0400  -0.9158  -0.9116
    -0.8191  -0.7820  -0.7572  -0.5203   1.0823   1.2247   1.2972   1.5193
     1.5953   1.6886   1.7561   1.8652   1.9479   2.0555   2.0756   2.0966
     2.1582   2.2185   2.2541   2.2975   2.3416   2.4139   2.4244   2.4685
     2.5155   2.5258   2.5659   2.6286   2.6339   2.6659   2.6785   2.7170
     2.7584   2.7637   2.8137   2.8533   2.8897   2.9217   2.9612   3.0193
     3.0658   3.0671   3.1491   3.1766   3.2000   3.2587   3.2796   3.3527
     3.4532   3.4644   3.5051   3.5773   3.7013   3.9250   4.0898   4.4676
     4.5401   4.5510   4.6663   4.8279   4.8762   4.9218   5.0805   5.1051
     5.1513   5.1889   5.2361   5.2922   5.3135   5.3561   5.3809   5.4231
     5.4404   5.5281   5.5846   5.6229   5.6400   5.6606   5.6692   5.7373
     5.8982   5.9767   6.0917   6.2089   6.2445   6.2691   6.5570   6.5668
     6.8472   7.1727   7.5746   7.6122   8.1418   8.3952   8.6530   8.6858
     8.8210   9.0199   9.2044   9.3675   9.5966   9.6781   9.7082

          k = 0.0000-0.0840 0.0000 ( 34678 PWs)   bands (ev):

   -58.4933 -58.4916 -57.5811 -57.5808 -57.5651 -57.4904 -57.4623 -57.4449
   -57.3291 -57.3123 -57.2540 -57.2459 -57.1049 -57.1049 -57.0001 -56.9982
   -34.7654 -34.7639 -34.7630 -34.7620 -34.6699 -34.6684 -33.9056 -33.9046
   -33.8874 -33.8850 -33.8359 -33.8268 -33.8091 -33.8056 -33.8055 -33.7772
   -33.7744 -33.7399 -33.7009 -33.6984 -33.6933 -33.6734 -33.6722 -33.6597
   -33.6578 -33.6258 -33.5880 -33.5850 -33.5806 -33.5585 -33.5463 -33.5276
   -33.4823 -33.4726 -33.4671 -33.4670 -33.4506 -33.4506 -33.3501 -33.3497
   -33.3472 -33.3371 -33.2966 -33.2962 -33.2417 -33.2412 -33.2379 -33.2311
   -18.2291 -18.2281 -18.2223 -17.8059 -17.7900 -17.7129 -17.6892 -17.6892
   -17.6195 -17.4555 -17.4008 -17.2906 -17.2867 -17.2572 -17.2072 -17.0331
   -17.0087 -17.0053 -17.0050 -16.8421 -16.8250 -16.8247 -16.8174 -16.7847
   -16.7398 -16.6921 -16.6880 -16.6789 -16.6753 -16.4710 -16.4556 -15.8550
   -15.8550  -5.9772  -5.5873  -5.5873  -5.0908  -5.0897  -5.0645  -5.0548
    -4.9733  -4.9709  -4.9150  -4.8786  -4.8386  -4.7984  -4.7450  -4.6874
    -4.6813  -4.6498  -4.6092  -4.5900  -4.4724  -4.4697  -4.4107  -4.4070
    -4.3289  -4.2784  -4.2229  -4.1873  -4.1051  -4.0894  -3.9894  -3.9865
    -3.8971  -3.8738  -3.8585  -3.8315  -3.6110  -3.5546  -3.4768  -3.4640
    -3.2813  -3.2741  -3.2511  -3.1479  -3.1274  -3.1207  -3.0406  -3.0378
    -2.9781  -2.9658  -2.9150  -2.8731  -2.8473  -2.7433  -2.6898  -2.6390
    -2.6073  -2.5911  -2.5844  -2.5541  -2.4619  -2.4043  -2.3641  -2.2644
    -2.2623  -2.1956  -2.1844  -2.1831  -2.1828  -2.1785  -2.1325  -1.9965
    -1.9963  -1.9492  -1.9252  -1.9106  -1.8469  -1.7639  -1.7544  -1.7206
    -1.7142  -1.6614  -1.6432  -1.6305  -1.6214  -1.5773  -1.5252  -1.3814
    -1.3525  -1.3198  -1.2955  -1.2614  -1.0459  -0.9937  -0.8162  -0.8065
    -0.7980  -0.7930  -0.7197  -0.6951   1.2804   1.2819   1.4313   1.4318
     1.5115   1.5126   1.8796   1.8815   1.9418   1.9821   2.1358   2.2148
     2.2493   2.2614   2.2798   2.3179   2.3915   2.4431   2.4555   2.4605
     2.4945   2.5193   2.5794   2.5960   2.6158   2.7422   2.7483   2.7618
     2.7952   2.8128   2.8175   2.8221   2.8247   2.9398   3.0120   3.0292
     3.0396   3.0820   3.1325   3.1517   3.1891   3.1990   3.2959   3.3063
     3.4454   3.5110   3.5394   3.5595   3.5790   3.8337   4.1495   4.5717
     4.6078   4.6397   4.6633   4.6642   4.9420   4.9648   5.1017   5.1292
     5.1460   5.1913   5.2489   5.2673   5.3564   5.3751   5.4147   5.4652
     5.4744   5.5028   5.5033   5.5089   5.5676   5.6032   5.6470   5.7252
     5.8331   5.9068   6.0893   6.1894   6.2815   6.3099   6.4834   6.6182
     6.8190   6.8668   7.3876   7.4045   8.1094   8.1560   8.8825   9.0471
     9.1750   9.1771   9.2667   9.4075   9.4661   9.5265   9.7048

          k = 0.0253 0.0000 0.0000 ( 34707 PWs)   bands (ev):

   -58.5100 -58.4749 -57.5987 -57.5692 -57.5630 -57.4865 -57.4733 -57.4337
   -57.3361 -57.3052 -57.2678 -57.2321 -57.1225 -57.0872 -57.0181 -56.9802
   -34.9552 -34.7789 -34.7501 -34.7154 -34.6213 -34.5645 -34.0981 -34.0558
   -34.0159 -33.8642 -33.8516 -33.7934 -33.7762 -33.7638 -33.7572 -33.7544
   -33.7427 -33.7263 -33.7046 -33.7003 -33.6906 -33.6754 -33.6650 -33.6604
   -33.6541 -33.6443 -33.6338 -33.5949 -33.5546 -33.5527 -33.5411 -33.5063
   -33.5036 -33.4930 -33.4645 -33.4496 -33.4372 -33.4367 -33.4170 -33.3888
   -33.3408 -33.2954 -33.2538 -33.2512 -33.2303 -33.2070 -33.1495 -33.0992
   -18.6291 -18.2390 -18.2014 -17.9941 -17.9885 -17.7620 -17.6526 -17.5991
   -17.5947 -17.5705 -17.5251 -17.3044 -17.2610 -17.1984 -17.1590 -17.1113
   -17.0556 -16.9627 -16.9462 -16.9418 -16.8391 -16.8116 -16.8001 -16.7347
   -16.6863 -16.6617 -16.6184 -16.5404 -16.4982 -16.3491 -16.2876 -15.8016
   -15.7422  -6.1268  -5.9780  -5.5932  -5.4310  -5.4086  -5.2778  -5.2506
    -5.1763  -5.0600  -4.9531  -4.9063  -4.7875  -4.7867  -4.7197  -4.6968
    -4.6243  -4.5263  -4.4632  -4.4525  -4.4004  -4.3600  -4.3026  -4.2271
    -4.2221  -4.1782  -4.1340  -4.1138  -4.0556  -4.0421  -4.0018  -3.8586
    -3.8414  -3.8038  -3.7573  -3.7251  -3.7225  -3.6730  -3.6187  -3.5387
    -3.5079  -3.4811  -3.4729  -3.4676  -3.3611  -3.2166  -3.0917  -3.0412
    -3.0263  -2.9659  -2.9598  -2.9150  -2.8439  -2.8191  -2.7634  -2.7604
    -2.7263  -2.6179  -2.5984  -2.5084  -2.4712  -2.4337  -2.3988  -2.2760
    -2.2331  -2.2115  -2.1327  -2.0724  -2.0453  -2.0387  -1.9507  -1.8514
    -1.8214  -1.7631  -1.7628  -1.7113  -1.6910  -1.6626  -1.6315  -1.5576
    -1.5469  -1.5162  -1.4785  -1.4409  -1.4094  -1.3630  -1.3078  -1.2891
    -1.2514  -1.2079  -1.1344  -1.0891  -1.0302  -0.9954  -0.8561  -0.8420
    -0.8093  -0.7897  -0.7555  -0.4369   0.9041   0.9184   1.2110   1.5733
     1.6163   1.7111   1.7268   1.8085   1.8540   1.9302   1.9909   1.9923
     2.1227   2.1277   2.2023   2.2723   2.2782   2.3161   2.3954   2.4252
     2.4733   2.4910   2.5368   2.5905   2.6221   2.6259   2.6454   2.6786
     2.7174   2.7450   2.8128   2.8682   2.8937   2.9272   2.9895   3.0016
     3.0195   3.0976   3.1928   3.2063   3.2263   3.3185   3.3621   3.3832
     3.4804   3.5401   3.5428   3.6971   3.8275   3.9417   4.0202   4.2229
     4.3802   4.4308   4.5198   4.6215   4.7290   4.7702   4.8387   4.8523
     5.0663   5.1136   5.2306   5.3425   5.4432   5.5091   5.5424   5.6868
     5.6936   5.7180   5.7418   5.7889   5.8374   5.8389   5.8462   5.9911
     5.9971   6.0145   6.2406   6.2965   6.3424   6.4612   6.5507   6.5864
     7.1594   7.5696   7.6775   7.9781   8.0397   8.1646   8.2693   8.5791
     8.6936   8.9735   9.0875   9.3449   9.5460   9.5931   9.9261

          k = 0.0253 0.0280 0.0000 ( 34687 PWs)   bands (ev):

   -58.5076 -58.4773 -57.5963 -57.5683 -57.5653 -57.4874 -57.4712 -57.4359
   -57.3347 -57.3066 -57.2655 -57.2344 -57.1201 -57.0896 -57.0156 -56.9827
   -34.9298 -34.7769 -34.7520 -34.7092 -34.6277 -34.5915 -34.0726 -34.0306
   -33.9926 -33.8585 -33.8455 -33.7897 -33.7713 -33.7663 -33.7520 -33.7495
   -33.7424 -33.7318 -33.7100 -33.7017 -33.6878 -33.6872 -33.6806 -33.6696
   -33.6527 -33.6404 -33.6361 -33.5915 -33.5744 -33.5280 -33.5162 -33.5066
   -33.5021 -33.4905 -33.4627 -33.4504 -33.4416 -33.4390 -33.4362 -33.4149
   -33.3349 -33.2919 -33.2573 -33.2520 -33.2318 -33.2118 -33.1768 -33.1278
   -18.5717 -18.2299 -18.1499 -17.9766 -17.9419 -17.7246 -17.7196 -17.5751
   -17.5688 -17.5362 -17.5265 -17.3226 -17.2761 -17.1753 -17.1384 -17.0928
   -17.0319 -16.9906 -16.9497 -16.9326 -16.8783 -16.8656 -16.7723 -16.7606
   -16.7045 -16.6824 -16.6225 -16.5633 -16.5344 -16.3687 -16.3280 -15.8158
   -15.7679  -6.0419  -5.9770  -5.5096  -5.3572  -5.3334  -5.1948  -5.1792
    -5.1186  -5.0082  -4.9000  -4.8831  -4.8421  -4.7425  -4.7033  -4.6475
    -4.6136  -4.5163  -4.4862  -4.4458  -4.3881  -4.3758  -4.3448  -4.3216
    -4.2925  -4.2596  -4.1985  -4.1548  -4.1294  -4.1006  -4.0099  -3.9826
    -3.9279  -3.8736  -3.8254  -3.7566  -3.6163  -3.5634  -3.5338  -3.5197
    -3.4702  -3.4416  -3.4104  -3.3293  -3.2996  -3.1402  -3.0978  -3.0391
    -2.9848  -2.9379  -2.9186  -2.8862  -2.8320  -2.8093  -2.7186  -2.7083
    -2.6911  -2.6583  -2.5601  -2.5110  -2.4907  -2.4280  -2.4085  -2.3194
    -2.2540  -2.2228  -2.1455  -2.1374  -2.0546  -2.0422  -1.9917  -1.9712
    -1.9525  -1.8352  -1.7899  -1.7631  -1.7467  -1.6981  -1.6442  -1.6140
    -1.5783  -1.5623  -1.5547  -1.5373  -1.4986  -1.4347  -1.3499  -1.3092
    -1.2020  -1.1391  -1.1222  -1.1164  -1.0926  -1.0456  -0.9955  -0.8614
    -0.8130  -0.7908  -0.7275  -0.4666   0.9494   1.0435   1.2271   1.6186
     1.6510   1.7238   1.7617   1.8391   1.8490   1.9292   2.0745   2.1091
     2.1589   2.1730   2.2205   2.2809   2.3090   2.3159   2.3536   2.4151
     2.4324   2.4923   2.5167   2.6332   2.6415   2.6650   2.7201   2.7423
     2.7682   2.7816   2.8163   2.8195   2.9080   2.9488   2.9619   2.9793
     3.0157   3.0791   3.1594   3.2353   3.2601   3.3280   3.3548   3.4008
     3.4270   3.4965   3.5130   3.6494   3.7839   3.9599   4.0309   4.2348
     4.4282   4.5273   4.5337   4.6542   4.7621   4.8145   4.8640   4.8800
     5.0164   5.1079   5.2666   5.3362   5.4875   5.4919   5.5428   5.5847
     5.6426   5.6537   5.6923   5.7298   5.7524   5.7547   5.8550   5.9466
     5.9609   6.0602   6.2034   6.2368   6.2654   6.3903   6.5756   6.6060
     7.2755   7.3029   7.6607   7.7485   8.0934   8.2774   8.3677   8.4461
     8.7187   8.9356   9.1389   9.2195   9.3762   9.5421   9.6824

          k = 0.0253 0.0560 0.0000 ( 34699 PWs)   bands (ev):

   -58.5013 -58.4837 -57.5898 -57.5721 -57.5662 -57.4894 -57.4660 -57.4411
   -57.3313 -57.3101 -57.2596 -57.2404 -57.1137 -57.0960 -57.0087 -56.9896
   -34.8598 -34.7717 -34.7572 -34.6922 -34.6646 -34.6451 -34.0024 -33.9624
   -33.9328 -33.8442 -33.8287 -33.8052 -33.7878 -33.7831 -33.7809 -33.7610
   -33.7477 -33.7394 -33.7090 -33.7043 -33.6900 -33.6820 -33.6780 -33.6705
   -33.6569 -33.6378 -33.6201 -33.6111 -33.5822 -33.5202 -33.4939 -33.4880
   -33.4875 -33.4810 -33.4703 -33.4577 -33.4547 -33.4470 -33.4440 -33.4324
   -33.3187 -33.2888 -33.2739 -33.2507 -33.2474 -33.2360 -33.2244 -33.1981
   -18.4139 -18.2237 -18.0042 -17.9914 -17.8210 -17.8022 -17.6585 -17.6004
   -17.5763 -17.4653 -17.4489 -17.3922 -17.2630 -17.1476 -17.1278 -17.0838
   -17.0388 -16.9935 -16.9477 -16.9353 -16.9293 -16.8765 -16.7806 -16.7626
   -16.7551 -16.7236 -16.6442 -16.6258 -16.6098 -16.4331 -16.4070 -15.8449
   -15.8218  -5.9756  -5.8067  -5.2816  -5.2258  -5.1663  -5.1278  -5.0188
    -4.9990  -4.9888  -4.8898  -4.8563  -4.7291  -4.7117  -4.6576  -4.5922
    -4.5820  -4.5772  -4.5343  -4.4741  -4.4663  -4.4538  -4.3994  -4.3753
    -4.3280  -4.3138  -4.2534  -4.2216  -4.1955  -4.1437  -4.0932  -4.0520
    -3.9868  -3.8419  -3.7489  -3.6737  -3.6016  -3.5881  -3.5001  -3.3994
    -3.3780  -3.3576  -3.3209  -3.2749  -3.2303  -3.2041  -3.1372  -3.0632
    -3.0114  -2.9717  -2.9333  -2.8666  -2.8099  -2.7420  -2.7353  -2.6950
    -2.6055  -2.5867  -2.5572  -2.5016  -2.4854  -2.3830  -2.3468  -2.3230
    -2.3083  -2.2902  -2.2384  -2.1914  -2.1718  -2.1442  -2.1253  -2.0971
    -2.0846  -2.0093  -1.9032  -1.8778  -1.8211  -1.7710  -1.7497  -1.7296
    -1.6974  -1.6589  -1.6199  -1.6007  -1.5353  -1.5060  -1.4350  -1.3462
    -1.3210  -1.1979  -1.1481  -1.1311  -1.0553  -1.0103  -0.9318  -0.9054
    -0.8418  -0.8168  -0.7514  -0.5616   1.0841   1.2658   1.3621   1.5561
     1.5718   1.7096   1.7728   1.8617   2.0603   2.0760   2.1136   2.1426
     2.1855   2.2550   2.2897   2.2985   2.3201   2.3695   2.4336   2.4621
     2.5164   2.5473   2.5643   2.5896   2.6636   2.6898   2.7036   2.7666
     2.7983   2.8193   2.8339   2.8760   2.9294   2.9726   2.9926   3.0128
     3.0533   3.0880   3.1119   3.1475   3.2543   3.2745   3.3046   3.3677
     3.4074   3.4974   3.5161   3.5655   3.6668   3.8581   4.1452   4.2994
     4.5275   4.5869   4.6761   4.7104   4.7870   4.8389   4.9121   4.9629
     5.0387   5.1735   5.2357   5.3179   5.3578   5.3657   5.4269   5.4999
     5.5247   5.5967   5.6195   5.6328   5.7058   5.7312   5.8106   5.8594
     5.9128   6.0201   6.1177   6.2494   6.2744   6.3105   6.5461   6.5873
     6.9132   7.2326   7.6187   7.6923   8.0712   8.1561   8.3309   8.5036
     8.7458   8.8647   8.9430   9.2528   9.3861   9.5008   9.5487

          k = 0.0253-0.0840 0.0000 ( 34722 PWs)   bands (ev):

   -58.4933 -58.4916 -57.5810 -57.5808 -57.5652 -57.4904 -57.4623 -57.4449
   -57.3291 -57.3123 -57.2541 -57.2459 -57.1049 -57.1049 -57.0001 -56.9982
   -34.7654 -34.7641 -34.7631 -34.7623 -34.6696 -34.6680 -33.9059 -33.9051
   -33.8908 -33.8852 -33.8408 -33.8179 -33.8056 -33.8055 -33.8007 -33.7773
   -33.7744 -33.7436 -33.7059 -33.6985 -33.6934 -33.6736 -33.6724 -33.6614
   -33.6579 -33.6258 -33.5875 -33.5809 -33.5775 -33.5586 -33.5471 -33.5260
   -33.4823 -33.4754 -33.4696 -33.4669 -33.4509 -33.4508 -33.3501 -33.3497
   -33.3471 -33.3370 -33.2966 -33.2962 -33.2424 -33.2417 -33.2379 -33.2311
   -18.2216 -18.1982 -18.1972 -17.7859 -17.7744 -17.7375 -17.7332 -17.6915
   -17.6128 -17.4442 -17.3770 -17.2796 -17.2767 -17.2279 -17.1827 -17.0800
   -17.0481 -16.9915 -16.9903 -16.9120 -16.8873 -16.7967 -16.7869 -16.7848
   -16.7412 -16.7408 -16.7351 -16.6558 -16.6547 -16.4697 -16.4521 -15.8549
   -15.8549  -5.9751  -5.4889  -5.4887  -5.0499  -5.0469  -4.9914  -4.9913
    -4.9661  -4.9383  -4.8859  -4.8424  -4.7538  -4.7264  -4.6479  -4.6464
    -4.6254  -4.6159  -4.5875  -4.5385  -4.4811  -4.4599  -4.3958  -4.3933
    -4.3673  -4.3014  -4.2049  -4.1615  -4.1246  -4.1126  -3.9679  -3.9315
    -3.9201  -3.9165  -3.8672  -3.8348  -3.5942  -3.5024  -3.4544  -3.4435
    -3.3459  -3.3141  -3.2885  -3.2149  -3.2094  -3.1902  -3.1278  -3.1258
    -2.9807  -2.9782  -2.9439  -2.8771  -2.8683  -2.8552  -2.7521  -2.7417
    -2.7328  -2.6436  -2.6284  -2.5637  -2.4842  -2.4465  -2.3735  -2.3174
    -2.2722  -2.2635  -2.2479  -2.2233  -2.1721  -2.1282  -2.1158  -2.1029
    -2.0601  -2.0432  -2.0270  -1.8979  -1.8575  -1.8468  -1.7586  -1.7534
    -1.6848  -1.6830  -1.6548  -1.6398  -1.4911  -1.4710  -1.4610  -1.4075
    -1.3303  -1.3042  -1.2729  -1.2425  -1.0562  -0.9946  -0.8488  -0.8391
    -0.7975  -0.7965  -0.7340  -0.7080   1.2903   1.2921   1.4489   1.4491
     1.6004   1.6015   1.8631   1.8635   1.9676   1.9999   2.1319   2.2402
     2.3092   2.3483   2.3539   2.3827   2.4143   2.4198   2.4600   2.4709
     2.5063   2.5276   2.5498   2.5540   2.6278   2.7081   2.7368   2.8009
     2.8242   2.8255   2.8776   2.9008   2.9032   2.9431   2.9742   3.0281
     3.0369   3.0783   3.1705   3.1802   3.2131   3.2355   3.2920   3.3150
     3.4197   3.4527   3.5049   3.5830   3.6197   3.7691   4.1983   4.4490
     4.4517   4.6164   4.6493   4.6783   4.9495   4.9600   4.9845   5.0082
     5.0583   5.1178   5.1186   5.1523   5.2930   5.3537   5.4043   5.4566
     5.5188   5.5746   5.6162   5.6516   5.6756   5.7137   5.7460   5.8191
     5.8778   5.9375   6.1715   6.2038   6.2913   6.3299   6.5216   6.6807
     6.8994   6.9398   7.4566   7.4716   8.1369   8.1786   8.6038   8.6540
     8.7721   8.7933   9.0568   9.1691   9.3375   9.3515   9.5536

          k = 0.0506 0.0000 0.0000 ( 34729 PWs)   bands (ev):

   -58.5100 -58.4749 -57.5985 -57.5693 -57.5630 -57.4865 -57.4733 -57.4337
   -57.3361 -57.3052 -57.2678 -57.2321 -57.1225 -57.0872 -57.0181 -56.9802
   -34.9559 -34.7788 -34.7502 -34.7139 -34.6214 -34.5645 -34.0986 -34.0600
   -34.0161 -33.8515 -33.8415 -33.7935 -33.7841 -33.7745 -33.7592 -33.7576
   -33.7427 -33.7282 -33.7043 -33.7031 -33.6783 -33.6754 -33.6651 -33.6605
   -33.6545 -33.6434 -33.6250 -33.5917 -33.5546 -33.5546 -33.5409 -33.5195
   -33.5011 -33.4925 -33.4669 -33.4496 -33.4363 -33.4360 -33.4170 -33.3890
   -33.3408 -33.2953 -33.2592 -33.2512 -33.2279 -33.2071 -33.1496 -33.0993
   -18.5196 -18.2278 -18.1178 -18.0873 -17.9546 -17.8115 -17.6531 -17.5934
   -17.5656 -17.5558 -17.4767 -17.3981 -17.2613 -17.2095 -17.2078 -17.1492
   -17.1270 -17.0142 -16.9537 -16.9319 -16.8621 -16.8117 -16.7406 -16.6983
   -16.6686 -16.6615 -16.6199 -16.5782 -16.4981 -16.3471 -16.2876 -15.7996
   -15.7419  -5.9740  -5.8284  -5.4810  -5.4776  -5.4035  -5.2260  -5.1404
    -5.0802  -4.9972  -4.9637  -4.9171  -4.7988  -4.7539  -4.7336  -4.6562
    -4.6299  -4.5547  -4.4433  -4.3658  -4.3645  -4.3139  -4.2686  -4.2118
    -4.1416  -4.1172  -4.0999  -4.0110  -3.9667  -3.9659  -3.9103  -3.8284
    -3.8140  -3.8002  -3.7543  -3.7315  -3.6872  -3.6686  -3.6166  -3.6107
    -3.5718  -3.4729  -3.4690  -3.4259  -3.3417  -3.1842  -3.0841  -3.0063
    -2.9934  -2.9721  -2.9628  -2.9545  -2.9460  -2.8952  -2.8781  -2.8695
    -2.7733  -2.6788  -2.6675  -2.5714  -2.5456  -2.5427  -2.4803  -2.4601
    -2.2822  -2.2402  -2.1696  -2.1489  -2.0951  -2.0368  -1.9307  -1.8743
    -1.8339  -1.8194  -1.7787  -1.7748  -1.7160  -1.6783  -1.6720  -1.6425
    -1.5497  -1.5202  -1.5189  -1.4496  -1.4181  -1.3858  -1.3442  -1.3132
    -1.3023  -1.2814  -1.2432  -1.1692  -1.0637  -1.0268  -0.9667  -0.9025
    -0.8752  -0.8670  -0.7974  -0.5855   0.8772   1.0414   1.2096   1.3204
     1.6666   1.7030   1.7427   1.8526   1.8722   1.9224   1.9334   2.0212
     2.1780   2.2469   2.2884   2.3443   2.3456   2.3474   2.4350   2.4371
     2.4880   2.5147   2.6202   2.6346   2.6639   2.6664   2.7168   2.7512
     2.7571   2.8149   2.8799   2.9196   2.9322   2.9865   2.9974   3.0019
     3.0892   3.1137   3.1781   3.1914   3.2482   3.2864   3.3604   3.4301
     3.5108   3.5395   3.6199   3.6958   3.7238   3.8563   3.9113   4.0875
     4.2954   4.4175   4.4782   4.5039   4.5792   4.6446   4.9083   4.9212
     5.0743   5.1069   5.3463   5.3762   5.4896   5.6720   5.6803   5.6970
     5.7280   5.7638   5.7660   5.8277   5.9079   5.9300   6.1259   6.1345
     6.1990   6.2729   6.3001   6.3331   6.3504   6.3650   6.5934   6.6223
     6.9224   7.0061   7.4099   7.5081   8.0773   8.1475   8.2265   8.5571
     8.5792   8.8703   9.0006   9.4035   9.5320   9.7459   9.7703

          k = 0.0506 0.0280 0.0000 ( 34685 PWs)   bands (ev):

   -58.5076 -58.4773 -57.5961 -57.5684 -57.5654 -57.4874 -57.4712 -57.4359
   -57.3346 -57.3066 -57.2655 -57.2344 -57.1201 -57.0896 -57.0156 -56.9827
   -34.9305 -34.7769 -34.7520 -34.7077 -34.6277 -34.5916 -34.0730 -34.0351
   -33.9929 -33.8454 -33.8367 -33.7898 -33.7745 -33.7677 -33.7619 -33.7574
   -33.7426 -33.7314 -33.7117 -33.7067 -33.6878 -33.6801 -33.6761 -33.6696
   -33.6528 -33.6398 -33.6256 -33.5884 -33.5745 -33.5316 -33.5161 -33.5140
   -33.5021 -33.4901 -33.4647 -33.4503 -33.4420 -33.4380 -33.4365 -33.4146
   -33.3349 -33.2919 -33.2573 -33.2567 -33.2299 -33.2118 -33.1768 -33.1278
   -18.4636 -18.2253 -18.0654 -18.0634 -17.9124 -17.7874 -17.6588 -17.6384
   -17.5490 -17.5278 -17.4349 -17.3760 -17.3056 -17.1964 -17.1661 -17.1266
   -17.0925 -17.0071 -16.9687 -16.9550 -16.8930 -16.8523 -16.7600 -16.7106
   -16.7066 -16.6844 -16.6246 -16.5957 -16.5357 -16.3671 -16.3285 -15.8140
   -15.7680  -5.9729  -5.7406  -5.4026  -5.3546  -5.3312  -5.1461  -5.0748
    -4.9707  -4.9221  -4.8894  -4.8534  -4.8086  -4.7881  -4.7240  -4.6064
    -4.5594  -4.5375  -4.4405  -4.4122  -4.3702  -4.3692  -4.3514  -4.2478
    -4.2102  -4.1952  -4.1471  -4.0958  -4.0471  -4.0232  -3.9904  -3.9109
    -3.8693  -3.8188  -3.7700  -3.7056  -3.6819  -3.6120  -3.5782  -3.5530
    -3.4669  -3.4051  -3.3852  -3.3225  -3.2745  -3.2198  -3.1965  -3.1184
    -3.0626  -2.9639  -2.9057  -2.9018  -2.8881  -2.8254  -2.8119  -2.8043
    -2.7396  -2.7211  -2.6746  -2.5797  -2.5391  -2.4881  -2.4352  -2.4033
    -2.3701  -2.3030  -2.2434  -2.2038  -2.1748  -2.1377  -2.1025  -2.0530
    -1.9540  -1.9122  -1.8896  -1.8053  -1.7827  -1.7356  -1.6881  -1.6443
    -1.6033  -1.5823  -1.5440  -1.5238  -1.4753  -1.4406  -1.3350  -1.2882
    -1.2391  -1.2039  -1.1966  -1.1210  -1.0871  -1.0296  -0.9965  -0.9385
    -0.8825  -0.8620  -0.7348  -0.5887   0.9361   1.1358   1.2617   1.3651
     1.7267   1.7470   1.7637   1.8549   1.8933   1.9642   2.0162   2.1018
     2.1872   2.2394   2.3114   2.3409   2.3681   2.3846   2.4048   2.4595
     2.5244   2.5607   2.6346   2.6621   2.6876   2.7088   2.7236   2.7561
     2.7759   2.8277   2.8758   2.9012   2.9276   2.9754   3.0016   3.0435
     3.0881   3.1199   3.1530   3.2151   3.2597   3.3023   3.3786   3.4096
     3.4676   3.5554   3.5778   3.6223   3.6927   3.8203   3.9073   4.1544
     4.3123   4.4076   4.5135   4.5948   4.6157   4.6557   4.7647   4.9168
     5.1174   5.1671   5.3186   5.3462   5.4399   5.5374   5.5792   5.6353
     5.6553   5.6861   5.7485   5.8420   5.8930   5.9631   6.0495   6.1246
     6.1791   6.2253   6.2525   6.2967   6.3254   6.3433   6.5081   6.7372
     7.0511   7.1224   7.3673   7.5260   7.6308   8.1572   8.3039   8.5516
     8.7585   8.9625   9.0160   9.2863   9.4505   9.5508   9.5773

          k = 0.0506 0.0560 0.0000 ( 34596 PWs)   bands (ev):

   -58.5013 -58.4837 -57.5897 -57.5720 -57.5664 -57.4894 -57.4660 -57.4411
   -57.3312 -57.3101 -57.2596 -57.2404 -57.1137 -57.0960 -57.0087 -56.9896
   -34.8604 -34.7717 -34.7572 -34.6909 -34.6648 -34.6447 -34.0027 -33.9674
   -33.9329 -33.8287 -33.8277 -33.8041 -33.7828 -33.7818 -33.7807 -33.7703
   -33.7485 -33.7379 -33.7142 -33.7090 -33.7034 -33.6827 -33.6715 -33.6702
[...]
    -4.2698  -4.2414  -4.2395  -4.2234  -4.1134  -4.0594  -3.9967  -3.9764
    -3.9422  -3.8667  -3.8532  -3.8505  -3.7347  -3.6556  -3.6445  -3.6409
    -3.5167  -3.5145  -3.3607  -3.3585  -3.3479  -3.3129  -3.2437  -3.2089
    -3.1424  -3.1164  -3.0592  -3.0491  -3.0166  -3.0022  -2.9823  -2.9031
    -2.8560  -2.7637  -2.7266  -2.6833  -2.6420  -2.6115  -2.5779  -2.5567
    -2.5273  -2.4540  -2.4286  -2.4221  -2.3909  -2.3391  -2.2824  -2.2511
    -2.1373  -2.0676  -2.0540  -2.0428  -1.9247  -1.8583  -1.8427  -1.6987
    -1.6588  -1.6319  -1.6184  -1.5936  -1.3524  -1.3104  -1.2951  -1.2844
    -1.2547  -1.2052  -1.1286  -1.0399  -0.9813  -0.9493  -0.9359  -0.8997
    -0.8768  -0.8411  -0.7738  -0.7604   1.3986   1.4026   1.4142   1.4200
     1.7620   1.7626   1.8905   1.8923   2.0425   2.0998   2.1027   2.1565
     2.2290   2.2582   2.3524   2.4251   2.4328   2.5013   2.5347   2.5873
     2.5973   2.6304   2.7538   2.7576   2.7688   2.7851   2.8026   2.8319
     2.8806   2.9059   2.9475   3.0364   3.0396   3.0426   3.0653   3.0805
     3.1570   3.1908   3.1918   3.2295   3.2548   3.2790   3.2935   3.2960
     3.3594   3.3844   3.5350   3.6114   3.6836   3.6850   3.9378   3.9383
     4.3355   4.4219   4.4480   4.5072   4.6247   4.6556   4.6987   4.7563
     4.9557   4.9737   4.9825   4.9866   5.4677   5.4714   5.4893   5.7024
     5.7298   5.7321   5.7989   5.8140   5.8918   5.8963   5.9399   6.0375
     6.0810   6.0884   6.1660   6.2329   6.2919   6.3899   6.7672   7.1253
     7.4104   7.4223   7.4696   7.5315   7.7069   7.7119   7.8498   7.9331
     8.2692   8.2749   8.4453   8.5825   9.0552   9.0795   9.1867

          k =-0.0253 0.0280 0.0000 ( 34687 PWs)   bands (ev):

   -58.5077 -58.4773 -57.5962 -57.5683 -57.5653 -57.4874 -57.4711 -57.4357
   -57.3346 -57.3066 -57.2653 -57.2342 -57.1206 -57.0901 -57.0155 -56.9826
   -34.9298 -34.7770 -34.7521 -34.7093 -34.6277 -34.5915 -34.0725 -34.0306
   -33.9925 -33.8584 -33.8454 -33.7897 -33.7712 -33.7662 -33.7519 -33.7494
   -33.7423 -33.7318 -33.7100 -33.7017 -33.6877 -33.6871 -33.6806 -33.6696
   -33.6527 -33.6403 -33.6359 -33.5914 -33.5743 -33.5280 -33.5167 -33.5066
   -33.5019 -33.4904 -33.4631 -33.4502 -33.4414 -33.4394 -33.4362 -33.4147
   -33.3354 -33.2918 -33.2578 -33.2519 -33.2317 -33.2118 -33.1774 -33.1277
   -18.5716 -18.2299 -18.1500 -17.9765 -17.9420 -17.7245 -17.7196 -17.5751
   -17.5688 -17.5363 -17.5266 -17.3226 -17.2762 -17.1750 -17.1383 -17.0931
   -17.0320 -16.9905 -16.9499 -16.9323 -16.8787 -16.8657 -16.7725 -16.7609
   -16.7048 -16.6827 -16.6228 -16.5633 -16.5347 -16.3688 -16.3282 -15.8134
   -15.7653  -6.0418  -5.9770  -5.5096  -5.3572  -5.3334  -5.1948  -5.1793
    -5.1186  -5.0083  -4.8999  -4.8831  -4.8422  -4.7425  -4.7033  -4.6475
    -4.6137  -4.5163  -4.4860  -4.4459  -4.3881  -4.3759  -4.3448  -4.3215
    -4.2926  -4.2597  -4.1986  -4.1549  -4.1296  -4.1008  -4.0098  -3.9825
    -3.9279  -3.8736  -3.8254  -3.7566  -3.6164  -3.5633  -3.5337  -3.5194
    -3.4702  -3.4417  -3.4106  -3.3291  -3.2994  -3.1402  -3.0979  -3.0395
    -2.9848  -2.9380  -2.9189  -2.8863  -2.8322  -2.8094  -2.7189  -2.7081
    -2.6907  -2.6585  -2.5605  -2.5114  -2.4916  -2.4269  -2.4074  -2.3192
    -2.2527  -2.2203  -2.1452  -2.1370  -2.0551  -2.0421  -1.9931  -1.9718
    -1.9522  -1.8362  -1.7899  -1.7622  -1.7464  -1.6981  -1.6446  -1.6164
    -1.5817  -1.5619  -1.5548  -1.5377  -1.4997  -1.4340  -1.3480  -1.3099
    -1.2012  -1.1389  -1.1215  -1.1155  -1.0929  -1.0455  -0.9952  -0.8603
    -0.8109  -0.7894  -0.7263  -0.4667   0.9494   1.0435   1.2270   1.6185
     1.6510   1.7238   1.7618   1.8391   1.8490   1.9293   2.0746   2.1092
     2.1591   2.1731   2.2204   2.2810   2.3091   2.3158   2.3538   2.4129
     2.4322   2.4918   2.5167   2.6328   2.6415   2.6643   2.7200   2.7423
     2.7685   2.7817   2.8165   2.8193   2.9089   2.9523   2.9615   2.9804
     3.0158   3.0794   3.1593   3.2348   3.2600   3.3276   3.3559   3.3992
     3.4268   3.4948   3.5139   3.6494   3.7840   3.9592   4.0314   4.2347
     4.4282   4.5278   4.5337   4.6542   4.7619   4.8146   4.8642   4.8799
     5.0164   5.1080   5.2665   5.3362   5.4872   5.4918   5.5428   5.5849
     5.6428   5.6539   5.6924   5.7298   5.7524   5.7545   5.8549   5.9464
     5.9610   6.0603   6.2035   6.2370   6.2653   6.3903   6.5757   6.6059
     7.2758   7.3030   7.6639   7.7497   8.0910   8.2701   8.3693   8.4426
     8.7182   8.9333   9.1377   9.2193   9.3788   9.5419   9.6839

          k =-0.0253 0.0560 0.0000 ( 34699 PWs)   bands (ev):

   -58.5013 -58.4837 -57.5897 -57.5720 -57.5662 -57.4894 -57.4659 -57.4410
   -57.3312 -57.3100 -57.2594 -57.2402 -57.1142 -57.0966 -57.0086 -56.9896
   -34.8599 -34.7717 -34.7573 -34.6923 -34.6647 -34.6452 -34.0023 -33.9624
   -33.9327 -33.8442 -33.8286 -33.8051 -33.7878 -33.7830 -33.7809 -33.7610
   -33.7476 -33.7393 -33.7089 -33.7042 -33.6898 -33.6820 -33.6779 -33.6704
   -33.6568 -33.6377 -33.6201 -33.6110 -33.5821 -33.5202 -33.4937 -33.4878
   -33.4875 -33.4808 -33.4701 -33.4581 -33.4545 -33.4475 -33.4444 -33.4323
   -33.3192 -33.2887 -33.2744 -33.2512 -33.2473 -33.2359 -33.2243 -33.1981
   -18.4138 -18.2237 -18.0041 -17.9915 -17.8211 -17.8021 -17.6584 -17.6004
   -17.5763 -17.4655 -17.4490 -17.3924 -17.2630 -17.1478 -17.1279 -17.0835
   -17.0392 -16.9932 -16.9476 -16.9354 -16.9292 -16.8771 -16.7807 -16.7630
   -16.7554 -16.7239 -16.6441 -16.6262 -16.6100 -16.4332 -16.4073 -15.8424
   -15.8192  -5.9756  -5.8066  -5.2816  -5.2257  -5.1663  -5.1278  -5.0187
    -4.9990  -4.9888  -4.8898  -4.8563  -4.7291  -4.7117  -4.6576  -4.5922
    -4.5819  -4.5772  -4.5342  -4.4742  -4.4663  -4.4538  -4.3996  -4.3754
    -4.3278  -4.3140  -4.2535  -4.2214  -4.1955  -4.1437  -4.0933  -4.0520
    -3.9868  -3.8422  -3.7489  -3.6736  -3.6016  -3.5880  -3.5001  -3.3994
    -3.3779  -3.3576  -3.3207  -3.2750  -3.2302  -3.2040  -3.1372  -3.0630
    -3.0116  -2.9718  -2.9335  -2.8667  -2.8099  -2.7428  -2.7354  -2.6949
    -2.6055  -2.5871  -2.5584  -2.5013  -2.4856  -2.3819  -2.3449  -2.3229
    -2.3061  -2.2897  -2.2381  -2.1914  -2.1714  -2.1443  -2.1252  -2.0968
    -2.0859  -2.0084  -1.9033  -1.8780  -1.8214  -1.7729  -1.7491  -1.7298
    -1.6983  -1.6587  -1.6200  -1.6036  -1.5370  -1.5055  -1.4339  -1.3464
    -1.3204  -1.1980  -1.1485  -1.1310  -1.0557  -1.0101  -0.9314  -0.9038
    -0.8399  -0.8151  -0.7498  -0.5615   1.0840   1.2657   1.3621   1.5561
     1.5718   1.7096   1.7728   1.8617   2.0603   2.0761   2.1135   2.1425
     2.1857   2.2549   2.2896   2.2987   2.3194   2.3696   2.4337   2.4625
     2.5164   2.5472   2.5633   2.5890   2.6636   2.6899   2.7036   2.7670
     2.7978   2.8190   2.8336   2.8763   2.9277   2.9719   2.9929   3.0133
     3.0525   3.0975   3.1126   3.1476   3.2536   3.2738   3.3031   3.3654
     3.4071   3.4970   3.5160   3.5654   3.6669   3.8581   4.1454   4.2993
     4.5275   4.5873   4.6762   4.7104   4.7869   4.8387   4.9128   4.9627
     5.0387   5.1735   5.2357   5.3178   5.3577   5.3654   5.4271   5.4999
     5.5247   5.5967   5.6195   5.6327   5.7060   5.7311   5.8104   5.8597
     5.9129   6.0203   6.1177   6.2492   6.2745   6.3107   6.5459   6.5873
     6.9135   7.2342   7.6176   7.6922   8.0700   8.1576   8.3233   8.5031
     8.7466   8.8644   8.9427   9.2533   9.3869   9.5039   9.5516

          k =-0.0506 0.0280 0.0000 ( 34685 PWs)   bands (ev):

   -58.5077 -58.4773 -57.5961 -57.5684 -57.5653 -57.4874 -57.4711 -57.4357
   -57.3346 -57.3066 -57.2654 -57.2342 -57.1206 -57.0901 -57.0155 -56.9826
   -34.9305 -34.7770 -34.7521 -34.7077 -34.6277 -34.5916 -34.0730 -34.0351
   -33.9928 -33.8453 -33.8367 -33.7897 -33.7744 -33.7677 -33.7618 -33.7573
   -33.7425 -33.7313 -33.7117 -33.7067 -33.6877 -33.6801 -33.6759 -33.6696
   -33.6527 -33.6397 -33.6255 -33.5884 -33.5744 -33.5315 -33.5166 -33.5138
   -33.5021 -33.4899 -33.4651 -33.4501 -33.4419 -33.4385 -33.4365 -33.4145
   -33.3354 -33.2918 -33.2578 -33.2566 -33.2298 -33.2118 -33.1774 -33.1277
   -18.4635 -18.2253 -18.0654 -18.0634 -17.9124 -17.7873 -17.6588 -17.6384
   -17.5490 -17.5280 -17.4350 -17.3760 -17.3057 -17.1967 -17.1663 -17.1262
   -17.0925 -17.0072 -16.9686 -16.9550 -16.8929 -16.8526 -16.7604 -16.7108
   -16.7069 -16.6847 -16.6249 -16.5957 -16.5360 -16.3672 -16.3287 -15.8116
   -15.7654  -5.9729  -5.7405  -5.4026  -5.3545  -5.3312  -5.1461  -5.0748
    -4.9707  -4.9222  -4.8894  -4.8533  -4.8086  -4.7881  -4.7241  -4.6062
    -4.5596  -4.5375  -4.4405  -4.4122  -4.3702  -4.3692  -4.3513  -4.2478
    -4.2103  -4.1952  -4.1472  -4.0958  -4.0472  -4.0233  -3.9906  -3.9105
    -3.8693  -3.8187  -3.7705  -3.7054  -3.6818  -3.6118  -3.5781  -3.5531
    -3.4667  -3.4049  -3.3854  -3.3226  -3.2745  -3.2197  -3.1966  -3.1184
    -3.0631  -2.9641  -2.9058  -2.9020  -2.8881  -2.8258  -2.8117  -2.8047
    -2.7402  -2.7207  -2.6746  -2.5788  -2.5389  -2.4883  -2.4335  -2.4034
    -2.3705  -2.3019  -2.2423  -2.2037  -2.1744  -2.1377  -2.1026  -2.0547
    -1.9543  -1.9119  -1.8897  -1.8048  -1.7833  -1.7366  -1.6888  -1.6473
    -1.6027  -1.5825  -1.5428  -1.5232  -1.4738  -1.4390  -1.3397  -1.2871
    -1.2395  -1.2031  -1.1975  -1.1212  -1.0862  -1.0304  -0.9971  -0.9352
    -0.8805  -0.8600  -0.7336  -0.5886   0.9361   1.1358   1.2617   1.3650
     1.7267   1.7470   1.7637   1.8549   1.8934   1.9642   2.0163   2.1018
     2.1863   2.2396   2.3108   2.3408   2.3683   2.3848   2.4043   2.4591
     2.5244   2.5609   2.6353   2.6615   2.6874   2.7098   2.7237   2.7561
     2.7759   2.8280   2.8756   2.9010   2.9290   2.9775   3.0028   3.0410
     3.0868   3.1204   3.1537   3.2150   3.2596   3.3024   3.3784   3.4094
     3.4675   3.5552   3.5777   3.6219   3.6928   3.8202   3.9073   4.1546
     4.3124   4.4080   4.5136   4.5949   4.6156   4.6557   4.7647   4.9170
     5.1173   5.1672   5.3186   5.3462   5.4397   5.5372   5.5792   5.6354
     5.6556   5.6862   5.7486   5.8420   5.8929   5.9632   6.0495   6.1246
     6.1792   6.2253   6.2528   6.2966   6.3254   6.3433   6.5079   6.7373
     7.0516   7.1229   7.3673   7.5259   7.6313   8.1561   8.3013   8.5444
     8.7594   8.9626   9.0148   9.2907   9.4496   9.5522   9.5781

          k =-0.0506 0.0560 0.0000 ( 34596 PWs)   bands (ev):

   -58.5013 -58.4837 -57.5896 -57.5719 -57.5664 -57.4894 -57.4659 -57.4410
   -57.3312 -57.3100 -57.2594 -57.2402 -57.1142 -57.0966 -57.0086 -56.9896
   -34.8605 -34.7717 -34.7572 -34.6909 -34.6649 -34.6447 -34.0026 -33.9674
   -33.9328 -33.8286 -33.8276 -33.8041 -33.7827 -33.7817 -33.7807 -33.7703
   -33.7485 -33.7379 -33.7142 -33.7089 -33.7032 -33.6826 -33.6714 -33.6701
   -33.6569 -33.6209 -33.6201 -33.6111 -33.5799 -33.5189 -33.5002 -33.4890
   -33.4883 -33.4802 -33.4696 -33.4594 -33.4571 -33.4473 -33.4440 -33.4315
   -33.3192 -33.2887 -33.2744 -33.2511 -33.2503 -33.2353 -33.2242 -33.1979
   -18.3109 -18.2216 -18.0212 -17.9166 -17.8211 -17.8007 -17.7635 -17.5886
   -17.5744 -17.4357 -17.4210 -17.3102 -17.2863 -17.1730 -17.1271 -17.0726
   -17.0423 -17.0291 -17.0186 -16.9606 -16.9467 -16.9206 -16.8170 -16.7890
   -16.7329 -16.7188 -16.6462 -16.6296 -16.6233 -16.4336 -16.4037 -15.8412
   -15.8196  -5.9712  -5.5041  -5.2066  -5.1453  -5.1373  -4.9856  -4.9798
    -4.9149  -4.8434  -4.7359  -4.7145  -4.7041  -4.6211  -4.5981  -4.5898
    -4.5580  -4.5340  -4.5212  -4.4465  -4.4031  -4.3784  -4.3565  -4.3308
    -4.3036  -4.2487  -4.2294  -4.1968  -4.1450  -4.1215  -4.0288  -4.0005
    -3.8978  -3.8195  -3.7917  -3.7271  -3.6623  -3.6230  -3.5231  -3.4708
    -3.4402  -3.3824  -3.3377  -3.2966  -3.2867  -3.2105  -3.1796  -3.1686
    -3.1499  -3.0321  -2.9712  -2.9558  -2.9265  -2.8434  -2.8080  -2.7759
    -2.7371  -2.6841  -2.6211  -2.6111  -2.5840  -2.5657  -2.5077  -2.4501
    -2.3850  -2.3641  -2.3408  -2.3332  -2.2676  -2.2254  -2.2024  -2.1725
    -2.1347  -2.0505  -1.9993  -1.9275  -1.8671  -1.7819  -1.7549  -1.7459
    -1.7262  -1.6550  -1.6390  -1.5690  -1.5059  -1.4228  -1.3799  -1.3100
    -1.2309  -1.2107  -1.1290  -1.0837  -1.0457  -0.9538  -0.9353  -0.9018
    -0.8750  -0.8556  -0.7460  -0.6706   1.1051   1.2939   1.4450   1.4652
     1.6501   1.8007   1.8263   1.8648   2.0095   2.0416   2.1430   2.1591
     2.2057   2.2415   2.3368   2.3659   2.4199   2.4625   2.5117   2.5259
     2.5486   2.6060   2.6258   2.6696   2.6757   2.7169   2.7669   2.8051
     2.8311   2.8595   2.8909   2.9736   2.9841   2.9991   3.0323   3.0468
     3.0823   3.1222   3.1599   3.1654   3.2650   3.2840   3.3040   3.3644
     3.4424   3.5002   3.5375   3.6047   3.6359   3.7230   3.9506   4.2541
     4.4003   4.4142   4.5138   4.5795   4.6624   4.7002   4.7905   4.9187
     5.0173   5.1214   5.1511   5.2010   5.3859   5.4247   5.4582   5.4960
     5.6496   5.6870   5.7641   5.7894   5.8642   5.8869   5.9369   5.9784
     6.0945   6.1361   6.2118   6.2483   6.3440   6.4408   6.5963   6.6251
     7.0615   7.3017   7.4441   7.6040   7.8861   7.9475   8.0276   8.3823
     8.5891   8.6767   8.7934   8.9093   9.2079   9.2367   9.3850

     the Fermi energy is    -0.4916 ev

!    total energy              =   -3005.52981345 Ry
     Harris-Foulkes estimate   =   -3005.52981354 Ry
     estimated scf accuracy    <       0.00000041 Ry

     The total energy is the sum of the following terms:

     one-electron contribution =  -41015.26815927 Ry
     hartree contribution      =   20573.36472800 Ry
     xc contribution           =    -546.73002837 Ry
     ewald contribution        =   17983.12329789 Ry
     smearing contrib. (-TS)   =      -0.01965170 Ry

     total magnetization       =     0.00 Bohr mag/cell
     absolute magnetization    =     0.01 Bohr mag/cell

     convergence has been achieved in   8 iterations

     Forces acting on atoms (Ry/au):


     negative rho (up, down):  1.350E-02 1.350E-02
     atom    1 type  1   force =     0.00001762   -0.00110141   -0.10417016
     atom    2 type  2   force =     0.00003770   -0.00000131    0.03813558
     atom    3 type  1   force =    -0.00011563   -0.00000181   -0.02283004
     atom    4 type  2   force =    -0.00614174    0.00312254   -0.00580903
     atom    5 type  1   force =     0.00030731    0.00036551   -0.00086022
     atom    6 type  2   force =    -0.00037507   -0.00000841   -0.00005769
     atom    7 type  1   force =     0.00102392    0.00018839   -0.00076594
     atom    8 type  2   force =    -0.00003201    0.00001697   -0.00035758
     atom    9 type  1   force =     0.00001861    0.00109775   -0.10416859
     atom   10 type  2   force =     0.00002822   -0.00000162    0.03428721
     atom   11 type  1   force =    -0.00011465   -0.00000196    0.01130886
     atom   12 type  2   force =    -0.00614076   -0.00312351   -0.00581167
     atom   13 type  1   force =     0.00028884   -0.00037605   -0.00085116
     atom   14 type  2   force =    -0.00073063    0.00001734   -0.00105179
     atom   15 type  1   force =     0.00046142   -0.00018137    0.00122176
     atom   16 type  2   force =     0.00033812   -0.00044865   -0.00002161
     atom   17 type  2   force =     0.00004164   -0.00000149    0.06638590
     atom   18 type  1   force =     0.00013965   -0.00000151    0.13065296
     atom   19 type  2   force =    -0.00015744   -0.00000217   -0.08412612
     atom   20 type  2   force =    -0.05788922    0.00015345   -0.03630561
     atom   21 type  2   force =     0.05803551    0.00016869   -0.03621407
     atom   22 type  1   force =    -0.00003854    0.00086916    0.07796944
     atom   23 type  2   force =    -0.00016089    0.00000569    0.00137816
     atom   24 type  2   force =    -0.00017496   -0.00000065   -0.03628265
     atom   25 type  2   force =     0.00592343    0.00307863   -0.00549645
     atom   26 type  1   force =    -0.00035803   -0.00002119    0.00025957
     atom   27 type  2   force =     0.00034329   -0.00001140    0.00148506
     atom   28 type  2   force =    -0.00018637    0.00033969   -0.00038170
     atom   29 type  2   force =    -0.00033541    0.00015424    0.00006685
     atom   30 type  1   force =     0.00021788    0.00065527    0.00055963
     atom   31 type  2   force =    -0.00029983   -0.00009102   -0.00022917
     atom   32 type  2   force =     0.00019366   -0.00012105    0.00009277
     atom   33 type  2   force =    -0.00000935   -0.00000011    0.06641005
     atom   34 type  1   force =     0.00011393   -0.00000077    0.13046141
     atom   35 type  2   force =    -0.00012951    0.00000030   -0.08357859
     atom   36 type  2   force =    -0.05788996   -0.00015666   -0.03630649
     atom   37 type  2   force =     0.05803704   -0.00017085   -0.03621457
     atom   38 type  1   force =    -0.00003711   -0.00087308    0.07796815
     atom   39 type  2   force =    -0.00007707   -0.00000881   -0.00022280
     atom   40 type  2   force =     0.00007749   -0.00000226   -0.03528999
     atom   41 type  2   force =     0.00592495   -0.00308077   -0.00549563
     atom   42 type  1   force =    -0.00054960    0.00002004    0.00092852
     atom   43 type  2   force =     0.00040353    0.00001357    0.00163247
     atom   44 type  2   force =    -0.00017355   -0.00033790   -0.00039147
     atom   45 type  2   force =    -0.00034652   -0.00015492    0.00005593
     atom   46 type  1   force =    -0.00030844   -0.00067406    0.00084535
     atom   47 type  2   force =     0.00162052    0.00003784    0.00055125
     atom   48 type  2   force =     0.00048769    0.00065853   -0.00029076
     atom   49 type  2   force =     0.00098427   -0.00026139    0.00174894
     atom   50 type  3   force =    -0.00229394    0.00025460   -0.00082428

     Total force =     0.340175     Total SCF correction =     0.002636
 !ASE

     Writing output data file calc.save
 
     init_run     :     60.62s CPU     72.24s WALL (       1 calls)
     electrons    :   2287.05s CPU   2708.55s WALL (       1 calls)
     forces       :     47.36s CPU     49.47s WALL (       1 calls)

     Called by init_run:
     wfcinit      :     53.44s CPU     64.45s WALL (       1 calls)
     potinit      :      1.35s CPU      1.59s WALL (       1 calls)

     Called by electrons:
     c_bands      :   2015.76s CPU   2387.20s WALL (       9 calls)
     sum_band     :    236.01s CPU    281.73s WALL (       9 calls)
     v_of_rho     :      9.39s CPU     11.30s WALL (       9 calls)
     newd         :     29.58s CPU     32.19s WALL (       9 calls)
     mix_rho      :      0.28s CPU      0.43s WALL (       9 calls)
     vdW_energy   :      2.11s CPU      2.43s WALL (      10 calls)
     vdW_ffts     :      2.54s CPU      3.23s WALL (      20 calls)
     vdW_v        :      1.10s CPU      1.27s WALL (      10 calls)

     Called by c_bands:
     init_us_2    :      5.43s CPU      5.89s WALL (     800 calls)
     cegterg      :   1981.74s CPU   2350.76s WALL (     360 calls)

     Called by *egterg:
     h_psi        :    790.60s CPU   1081.70s WALL (    1587 calls)
     s_psi        :    133.61s CPU    138.56s WALL (    1587 calls)
     g_psi        :      4.07s CPU      4.19s WALL (    1187 calls)
     cdiaghg      :    585.64s CPU    600.41s WALL (    1507 calls)

     Called by h_psi:
     add_vuspsi   :    135.11s CPU    140.56s WALL (    1587 calls)

     General routines
     calbec       :    195.91s CPU    200.82s WALL (    1987 calls)
     fft          :      5.15s CPU      6.55s WALL (     794 calls)
     ffts         :      0.06s CPU      0.07s WALL (      36 calls)
     fftw         :    429.64s CPU    747.07s WALL (  647450 calls)
     interpolate  :      0.31s CPU      0.46s WALL (      36 calls)
     davcio       :      0.01s CPU      1.28s WALL (      40 calls)
 
     Parallel routines
     fft_scatter  :    210.65s CPU    372.58s WALL (  648280 calls)
 
     PWSCF        : 39m56.61s CPU    47m13.76s WALL

 
   This run was terminated on:   0:41:14  11Feb2018            

=------------------------------------------------------------------------------=
   JOB DONE.
=------------------------------------------------------------------------------=
