  python dir          : /home/vossj/suncat/lib/python2.7/site-packages/espresso
  espresso dir        : /home/vossj/suncat/esdld/espresso-dynpy-beef/bin
  pseudo dir          : /home/alatimer/bin/psp/esp_psp_w_gbrvRu/
  ase-espresso py git : ffa2778-git



     Program PWSCF v.5.1rc2 (svn rev. ) starts on 26Feb2018 at 12: 8:35 

     This program is part of the open-source Quantum ESPRESSO suite
     for quantum simulation of materials; please cite
         "P. Giannozzi et al., J. Phys.:Condens. Matter 21 395502 (2009);
          URL http://www.quantum-espresso.org", 
     in publications or presentations arising from this work. More details at
     http://www.quantum-espresso.org/quote

     Parallel version (MPI), running on    16 processors
     R & G space division:  proc/nbgrp/npool/nimage =      16
     Reading input from pw.inp
     Message from routine read_cards :
     DEPRECATED: no units specified in CELL_PARAMETERS card

     Current dimensions of program PWSCF are:
     Max number of different atomic species (ntypx) = 10
     Max number of k-points (npk) =  40000
     Max angular momentum in pseudopotentials (lmaxx) =  3

     **************************************************************************
     Initializing libbeef V0.1.1 with the BEEF-vdW functional.
     Citation: Wellendorff et al., PRB 85, 235149 (2012).
     **************************************************************************


     IMPORTANT: XC functional enforced from input :
     Exchange-correlation      = BEEF ( 1  4 27 13 2)
     Any further DFT definition will be discarded
     Please, verify this is what you really want


     Subspace diagonalization in iterative solution of the eigenvalue problem:
     a serial algorithm will be used

 
     Parallelization info
     --------------------
     sticks:   dense  smooth     PW     G-vecs:    dense   smooth      PW
     Min         281     112     31                68535    17318    2565
     Max         282     113     32                68545    17369    2582
     Sum        4501    1795    503              1096637   277353   41113
 
     Generating pointlists ...
     new r_m :   0.4125 (alat units)  0.7795 (a.u.) for type    1
     new r_m :   0.4125 (alat units)  0.7795 (a.u.) for type    2
     new r_m :   0.4125 (alat units)  0.7795 (a.u.) for type    3
     new r_m :   0.4125 (alat units)  0.7795 (a.u.) for type    4


     bravais-lattice index     =            0
     lattice parameter (alat)  =       1.8897  a.u.
     unit-cell volume          =    7990.9933 (a.u.)^3
     number of atoms/cell      =           54
     number of atomic types    =            4
     number of electrons       =       398.00
     number of Kohn-Sham states=          299
     kinetic-energy cutoff     =      40.4243  Ry
     charge density cutoff     =     404.2426  Ry
     convergence threshold     =      7.3E-07
     mixing beta               =       0.1000
     number of iterations used =           10  plain     mixing
     Exchange-correlation      = BEEF ( 1  4 27 13 2)
     nstep                     =           50


     celldm(1)=   1.889726  celldm(2)=   0.000000  celldm(3)=   0.000000
     celldm(4)=   0.000000  celldm(5)=   0.000000  celldm(6)=   0.000000

     crystal axes: (cart. coord. in units of alat)
               a(1) = (   6.590708   0.000000   0.000000 )  
               a(2) = (   0.000000   5.950229   0.000000 )  
               a(3) = (   0.000000   0.000000  30.195235 )  

     reciprocal axes: (cart. coord. in units 2 pi/alat)
               b(1) = (  0.151729  0.000000  0.000000 )  
               b(2) = (  0.000000  0.168061  0.000000 )  
               b(3) = (  0.000000  0.000000  0.033118 )  


     PseudoPot. # 1 for Ti read from file:
     /home/alatimer/bin/psp/esp_psp_w_gbrvRu/Ti.UPF
     MD5 check sum: 8e4df49b7f0d34bbd5052bf3f5ea0213
     Pseudo is Ultrasoft, Zval = 12.0
     Generated by new atomic code, or converted to UPF format
     Using radial grid of  851 points,  6 beta functions with: 
                l(1) =   0
                l(2) =   0
                l(3) =   1
                l(4) =   1
                l(5) =   2
                l(6) =   2
     Q(r) pseudized with  8 coefficients,  rinner =    1.000   1.000   1.000
                                                       1.000   1.000

     PseudoPot. # 2 for  O read from file:
     /home/alatimer/bin/psp/esp_psp_w_gbrvRu/O.UPF
     MD5 check sum: e057bbcf3229fb5d8c36c0c92f9568b4
     Pseudo is Ultrasoft + core correction, Zval =  6.0
     Generated using "atomic" code by A. Dal Corso  v.5.0.2 svn rev. 9415
     Using radial grid of 1095 points,  4 beta functions with: 
                l(1) =   0
                l(2) =   0
                l(3) =   1
                l(4) =   1
     Q(r) pseudized with 0 coefficients 


     PseudoPot. # 3 for  C read from file:
     /home/alatimer/bin/psp/esp_psp_w_gbrvRu/C.UPF
     MD5 check sum: ab446d787031eba755f1d5ee46644bb0
     Pseudo is Ultrasoft + core correction, Zval =  4.0
     Generated using "atomic" code by A. Dal Corso  v.5.0.2 svn rev. 9415
     Using radial grid of 1073 points,  4 beta functions with: 
                l(1) =   0
                l(2) =   0
                l(3) =   1
                l(4) =   1
     Q(r) pseudized with 0 coefficients 


     PseudoPot. # 4 for  H read from file:
     /home/alatimer/bin/psp/esp_psp_w_gbrvRu/H.UPF
     MD5 check sum: bd57da0722753ddfd9833a65b40bb853
     Pseudo is Ultrasoft, Zval =  1.0
     Generated using "atomic" code by A. Dal Corso  v.5.0.2 svn rev. 9415
     Using radial grid of  929 points,  2 beta functions with: 
                l(1) =   0
                l(2) =   0
     Q(r) pseudized with 0 coefficients 


     vdW kernel table read from file vdW_kernel_table
     MD5 check sum: 095c7af220d748ca6e76c0b4c6cfb241

     atomic species   valence    mass     pseudopotential
        Ti1           12.00    47.88000     Ti( 1.00)
        O1             6.00    15.99940      O( 1.00)
        C1             4.00    12.01100      C( 1.00)
        H1             1.00     1.00794      H( 1.00)

     Starting magnetic structure 
     atomic species   magnetization
        Ti1          0.250
        O1           0.500
        C1           0.750
        H1           0.000

     No symmetry found



   Cartesian axes

     site n.     atom                  positions (alat units)
         1           Ti1 tau(   1) = (   1.6476770   0.7437786   2.6545865  )
         2           O1  tau(   2) = (   1.6476770   2.2313359   3.9361215  )
         3           Ti1 tau(   3) = (   1.6476770   2.2313359   5.9499405  )
         4           O1  tau(   4) = (   0.3661420   0.7437786   5.9499405  )
         5           Ti1 tau(   5) = (   1.6407309   0.9134410   9.3139491  )
         6           O1  tau(   6) = (   1.6648823   2.2608486  10.4895904  )
         7           Ti1 tau(   7) = (   1.7578240   2.2899216  13.0472362  )
         8           O1  tau(   8) = (   0.4801583   0.7600008  12.7739736  )
         9           Ti1 tau(   9) = (   1.6476770   3.7188931   2.6545865  )
        10           O1  tau(  10) = (   1.6476770   5.2064503   3.9361215  )
        11           Ti1 tau(  11) = (   1.6476770   5.2064503   5.9499405  )
        12           O1  tau(  12) = (   0.3661420   3.7188931   5.9499405  )
        13           Ti1 tau(  13) = (   1.6336050   3.7786827   9.1566831  )
        14           O1  tau(  14) = (   1.6678212   5.2513959  10.5409436  )
        15           Ti1 tau(  15) = (   1.7144009   5.2558216  12.3462911  )
        16           O1  tau(  16) = (   0.4635505   3.7986228  12.7318280  )
        17           O1  tau(  17) = (   1.6476770   2.2313359   1.3730516  )
        18           Ti1 tau(  18) = (   4.9430310   2.2313359   2.6545865  )
        19           O1  tau(  19) = (   4.9430310   2.2313359   4.6684056  )
        20           O1  tau(  20) = (   6.2245660   0.7437786   2.6545865  )
        21           O1  tau(  21) = (   3.6614961   0.7437786   2.6545865  )
        22           Ti1 tau(  22) = (   4.9430310   0.7437786   5.9499405  )
        23           O1  tau(  23) = (   1.6683653   2.2752577   7.9427336  )
        24           O1  tau(  24) = (   4.9430310   2.2313359   7.2314755  )
        25           O1  tau(  25) = (   2.9292120   0.7437786   5.9499405  )
        26           Ti1 tau(  26) = (   4.9404121   2.2664794   9.4552217  )
        27           O1  tau(  27) = (   5.0099888   2.2616732  11.2946145  )
        28           O1  tau(  28) = (   6.2612001   0.7714827   9.2659748  )
        29           O1  tau(  29) = (   3.6791272   0.7744986   9.2965846  )
        30           Ti1 tau(  30) = (   5.0117873   0.7976728  12.8161605  )
        31           O1  tau(  31) = (   4.9963122   2.2836652  13.8750618  )
        32           O1  tau(  32) = (   2.9819382   0.7448324  12.7109220  )
        33           O1  tau(  33) = (   1.6476770   5.2064503   1.3730516  )
        34           Ti1 tau(  34) = (   4.9430310   5.2064503   2.6545865  )
        35           O1  tau(  35) = (   4.9430310   5.2064503   4.6684056  )
        36           O1  tau(  36) = (   6.2245660   3.7188931   2.6545865  )
        37           O1  tau(  37) = (   3.6614961   3.7188931   2.6545865  )
        38           Ti1 tau(  38) = (   4.9430310   3.7188931   5.9499405  )
        39           O1  tau(  39) = (   1.6664207   5.2035600   7.9365221  )
        40           O1  tau(  40) = (   4.9430310   5.2064503   7.2314755  )
        41           O1  tau(  41) = (   2.9292120   3.7188931   5.9499405  )
        42           Ti1 tau(  42) = (   4.9524353   5.2460635   9.4426343  )
        43           O1  tau(  43) = (   5.0107556   5.2394944  11.2927493  )
        44           O1  tau(  44) = (   6.2663940   3.7551737   9.2646230  )
        45           O1  tau(  45) = (   3.6780957   3.7542261   9.2971476  )
        46           Ti1 tau(  46) = (   5.0587989   3.7766986  12.8010349  )
        47           O1  tau(  47) = (   5.0196089   5.2502198  13.8813978  )
        48           O1  tau(  48) = (   2.9624133   3.7943242  12.7299881  )
        49           O1  tau(  49) = (   1.7427453   2.2533568  14.8370015  )
        50           C1  tau(  50) = (   2.7196098   4.2826273  16.2318421  )
        51           H1  tau(  51) = (   3.3037454   4.9255546  15.5827400  )
        52           H1  tau(  52) = (   3.2986606   3.7870117  16.9822022  )
        53           H1  tau(  53) = (   2.3125587   3.4026405  15.5729816  )
        54           H1  tau(  54) = (   1.8391288   4.7650601  16.6448379  )

     number of k points=    40  Fermi-Dirac smearing, width (Ry)=  0.0073
                       cart. coord. in units 2pi/alat
        k(    1) = (   0.0000000   0.0000000   0.0000000), wk =   0.0277778
        k(    2) = (   0.0000000   0.0280101   0.0000000), wk =   0.0555556
        k(    3) = (   0.0000000   0.0560203   0.0000000), wk =   0.0555556
        k(    4) = (   0.0000000  -0.0840304   0.0000000), wk =   0.0277778
        k(    5) = (   0.0252881   0.0000000   0.0000000), wk =   0.0555556
        k(    6) = (   0.0252881   0.0280101   0.0000000), wk =   0.0555556
        k(    7) = (   0.0252881   0.0560203   0.0000000), wk =   0.0555556
        k(    8) = (   0.0252881  -0.0840304   0.0000000), wk =   0.0555556
        k(    9) = (   0.0505763   0.0000000   0.0000000), wk =   0.0555556
        k(   10) = (   0.0505763   0.0280101   0.0000000), wk =   0.0555556
        k(   11) = (   0.0505763   0.0560203   0.0000000), wk =   0.0555556
        k(   12) = (   0.0505763  -0.0840304   0.0000000), wk =   0.0555556
        k(   13) = (  -0.0758644   0.0000000   0.0000000), wk =   0.0277778
        k(   14) = (  -0.0758644   0.0280101   0.0000000), wk =   0.0555556
        k(   15) = (  -0.0758644   0.0560203   0.0000000), wk =   0.0555556
        k(   16) = (  -0.0758644  -0.0840304   0.0000000), wk =   0.0277778
        k(   17) = (  -0.0252881   0.0280101   0.0000000), wk =   0.0555556
        k(   18) = (  -0.0252881   0.0560203   0.0000000), wk =   0.0555556
        k(   19) = (  -0.0505763   0.0280101   0.0000000), wk =   0.0555556
        k(   20) = (  -0.0505763   0.0560203   0.0000000), wk =   0.0555556
        k(   21) = (   0.0000000   0.0000000   0.0000000), wk =   0.0277778
        k(   22) = (   0.0000000   0.0280101   0.0000000), wk =   0.0555556
        k(   23) = (   0.0000000   0.0560203   0.0000000), wk =   0.0555556
        k(   24) = (   0.0000000  -0.0840304   0.0000000), wk =   0.0277778
        k(   25) = (   0.0252881   0.0000000   0.0000000), wk =   0.0555556
        k(   26) = (   0.0252881   0.0280101   0.0000000), wk =   0.0555556
        k(   27) = (   0.0252881   0.0560203   0.0000000), wk =   0.0555556
        k(   28) = (   0.0252881  -0.0840304   0.0000000), wk =   0.0555556
        k(   29) = (   0.0505763   0.0000000   0.0000000), wk =   0.0555556
        k(   30) = (   0.0505763   0.0280101   0.0000000), wk =   0.0555556
        k(   31) = (   0.0505763   0.0560203   0.0000000), wk =   0.0555556
        k(   32) = (   0.0505763  -0.0840304   0.0000000), wk =   0.0555556
        k(   33) = (  -0.0758644   0.0000000   0.0000000), wk =   0.0277778
        k(   34) = (  -0.0758644   0.0280101   0.0000000), wk =   0.0555556
        k(   35) = (  -0.0758644   0.0560203   0.0000000), wk =   0.0555556
        k(   36) = (  -0.0758644  -0.0840304   0.0000000), wk =   0.0277778
        k(   37) = (  -0.0252881   0.0280101   0.0000000), wk =   0.0555556
        k(   38) = (  -0.0252881   0.0560203   0.0000000), wk =   0.0555556
        k(   39) = (  -0.0505763   0.0280101   0.0000000), wk =   0.0555556
        k(   40) = (  -0.0505763   0.0560203   0.0000000), wk =   0.0555556

     Dense  grid:  1096637 G-vectors     FFT dimensions: (  80,  72, 375)

     Smooth grid:   277353 G-vectors     FFT dimensions: (  54,  45, 240)

     Largest allocated arrays     est. size (Mb)     dimensions
        Kohn-Sham Wavefunctions         9.95 Mb     (    2180,  299)
        NL pseudopotentials            18.89 Mb     (    2180,  568)
        Each V/rho on FFT grid          4.22 Mb     (  138240,   2)
        Each G-vector array             0.52 Mb     (   68538)
        G-vector shells                 0.25 Mb     (   33046)
     Largest temporary arrays     est. size (Mb)     dimensions
        Auxiliary wavefunctions        39.78 Mb     (    2180, 1196)
        Each subspace H/S matrix       21.83 Mb     (    1196, 1196)
        Each <psi_i|beta_j> matrix      2.59 Mb     (     568,  299)
        Arrays for rho mixing          21.09 Mb     (  138240,   10)

     Check: negative/imaginary core charge=   -0.000049    0.000000

     The initial density is read from file :
     ./calc.save/charge-density.dat


     negative rho (up, down):  1.189E-02 1.196E-02


     ************************************************************************
     *
     * You are using vdW-DF for exchange-correlation in this calculation.
     * Please cite the following three references that made this development
     * possible:
     *
     *   M. Dion, H. Rydberg, E. Schroder, D. C. Langreth, and
     *   B. I. Lundqvist, Phys. Rev. Lett. 92, 246401 (2004).
     *
     *   T. Thonhauser, V. R. Cooper, S. Li, A. Puzder, P. Hyldgaard, and
     *   D. C. Langreth, Phys. Rev. B 76, 125112 (2007).
     *
     *   G. Roman-Perez and J. M. Soler, Phys. Rev. Lett. 103, 096102 (2009).
     *
     *
     * If you are using vdW-DF2, please also cite:
     *
     *   K. Lee, E. D. Murray, L. Kong, B. I. Lundqvist, and
     *   D. C. Langreth, Phys. Rev. B 82, 081101(R) (2010).
     *
     *
     * If you are calculating the stress with vdW-DF, please also cite:
     *
     *   R. Sabatini, E. Kucukbenli, B. Kolb, T. Thonhauser, and
     *   S. de Gironcoli, J. Phys.: Condens. Matter 24, 424209 (2012).
     *
     ************************************************************************

     Carrying out vdW-DF run using the following parameters:

     Nqs =      20    Nr_points =    1024   r_max =   100.000
     q_mesh =
               0.00001000     0.04494208     0.09755937     0.15916263
               0.23128650     0.31572767     0.41458969     0.53033537
               0.66584808     0.82450364     1.01025438     1.22772762
               1.48234092     1.78043706     2.12944203     2.53805004
               3.01644009     3.57652955     4.23227104     5.00000000

     Gradients computed in reciprocal space

     ************************************************************************


     Starting wfc are  300 randomized atomic wfcs

     total cpu time spent up to now is       80.4 secs

     Self-consistent Calculation

     iteration #  1     ecut=    40.42 Ry     beta=0.10
     Davidson diagonalization with overlap
     ethr =  1.00E-05,  avg # of iterations = 14.9

     Threshold (ethr) on eigenvalues was too large:
     Diagonalizing with lowered threshold

     Davidson diagonalization with overlap
     ethr =  5.09E-07,  avg # of iterations =  1.0

     negative rho (up, down):  1.189E-02 1.196E-02
 
     Magnetic moment per site:
     atom:    1    charge:    3.1244    magn:   -0.0003    constr:    0.0000
     atom:    2    charge:    2.0897    magn:    0.0003    constr:    0.0000
     atom:    3    charge:    3.1198    magn:   -0.0000    constr:    0.0000
     atom:    4    charge:    2.0867    magn:   -0.0001    constr:    0.0000
     atom:    5    charge:    3.1161    magn:   -0.0002    constr:    0.0000
     atom:    6    charge:    2.0795    magn:    0.0021    constr:    0.0000
     atom:    7    charge:    3.1167    magn:   -0.0053    constr:    0.0000
     atom:    8    charge:    2.0792    magn:    0.0250    constr:    0.0000
     atom:    9    charge:    3.1244    magn:   -0.0003    constr:    0.0000
     atom:   10    charge:    2.0898    magn:    0.0003    constr:    0.0000
     atom:   11    charge:    3.1198    magn:   -0.0000    constr:    0.0000
     atom:   12    charge:    2.0870    magn:   -0.0000    constr:    0.0000
     atom:   13    charge:    3.1150    magn:   -0.0002    constr:    0.0000
     atom:   14    charge:    2.0939    magn:    0.0023    constr:    0.0000
     atom:   15    charge:    3.1184    magn:   -0.0008    constr:    0.0000
     atom:   16    charge:    2.0829    magn:    0.0046    constr:    0.0000
     atom:   17    charge:    2.0624    magn:    0.0018    constr:    0.0000
     atom:   18    charge:    3.1239    magn:   -0.0001    constr:    0.0000
     atom:   19    charge:    2.0875    magn:    0.0001    constr:    0.0000
     atom:   20    charge:    2.0847    magn:    0.0002    constr:    0.0000
     atom:   21    charge:    2.0847    magn:    0.0002    constr:    0.0000
     atom:   22    charge:    3.1199    magn:    0.0000    constr:    0.0000
     atom:   23    charge:    2.0908    magn:    0.0002    constr:    0.0000
     atom:   24    charge:    2.0754    magn:   -0.0002    constr:    0.0000
     atom:   25    charge:    2.0867    magn:    0.0000    constr:    0.0000
     atom:   26    charge:    3.1127    magn:   -0.0002    constr:    0.0000
     atom:   27    charge:    2.0803    magn:    0.0025    constr:    0.0000
     atom:   28    charge:    2.0839    magn:    0.0006    constr:    0.0000
     atom:   29    charge:    2.0860    magn:    0.0008    constr:    0.0000
     atom:   30    charge:    3.1171    magn:   -0.0008    constr:    0.0000
     atom:   31    charge:    2.0825    magn:    0.0006    constr:    0.0000
     atom:   32    charge:    2.0829    magn:    0.0064    constr:    0.0000
     atom:   33    charge:    2.0623    magn:    0.0018    constr:    0.0000
     atom:   34    charge:    3.1239    magn:   -0.0001    constr:    0.0000
     atom:   35    charge:    2.0875    magn:    0.0001    constr:    0.0000
     atom:   36    charge:    2.0847    magn:    0.0002    constr:    0.0000
     atom:   37    charge:    2.0847    magn:    0.0002    constr:    0.0000
     atom:   38    charge:    3.1200    magn:    0.0000    constr:    0.0000
     atom:   39    charge:    2.0839    magn:    0.0002    constr:    0.0000
     atom:   40    charge:    2.0756    magn:   -0.0003    constr:    0.0000
     atom:   41    charge:    2.0870    magn:   -0.0000    constr:    0.0000
     atom:   42    charge:    3.1151    magn:   -0.0002    constr:    0.0000
     atom:   43    charge:    2.0803    magn:    0.0030    constr:    0.0000
     atom:   44    charge:    2.0851    magn:    0.0008    constr:    0.0000
     atom:   45    charge:    2.0858    magn:    0.0004    constr:    0.0000
     atom:   46    charge:    3.1148    magn:   -0.0007    constr:    0.0000
     atom:   47    charge:    2.0806    magn:    0.0047    constr:    0.0000
     atom:   48    charge:    2.0837    magn:    0.0137    constr:    0.0000
     atom:   49    charge:    2.0517    magn:    0.2398    constr:    0.0000
     atom:   50    charge:    0.6722    magn:    0.0546    constr:    0.0000
     atom:   51    charge:    0.4218    magn:    0.0009    constr:    0.0000
     atom:   52    charge:    0.4312    magn:    0.0008    constr:    0.0000
     atom:   53    charge:    0.3676    magn:    0.0231    constr:    0.0000
     atom:   54    charge:    0.4231    magn:    0.0006    constr:    0.0000

     total cpu time spent up to now is     1245.5 secs

     total energy              =   -3021.14978041 Ry
     Harris-Foulkes estimate   =   -3021.14999579 Ry
     estimated scf accuracy    <       0.00202773 Ry

     total magnetization       =     1.06 Bohr mag/cell
     absolute magnetization    =     1.23 Bohr mag/cell

     iteration #  2     ecut=    40.42 Ry     beta=0.10
     Davidson diagonalization with overlap
     ethr =  5.09E-07,  avg # of iterations =  1.9

     negative rho (up, down):  1.190E-02 1.196E-02
 
     Magnetic moment per site:
     atom:    1    charge:    3.1244    magn:   -0.0003    constr:    0.0000
     atom:    2    charge:    2.0897    magn:    0.0003    constr:    0.0000
     atom:    3    charge:    3.1198    magn:   -0.0000    constr:    0.0000
     atom:    4    charge:    2.0867    magn:   -0.0001    constr:    0.0000
     atom:    5    charge:    3.1161    magn:   -0.0002    constr:    0.0000
     atom:    6    charge:    2.0795    magn:    0.0021    constr:    0.0000
     atom:    7    charge:    3.1167    magn:   -0.0053    constr:    0.0000
     atom:    8    charge:    2.0792    magn:    0.0250    constr:    0.0000
     atom:    9    charge:    3.1244    magn:   -0.0003    constr:    0.0000
     atom:   10    charge:    2.0898    magn:    0.0003    constr:    0.0000
     atom:   11    charge:    3.1198    magn:   -0.0000    constr:    0.0000
     atom:   12    charge:    2.0870    magn:   -0.0000    constr:    0.0000
     atom:   13    charge:    3.1150    magn:   -0.0002    constr:    0.0000
     atom:   14    charge:    2.0939    magn:    0.0023    constr:    0.0000
     atom:   15    charge:    3.1184    magn:   -0.0008    constr:    0.0000
     atom:   16    charge:    2.0828    magn:    0.0046    constr:    0.0000
     atom:   17    charge:    2.0625    magn:    0.0017    constr:    0.0000
     atom:   18    charge:    3.1239    magn:   -0.0001    constr:    0.0000
     atom:   19    charge:    2.0875    magn:    0.0001    constr:    0.0000
     atom:   20    charge:    2.0847    magn:    0.0002    constr:    0.0000
     atom:   21    charge:    2.0847    magn:    0.0002    constr:    0.0000
     atom:   22    charge:    3.1199    magn:    0.0000    constr:    0.0000
     atom:   23    charge:    2.0908    magn:    0.0002    constr:    0.0000
     atom:   24    charge:    2.0754    magn:   -0.0002    constr:    0.0000
     atom:   25    charge:    2.0867    magn:    0.0000    constr:    0.0000
     atom:   26    charge:    3.1127    magn:   -0.0002    constr:    0.0000
     atom:   27    charge:    2.0802    magn:    0.0025    constr:    0.0000
     atom:   28    charge:    2.0839    magn:    0.0006    constr:    0.0000
     atom:   29    charge:    2.0860    magn:    0.0008    constr:    0.0000
     atom:   30    charge:    3.1171    magn:   -0.0008    constr:    0.0000
     atom:   31    charge:    2.0825    magn:    0.0006    constr:    0.0000
     atom:   32    charge:    2.0829    magn:    0.0065    constr:    0.0000
     atom:   33    charge:    2.0625    magn:    0.0018    constr:    0.0000
     atom:   34    charge:    3.1239    magn:   -0.0001    constr:    0.0000
     atom:   35    charge:    2.0876    magn:    0.0001    constr:    0.0000
     atom:   36    charge:    2.0847    magn:    0.0002    constr:    0.0000
     atom:   37    charge:    2.0847    magn:    0.0002    constr:    0.0000
     atom:   38    charge:    3.1200    magn:    0.0000    constr:    0.0000
     atom:   39    charge:    2.0839    magn:    0.0002    constr:    0.0000
     atom:   40    charge:    2.0756    magn:   -0.0003    constr:    0.0000
     atom:   41    charge:    2.0870    magn:   -0.0000    constr:    0.0000
     atom:   42    charge:    3.1151    magn:   -0.0002    constr:    0.0000
     atom:   43    charge:    2.0802    magn:    0.0030    constr:    0.0000
     atom:   44    charge:    2.0851    magn:    0.0008    constr:    0.0000
     atom:   45    charge:    2.0858    magn:    0.0004    constr:    0.0000
     atom:   46    charge:    3.1148    magn:   -0.0007    constr:    0.0000
     atom:   47    charge:    2.0806    magn:    0.0047    constr:    0.0000
     atom:   48    charge:    2.0836    magn:    0.0137    constr:    0.0000
     atom:   49    charge:    2.0517    magn:    0.2399    constr:    0.0000
     atom:   50    charge:    0.6726    magn:    0.0546    constr:    0.0000
     atom:   51    charge:    0.4217    magn:    0.0009    constr:    0.0000
     atom:   52    charge:    0.4313    magn:    0.0008    constr:    0.0000
     atom:   53    charge:    0.3676    magn:    0.0230    constr:    0.0000
     atom:   54    charge:    0.4231    magn:    0.0006    constr:    0.0000

     total cpu time spent up to now is     1462.6 secs

     total energy              =   -3021.14969642 Ry
     Harris-Foulkes estimate   =   -3021.14982715 Ry
     estimated scf accuracy    <       0.00179849 Ry

     total magnetization       =     1.06 Bohr mag/cell
     absolute magnetization    =     1.23 Bohr mag/cell

     iteration #  3     ecut=    40.42 Ry     beta=0.10
     Davidson diagonalization with overlap
     ethr =  4.52E-07,  avg # of iterations =  1.1

     negative rho (up, down):  1.190E-02 1.197E-02
 
     Magnetic moment per site:
     atom:    1    charge:    3.1244    magn:   -0.0003    constr:    0.0000
     atom:    2    charge:    2.0897    magn:    0.0003    constr:    0.0000
     atom:    3    charge:    3.1198    magn:   -0.0000    constr:    0.0000
     atom:    4    charge:    2.0867    magn:   -0.0001    constr:    0.0000
     atom:    5    charge:    3.1161    magn:   -0.0002    constr:    0.0000
     atom:    6    charge:    2.0795    magn:    0.0021    constr:    0.0000
     atom:    7    charge:    3.1167    magn:   -0.0054    constr:    0.0000
     atom:    8    charge:    2.0792    magn:    0.0251    constr:    0.0000
     atom:    9    charge:    3.1244    magn:   -0.0003    constr:    0.0000
     atom:   10    charge:    2.0898    magn:    0.0003    constr:    0.0000
     atom:   11    charge:    3.1198    magn:   -0.0000    constr:    0.0000
     atom:   12    charge:    2.0871    magn:   -0.0000    constr:    0.0000
     atom:   13    charge:    3.1150    magn:   -0.0002    constr:    0.0000
     atom:   14    charge:    2.0939    magn:    0.0023    constr:    0.0000
     atom:   15    charge:    3.1184    magn:   -0.0008    constr:    0.0000
     atom:   16    charge:    2.0828    magn:    0.0046    constr:    0.0000
     atom:   17    charge:    2.0624    magn:    0.0016    constr:    0.0000
     atom:   18    charge:    3.1239    magn:   -0.0001    constr:    0.0000
     atom:   19    charge:    2.0876    magn:    0.0001    constr:    0.0000
     atom:   20    charge:    2.0847    magn:    0.0001    constr:    0.0000
     atom:   21    charge:    2.0847    magn:    0.0001    constr:    0.0000
     atom:   22    charge:    3.1199    magn:    0.0000    constr:    0.0000
     atom:   23    charge:    2.0908    magn:    0.0002    constr:    0.0000
     atom:   24    charge:    2.0754    magn:   -0.0001    constr:    0.0000
     atom:   25    charge:    2.0868    magn:    0.0000    constr:    0.0000
     atom:   26    charge:    3.1127    magn:   -0.0002    constr:    0.0000
     atom:   27    charge:    2.0802    magn:    0.0025    constr:    0.0000
     atom:   28    charge:    2.0839    magn:    0.0006    constr:    0.0000
     atom:   29    charge:    2.0860    magn:    0.0008    constr:    0.0000
     atom:   30    charge:    3.1172    magn:   -0.0008    constr:    0.0000
     atom:   31    charge:    2.0823    magn:    0.0006    constr:    0.0000
     atom:   32    charge:    2.0829    magn:    0.0065    constr:    0.0000
     atom:   33    charge:    2.0624    magn:    0.0016    constr:    0.0000
     atom:   34    charge:    3.1239    magn:   -0.0001    constr:    0.0000
     atom:   35    charge:    2.0876    magn:    0.0001    constr:    0.0000
     atom:   36    charge:    2.0847    magn:    0.0001    constr:    0.0000
     atom:   37    charge:    2.0847    magn:    0.0001    constr:    0.0000
     atom:   38    charge:    3.1200    magn:    0.0000    constr:    0.0000
     atom:   39    charge:    2.0839    magn:    0.0002    constr:    0.0000
     atom:   40    charge:    2.0757    magn:   -0.0002    constr:    0.0000
     atom:   41    charge:    2.0870    magn:   -0.0000    constr:    0.0000
     atom:   42    charge:    3.1151    magn:   -0.0002    constr:    0.0000
     atom:   43    charge:    2.0803    magn:    0.0030    constr:    0.0000
     atom:   44    charge:    2.0851    magn:    0.0009    constr:    0.0000
     atom:   45    charge:    2.0858    magn:    0.0004    constr:    0.0000
     atom:   46    charge:    3.1148    magn:   -0.0007    constr:    0.0000
     atom:   47    charge:    2.0805    magn:    0.0047    constr:    0.0000
     atom:   48    charge:    2.0836    magn:    0.0138    constr:    0.0000
     atom:   49    charge:    2.0516    magn:    0.2401    constr:    0.0000
     atom:   50    charge:    0.6747    magn:    0.0546    constr:    0.0000
     atom:   51    charge:    0.4213    magn:    0.0009    constr:    0.0000
     atom:   52    charge:    0.4316    magn:    0.0008    constr:    0.0000
     atom:   53    charge:    0.3677    magn:    0.0228    constr:    0.0000
     atom:   54    charge:    0.4233    magn:    0.0005    constr:    0.0000

     total cpu time spent up to now is     1664.1 secs

     total energy              =   -3021.14947279 Ry
     Harris-Foulkes estimate   =   -3021.14977009 Ry
     estimated scf accuracy    <       0.00177388 Ry

     total magnetization       =     1.06 Bohr mag/cell
     absolute magnetization    =     1.23 Bohr mag/cell

     iteration #  4     ecut=    40.42 Ry     beta=0.10
     Davidson diagonalization with overlap
     ethr =  4.46E-07,  avg # of iterations =  3.1

     negative rho (up, down):  1.190E-02 1.197E-02
 
     Magnetic moment per site:
     atom:    1    charge:    3.1244    magn:   -0.0003    constr:    0.0000
     atom:    2    charge:    2.0897    magn:    0.0003    constr:    0.0000
     atom:    3    charge:    3.1198    magn:   -0.0000    constr:    0.0000
     atom:    4    charge:    2.0867    magn:   -0.0001    constr:    0.0000
     atom:    5    charge:    3.1161    magn:   -0.0002    constr:    0.0000
     atom:    6    charge:    2.0795    magn:    0.0021    constr:    0.0000
     atom:    7    charge:    3.1167    magn:   -0.0054    constr:    0.0000
     atom:    8    charge:    2.0793    magn:    0.0251    constr:    0.0000
     atom:    9    charge:    3.1244    magn:   -0.0003    constr:    0.0000
     atom:   10    charge:    2.0898    magn:    0.0003    constr:    0.0000
     atom:   11    charge:    3.1198    magn:   -0.0000    constr:    0.0000
     atom:   12    charge:    2.0870    magn:   -0.0000    constr:    0.0000
     atom:   13    charge:    3.1150    magn:   -0.0002    constr:    0.0000
     atom:   14    charge:    2.0939    magn:    0.0023    constr:    0.0000
     atom:   15    charge:    3.1184    magn:   -0.0008    constr:    0.0000
     atom:   16    charge:    2.0828    magn:    0.0046    constr:    0.0000
     atom:   17    charge:    2.0624    magn:    0.0015    constr:    0.0000
     atom:   18    charge:    3.1239    magn:   -0.0001    constr:    0.0000
     atom:   19    charge:    2.0875    magn:    0.0001    constr:    0.0000
     atom:   20    charge:    2.0847    magn:    0.0001    constr:    0.0000
     atom:   21    charge:    2.0847    magn:    0.0001    constr:    0.0000
     atom:   22    charge:    3.1199    magn:    0.0000    constr:    0.0000
     atom:   23    charge:    2.0908    magn:    0.0002    constr:    0.0000
     atom:   24    charge:    2.0754    magn:   -0.0001    constr:    0.0000
     atom:   25    charge:    2.0867    magn:    0.0000    constr:    0.0000
     atom:   26    charge:    3.1127    magn:   -0.0002    constr:    0.0000
     atom:   27    charge:    2.0803    magn:    0.0025    constr:    0.0000
     atom:   28    charge:    2.0839    magn:    0.0006    constr:    0.0000
     atom:   29    charge:    2.0860    magn:    0.0008    constr:    0.0000
     atom:   30    charge:    3.1171    magn:   -0.0008    constr:    0.0000
     atom:   31    charge:    2.0824    magn:    0.0006    constr:    0.0000
     atom:   32    charge:    2.0829    magn:    0.0065    constr:    0.0000
     atom:   33    charge:    2.0624    magn:    0.0016    constr:    0.0000
     atom:   34    charge:    3.1239    magn:   -0.0001    constr:    0.0000
     atom:   35    charge:    2.0876    magn:    0.0001    constr:    0.0000
     atom:   36    charge:    2.0847    magn:    0.0001    constr:    0.0000
     atom:   37    charge:    2.0847    magn:    0.0001    constr:    0.0000
     atom:   38    charge:    3.1200    magn:    0.0000    constr:    0.0000
     atom:   39    charge:    2.0839    magn:    0.0002    constr:    0.0000
     atom:   40    charge:    2.0756    magn:   -0.0002    constr:    0.0000
     atom:   41    charge:    2.0870    magn:   -0.0000    constr:    0.0000
     atom:   42    charge:    3.1151    magn:   -0.0002    constr:    0.0000
     atom:   43    charge:    2.0803    magn:    0.0031    constr:    0.0000
     atom:   44    charge:    2.0851    magn:    0.0009    constr:    0.0000
     atom:   45    charge:    2.0858    magn:    0.0004    constr:    0.0000
     atom:   46    charge:    3.1148    magn:   -0.0007    constr:    0.0000
     atom:   47    charge:    2.0805    magn:    0.0047    constr:    0.0000
     atom:   48    charge:    2.0837    magn:    0.0137    constr:    0.0000
     atom:   49    charge:    2.0517    magn:    0.2400    constr:    0.0000
     atom:   50    charge:    0.6747    magn:    0.0546    constr:    0.0000
     atom:   51    charge:    0.4212    magn:    0.0009    constr:    0.0000
     atom:   52    charge:    0.4318    magn:    0.0008    constr:    0.0000
     atom:   53    charge:    0.3676    magn:    0.0229    constr:    0.0000
     atom:   54    charge:    0.4233    magn:    0.0005    constr:    0.0000

     total cpu time spent up to now is     1902.4 secs

     total energy              =   -3021.14956956 Ry
     Harris-Foulkes estimate   =   -3021.14958689 Ry
     estimated scf accuracy    <       0.00029456 Ry

     total magnetization       =     1.06 Bohr mag/cell
     absolute magnetization    =     1.23 Bohr mag/cell

     iteration #  5     ecut=    40.42 Ry     beta=0.10
     Davidson diagonalization with overlap
     ethr =  7.40E-08,  avg # of iterations =  1.1

     negative rho (up, down):  1.191E-02 1.197E-02
 
     Magnetic moment per site:
     atom:    1    charge:    3.1244    magn:   -0.0002    constr:    0.0000
     atom:    2    charge:    2.0897    magn:    0.0002    constr:    0.0000
     atom:    3    charge:    3.1198    magn:   -0.0000    constr:    0.0000
     atom:    4    charge:    2.0867    magn:   -0.0001    constr:    0.0000
     atom:    5    charge:    3.1161    magn:   -0.0002    constr:    0.0000
     atom:    6    charge:    2.0795    magn:    0.0021    constr:    0.0000
     atom:    7    charge:    3.1167    magn:   -0.0053    constr:    0.0000
     atom:    8    charge:    2.0794    magn:    0.0250    constr:    0.0000
     atom:    9    charge:    3.1244    magn:   -0.0002    constr:    0.0000
     atom:   10    charge:    2.0898    magn:    0.0002    constr:    0.0000
     atom:   11    charge:    3.1198    magn:   -0.0000    constr:    0.0000
     atom:   12    charge:    2.0870    magn:   -0.0000    constr:    0.0000
     atom:   13    charge:    3.1150    magn:   -0.0002    constr:    0.0000
     atom:   14    charge:    2.0939    magn:    0.0022    constr:    0.0000
     atom:   15    charge:    3.1184    magn:   -0.0008    constr:    0.0000
     atom:   16    charge:    2.0828    magn:    0.0047    constr:    0.0000
     atom:   17    charge:    2.0625    magn:    0.0014    constr:    0.0000
     atom:   18    charge:    3.1240    magn:   -0.0001    constr:    0.0000
     atom:   19    charge:    2.0875    magn:    0.0001    constr:    0.0000
     atom:   20    charge:    2.0847    magn:    0.0001    constr:    0.0000
     atom:   21    charge:    2.0847    magn:    0.0001    constr:    0.0000
     atom:   22    charge:    3.1199    magn:    0.0000    constr:    0.0000
     atom:   23    charge:    2.0908    magn:    0.0002    constr:    0.0000
     atom:   24    charge:    2.0754    magn:   -0.0001    constr:    0.0000
     atom:   25    charge:    2.0867    magn:    0.0000    constr:    0.0000
     atom:   26    charge:    3.1127    magn:   -0.0002    constr:    0.0000
     atom:   27    charge:    2.0803    magn:    0.0026    constr:    0.0000
     atom:   28    charge:    2.0839    magn:    0.0007    constr:    0.0000
     atom:   29    charge:    2.0860    magn:    0.0008    constr:    0.0000
     atom:   30    charge:    3.1171    magn:   -0.0008    constr:    0.0000
     atom:   31    charge:    2.0826    magn:    0.0006    constr:    0.0000
     atom:   32    charge:    2.0829    magn:    0.0065    constr:    0.0000
     atom:   33    charge:    2.0625    magn:    0.0014    constr:    0.0000
     atom:   34    charge:    3.1239    magn:   -0.0001    constr:    0.0000
     atom:   35    charge:    2.0876    magn:    0.0001    constr:    0.0000
     atom:   36    charge:    2.0847    magn:    0.0001    constr:    0.0000
     atom:   37    charge:    2.0847    magn:    0.0001    constr:    0.0000
     atom:   38    charge:    3.1200    magn:    0.0000    constr:    0.0000
     atom:   39    charge:    2.0839    magn:    0.0002    constr:    0.0000
     atom:   40    charge:    2.0756    magn:   -0.0002    constr:    0.0000
     atom:   41    charge:    2.0870    magn:   -0.0000    constr:    0.0000
     atom:   42    charge:    3.1151    magn:   -0.0002    constr:    0.0000
     atom:   43    charge:    2.0803    magn:    0.0031    constr:    0.0000
     atom:   44    charge:    2.0851    magn:    0.0009    constr:    0.0000
     atom:   45    charge:    2.0858    magn:    0.0005    constr:    0.0000
     atom:   46    charge:    3.1147    magn:   -0.0007    constr:    0.0000
     atom:   47    charge:    2.0808    magn:    0.0047    constr:    0.0000
     atom:   48    charge:    2.0838    magn:    0.0137    constr:    0.0000
     atom:   49    charge:    2.0519    magn:    0.2398    constr:    0.0000
     atom:   50    charge:    0.6743    magn:    0.0547    constr:    0.0000
     atom:   51    charge:    0.4213    magn:    0.0010    constr:    0.0000
     atom:   52    charge:    0.4322    magn:    0.0008    constr:    0.0000
     atom:   53    charge:    0.3674    magn:    0.0232    constr:    0.0000
     atom:   54    charge:    0.4234    magn:    0.0005    constr:    0.0000

     total cpu time spent up to now is     2104.7 secs

     total energy              =   -3021.14954657 Ry
     Harris-Foulkes estimate   =   -3021.14957319 Ry
     estimated scf accuracy    <       0.00019064 Ry

     total magnetization       =     1.06 Bohr mag/cell
     absolute magnetization    =     1.23 Bohr mag/cell

     iteration #  6     ecut=    40.42 Ry     beta=0.10
     Davidson diagonalization with overlap
     ethr =  4.79E-08,  avg # of iterations =  3.0

     negative rho (up, down):  1.191E-02 1.198E-02
 
     Magnetic moment per site:
     atom:    1    charge:    3.1244    magn:   -0.0002    constr:    0.0000
     atom:    2    charge:    2.0897    magn:    0.0002    constr:    0.0000
     atom:    3    charge:    3.1198    magn:   -0.0000    constr:    0.0000
     atom:    4    charge:    2.0867    magn:   -0.0001    constr:    0.0000
     atom:    5    charge:    3.1161    magn:   -0.0003    constr:    0.0000
     atom:    6    charge:    2.0795    magn:    0.0021    constr:    0.0000
     atom:    7    charge:    3.1167    magn:   -0.0053    constr:    0.0000
     atom:    8    charge:    2.0794    magn:    0.0249    constr:    0.0000
     atom:    9    charge:    3.1244    magn:   -0.0002    constr:    0.0000
     atom:   10    charge:    2.0898    magn:    0.0002    constr:    0.0000
     atom:   11    charge:    3.1198    magn:   -0.0000    constr:    0.0000
     atom:   12    charge:    2.0870    magn:   -0.0000    constr:    0.0000
     atom:   13    charge:    3.1150    magn:   -0.0002    constr:    0.0000
     atom:   14    charge:    2.0939    magn:    0.0022    constr:    0.0000
     atom:   15    charge:    3.1184    magn:   -0.0008    constr:    0.0000
     atom:   16    charge:    2.0828    magn:    0.0047    constr:    0.0000
     atom:   17    charge:    2.0625    magn:    0.0013    constr:    0.0000
     atom:   18    charge:    3.1240    magn:   -0.0001    constr:    0.0000
     atom:   19    charge:    2.0875    magn:    0.0000    constr:    0.0000
     atom:   20    charge:    2.0847    magn:    0.0001    constr:    0.0000
     atom:   21    charge:    2.0847    magn:    0.0001    constr:    0.0000
     atom:   22    charge:    3.1199    magn:    0.0000    constr:    0.0000
     atom:   23    charge:    2.0908    magn:    0.0002    constr:    0.0000
     atom:   24    charge:    2.0754    magn:   -0.0001    constr:    0.0000
     atom:   25    charge:    2.0867    magn:    0.0000    constr:    0.0000
     atom:   26    charge:    3.1127    magn:   -0.0002    constr:    0.0000
     atom:   27    charge:    2.0802    magn:    0.0026    constr:    0.0000
     atom:   28    charge:    2.0839    magn:    0.0007    constr:    0.0000
     atom:   29    charge:    2.0860    magn:    0.0008    constr:    0.0000
     atom:   30    charge:    3.1171    magn:   -0.0008    constr:    0.0000
     atom:   31    charge:    2.0826    magn:    0.0006    constr:    0.0000
     atom:   32    charge:    2.0829    magn:    0.0065    constr:    0.0000
     atom:   33    charge:    2.0625    magn:    0.0013    constr:    0.0000
     atom:   34    charge:    3.1239    magn:   -0.0001    constr:    0.0000
     atom:   35    charge:    2.0876    magn:    0.0000    constr:    0.0000
     atom:   36    charge:    2.0847    magn:    0.0001    constr:    0.0000
     atom:   37    charge:    2.0847    magn:    0.0001    constr:    0.0000
     atom:   38    charge:    3.1200    magn:    0.0000    constr:    0.0000
     atom:   39    charge:    2.0839    magn:    0.0002    constr:    0.0000
     atom:   40    charge:    2.0756    magn:   -0.0002    constr:    0.0000
     atom:   41    charge:    2.0870    magn:   -0.0000    constr:    0.0000
     atom:   42    charge:    3.1151    magn:   -0.0002    constr:    0.0000
     atom:   43    charge:    2.0803    magn:    0.0031    constr:    0.0000
     atom:   44    charge:    2.0851    magn:    0.0009    constr:    0.0000
     atom:   45    charge:    2.0858    magn:    0.0005    constr:    0.0000
     atom:   46    charge:    3.1148    magn:   -0.0007    constr:    0.0000
     atom:   47    charge:    2.0808    magn:    0.0047    constr:    0.0000
     atom:   48    charge:    2.0838    magn:    0.0136    constr:    0.0000
     atom:   49    charge:    2.0519    magn:    0.2397    constr:    0.0000
     atom:   50    charge:    0.6742    magn:    0.0548    constr:    0.0000
     atom:   51    charge:    0.4214    magn:    0.0010    constr:    0.0000
     atom:   52    charge:    0.4324    magn:    0.0009    constr:    0.0000
     atom:   53    charge:    0.3674    magn:    0.0233    constr:    0.0000
     atom:   54    charge:    0.4234    magn:    0.0005    constr:    0.0000

     total cpu time spent up to now is     2341.5 secs

     total energy              =   -3021.14955719 Ry
     Harris-Foulkes estimate   =   -3021.14955618 Ry
     estimated scf accuracy    <       0.00003577 Ry

     total magnetization       =     1.06 Bohr mag/cell
     absolute magnetization    =     1.23 Bohr mag/cell

     iteration #  7     ecut=    40.42 Ry     beta=0.10
     Davidson diagonalization with overlap
     ethr =  8.99E-09,  avg # of iterations =  3.0

     negative rho (up, down):  1.191E-02 1.197E-02
 
     Magnetic moment per site:
     atom:    1    charge:    3.1244    magn:   -0.0002    constr:    0.0000
     atom:    2    charge:    2.0897    magn:    0.0002    constr:    0.0000
     atom:    3    charge:    3.1198    magn:   -0.0000    constr:    0.0000
     atom:    4    charge:    2.0867    magn:   -0.0001    constr:    0.0000
     atom:    5    charge:    3.1161    magn:   -0.0003    constr:    0.0000
     atom:    6    charge:    2.0795    magn:    0.0021    constr:    0.0000
     atom:    7    charge:    3.1167    magn:   -0.0053    constr:    0.0000
     atom:    8    charge:    2.0792    magn:    0.0249    constr:    0.0000
     atom:    9    charge:    3.1244    magn:   -0.0002    constr:    0.0000
     atom:   10    charge:    2.0898    magn:    0.0002    constr:    0.0000
     atom:   11    charge:    3.1198    magn:   -0.0000    constr:    0.0000
     atom:   12    charge:    2.0870    magn:   -0.0000    constr:    0.0000
     atom:   13    charge:    3.1150    magn:   -0.0002    constr:    0.0000
     atom:   14    charge:    2.0939    magn:    0.0022    constr:    0.0000
     atom:   15    charge:    3.1184    magn:   -0.0008    constr:    0.0000
     atom:   16    charge:    2.0828    magn:    0.0047    constr:    0.0000
     atom:   17    charge:    2.0624    magn:    0.0012    constr:    0.0000
     atom:   18    charge:    3.1240    magn:   -0.0000    constr:    0.0000
     atom:   19    charge:    2.0875    magn:    0.0000    constr:    0.0000
     atom:   20    charge:    2.0847    magn:    0.0001    constr:    0.0000
     atom:   21    charge:    2.0847    magn:    0.0001    constr:    0.0000
     atom:   22    charge:    3.1199    magn:    0.0000    constr:    0.0000
     atom:   23    charge:    2.0908    magn:    0.0003    constr:    0.0000
     atom:   24    charge:    2.0754    magn:   -0.0001    constr:    0.0000
     atom:   25    charge:    2.0867    magn:    0.0000    constr:    0.0000
     atom:   26    charge:    3.1127    magn:   -0.0003    constr:    0.0000
     atom:   27    charge:    2.0802    magn:    0.0026    constr:    0.0000
     atom:   28    charge:    2.0839    magn:    0.0007    constr:    0.0000
     atom:   29    charge:    2.0860    magn:    0.0009    constr:    0.0000
     atom:   30    charge:    3.1171    magn:   -0.0008    constr:    0.0000
     atom:   31    charge:    2.0826    magn:    0.0006    constr:    0.0000
     atom:   32    charge:    2.0829    magn:    0.0065    constr:    0.0000
     atom:   33    charge:    2.0624    magn:    0.0012    constr:    0.0000
     atom:   34    charge:    3.1239    magn:   -0.0000    constr:    0.0000
     atom:   35    charge:    2.0875    magn:    0.0000    constr:    0.0000
     atom:   36    charge:    2.0847    magn:    0.0001    constr:    0.0000
     atom:   37    charge:    2.0847    magn:    0.0001    constr:    0.0000
     atom:   38    charge:    3.1200    magn:    0.0000    constr:    0.0000
     atom:   39    charge:    2.0839    magn:    0.0002    constr:    0.0000
     atom:   40    charge:    2.0756    magn:   -0.0001    constr:    0.0000
     atom:   41    charge:    2.0870    magn:   -0.0000    constr:    0.0000
     atom:   42    charge:    3.1151    magn:   -0.0002    constr:    0.0000
     atom:   43    charge:    2.0803    magn:    0.0031    constr:    0.0000
     atom:   44    charge:    2.0851    magn:    0.0010    constr:    0.0000
     atom:   45    charge:    2.0858    magn:    0.0005    constr:    0.0000
     atom:   46    charge:    3.1148    magn:   -0.0007    constr:    0.0000
     atom:   47    charge:    2.0807    magn:    0.0047    constr:    0.0000
     atom:   48    charge:    2.0837    magn:    0.0136    constr:    0.0000
     atom:   49    charge:    2.0518    magn:    0.2397    constr:    0.0000
     atom:   50    charge:    0.6738    magn:    0.0548    constr:    0.0000
     atom:   51    charge:    0.4216    magn:    0.0010    constr:    0.0000
     atom:   52    charge:    0.4326    magn:    0.0009    constr:    0.0000
     atom:   53    charge:    0.3674    magn:    0.0233    constr:    0.0000
     atom:   54    charge:    0.4234    magn:    0.0005    constr:    0.0000

     total cpu time spent up to now is     2577.2 secs

     total energy              =   -3021.14955730 Ry
     Harris-Foulkes estimate   =   -3021.14955848 Ry
     estimated scf accuracy    <       0.00001080 Ry

     total magnetization       =     1.06 Bohr mag/cell
     absolute magnetization    =     1.23 Bohr mag/cell

     iteration #  8     ecut=    40.42 Ry     beta=0.10
     Davidson diagonalization with overlap
     ethr =  2.71E-09,  avg # of iterations =  3.0

     negative rho (up, down):  1.191E-02 1.197E-02
 
     Magnetic moment per site:
     atom:    1    charge:    3.1244    magn:   -0.0002    constr:    0.0000
     atom:    2    charge:    2.0897    magn:    0.0002    constr:    0.0000
     atom:    3    charge:    3.1198    magn:   -0.0000    constr:    0.0000
     atom:    4    charge:    2.0867    magn:   -0.0001    constr:    0.0000
     atom:    5    charge:    3.1161    magn:   -0.0003    constr:    0.0000
     atom:    6    charge:    2.0795    magn:    0.0022    constr:    0.0000
     atom:    7    charge:    3.1167    magn:   -0.0053    constr:    0.0000
     atom:    8    charge:    2.0793    magn:    0.0249    constr:    0.0000
     atom:    9    charge:    3.1244    magn:   -0.0002    constr:    0.0000
     atom:   10    charge:    2.0898    magn:    0.0002    constr:    0.0000
     atom:   11    charge:    3.1198    magn:   -0.0000    constr:    0.0000
     atom:   12    charge:    2.0870    magn:   -0.0000    constr:    0.0000
     atom:   13    charge:    3.1150    magn:   -0.0002    constr:    0.0000
     atom:   14    charge:    2.0939    magn:    0.0022    constr:    0.0000
     atom:   15    charge:    3.1184    magn:   -0.0008    constr:    0.0000
     atom:   16    charge:    2.0828    magn:    0.0047    constr:    0.0000
     atom:   17    charge:    2.0624    magn:    0.0011    constr:    0.0000
     atom:   18    charge:    3.1239    magn:   -0.0000    constr:    0.0000
     atom:   19    charge:    2.0875    magn:    0.0000    constr:    0.0000
     atom:   20    charge:    2.0847    magn:    0.0001    constr:    0.0000
     atom:   21    charge:    2.0847    magn:    0.0001    constr:    0.0000
     atom:   22    charge:    3.1199    magn:    0.0000    constr:    0.0000
     atom:   23    charge:    2.0908    magn:    0.0003    constr:    0.0000
     atom:   24    charge:    2.0754    magn:   -0.0000    constr:    0.0000
     atom:   25    charge:    2.0867    magn:    0.0000    constr:    0.0000
     atom:   26    charge:    3.1127    magn:   -0.0003    constr:    0.0000
     atom:   27    charge:    2.0803    magn:    0.0027    constr:    0.0000
     atom:   28    charge:    2.0839    magn:    0.0007    constr:    0.0000
     atom:   29    charge:    2.0860    magn:    0.0009    constr:    0.0000
     atom:   30    charge:    3.1171    magn:   -0.0008    constr:    0.0000
     atom:   31    charge:    2.0825    magn:    0.0006    constr:    0.0000
     atom:   32    charge:    2.0829    magn:    0.0065    constr:    0.0000
     atom:   33    charge:    2.0624    magn:    0.0011    constr:    0.0000
     atom:   34    charge:    3.1239    magn:   -0.0000    constr:    0.0000
     atom:   35    charge:    2.0876    magn:    0.0000    constr:    0.0000
     atom:   36    charge:    2.0847    magn:    0.0001    constr:    0.0000
     atom:   37    charge:    2.0847    magn:    0.0001    constr:    0.0000
     atom:   38    charge:    3.1200    magn:    0.0000    constr:    0.0000
     atom:   39    charge:    2.0839    magn:    0.0002    constr:    0.0000
     atom:   40    charge:    2.0756    magn:   -0.0001    constr:    0.0000
     atom:   41    charge:    2.0870    magn:   -0.0000    constr:    0.0000
     atom:   42    charge:    3.1151    magn:   -0.0002    constr:    0.0000
     atom:   43    charge:    2.0803    magn:    0.0032    constr:    0.0000
     atom:   44    charge:    2.0851    magn:    0.0010    constr:    0.0000
     atom:   45    charge:    2.0858    magn:    0.0005    constr:    0.0000
     atom:   46    charge:    3.1148    magn:   -0.0007    constr:    0.0000
     atom:   47    charge:    2.0806    magn:    0.0047    constr:    0.0000
     atom:   48    charge:    2.0837    magn:    0.0136    constr:    0.0000
     atom:   49    charge:    2.0517    magn:    0.2397    constr:    0.0000
     atom:   50    charge:    0.6738    magn:    0.0547    constr:    0.0000
     atom:   51    charge:    0.4216    magn:    0.0010    constr:    0.0000
     atom:   52    charge:    0.4326    magn:    0.0009    constr:    0.0000
     atom:   53    charge:    0.3675    magn:    0.0233    constr:    0.0000
     atom:   54    charge:    0.4234    magn:    0.0005    constr:    0.0000

     total cpu time spent up to now is     2816.6 secs

     total energy              =   -3021.14955782 Ry
     Harris-Foulkes estimate   =   -3021.14955828 Ry
     estimated scf accuracy    <       0.00000318 Ry

     total magnetization       =     1.06 Bohr mag/cell
     absolute magnetization    =     1.23 Bohr mag/cell

     iteration #  9     ecut=    40.42 Ry     beta=0.10
     Davidson diagonalization with overlap
     ethr =  7.99E-10,  avg # of iterations =  3.0

     negative rho (up, down):  1.191E-02 1.197E-02
 
     Magnetic moment per site:
     atom:    1    charge:    3.1244    magn:   -0.0002    constr:    0.0000
     atom:    2    charge:    2.0897    magn:    0.0001    constr:    0.0000
     atom:    3    charge:    3.1198    magn:   -0.0000    constr:    0.0000
     atom:    4    charge:    2.0867    magn:   -0.0001    constr:    0.0000
     atom:    5    charge:    3.1161    magn:   -0.0003    constr:    0.0000
     atom:    6    charge:    2.0795    magn:    0.0022    constr:    0.0000
     atom:    7    charge:    3.1167    magn:   -0.0053    constr:    0.0000
     atom:    8    charge:    2.0793    magn:    0.0249    constr:    0.0000
     atom:    9    charge:    3.1244    magn:   -0.0002    constr:    0.0000
     atom:   10    charge:    2.0898    magn:    0.0002    constr:    0.0000
     atom:   11    charge:    3.1198    magn:   -0.0000    constr:    0.0000
     atom:   12    charge:    2.0870    magn:   -0.0000    constr:    0.0000
     atom:   13    charge:    3.1150    magn:   -0.0002    constr:    0.0000
     atom:   14    charge:    2.0939    magn:    0.0022    constr:    0.0000
     atom:   15    charge:    3.1184    magn:   -0.0008    constr:    0.0000
     atom:   16    charge:    2.0828    magn:    0.0047    constr:    0.0000
     atom:   17    charge:    2.0624    magn:    0.0010    constr:    0.0000
     atom:   18    charge:    3.1239    magn:   -0.0000    constr:    0.0000
     atom:   19    charge:    2.0875    magn:    0.0000    constr:    0.0000
     atom:   20    charge:    2.0847    magn:    0.0001    constr:    0.0000
     atom:   21    charge:    2.0847    magn:    0.0001    constr:    0.0000
     atom:   22    charge:    3.1199    magn:    0.0000    constr:    0.0000
     atom:   23    charge:    2.0908    magn:    0.0003    constr:    0.0000
     atom:   24    charge:    2.0754    magn:   -0.0000    constr:    0.0000
     atom:   25    charge:    2.0867    magn:    0.0000    constr:    0.0000
     atom:   26    charge:    3.1127    magn:   -0.0003    constr:    0.0000
     atom:   27    charge:    2.0803    magn:    0.0027    constr:    0.0000
     atom:   28    charge:    2.0839    magn:    0.0008    constr:    0.0000
     atom:   29    charge:    2.0860    magn:    0.0009    constr:    0.0000
     atom:   30    charge:    3.1171    magn:   -0.0008    constr:    0.0000
     atom:   31    charge:    2.0825    magn:    0.0006    constr:    0.0000
     atom:   32    charge:    2.0829    magn:    0.0065    constr:    0.0000
     atom:   33    charge:    2.0624    magn:    0.0010    constr:    0.0000
     atom:   34    charge:    3.1239    magn:   -0.0000    constr:    0.0000
     atom:   35    charge:    2.0876    magn:    0.0000    constr:    0.0000
     atom:   36    charge:    2.0847    magn:    0.0001    constr:    0.0000
     atom:   37    charge:    2.0847    magn:    0.0001    constr:    0.0000
     atom:   38    charge:    3.1200    magn:    0.0000    constr:    0.0000
     atom:   39    charge:    2.0839    magn:    0.0002    constr:    0.0000
     atom:   40    charge:    2.0756    magn:   -0.0001    constr:    0.0000
     atom:   41    charge:    2.0870    magn:   -0.0000    constr:    0.0000
     atom:   42    charge:    3.1151    magn:   -0.0002    constr:    0.0000
     atom:   43    charge:    2.0803    magn:    0.0032    constr:    0.0000
     atom:   44    charge:    2.0851    magn:    0.0010    constr:    0.0000
     atom:   45    charge:    2.0858    magn:    0.0005    constr:    0.0000
     atom:   46    charge:    3.1147    magn:   -0.0007    constr:    0.0000
     atom:   47    charge:    2.0806    magn:    0.0047    constr:    0.0000
     atom:   48    charge:    2.0837    magn:    0.0136    constr:    0.0000
     atom:   49    charge:    2.0517    magn:    0.2397    constr:    0.0000
     atom:   50    charge:    0.6737    magn:    0.0547    constr:    0.0000
     atom:   51    charge:    0.4217    magn:    0.0010    constr:    0.0000
     atom:   52    charge:    0.4327    magn:    0.0009    constr:    0.0000
     atom:   53    charge:    0.3675    magn:    0.0233    constr:    0.0000
     atom:   54    charge:    0.4234    magn:    0.0005    constr:    0.0000

     total cpu time spent up to now is     3058.4 secs

     total energy              =   -3021.14955816 Ry
     Harris-Foulkes estimate   =   -3021.14955813 Ry
     estimated scf accuracy    <       0.00000097 Ry

     total magnetization       =     1.06 Bohr mag/cell
     absolute magnetization    =     1.23 Bohr mag/cell

     iteration # 10     ecut=    40.42 Ry     beta=0.10
     Davidson diagonalization with overlap
     ethr =  2.43E-10,  avg # of iterations =  3.0

     negative rho (up, down):  1.190E-02 1.197E-02
 
     Magnetic moment per site:
     atom:    1    charge:    3.1244    magn:   -0.0001    constr:    0.0000
     atom:    2    charge:    2.0897    magn:    0.0001    constr:    0.0000
     atom:    3    charge:    3.1198    magn:   -0.0000    constr:    0.0000
     atom:    4    charge:    2.0867    magn:   -0.0001    constr:    0.0000
     atom:    5    charge:    3.1161    magn:   -0.0003    constr:    0.0000
     atom:    6    charge:    2.0795    magn:    0.0022    constr:    0.0000
     atom:    7    charge:    3.1167    magn:   -0.0053    constr:    0.0000
     atom:    8    charge:    2.0793    magn:    0.0249    constr:    0.0000
     atom:    9    charge:    3.1244    magn:   -0.0001    constr:    0.0000
     atom:   10    charge:    2.0898    magn:    0.0001    constr:    0.0000
     atom:   11    charge:    3.1198    magn:   -0.0000    constr:    0.0000
     atom:   12    charge:    2.0871    magn:   -0.0000    constr:    0.0000
     atom:   13    charge:    3.1150    magn:   -0.0002    constr:    0.0000
     atom:   14    charge:    2.0939    magn:    0.0023    constr:    0.0000
     atom:   15    charge:    3.1184    magn:   -0.0008    constr:    0.0000
     atom:   16    charge:    2.0828    magn:    0.0047    constr:    0.0000
     atom:   17    charge:    2.0624    magn:    0.0008    constr:    0.0000
     atom:   18    charge:    3.1239    magn:   -0.0000    constr:    0.0000
     atom:   19    charge:    2.0875    magn:    0.0000    constr:    0.0000
     atom:   20    charge:    2.0847    magn:    0.0001    constr:    0.0000
     atom:   21    charge:    2.0847    magn:    0.0001    constr:    0.0000
     atom:   22    charge:    3.1199    magn:    0.0000    constr:    0.0000
     atom:   23    charge:    2.0908    magn:    0.0003    constr:    0.0000
     atom:   24    charge:    2.0754    magn:   -0.0000    constr:    0.0000
     atom:   25    charge:    2.0867    magn:    0.0000    constr:    0.0000
     atom:   26    charge:    3.1127    magn:   -0.0003    constr:    0.0000
     atom:   27    charge:    2.0803    magn:    0.0027    constr:    0.0000
     atom:   28    charge:    2.0839    magn:    0.0008    constr:    0.0000
     atom:   29    charge:    2.0860    magn:    0.0009    constr:    0.0000
     atom:   30    charge:    3.1171    magn:   -0.0008    constr:    0.0000
     atom:   31    charge:    2.0825    magn:    0.0006    constr:    0.0000
     atom:   32    charge:    2.0829    magn:    0.0065    constr:    0.0000
     atom:   33    charge:    2.0624    magn:    0.0008    constr:    0.0000
     atom:   34    charge:    3.1239    magn:   -0.0000    constr:    0.0000
     atom:   35    charge:    2.0875    magn:    0.0000    constr:    0.0000
     atom:   36    charge:    2.0847    magn:    0.0001    constr:    0.0000
     atom:   37    charge:    2.0847    magn:    0.0001    constr:    0.0000
     atom:   38    charge:    3.1200    magn:    0.0000    constr:    0.0000
     atom:   39    charge:    2.0839    magn:    0.0002    constr:    0.0000
     atom:   40    charge:    2.0756    magn:   -0.0001    constr:    0.0000
     atom:   41    charge:    2.0870    magn:   -0.0000    constr:    0.0000
     atom:   42    charge:    3.1151    magn:   -0.0003    constr:    0.0000
     atom:   43    charge:    2.0803    magn:    0.0032    constr:    0.0000
     atom:   44    charge:    2.0851    magn:    0.0010    constr:    0.0000
     atom:   45    charge:    2.0858    magn:    0.0006    constr:    0.0000
     atom:   46    charge:    3.1148    magn:   -0.0007    constr:    0.0000
     atom:   47    charge:    2.0806    magn:    0.0047    constr:    0.0000
     atom:   48    charge:    2.0837    magn:    0.0136    constr:    0.0000
     atom:   49    charge:    2.0517    magn:    0.2397    constr:    0.0000
     atom:   50    charge:    0.6737    magn:    0.0547    constr:    0.0000
     atom:   51    charge:    0.4216    magn:    0.0010    constr:    0.0000
     atom:   52    charge:    0.4327    magn:    0.0008    constr:    0.0000
     atom:   53    charge:    0.3675    magn:    0.0233    constr:    0.0000
     atom:   54    charge:    0.4234    magn:    0.0005    constr:    0.0000

     total cpu time spent up to now is     3296.8 secs

     End of self-consistent calculation

 ------ SPIN UP ------------


          k = 0.0000 0.0000 0.0000 ( 34665 PWs)   bands (ev):

   -58.3041 -58.2691 -57.3860 -57.3803 -57.3473 -57.3096 -57.2583 -57.0894
   -57.0628 -57.0572 -57.0187 -56.9202 -56.8956 -56.8850 -56.7993 -56.7608
   -34.7493 -34.5727 -34.5439 -34.5107 -34.4157 -34.3589 -33.8810 -33.8687
   -33.7507 -33.6776 -33.6356 -33.5927 -33.5604 -33.5535 -33.5476 -33.5411
   -33.5295 -33.5146 -33.4892 -33.4878 -33.4733 -33.4717 -33.4689 -33.4500
   -33.3396 -33.3342 -33.3300 -33.3274 -33.3145 -33.2864 -33.2808 -33.2610
   -33.2406 -33.2354 -33.2349 -33.2255 -33.1970 -33.1749 -33.1402 -33.1388
   -33.1008 -33.0772 -33.0489 -33.0272 -33.0137 -32.9881 -32.9472 -32.8805
   -18.4693 -18.0365 -17.8122 -17.7118 -17.5513 -17.5298 -17.4858 -17.3841
   -17.3574 -17.2573 -17.0453 -17.0245 -17.0167 -16.9852 -16.9245 -16.8545
   -16.8353 -16.7980 -16.7401 -16.7079 -16.6893 -16.6568 -16.5928 -16.5887
   -16.4659 -16.4182 -16.3991 -16.3616 -16.3256 -16.1459 -16.0850 -15.5995
   -15.5387 -11.2317  -6.0479  -5.4967  -5.2826  -5.2027  -5.0939  -4.9920
    -4.9818  -4.9213  -4.8786  -4.7327  -4.6499  -4.5996  -4.5855  -4.5103
    -4.4290  -4.4137  -4.3524  -4.3163  -4.2347  -4.2189  -4.1986  -4.1420
    -4.0311  -4.0244  -3.9812  -3.9082  -3.8921  -3.8860  -3.8835  -3.8363
    -3.7766  -3.7562  -3.7220  -3.6766  -3.6311  -3.5831  -3.5418  -3.5278
    -3.5176  -3.4186  -3.4078  -3.3609  -3.2727  -3.2326  -3.1882  -3.0868
    -2.9215  -2.8966  -2.8507  -2.8028  -2.7456  -2.6936  -2.6719  -2.6613
    -2.6333  -2.5365  -2.4879  -2.4386  -2.3775  -2.3326  -2.2485  -2.2290
    -2.2246  -2.1598  -2.0686  -2.0409  -1.9984  -1.9590  -1.9295  -1.8986
    -1.8533  -1.7370  -1.6934  -1.6678  -1.6402  -1.6301  -1.5857  -1.5035
    -1.4204  -1.3666  -1.3523  -1.3373  -1.3137  -1.2679  -1.2234  -1.1700
    -1.1595  -1.1102  -1.1076  -1.0924  -1.0626  -0.9794  -0.8729  -0.8318
    -0.8080  -0.6928  -0.6866  -0.6237  -0.5518  -0.5104  -0.4827  -0.1861
     1.0267   1.1235   1.4184   1.6968   1.8049   1.9229   1.9704   2.0170
     2.0471   2.1344   2.2110   2.2318   2.2779   2.3968   2.4720   2.4857
     2.4930   2.5200   2.6227   2.6680   2.6729   2.6895   2.7117   2.8284
     2.8433   2.8879   2.9022   2.9552   2.9698   3.0228   3.0313   3.0530
     3.1068   3.1621   3.2005   3.2014   3.2491   3.2570   3.4127   3.4477
     3.4797   3.5219   3.5991   3.6277   3.6716   3.7157   3.8302   3.9575
     4.1054   4.1369   4.3279   4.4741   4.5959   4.7080   4.7858   4.8362
     5.0862   5.1342   5.2111   5.3549   5.3990   5.4047   5.4268   5.4343
     5.4496   5.5240   5.5561   5.6637   5.7201   5.7363   5.9076   5.9201
     5.9568   6.0764   6.0955   6.1378   6.2186   6.2969   6.4238   6.4910
     6.5440   6.5659   6.7838   6.8155   7.2126   7.9139   8.1539   8.1777
     8.3474   8.3905   8.6624   8.7179   8.7536   8.9754   9.1472   9.2437
     9.2944   9.4515   9.6227

          k = 0.0000 0.0280 0.0000 ( 34717 PWs)   bands (ev):

   -58.3018 -58.2714 -57.3843 -57.3787 -57.3496 -57.3107 -57.2579 -57.0892
   -57.0628 -57.0555 -57.0208 -56.9179 -56.8958 -56.8873 -56.7968 -56.7633
   -34.7239 -34.5707 -34.5458 -34.5045 -34.4222 -34.3859 -33.8556 -33.8432
   -33.7298 -33.6713 -33.6294 -33.5902 -33.5674 -33.5499 -33.5419 -33.5337
   -33.5287 -33.5165 -33.5132 -33.4961 -33.4883 -33.4717 -33.4634 -33.4437
   -33.3339 -33.3279 -33.3147 -33.3124 -33.3080 -33.3030 -33.2783 -33.2593
   -33.2453 -33.2372 -33.2355 -33.2249 -33.2012 -33.1989 -33.1464 -33.1328
   -33.1127 -33.0738 -33.0551 -33.0272 -33.0135 -32.9929 -32.9746 -32.9092
   -18.4110 -17.9768 -17.7623 -17.6816 -17.6061 -17.5066 -17.4368 -17.3720
   -17.3262 -17.2880 -17.0963 -17.0036 -16.9954 -16.9743 -16.9271 -16.8759
   -16.7960 -16.7736 -16.7610 -16.7357 -16.7072 -16.6819 -16.6180 -16.5663
   -16.4800 -16.4435 -16.4059 -16.3849 -16.3578 -16.1648 -16.1266 -15.6136
   -15.5642 -11.2327  -5.9625  -5.4125  -5.2032  -5.1321  -5.0238  -4.9565
    -4.9254  -4.8994  -4.8076  -4.7292  -4.6684  -4.6536  -4.5266  -4.5157
    -4.4165  -4.3767  -4.3629  -4.3231  -4.2577  -4.2146  -4.1996  -4.1778
    -4.0995  -4.0683  -4.0174  -4.0042  -3.9783  -3.9709  -3.9221  -3.8615
    -3.8148  -3.7761  -3.7537  -3.7230  -3.7074  -3.6461  -3.5572  -3.4388
    -3.4036  -3.3205  -3.3049  -3.3003  -3.2677  -3.1244  -3.1041  -2.9446
    -2.9035  -2.8822  -2.8016  -2.7485  -2.7440  -2.7211  -2.6888  -2.6513
    -2.5982  -2.5171  -2.4578  -2.4435  -2.4158  -2.2796  -2.2551  -2.2229
    -2.2121  -2.1527  -2.1444  -2.0277  -1.9835  -1.9574  -1.9253  -1.9130
    -1.8732  -1.7670  -1.7578  -1.7186  -1.6800  -1.6098  -1.5820  -1.5716
    -1.5012  -1.4598  -1.3907  -1.3776  -1.3745  -1.3578  -1.2843  -1.2711
    -1.2347  -1.1744  -1.1451  -1.0692  -0.9929  -0.9528  -0.9274  -0.8965
    -0.8759  -0.8387  -0.7291  -0.5989  -0.5725  -0.5588  -0.5387  -0.2272
     1.1594   1.1645   1.4196   1.8331   1.8774   1.8948   1.9274   2.0038
     2.0623   2.0803   2.3013   2.3096   2.3423   2.4594   2.4954   2.5159
     2.5237   2.5456   2.5504   2.5990   2.7160   2.7338   2.8039   2.8151
     2.8371   2.9015   2.9380   2.9662   2.9828   2.9957   3.0168   3.0676
     3.0879   3.1242   3.1776   3.2363   3.2488   3.3291   3.4375   3.4783
     3.5141   3.5449   3.5670   3.5901   3.6452   3.6686   3.7885   3.9097
     4.0597   4.2040   4.2842   4.5274   4.7066   4.7092   4.8159   4.9113
     5.1131   5.1747   5.2572   5.3042   5.3741   5.4135   5.4363   5.4799
     5.5084   5.5376   5.5511   5.6630   5.7061   5.7154   5.8244   5.8855
     5.9470   5.9932   6.0378   6.0526   6.1819   6.2526   6.3900   6.4353
     6.4526   6.5554   6.7265   6.8182   7.3185   7.4543   7.9981   8.0676
     8.3442   8.4990   8.5298   8.7130   8.7811   8.9880   9.1165   9.3074
     9.3669   9.4450   9.5245

          k = 0.0000 0.0560 0.0000 ( 34721 PWs)   bands (ev):

   -58.2954 -58.2778 -57.3809 -57.3735 -57.3560 -57.3129 -57.2571 -57.0888
   -57.0633 -57.0509 -57.0257 -56.9115 -56.8963 -56.8938 -56.7901 -56.7701
   -34.6540 -34.5655 -34.5510 -34.4873 -34.4590 -34.4398 -33.7858 -33.7738
   -33.6792 -33.6543 -33.6127 -33.5905 -33.5898 -33.5839 -33.5692 -33.5658
   -33.5378 -33.5288 -33.5115 -33.4930 -33.4697 -33.4649 -33.4616 -33.4095
   -33.3684 -33.3237 -33.3213 -33.3064 -33.2798 -33.2699 -33.2546 -33.2545
   -33.2533 -33.2450 -33.2419 -33.2236 -33.2161 -33.2083 -33.1639 -33.1321
   -33.1166 -33.0717 -33.0709 -33.0485 -33.0266 -33.0134 -33.0050 -32.9797
   -18.2499 -17.8122 -17.7898 -17.6324 -17.5988 -17.4089 -17.3898 -17.3716
   -17.3062 -17.2638 -17.2294 -17.0430 -16.9867 -16.9195 -16.9158 -16.8985
   -16.8400 -16.8151 -16.7266 -16.7032 -16.6977 -16.6719 -16.6217 -16.5592
   -16.5127 -16.5072 -16.4515 -16.4395 -16.4128 -16.2302 -16.2072 -15.6421
   -15.6179 -11.2344  -5.7231  -5.1797  -5.0439  -4.9872  -4.9518  -4.9187
    -4.8467  -4.8308  -4.8133  -4.7696  -4.7314  -4.5519  -4.5064  -4.4637
    -4.3920  -4.3909  -4.3493  -4.3183  -4.3039  -4.2857  -4.2479  -4.2115
    -4.2070  -4.1902  -4.1287  -4.0585  -4.0148  -3.9820  -3.9636  -3.9075
    -3.8807  -3.8172  -3.7819  -3.7047  -3.6342  -3.5460  -3.4111  -3.4037
    -3.3634  -3.2852  -3.2454  -3.1339  -3.0878  -3.0689  -3.0376  -3.0092
    -2.9658  -2.9557  -2.8255  -2.7950  -2.7388  -2.6945  -2.6492  -2.5562
    -2.4813  -2.4730  -2.4388  -2.3533  -2.3003  -2.2947  -2.2197  -2.1863
    -2.1512  -2.1372  -2.1174  -2.0848  -2.0521  -2.0082  -1.9934  -1.9675
    -1.9315  -1.8897  -1.8792  -1.8589  -1.8104  -1.7502  -1.6550  -1.6054
    -1.5931  -1.5759  -1.5104  -1.4716  -1.4494  -1.4439  -1.4294  -1.3747
    -1.2901  -1.2693  -1.2128  -1.1925  -1.0877  -1.0010  -0.9761  -0.9423
    -0.8577  -0.8342  -0.7356  -0.7140  -0.6187  -0.5803  -0.5625  -0.3305
     1.2883   1.4300   1.5027   1.7239   1.8006   1.8936   1.9643   2.0621
     2.1426   2.2783   2.2834   2.3352   2.4192   2.4884   2.5076   2.5338
     2.5748   2.6140   2.6645   2.7114   2.7549   2.7722   2.8034   2.8518
     2.8673   2.8861   2.8958   2.9657   3.0121   3.0302   3.0392   3.0659
     3.1271   3.1603   3.1836   3.2619   3.3103   3.3417   3.3885   3.4363
     3.4740   3.4897   3.5655   3.6135   3.6766   3.6885   3.7281   3.8041
     3.9265   4.1615   4.3263   4.6546   4.7449   4.8453   4.9369   5.0747
     5.0808   5.1778   5.2846   5.3359   5.4041   5.4395   5.4727   5.5019
     5.5023   5.5642   5.5838   5.6502   5.6552   5.7559   5.7743   5.8146
     5.8514   5.8699   5.8906   5.9331   6.1196   6.1599   6.2987   6.3710
     6.4263   6.4443   6.7217   6.7500   6.9997   7.2151   7.6111   7.7451
     8.1994   8.3764   8.7045   8.8233   8.8439   8.8957   9.1829   9.3483
     9.4259   9.5984   9.7069

          k = 0.0000-0.0840 0.0000 ( 34678 PWs)   bands (ev):

   -58.2873 -58.2859 -57.3793 -57.3672 -57.3629 -57.3141 -57.2567 -57.0886
   -57.0636 -57.0476 -57.0292 -56.9030 -56.9023 -56.8965 -56.7833 -56.7769
   -34.5591 -34.5581 -34.5572 -34.5566 -34.4642 -34.4630 -33.7020 -33.6888
   -33.6852 -33.6464 -33.6451 -33.6393 -33.6077 -33.5916 -33.5875 -33.5768
   -33.5362 -33.5306 -33.5110 -33.5023 -33.4667 -33.4603 -33.3985 -33.3836
   -33.3785 -33.3626 -33.3252 -33.3205 -33.3033 -33.2720 -33.2590 -33.2501
   -33.2484 -33.2479 -33.2235 -33.2215 -33.1731 -33.1482 -33.1473 -33.1398
   -33.1252 -33.1229 -33.0946 -33.0939 -33.0270 -33.0187 -33.0158 -33.0099
   -18.0248 -18.0241 -17.5923 -17.5831 -17.5094 -17.4856 -17.4853 -17.3950
   -17.2580 -17.2173 -17.1298 -17.1043 -17.0723 -17.0372 -16.8924 -16.8447
   -16.8076 -16.8073 -16.8059 -16.6745 -16.6126 -16.6093 -16.6030 -16.5790
   -16.5475 -16.5248 -16.5071 -16.4748 -16.4657 -16.2727 -16.2485 -15.6514
   -15.6514 -11.2353  -5.3835  -5.3833  -4.9158  -4.8873  -4.8863  -4.8736
    -4.8514  -4.7698  -4.7582  -4.7191  -4.6584  -4.6040  -4.5667  -4.5601
    -4.4914  -4.4689  -4.4457  -4.3914  -4.3757  -4.2655  -4.2533  -4.2455
    -4.1583  -4.1163  -4.0665  -4.0357  -3.9920  -3.9095  -3.8887  -3.8821
    -3.7884  -3.7567  -3.6824  -3.6734  -3.6667  -3.6483  -3.6230  -3.4117
    -3.3611  -3.3480  -3.1518  -3.0769  -3.0710  -3.0333  -2.9275  -2.9264
    -2.9170  -2.8494  -2.8263  -2.7910  -2.7734  -2.6941  -2.6689  -2.6451
    -2.5223  -2.5016  -2.4197  -2.4034  -2.3953  -2.3732  -2.3103  -2.2422
    -2.2269  -2.1651  -2.1186  -2.0562  -2.0051  -1.9792  -1.9751  -1.9698
    -1.9654  -1.9412  -1.8372  -1.7979  -1.7777  -1.7277  -1.6916  -1.6562
    -1.6403  -1.6094  -1.5904  -1.5164  -1.5070  -1.4647  -1.4451  -1.4218
    -1.3810  -1.3303  -1.2777  -1.1773  -1.1370  -1.1157  -1.0898  -1.0606
    -0.8374  -0.8139  -0.6166  -0.6076  -0.6025  -0.5944  -0.5454  -0.4969
     1.4845   1.4872   1.6368   1.6374   1.7164   1.7173   2.0874   2.0882
     2.1514   2.2064   2.3771   2.4118   2.4483   2.4944   2.5422   2.5498
     2.6567   2.6685   2.6779   2.6917   2.7437   2.7541   2.8118   2.8146
     2.9144   2.9496   2.9931   3.0209   3.0259   3.0288   3.0353   3.0387
     3.0460   3.2271   3.2366   3.2672   3.2997   3.3417   3.3680   3.3981
     3.4353   3.4502   3.5053   3.6273   3.6981   3.7372   3.7517   3.7938
     3.8479   4.0387   4.3787   4.7590   4.8345   4.8681   4.8688   5.0543
     5.1465   5.2259   5.3167   5.3326   5.3672   5.4102   5.4707   5.5452
     5.5670   5.5987   5.6016   5.6890   5.7017   5.7209   5.7314   5.7449
     5.7704   5.8112   5.8443   5.9450   6.0278   6.1599   6.2891   6.3860
     6.4626   6.4791   6.5895   6.6077   6.9343   6.9831   7.4527   7.6139
     8.0293   8.2390   8.7166   8.9413   9.1453   9.2275   9.3480   9.3495
     9.4577   9.6162   9.7030

          k = 0.0253 0.0000 0.0000 ( 34707 PWs)   bands (ev):

   -58.3041 -58.2691 -57.3856 -57.3807 -57.3473 -57.3096 -57.2583 -57.0894
   -57.0625 -57.0574 -57.0187 -56.9202 -56.8956 -56.8850 -56.7993 -56.7608
   -34.7497 -34.5727 -34.5439 -34.5099 -34.4158 -34.3589 -33.8813 -33.8706
   -33.7508 -33.6697 -33.6355 -33.5928 -33.5638 -33.5539 -33.5498 -33.5413
   -33.5296 -33.5179 -33.4889 -33.4879 -33.4726 -33.4694 -33.4674 -33.4502
   -33.3395 -33.3352 -33.3279 -33.3265 -33.3115 -33.2864 -33.2809 -33.2621
   -33.2460 -33.2349 -33.2348 -33.2254 -33.1971 -33.1751 -33.1388 -33.1387
   -33.1003 -33.0773 -33.0489 -33.0313 -33.0127 -32.9881 -32.9473 -32.8806
   -18.4247 -17.9986 -17.7904 -17.7844 -17.5610 -17.4568 -17.4489 -17.3834
   -17.3619 -17.3211 -17.1064 -17.0381 -17.0131 -16.9796 -16.9272 -16.8919
   -16.8574 -16.7945 -16.7643 -16.7423 -16.6384 -16.5962 -16.5868 -16.5791
   -16.4641 -16.4433 -16.3997 -16.3835 -16.3232 -16.1443 -16.0852 -15.5985
   -15.5385 -11.2317  -5.9230  -5.3902  -5.2144  -5.1992  -5.0738  -5.0242
    -4.9702  -4.9244  -4.8801  -4.7346  -4.6979  -4.5834  -4.5797  -4.5122
    -4.4844  -4.4087  -4.3275  -4.2643  -4.2580  -4.1999  -4.1948  -4.1047
    -4.0294  -3.9967  -3.9896  -3.9152  -3.8995  -3.8577  -3.8478  -3.8137
    -3.7568  -3.7169  -3.6739  -3.6013  -3.5670  -3.5535  -3.5230  -3.5029
    -3.4453  -3.4143  -3.3185  -3.3160  -3.2734  -3.2575  -3.2373  -3.1512
    -3.0122  -2.9019  -2.8379  -2.8176  -2.7712  -2.7429  -2.6998  -2.6699
    -2.6113  -2.5579  -2.5401  -2.4995  -2.4348  -2.3812  -2.3321  -2.2657
    -2.2475  -2.1983  -2.0901  -2.0451  -2.0042  -1.9554  -1.8826  -1.8501
    -1.8267  -1.7976  -1.7122  -1.6242  -1.5783  -1.5704  -1.5446  -1.5083
    -1.4769  -1.4323  -1.4282  -1.3924  -1.3335  -1.3023  -1.2910  -1.2205
    -1.1856  -1.1549  -1.1052  -1.0808  -1.0410  -1.0218  -0.9556  -0.9109
    -0.8337  -0.8260  -0.6700  -0.6431  -0.6059  -0.5883  -0.5569  -0.2456
     1.1093   1.1239   1.4175   1.7843   1.8205   1.9057   1.9320   2.0511
     2.0871   2.1190   2.2054   2.2462   2.3396   2.3849   2.4432   2.5072
     2.5295   2.5981   2.6302   2.6495   2.6797   2.7050   2.8138   2.8278
     2.8481   2.8514   2.8928   2.9020   2.9469   3.0284   3.0770   3.1354
     3.1923   3.2042   3.2173   3.2192   3.2436   3.3110   3.4085   3.4446
     3.4903   3.5458   3.5943   3.6363   3.7011   3.7656   3.7871   3.9108
     4.0540   4.1929   4.2660   4.4272   4.5829   4.6256   4.8112   4.8298
     4.9612   4.9856   5.0888   5.1723   5.3052   5.3183   5.4296   5.5312
     5.5599   5.7111   5.7435   5.9069   5.9150   5.9401   5.9632   5.9879
     6.0254   6.0347   6.0715   6.1712   6.2300   6.2624   6.4420   6.4975
     6.5447   6.6182   6.7417   6.8124   7.2586   7.6755   7.7600   8.0181
     8.2278   8.3024   8.3775   8.7026   8.7598   8.9765   9.1161   9.2170
     9.3997   9.5050   9.7775

          k = 0.0253 0.0280 0.0000 ( 34687 PWs)   bands (ev):

   -58.3018 -58.2714 -57.3840 -57.3790 -57.3496 -57.3107 -57.2579 -57.0892
   -57.0627 -57.0557 -57.0208 -56.9179 -56.8958 -56.8873 -56.7968 -56.7633
   -34.7242 -34.5707 -34.5458 -34.5037 -34.4221 -34.3859 -33.8558 -33.8452
   -33.7299 -33.6636 -33.6294 -33.5903 -33.5645 -33.5503 -33.5470 -33.5371
   -33.5292 -33.5174 -33.5157 -33.4957 -33.4884 -33.4657 -33.4637 -33.4443
   -33.3341 -33.3239 -33.3146 -33.3139 -33.3044 -33.3028 -33.2784 -33.2603
   -33.2496 -33.2366 -33.2355 -33.2265 -33.2008 -33.1989 -33.1446 -33.1329
   -33.1130 -33.0738 -33.0551 -33.0293 -33.0137 -32.9929 -32.9746 -32.9092
   -18.3674 -17.9403 -17.7728 -17.7368 -17.5203 -17.5180 -17.4103 -17.3652
   -17.3484 -17.3167 -17.1108 -17.0677 -16.9967 -16.9657 -16.9165 -16.8746
   -16.8277 -16.8024 -16.7930 -16.7306 -16.6677 -16.6639 -16.6113 -16.5472
   -16.4855 -16.4631 -16.4079 -16.4032 -16.3548 -16.1630 -16.1273 -15.6126
   -15.5642 -11.2325  -5.8380  -5.3068  -5.1413  -5.1255  -4.9906  -4.9545
    -4.9268  -4.9050  -4.8194  -4.6952  -4.6743  -4.6330  -4.5310  -4.4954
    -4.4367  -4.3989  -4.3105  -4.2916  -4.2415  -4.2082  -4.1807  -4.1531
    -4.1242  -4.0926  -4.0297  -3.9957  -3.9523  -3.9404  -3.8965  -3.8260
    -3.7977  -3.7697  -3.7217  -3.7013  -3.6401  -3.6107  -3.5277  -3.4014
    -3.3434  -3.3223  -3.3129  -3.2644  -3.2340  -3.1897  -3.1150  -3.0938
    -2.9274  -2.8920  -2.8376  -2.7770  -2.7476  -2.7088  -2.6774  -2.6374
    -2.6082  -2.5216  -2.4981  -2.4686  -2.4500  -2.3808  -2.3275  -2.3028
    -2.2261  -2.1867  -2.1269  -2.0625  -2.0127  -1.9517  -1.9350  -1.9069
[...]
    -1.7276  -1.5052  -1.4630  -1.4519  -1.4336  -1.3961  -1.3168  -1.1527
    -1.1425  -1.0858  -1.0682  -1.0525  -0.9689  -0.9090  -0.8700  -0.7854
    -0.7319  -0.7250  -0.6958  -0.6685  -0.5936  -0.5718  -0.5581   0.3008
     1.6035   1.6069   1.6195   1.6249   1.9673   1.9681   2.0970   2.0980
     2.2807   2.3015   2.3148   2.3965   2.4196   2.4895   2.5762   2.6355
     2.6575   2.7021   2.7855   2.8189   2.8756   2.9276   2.9497   2.9776
     2.9923   3.0008   3.0418   3.0998   3.1141   3.2112   3.2369   3.2458
     3.2616   3.2855   3.3428   3.3889   3.4026   3.4078   3.4643   3.4754
     3.4856   3.5134   3.5279   3.5814   3.6387   3.6564   3.7786   3.8798
     3.9156   3.9259   4.1422   4.1427   4.5927   4.6218   4.6443   4.7297
     4.8848   4.9008   4.9334   5.0837   5.1628   5.1678   5.1869   5.4478
     5.6756   5.6846   5.6956   5.9282   5.9336   5.9674   6.0182   6.0211
     6.0960   6.1077   6.1772   6.2681   6.2725   6.2804   6.3850   6.4623
     6.5018   6.6083   7.0750   7.2433   7.3389   7.3936   7.5546   7.5889
     7.7174   7.7708   7.9242   8.1098   8.2941   8.3388   8.4552   8.8704
     9.0097   9.0631   9.2159

          k =-0.0253 0.0280 0.0000 ( 34687 PWs)   bands (ev):

   -58.3020 -58.2716 -57.3840 -57.3790 -57.3496 -57.3107 -57.2587 -57.0933
   -57.0639 -57.0569 -57.0220 -56.9201 -56.9187 -56.8881 -56.8004 -56.7670
   -34.7244 -34.5709 -34.5460 -34.5038 -34.4223 -34.3861 -33.8558 -33.8453
   -33.7308 -33.6637 -33.6293 -33.5905 -33.5645 -33.5504 -33.5469 -33.5379
   -33.5300 -33.5174 -33.5157 -33.4957 -33.4893 -33.4663 -33.4653 -33.4467
   -33.3349 -33.3255 -33.3181 -33.3153 -33.3092 -33.3042 -33.2799 -33.2610
   -33.2503 -33.2373 -33.2370 -33.2282 -33.2118 -33.2014 -33.1647 -33.1336
   -33.1314 -33.0771 -33.0558 -33.0369 -33.0178 -32.9962 -32.9754 -32.9119
   -18.3671 -17.9380 -17.7726 -17.7305 -17.5197 -17.5132 -17.3720 -17.3651
   -17.3418 -17.3120 -17.1084 -17.0655 -16.9807 -16.9357 -16.8696 -16.8269
   -16.7888 -16.7470 -16.7294 -16.6660 -16.6594 -16.5795 -16.5403 -16.4819
   -16.4578 -16.4020 -16.3625 -16.3446 -16.1525 -16.1179 -15.8797 -15.6090
   -15.5603 -10.8331  -5.8380  -5.3065  -5.1404  -5.1223  -4.9904  -4.9494
    -4.9105  -4.8216  -4.6952  -4.6744  -4.6332  -4.5330  -4.4950  -4.4386
    -4.4050  -4.3103  -4.2869  -4.2468  -4.1985  -4.1793  -4.1387  -4.1240
    -4.0902  -4.0437  -4.0078  -3.9887  -3.9528  -3.9102  -3.8772  -3.7975
    -3.7830  -3.7209  -3.7080  -3.6413  -3.6141  -3.5654  -3.5090  -3.3912
    -3.3415  -3.3174  -3.2922  -3.2601  -3.2215  -3.1799  -3.1101  -3.0931
    -2.9170  -2.8796  -2.8197  -2.7747  -2.7188  -2.6834  -2.6714  -2.6144
    -2.5851  -2.5061  -2.4966  -2.4394  -2.4079  -2.3554  -2.2850  -2.2626
    -2.2109  -2.1893  -2.1015  -2.0396  -1.9567  -1.9378  -1.9134  -1.8475
    -1.8364  -1.7883  -1.7427  -1.6821  -1.6328  -1.5922  -1.5594  -1.5079
    -1.4737  -1.4328  -1.4039  -1.3779  -1.3588  -1.3432  -1.3116  -1.2878
    -1.2023  -1.1217  -1.0610  -1.0078  -0.9841  -0.9509  -0.9265  -0.8820
    -0.8402  -0.8175  -0.6288  -0.6071  -0.5827  -0.5194  -0.2623   0.3244
     1.1553   1.2489   1.4330   1.8222   1.8617   1.9288   1.9653   2.0328
     2.0438   2.1930   2.3037   2.3495   2.3910   2.4340   2.4574   2.5074
     2.5276   2.5518   2.5927   2.6530   2.7011   2.7253   2.7811   2.8353
     2.8802   2.9172   2.9337   2.9769   2.9942   3.0180   3.0441   3.0969
     3.1740   3.1945   3.2370   3.2622   3.2977   3.3400   3.4331   3.4682
     3.4983   3.5617   3.6151   3.6460   3.6670   3.7475   3.8245   3.8689
     4.0159   4.2121   4.2882   4.4393   4.6280   4.7263   4.8472   4.8644
     5.0048   5.0287   5.1160   5.2013   5.2443   5.3594   5.4638   5.5518
     5.6630   5.6982   5.7180   5.8064   5.8532   5.8864   5.9125   5.9348
     5.9698   5.9930   6.0679   6.1269   6.1783   6.2852   6.4015   6.4519
     6.4653   6.5842   6.7550   6.8114   7.3774   7.4868   7.7980   7.8913
     8.0997   8.2358   8.4893   8.5356   8.7869   8.8932   9.0792   9.3126
     9.3780   9.5327   9.6175

          k =-0.0253 0.0560 0.0000 ( 34699 PWs)   bands (ev):

   -58.2956 -58.2780 -57.3808 -57.3737 -57.3560 -57.3130 -57.2580 -57.0928
   -57.0645 -57.0522 -57.0269 -56.9206 -56.9122 -56.8946 -56.7937 -56.7737
   -34.6545 -34.5657 -34.5512 -34.4869 -34.4593 -34.4397 -33.7860 -33.7761
   -33.6801 -33.6484 -33.6126 -33.5890 -33.5850 -33.5840 -33.5726 -33.5658
   -33.5395 -33.5296 -33.5162 -33.4943 -33.4813 -33.4639 -33.4533 -33.4126
   -33.3697 -33.3228 -33.3192 -33.3106 -33.2818 -33.2723 -33.2560 -33.2558
   -33.2548 -33.2456 -33.2423 -33.2289 -33.2189 -33.2134 -33.1800 -33.1606
   -33.1173 -33.0742 -33.0725 -33.0493 -33.0338 -33.0202 -33.0083 -32.9825
   -18.2094 -17.7995 -17.7777 -17.6090 -17.5977 -17.4535 -17.3910 -17.3672
   -17.2462 -17.2389 -17.2013 -17.0555 -16.9458 -16.9169 -16.8787 -16.8379
   -16.7951 -16.7412 -16.7305 -16.7152 -16.6810 -16.5954 -16.5455 -16.5287
   -16.4975 -16.4388 -16.4086 -16.4040 -16.2144 -16.1989 -15.8785 -15.6377
   -15.6141 -10.8350  -5.6028  -5.0792  -5.0216  -4.9535  -4.9212  -4.8148
    -4.7927  -4.7554  -4.6852  -4.6708  -4.5235  -4.5067  -4.4436  -4.3930
    -4.3751  -4.3668  -4.3184  -4.2744  -4.2476  -4.2376  -4.2024  -4.1709
    -4.1299  -4.1191  -4.0527  -4.0182  -3.9923  -3.9544  -3.9266  -3.8874
    -3.8284  -3.7984  -3.7238  -3.6233  -3.5646  -3.5349  -3.4612  -3.3821
    -3.3643  -3.2897  -3.1853  -3.1584  -3.1187  -3.1093  -3.0572  -3.0217
    -2.9807  -2.9243  -2.8412  -2.7910  -2.7597  -2.7022  -2.6074  -2.5884
    -2.5221  -2.5078  -2.4550  -2.3889  -2.3734  -2.3154  -2.2976  -2.2564
    -2.1858  -2.1329  -2.1186  -2.0865  -2.0462  -2.0040  -1.9827  -1.9460
    -1.9285  -1.9033  -1.8905  -1.8438  -1.7653  -1.6998  -1.6873  -1.5912
    -1.5699  -1.5417  -1.5158  -1.4822  -1.4408  -1.4105  -1.3813  -1.3223
    -1.2869  -1.2197  -1.1525  -1.0311  -1.0019  -0.9675  -0.9349  -0.8548
    -0.7607  -0.7332  -0.7023  -0.6375  -0.6066  -0.5530  -0.3596   0.3056
     1.2896   1.4716   1.5669   1.7609   1.7763   1.9146   1.9813   2.0609
     2.2680   2.2786   2.3452   2.3815   2.4180   2.4902   2.5253   2.5508
     2.5756   2.5990   2.6565   2.7089   2.7239   2.7675   2.8100   2.8597
     2.8854   2.9203   2.9646   3.0099   3.0357   3.0491   3.0590   3.1125
     3.1620   3.2018   3.2210   3.2917   3.3206   3.3490   3.3808   3.4606
     3.5123   3.5375   3.6154   3.6369   3.6713   3.7301   3.7490   3.8027
     3.8986   4.1024   4.3953   4.5037   4.7188   4.8619   4.9129   4.9640
     4.9984   5.0927   5.1899   5.2106   5.3385   5.3906   5.4368   5.5313
     5.5673   5.6022   5.6547   5.7124   5.7418   5.8067   5.8231   5.8634
     5.9302   5.9459   5.9991   6.0930   6.1357   6.2143   6.3312   6.4343
     6.4605   6.4775   6.7213   6.7714   7.0773   7.3000   7.6710   7.8297
     8.1066   8.2339   8.3235   8.4885   8.7741   8.8981   9.0088   9.1901
     9.3724   9.5558   9.6569

          k =-0.0506 0.0280 0.0000 ( 34685 PWs)   bands (ev):

   -58.3020 -58.2716 -57.3831 -57.3799 -57.3496 -57.3108 -57.2587 -57.0933
   -57.0636 -57.0573 -57.0220 -56.9200 -56.9187 -56.8881 -56.8004 -56.7670
   -34.7252 -34.5709 -34.5460 -34.5023 -34.4223 -34.3862 -33.8562 -33.8493
   -33.7310 -33.6441 -33.6292 -33.5906 -33.5696 -33.5522 -33.5509 -33.5432
   -33.5303 -33.5248 -33.5146 -33.4956 -33.4895 -33.4665 -33.4540 -33.4477
   -33.3350 -33.3188 -33.3173 -33.3152 -33.3050 -33.3038 -33.2801 -33.2630
   -33.2602 -33.2371 -33.2363 -33.2311 -33.2120 -33.2009 -33.1607 -33.1336
   -33.1316 -33.0772 -33.0558 -33.0438 -33.0162 -32.9962 -32.9754 -32.9119
   -18.2588 -17.8607 -17.8483 -17.6977 -17.5843 -17.4522 -17.4346 -17.3410
   -17.3138 -17.2473 -17.1770 -17.0829 -16.9934 -16.9482 -16.9194 -16.8920
   -16.8070 -16.7641 -16.7529 -16.6930 -16.6299 -16.5462 -16.5195 -16.4860
   -16.4578 -16.4029 -16.3865 -16.3495 -16.1489 -16.1183 -15.8805 -15.6071
   -15.5604 -10.8329  -5.5366  -5.1840  -5.1507  -5.1176  -4.9460  -4.8663
    -4.7644  -4.7064  -4.6793  -4.6491  -4.5981  -4.5840  -4.5298  -4.4041
    -4.3598  -4.3199  -4.2386  -4.2127  -4.1774  -4.1622  -4.1452  -4.0536
    -4.0285  -4.0091  -3.9718  -3.9254  -3.8845  -3.8359  -3.8128  -3.7861
    -3.7209  -3.6724  -3.6637  -3.6041  -3.5688  -3.5337  -3.4858  -3.4548
    -3.3799  -3.3664  -3.3038  -3.2621  -3.2010  -3.1479  -3.1157  -3.0550
    -3.0065  -2.9774  -2.8989  -2.8336  -2.7552  -2.6955  -2.6862  -2.6641
    -2.6137  -2.5908  -2.5783  -2.5225  -2.5137  -2.3910  -2.3381  -2.3296
    -2.2675  -2.1980  -2.1826  -2.1560  -2.0778  -2.0075  -2.0012  -1.9401
    -1.9210  -1.8911  -1.8079  -1.7191  -1.7060  -1.6817  -1.6120  -1.5831
    -1.5210  -1.4734  -1.4510  -1.3909  -1.3760  -1.3242  -1.3086  -1.2577
    -1.2412  -1.1180  -1.0549  -1.0319  -1.0078  -0.9537  -0.9217  -0.8737
    -0.8252  -0.7938  -0.7176  -0.6787  -0.6574  -0.5332  -0.3884   0.3092
     1.1423   1.3422   1.4673   1.5682   1.9361   1.9461   1.9686   2.0604
     2.1266   2.2014   2.2563   2.3321   2.4082   2.4422   2.5308   2.5484
     2.5948   2.6531   2.6898   2.7034   2.7572   2.8308   2.8537   2.8841
     2.9427   2.9486   2.9822   2.9869   2.9935   3.1043   3.1115   3.1401
     3.1878   3.2169   3.2921   3.3125   3.3579   3.3849   3.4089   3.4573
     3.4717   3.5500   3.6044   3.6694   3.7447   3.7815   3.8013   3.9029
     3.9606   4.0638   4.1115   4.4095   4.5126   4.6583   4.7501   4.8115
     4.8440   4.9162   4.9685   5.2909   5.3314   5.4139   5.5292   5.5616
     5.6428   5.7690   5.7889   5.8558   5.9010   5.9154   5.9670   6.0580
     6.0961   6.1677   6.2524   6.3365   6.3889   6.4021   6.4452   6.4923
     6.5436   6.5540   6.7137   6.9190   7.0756   7.2229   7.5524   7.6089
     7.7295   8.2274   8.4117   8.4882   8.8687   8.9431   9.0646   9.2191
     9.4284   9.6090   9.6787

          k =-0.0506 0.0560 0.0000 ( 34596 PWs)   bands (ev):

   -58.2956 -58.2780 -57.3804 -57.3740 -57.3560 -57.3130 -57.2580 -57.0928
   -57.0643 -57.0524 -57.0270 -56.9206 -56.9122 -56.8946 -56.7937 -56.7737
   -34.6551 -34.5657 -34.5512 -34.4855 -34.4595 -34.4393 -33.7863 -33.7806
   -33.6802 -33.6326 -33.6124 -33.5882 -33.5866 -33.5838 -33.5670 -33.5658
   -33.5428 -33.5298 -33.5283 -33.4945 -33.4905 -33.4640 -33.4416 -33.4142
   -33.3701 -33.3226 -33.3082 -33.3056 -33.2843 -33.2744 -33.2572 -33.2556
   -33.2545 -33.2455 -33.2418 -33.2389 -33.2196 -33.2137 -33.1794 -33.1564
   -33.1173 -33.0743 -33.0724 -33.0492 -33.0380 -33.0209 -33.0082 -32.9823
   -18.1062 -17.8172 -17.6998 -17.6118 -17.5956 -17.5558 -17.3787 -17.3673
   -17.2171 -17.2046 -17.1157 -17.0934 -16.9759 -16.9104 -16.8658 -16.8407
   -16.8219 -16.8059 -16.7600 -16.7341 -16.7192 -16.6259 -16.5950 -16.5048
   -16.4944 -16.4363 -16.4192 -16.4090 -16.2138 -16.1954 -15.8784 -15.6364
   -15.6145 -10.8348  -5.3001  -4.9901  -4.9395  -4.9315  -4.7816  -4.7739
    -4.7149  -4.6380  -4.5249  -4.5049  -4.4991  -4.4162  -4.4019  -4.3791
    -4.3595  -4.3258  -4.3077  -4.2463  -4.1986  -4.1744  -4.1645  -4.1125
    -4.1012  -4.0560  -4.0442  -3.9923  -3.9782  -3.9017  -3.8833  -3.8293
    -3.7801  -3.7369  -3.6883  -3.6103  -3.6028  -3.5524  -3.5057  -3.4342
    -3.3975  -3.3187  -3.2599  -3.2293  -3.1321  -3.1294  -3.0786  -3.0523
    -2.9937  -2.9760  -2.9564  -2.9033  -2.7996  -2.7625  -2.7476  -2.7042
    -2.6279  -2.5859  -2.5444  -2.5015  -2.4765  -2.4125  -2.3878  -2.3680
    -2.3494  -2.2881  -2.1933  -2.1707  -2.1455  -2.1269  -2.1008  -2.0462
    -2.0113  -1.9695  -1.9427  -1.8690  -1.8464  -1.7799  -1.7292  -1.6549
    -1.5643  -1.5472  -1.5367  -1.4945  -1.4414  -1.3833  -1.3511  -1.3041
    -1.2423  -1.1734  -1.0751  -1.0199  -0.9865  -0.9013  -0.8505  -0.8432
    -0.7913  -0.7047  -0.6905  -0.6691  -0.6539  -0.5512  -0.4735   0.3080
     1.3102   1.4999   1.6486   1.6703   1.8550   2.0061   2.0346   2.0699
     2.2457   2.2585   2.3627   2.3789   2.4352   2.4639   2.5506   2.5876
     2.6529   2.6981   2.7320   2.7466   2.8138   2.8449   2.8734   2.9057
     2.9363   2.9533   3.0090   3.0441   3.0748   3.1159   3.1474   3.1930
     3.1980   3.2530   3.2871   3.3271   3.3362   3.3793   3.4187   3.4694
     3.4839   3.5515   3.5806   3.6433   3.6701   3.7473   3.8069   3.8428
     3.8856   3.9624   4.1549   4.5060   4.5989   4.6184   4.7569   4.8244
     4.8910   4.9674   5.0126   5.1890   5.3042   5.3784   5.4138   5.4459
     5.5971   5.6184   5.6704   5.7192   5.8816   5.8991   5.9897   6.0085
     6.0706   6.1110   6.1726   6.2095   6.3153   6.3387   6.4139   6.4258
     6.5431   6.6165   6.7635   6.8098   7.1896   7.3609   7.5160   7.6196
     7.9334   8.0173   8.1026   8.3824   8.6065   8.7171   8.8040   9.0405
     9.1914   9.3317   9.4355

     the Fermi energy is    -0.2889 ev

!    total energy              =   -3021.14955813 Ry
     Harris-Foulkes estimate   =   -3021.14955823 Ry
     estimated scf accuracy    <       0.00000028 Ry

     The total energy is the sum of the following terms:

     one-electron contribution =  -40438.65991643 Ry
     hartree contribution      =   20290.72728410 Ry
     xc contribution           =    -553.22155292 Ry
     ewald contribution        =   17680.02442863 Ry
     smearing contrib. (-TS)   =      -0.01980150 Ry

     total magnetization       =     1.06 Bohr mag/cell
     absolute magnetization    =     1.23 Bohr mag/cell

     convergence has been achieved in  10 iterations

     Forces acting on atoms (Ry/au):


     negative rho (up, down):  1.190E-02 1.197E-02
     atom    1 type  1   force =     0.00018468   -0.00089922   -0.10470673
     atom    2 type  2   force =     0.00014387    0.00068231    0.04003101
     atom    3 type  1   force =     0.00074769   -0.00175189   -0.02054834
     atom    4 type  2   force =    -0.00326852    0.00312263   -0.00324186
     atom    5 type  1   force =     0.00034548    0.00006591    0.00032495
     atom    6 type  2   force =    -0.00012939   -0.00009780    0.00023667
     atom    7 type  1   force =    -0.00027882   -0.00000535   -0.00022869
     atom    8 type  2   force =    -0.00015061   -0.00017754   -0.00020585
     atom    9 type  1   force =    -0.00003279    0.00056604   -0.10483979
     atom   10 type  2   force =     0.00034780   -0.00021343    0.03600329
     atom   11 type  1   force =     0.00067982    0.00184004    0.00261064
     atom   12 type  2   force =    -0.00519796   -0.00266925   -0.00520284
     atom   13 type  1   force =     0.00041576    0.00008830   -0.00025020
     atom   14 type  2   force =     0.00013492   -0.00007867   -0.00006988
     atom   15 type  1   force =    -0.00011914   -0.00004950    0.00004878
     atom   16 type  2   force =    -0.00018902    0.00001227   -0.00034633
     atom   17 type  2   force =     0.00000740   -0.00001329    0.06654802
     atom   18 type  1   force =     0.00005713    0.00002953    0.13145133
     atom   19 type  2   force =     0.00017653   -0.00052875   -0.08522001
     atom   20 type  2   force =    -0.05792447    0.00014199   -0.03609083
     atom   21 type  2   force =     0.05781467   -0.00004842   -0.03605105
     atom   22 type  1   force =    -0.00043049    0.00074778    0.08016635
     atom   23 type  2   force =     0.00019949   -0.00004955    0.00003189
     atom   24 type  2   force =     0.00064116    0.00185851   -0.03467139
     atom   25 type  2   force =     0.00414051    0.00332552   -0.00510872
     atom   26 type  1   force =     0.00040755   -0.00004722    0.00009061
     atom   27 type  2   force =    -0.00010170   -0.00012699    0.00003886
     atom   28 type  2   force =     0.00005686   -0.00019750   -0.00002331
     atom   29 type  2   force =    -0.00000276   -0.00007781    0.00006878
     atom   30 type  1   force =    -0.00020457   -0.00015044    0.00013330
     atom   31 type  2   force =     0.00010520   -0.00007997   -0.00005283
     atom   32 type  2   force =    -0.00012050   -0.00002876    0.00012025
     atom   33 type  2   force =    -0.00016755    0.00005044    0.06628358
     atom   34 type  1   force =     0.00007663   -0.00003309    0.13123234
     atom   35 type  2   force =     0.00018764   -0.00012859   -0.08482998
     atom   36 type  2   force =    -0.05782117    0.00006483   -0.03570308
     atom   37 type  2   force =     0.05798849   -0.00017660   -0.03609919
     atom   38 type  1   force =    -0.00037484   -0.00020453    0.07983902
     atom   39 type  2   force =     0.00007621   -0.00026044   -0.00009306
     atom   40 type  2   force =     0.00048797    0.00124008   -0.03527959
     atom   41 type  2   force =     0.00588763   -0.00243453   -0.00723531
     atom   42 type  1   force =     0.00024249   -0.00007001    0.00002734
     atom   43 type  2   force =    -0.00019794   -0.00009759    0.00003322
     atom   44 type  2   force =     0.00000719   -0.00015912   -0.00003360
     atom   45 type  2   force =     0.00000038   -0.00016793    0.00005346
     atom   46 type  1   force =    -0.00016635   -0.00010008    0.00011058
     atom   47 type  2   force =    -0.00010756   -0.00014495    0.00009300
     atom   48 type  2   force =    -0.00012478    0.00001934    0.00036798
     atom   49 type  2   force =    -0.00039793   -0.00047794   -0.00014740
     atom   50 type  3   force =    -0.01602155    0.00848936   -0.01219757
     atom   51 type  4   force =     0.00043003   -0.00150729    0.00113347
     atom   52 type  4   force =     0.01491493   -0.00936781    0.01396623
     atom   53 type  4   force =    -0.00146736   -0.00045722   -0.00053099
     atom   54 type  4   force =    -0.00190834    0.00073420   -0.00203651

     Total force =     0.343732     Total SCF correction =     0.001466
 !ASE

     Writing output data file calc.save
 
     init_run     :     65.98s CPU     79.84s WALL (       1 calls)
     electrons    :   2778.09s CPU   3216.65s WALL (       1 calls)
     forces       :     49.33s CPU     50.58s WALL (       1 calls)

     Called by init_run:
     wfcinit      :     57.67s CPU     70.93s WALL (       1 calls)
     potinit      :      1.47s CPU      1.70s WALL (       1 calls)

     Called by electrons:
     c_bands      :   2438.70s CPU   2817.58s WALL (      11 calls)
     sum_band     :    294.56s CPU    349.25s WALL (      11 calls)
     v_of_rho     :     11.49s CPU     13.64s WALL (      11 calls)
     newd         :     37.10s CPU     40.11s WALL (      11 calls)
     mix_rho      :      0.42s CPU      0.56s WALL (      11 calls)
     vdW_energy   :      2.61s CPU      2.91s WALL (      12 calls)
     vdW_ffts     :      2.92s CPU      3.67s WALL (      24 calls)
     vdW_v        :      1.18s CPU      1.38s WALL (      12 calls)

     Called by c_bands:
     init_us_2    :      6.81s CPU      7.37s WALL (     960 calls)
     cegterg      :   2394.50s CPU   2770.76s WALL (     440 calls)

     Called by *egterg:
     h_psi        :    943.31s CPU   1228.74s WALL (    2002 calls)
     s_psi        :    162.94s CPU    168.00s WALL (    2002 calls)
     g_psi        :      4.78s CPU      4.91s WALL (    1522 calls)
     cdiaghg      :    742.23s CPU    761.79s WALL (    1922 calls)

     Called by h_psi:
     add_vuspsi   :    164.85s CPU    171.72s WALL (    2002 calls)

     General routines
     calbec       :    244.81s CPU    250.59s WALL (    2482 calls)
     fft          :      6.45s CPU      7.99s WALL (     956 calls)
     ffts         :      0.06s CPU      0.07s WALL (      44 calls)
     fftw         :    519.19s CPU    839.38s WALL (  778680 calls)
     interpolate  :      0.37s CPU      0.55s WALL (      44 calls)
     davcio       :      0.12s CPU      2.94s WALL (      40 calls)
 
     Parallel routines
     fft_scatter  :    256.81s CPU    432.73s WALL (  779680 calls)
 
     PWSCF        : 48m14.52s CPU    55m51.91s WALL

 
   This run was terminated on:  13: 4:27  26Feb2018            

=------------------------------------------------------------------------------=
   JOB DONE.
=------------------------------------------------------------------------------=
