  python dir          : /home/vossj/suncat/lib/python2.7/site-packages/espresso
  espresso dir        : /home/vossj/suncat/esdld/espresso-dynpy-beef/bin
  pseudo dir          : /home/alatimer/bin/psp/esp_psp_w_gbrvRu/
  ase-espresso py git : ffa2778-git



     Program PWSCF v.5.1rc2 (svn rev. ) starts on 10Mar2018 at 17:54:49 

     This program is part of the open-source Quantum ESPRESSO suite
     for quantum simulation of materials; please cite
         "P. Giannozzi et al., J. Phys.:Condens. Matter 21 395502 (2009);
          URL http://www.quantum-espresso.org", 
     in publications or presentations arising from this work. More details at
     http://www.quantum-espresso.org/quote

     Parallel version (MPI), running on    16 processors
     R & G space division:  proc/nbgrp/npool/nimage =      16
     Reading input from pw.inp
     Message from routine read_cards :
     DEPRECATED: no units specified in CELL_PARAMETERS card

     Current dimensions of program PWSCF are:
     Max number of different atomic species (ntypx) = 10
     Max number of k-points (npk) =  40000
     Max angular momentum in pseudopotentials (lmaxx) =  3

     **************************************************************************
     Initializing libbeef V0.1.1 with the BEEF-vdW functional.
     Citation: Wellendorff et al., PRB 85, 235149 (2012).
     **************************************************************************


     IMPORTANT: XC functional enforced from input :
     Exchange-correlation      = BEEF ( 1  4 27 13 2)
     Any further DFT definition will be discarded
     Please, verify this is what you really want


     Subspace diagonalization in iterative solution of the eigenvalue problem:
     a serial algorithm will be used

 
     Parallelization info
     --------------------
     sticks:   dense  smooth     PW     G-vecs:    dense   smooth      PW
     Min         281     112     31                68535    17318    2565
     Max         282     113     32                68545    17369    2582
     Sum        4501    1795    503              1096637   277353   41113
 
     Generating pointlists ...
     new r_m :   0.4125 (alat units)  0.7795 (a.u.) for type    1
     new r_m :   0.4125 (alat units)  0.7795 (a.u.) for type    2
     new r_m :   0.4125 (alat units)  0.7795 (a.u.) for type    3


     bravais-lattice index     =            0
     lattice parameter (alat)  =       1.8897  a.u.
     unit-cell volume          =    7990.9933 (a.u.)^3
     number of atoms/cell      =           51
     number of atomic types    =            3
     number of electrons       =       400.00
     number of Kohn-Sham states=          300
     kinetic-energy cutoff     =      40.4243  Ry
     charge density cutoff     =     404.2426  Ry
     convergence threshold     =      7.3E-07
     mixing beta               =       0.1000
     number of iterations used =           10  plain     mixing
     Exchange-correlation      = BEEF ( 1  4 27 13 2)
     nstep                     =           50


     celldm(1)=   1.889726  celldm(2)=   0.000000  celldm(3)=   0.000000
     celldm(4)=   0.000000  celldm(5)=   0.000000  celldm(6)=   0.000000

     crystal axes: (cart. coord. in units of alat)
               a(1) = (   6.590708   0.000000   0.000000 )  
               a(2) = (   0.000000   5.950229   0.000000 )  
               a(3) = (   0.000000   0.000000  30.195235 )  

     reciprocal axes: (cart. coord. in units 2 pi/alat)
               b(1) = (  0.151729  0.000000  0.000000 )  
               b(2) = (  0.000000  0.168061  0.000000 )  
               b(3) = (  0.000000  0.000000  0.033118 )  


     PseudoPot. # 1 for Ti read from file:
     /home/alatimer/bin/psp/esp_psp_w_gbrvRu/Ti.UPF
     MD5 check sum: 8e4df49b7f0d34bbd5052bf3f5ea0213
     Pseudo is Ultrasoft, Zval = 12.0
     Generated by new atomic code, or converted to UPF format
     Using radial grid of  851 points,  6 beta functions with: 
                l(1) =   0
                l(2) =   0
                l(3) =   1
                l(4) =   1
                l(5) =   2
                l(6) =   2
     Q(r) pseudized with  8 coefficients,  rinner =    1.000   1.000   1.000
                                                       1.000   1.000

     PseudoPot. # 2 for  O read from file:
     /home/alatimer/bin/psp/esp_psp_w_gbrvRu/O.UPF
     MD5 check sum: e057bbcf3229fb5d8c36c0c92f9568b4
     Pseudo is Ultrasoft + core correction, Zval =  6.0
     Generated using "atomic" code by A. Dal Corso  v.5.0.2 svn rev. 9415
     Using radial grid of 1095 points,  4 beta functions with: 
                l(1) =   0
                l(2) =   0
                l(3) =   1
                l(4) =   1
     Q(r) pseudized with 0 coefficients 


     PseudoPot. # 3 for  N read from file:
     /home/alatimer/bin/psp/esp_psp_w_gbrvRu/N.UPF
     MD5 check sum: ed8b6a90f28a53b7d71920e7015d2dd6
     Pseudo is Ultrasoft + core correction, Zval =  5.0
     Generated using "atomic" code by A. Dal Corso  v.5.0.2 svn rev. 9415
     Using radial grid of 1085 points,  4 beta functions with: 
                l(1) =   0
                l(2) =   0
                l(3) =   1
                l(4) =   1
     Q(r) pseudized with 0 coefficients 


     vdW kernel table read from file vdW_kernel_table
     MD5 check sum: 095c7af220d748ca6e76c0b4c6cfb241

     atomic species   valence    mass     pseudopotential
        Ti1           12.00    47.88000     Ti( 1.00)
        O1             6.00    15.99940      O( 1.00)
        N1             5.00    14.00670      N( 1.00)

     Starting magnetic structure 
     atomic species   magnetization
        Ti1          0.250
        O1           0.500
        N1           0.600

     No symmetry found



   Cartesian axes

     site n.     atom                  positions (alat units)
         1           Ti1 tau(   1) = (   1.6476770   0.7437786   2.6545865  )
         2           O1  tau(   2) = (   1.6476770   2.2313359   3.9361215  )
         3           Ti1 tau(   3) = (   1.6476770   2.2313359   5.9499405  )
         4           O1  tau(   4) = (   0.3661420   0.7437786   5.9499405  )
         5           Ti1 tau(   5) = (   1.5280591   0.7315068   9.1973351  )
         6           O1  tau(   6) = (   1.6613943   2.1836906  10.6091769  )
         7           Ti1 tau(   7) = (   1.6665780   2.2096385  12.4157880  )
         8           O1  tau(   8) = (   0.4439715   0.7264440  12.7601561  )
         9           Ti1 tau(   9) = (   1.6476770   3.7188931   2.6545865  )
        10           O1  tau(  10) = (   1.6476770   5.2064503   3.9361215  )
        11           Ti1 tau(  11) = (   1.6476770   5.2064503   5.9499405  )
        12           O1  tau(  12) = (   0.3661420   3.7188931   5.9499405  )
        13           Ti1 tau(  13) = (   1.5319291   3.7072436   9.2118370  )
        14           O1  tau(  14) = (   1.6575607   5.2126413  10.6087893  )
        15           Ti1 tau(  15) = (   1.6606453   5.1916961  12.4165775  )
        16           O1  tau(  16) = (   0.4123725   3.7022030  12.5882193  )
        17           O1  tau(  17) = (   1.6476770   2.2313359   1.3730516  )
        18           Ti1 tau(  18) = (   4.9430310   2.2313359   2.6545865  )
        19           O1  tau(  19) = (   4.9430310   2.2313359   4.6684056  )
        20           O1  tau(  20) = (   6.2245660   0.7437786   2.6545865  )
        21           O1  tau(  21) = (   3.6614961   0.7437786   2.6545865  )
        22           Ti1 tau(  22) = (   4.9430310   0.7437786   5.9499405  )
        23           O1  tau(  23) = (   1.6517842   2.2287041   8.0298356  )
        24           O1  tau(  24) = (   4.9430310   2.2313359   7.2314755  )
        25           O1  tau(  25) = (   2.9292120   0.7437786   5.9499405  )
        26           Ti1 tau(  26) = (   4.8605205   2.2076595   9.4238065  )
        27           O1  tau(  27) = (   4.9553550   2.1639423  11.2756624  )
        28           O1  tau(  28) = (   6.2690671   0.7288246   9.2688367  )
        29           O1  tau(  29) = (   3.6660957   0.7249325   9.2867299  )
        30           Ti1 tau(  30) = (   4.9284588   0.7282168  12.7798302  )
        31           O1  tau(  31) = (   4.9953437   2.2216212  13.8477397  )
        32           O1  tau(  32) = (   2.9112183   0.7266397  12.7651274  )
        33           O1  tau(  33) = (   1.6476770   5.2064503   1.3730516  )
        34           Ti1 tau(  34) = (   4.9430310   5.2064503   2.6545865  )
        35           O1  tau(  35) = (   4.9430310   5.2064503   4.6684056  )
        36           O1  tau(  36) = (   6.2245660   3.7188931   2.6545865  )
        37           O1  tau(  37) = (   3.6614961   3.7188931   2.6545865  )
        38           Ti1 tau(  38) = (   4.9430310   3.7188931   5.9499405  )
        39           O1  tau(  39) = (   1.6524867   5.1852222   8.0294571  )
        40           O1  tau(  40) = (   4.9430310   5.2064503   7.2314755  )
        41           O1  tau(  41) = (   2.9292120   3.7188931   5.9499405  )
        42           Ti1 tau(  42) = (   4.8610151   5.1886528   9.4241876  )
        43           O1  tau(  43) = (   4.9550983   5.2107439  11.2753448  )
        44           O1  tau(  44) = (   6.2713562   3.7024388   9.3047907  )
        45           O1  tau(  45) = (   3.6650622   3.7005085   9.3135888  )
        46           Ti1 tau(  46) = (   5.0160509   3.7038162  12.7585864  )
        47           O1  tau(  47) = (   4.9984032   5.1727849  13.8485277  )
        48           O1  tau(  48) = (   2.9655234   3.7049164  12.5317472  )
        49           O1  tau(  49) = (   2.2548149   3.7063572  14.5693114  )
        50           N1  tau(  50) = (   2.4020298   3.6667063  16.9651815  )
        51           N1  tau(  51) = (   2.1425646   3.6919273  15.8311024  )

     number of k points=    40  Fermi-Dirac smearing, width (Ry)=  0.0073
                       cart. coord. in units 2pi/alat
        k(    1) = (   0.0000000   0.0000000   0.0000000), wk =   0.0277778
        k(    2) = (   0.0000000   0.0280101   0.0000000), wk =   0.0555556
        k(    3) = (   0.0000000   0.0560203   0.0000000), wk =   0.0555556
        k(    4) = (   0.0000000  -0.0840304   0.0000000), wk =   0.0277778
        k(    5) = (   0.0252881   0.0000000   0.0000000), wk =   0.0555556
        k(    6) = (   0.0252881   0.0280101   0.0000000), wk =   0.0555556
        k(    7) = (   0.0252881   0.0560203   0.0000000), wk =   0.0555556
        k(    8) = (   0.0252881  -0.0840304   0.0000000), wk =   0.0555556
        k(    9) = (   0.0505763   0.0000000   0.0000000), wk =   0.0555556
        k(   10) = (   0.0505763   0.0280101   0.0000000), wk =   0.0555556
        k(   11) = (   0.0505763   0.0560203   0.0000000), wk =   0.0555556
        k(   12) = (   0.0505763  -0.0840304   0.0000000), wk =   0.0555556
        k(   13) = (  -0.0758644   0.0000000   0.0000000), wk =   0.0277778
        k(   14) = (  -0.0758644   0.0280101   0.0000000), wk =   0.0555556
        k(   15) = (  -0.0758644   0.0560203   0.0000000), wk =   0.0555556
        k(   16) = (  -0.0758644  -0.0840304   0.0000000), wk =   0.0277778
        k(   17) = (  -0.0252881   0.0280101   0.0000000), wk =   0.0555556
        k(   18) = (  -0.0252881   0.0560203   0.0000000), wk =   0.0555556
        k(   19) = (  -0.0505763   0.0280101   0.0000000), wk =   0.0555556
        k(   20) = (  -0.0505763   0.0560203   0.0000000), wk =   0.0555556
        k(   21) = (   0.0000000   0.0000000   0.0000000), wk =   0.0277778
        k(   22) = (   0.0000000   0.0280101   0.0000000), wk =   0.0555556
        k(   23) = (   0.0000000   0.0560203   0.0000000), wk =   0.0555556
        k(   24) = (   0.0000000  -0.0840304   0.0000000), wk =   0.0277778
        k(   25) = (   0.0252881   0.0000000   0.0000000), wk =   0.0555556
        k(   26) = (   0.0252881   0.0280101   0.0000000), wk =   0.0555556
        k(   27) = (   0.0252881   0.0560203   0.0000000), wk =   0.0555556
        k(   28) = (   0.0252881  -0.0840304   0.0000000), wk =   0.0555556
        k(   29) = (   0.0505763   0.0000000   0.0000000), wk =   0.0555556
        k(   30) = (   0.0505763   0.0280101   0.0000000), wk =   0.0555556
        k(   31) = (   0.0505763   0.0560203   0.0000000), wk =   0.0555556
        k(   32) = (   0.0505763  -0.0840304   0.0000000), wk =   0.0555556
        k(   33) = (  -0.0758644   0.0000000   0.0000000), wk =   0.0277778
        k(   34) = (  -0.0758644   0.0280101   0.0000000), wk =   0.0555556
        k(   35) = (  -0.0758644   0.0560203   0.0000000), wk =   0.0555556
        k(   36) = (  -0.0758644  -0.0840304   0.0000000), wk =   0.0277778
        k(   37) = (  -0.0252881   0.0280101   0.0000000), wk =   0.0555556
        k(   38) = (  -0.0252881   0.0560203   0.0000000), wk =   0.0555556
        k(   39) = (  -0.0505763   0.0280101   0.0000000), wk =   0.0555556
        k(   40) = (  -0.0505763   0.0560203   0.0000000), wk =   0.0555556

     Dense  grid:  1096637 G-vectors     FFT dimensions: (  80,  72, 375)

     Smooth grid:   277353 G-vectors     FFT dimensions: (  54,  45, 240)

     Largest allocated arrays     est. size (Mb)     dimensions
        Kohn-Sham Wavefunctions         9.98 Mb     (    2180,  300)
        NL pseudopotentials            18.89 Mb     (    2180,  568)
        Each V/rho on FFT grid          4.22 Mb     (  138240,   2)
        Each G-vector array             0.52 Mb     (   68538)
        G-vector shells                 0.25 Mb     (   33046)
     Largest temporary arrays     est. size (Mb)     dimensions
        Auxiliary wavefunctions        39.92 Mb     (    2180, 1200)
        Each subspace H/S matrix       21.97 Mb     (    1200, 1200)
        Each <psi_i|beta_j> matrix      2.60 Mb     (     568,  300)
        Arrays for rho mixing          21.09 Mb     (  138240,   10)

     Check: negative/imaginary core charge=   -0.000049    0.000000

     The initial density is read from file :
     ./calc.save/charge-density.dat


     negative rho (up, down):  1.158E-02 1.158E-02


     ************************************************************************
     *
     * You are using vdW-DF for exchange-correlation in this calculation.
     * Please cite the following three references that made this development
     * possible:
     *
     *   M. Dion, H. Rydberg, E. Schroder, D. C. Langreth, and
     *   B. I. Lundqvist, Phys. Rev. Lett. 92, 246401 (2004).
     *
     *   T. Thonhauser, V. R. Cooper, S. Li, A. Puzder, P. Hyldgaard, and
     *   D. C. Langreth, Phys. Rev. B 76, 125112 (2007).
     *
     *   G. Roman-Perez and J. M. Soler, Phys. Rev. Lett. 103, 096102 (2009).
     *
     *
     * If you are using vdW-DF2, please also cite:
     *
     *   K. Lee, E. D. Murray, L. Kong, B. I. Lundqvist, and
     *   D. C. Langreth, Phys. Rev. B 82, 081101(R) (2010).
     *
     *
     * If you are calculating the stress with vdW-DF, please also cite:
     *
     *   R. Sabatini, E. Kucukbenli, B. Kolb, T. Thonhauser, and
     *   S. de Gironcoli, J. Phys.: Condens. Matter 24, 424209 (2012).
     *
     ************************************************************************

     Carrying out vdW-DF run using the following parameters:

     Nqs =      20    Nr_points =    1024   r_max =   100.000
     q_mesh =
               0.00001000     0.04494208     0.09755937     0.15916263
               0.23128650     0.31572767     0.41458969     0.53033537
               0.66584808     0.82450364     1.01025438     1.22772762
               1.48234092     1.78043706     2.12944203     2.53805004
               3.01644009     3.57652955     4.23227104     5.00000000

     Gradients computed in reciprocal space

     ************************************************************************


     Starting wfc are  300 randomized atomic wfcs

     total cpu time spent up to now is       70.0 secs

     Self-consistent Calculation

     iteration #  1     ecut=    40.42 Ry     beta=0.10
     Davidson diagonalization with overlap
     ethr =  1.00E-05,  avg # of iterations = 15.2

     negative rho (up, down):  1.157E-02 1.157E-02
 
     Magnetic moment per site:
     atom:    1    charge:    3.1251    magn:   -0.0002    constr:    0.0000
     atom:    2    charge:    2.0894    magn:    0.0001    constr:    0.0000
     atom:    3    charge:    3.1197    magn:   -0.0001    constr:    0.0000
     atom:    4    charge:    2.0870    magn:    0.0000    constr:    0.0000
     atom:    5    charge:    3.1170    magn:   -0.0001    constr:    0.0000
     atom:    6    charge:    2.0916    magn:    0.0001    constr:    0.0000
     atom:    7    charge:    3.1188    magn:   -0.0000    constr:    0.0000
     atom:    8    charge:    2.0814    magn:    0.0001    constr:    0.0000
     atom:    9    charge:    3.1251    magn:   -0.0002    constr:    0.0000
     atom:   10    charge:    2.0894    magn:    0.0001    constr:    0.0000
     atom:   11    charge:    3.1197    magn:   -0.0001    constr:    0.0000
     atom:   12    charge:    2.0870    magn:    0.0000    constr:    0.0000
     atom:   13    charge:    3.1149    magn:   -0.0001    constr:    0.0000
     atom:   14    charge:    2.0910    magn:    0.0001    constr:    0.0000
     atom:   15    charge:    3.1197    magn:   -0.0000    constr:    0.0000
     atom:   16    charge:    2.0884    magn:    0.0001    constr:    0.0000
     atom:   17    charge:    2.0619    magn:    0.0004    constr:    0.0000
     atom:   18    charge:    3.1238    magn:   -0.0000    constr:    0.0000
     atom:   19    charge:    2.0878    magn:   -0.0000    constr:    0.0000
     atom:   20    charge:    2.0847    magn:   -0.0001    constr:    0.0000
     atom:   21    charge:    2.0847    magn:   -0.0001    constr:    0.0000
     atom:   22    charge:    3.1197    magn:   -0.0000    constr:    0.0000
     atom:   23    charge:    2.0907    magn:    0.0001    constr:    0.0000
     atom:   24    charge:    2.0779    magn:    0.0001    constr:    0.0000
     atom:   25    charge:    2.0869    magn:    0.0000    constr:    0.0000
     atom:   26    charge:    3.1164    magn:   -0.0001    constr:    0.0000
     atom:   27    charge:    2.0825    magn:    0.0002    constr:    0.0000
     atom:   28    charge:    2.0879    magn:    0.0001    constr:    0.0000
     atom:   29    charge:    2.0877    magn:    0.0001    constr:    0.0000
     atom:   30    charge:    3.1168    magn:   -0.0001    constr:    0.0000
     atom:   31    charge:    2.0813    magn:    0.0003    constr:    0.0000
     atom:   32    charge:    2.0842    magn:    0.0001    constr:    0.0000
     atom:   33    charge:    2.0619    magn:    0.0004    constr:    0.0000
     atom:   34    charge:    3.1238    magn:   -0.0000    constr:    0.0000
     atom:   35    charge:    2.0878    magn:   -0.0000    constr:    0.0000
     atom:   36    charge:    2.0847    magn:   -0.0001    constr:    0.0000
     atom:   37    charge:    2.0847    magn:   -0.0001    constr:    0.0000
     atom:   38    charge:    3.1197    magn:   -0.0000    constr:    0.0000
     atom:   39    charge:    2.0911    magn:    0.0001    constr:    0.0000
     atom:   40    charge:    2.0779    magn:    0.0001    constr:    0.0000
     atom:   41    charge:    2.0869    magn:    0.0000    constr:    0.0000
     atom:   42    charge:    3.1181    magn:   -0.0001    constr:    0.0000
     atom:   43    charge:    2.0839    magn:    0.0002    constr:    0.0000
     atom:   44    charge:    2.0865    magn:    0.0001    constr:    0.0000
     atom:   45    charge:    2.0871    magn:    0.0001    constr:    0.0000
     atom:   46    charge:    3.1173    magn:   -0.0001    constr:    0.0000
     atom:   47    charge:    2.0794    magn:    0.0003    constr:    0.0000
     atom:   48    charge:    2.0844    magn:    0.0002    constr:    0.0000
     atom:   49    charge:    2.0634    magn:   -0.0000    constr:    0.0000
     atom:   50    charge:    1.2454    magn:   -0.0000    constr:    0.0000
     atom:   51    charge:    1.2782    magn:    0.0000    constr:    0.0000

     total cpu time spent up to now is      829.0 secs

     total energy              =   -3044.96000932 Ry
     Harris-Foulkes estimate   =   -3044.99497393 Ry
     estimated scf accuracy    <       0.20144474 Ry

     total magnetization       =     0.00 Bohr mag/cell
     absolute magnetization    =     0.01 Bohr mag/cell

     iteration #  2     ecut=    40.42 Ry     beta=0.10
     Davidson diagonalization with overlap
     ethr =  5.04E-05,  avg # of iterations =  2.5

     negative rho (up, down):  1.157E-02 1.157E-02
 
     Magnetic moment per site:
     atom:    1    charge:    3.1250    magn:   -0.0001    constr:    0.0000
     atom:    2    charge:    2.0894    magn:    0.0001    constr:    0.0000
     atom:    3    charge:    3.1196    magn:   -0.0001    constr:    0.0000
     atom:    4    charge:    2.0870    magn:    0.0000    constr:    0.0000
     atom:    5    charge:    3.1170    magn:   -0.0001    constr:    0.0000
     atom:    6    charge:    2.0916    magn:    0.0001    constr:    0.0000
     atom:    7    charge:    3.1187    magn:   -0.0000    constr:    0.0000
     atom:    8    charge:    2.0816    magn:    0.0001    constr:    0.0000
     atom:    9    charge:    3.1250    magn:   -0.0001    constr:    0.0000
     atom:   10    charge:    2.0894    magn:    0.0001    constr:    0.0000
     atom:   11    charge:    3.1196    magn:   -0.0001    constr:    0.0000
     atom:   12    charge:    2.0870    magn:    0.0000    constr:    0.0000
     atom:   13    charge:    3.1148    magn:   -0.0001    constr:    0.0000
     atom:   14    charge:    2.0911    magn:    0.0001    constr:    0.0000
     atom:   15    charge:    3.1196    magn:   -0.0000    constr:    0.0000
     atom:   16    charge:    2.0884    magn:    0.0001    constr:    0.0000
     atom:   17    charge:    2.0623    magn:    0.0004    constr:    0.0000
     atom:   18    charge:    3.1239    magn:   -0.0000    constr:    0.0000
     atom:   19    charge:    2.0878    magn:   -0.0000    constr:    0.0000
     atom:   20    charge:    2.0847    magn:   -0.0001    constr:    0.0000
     atom:   21    charge:    2.0846    magn:   -0.0001    constr:    0.0000
     atom:   22    charge:    3.1197    magn:   -0.0000    constr:    0.0000
     atom:   23    charge:    2.0908    magn:    0.0001    constr:    0.0000
     atom:   24    charge:    2.0777    magn:    0.0001    constr:    0.0000
     atom:   25    charge:    2.0869    magn:    0.0000    constr:    0.0000
     atom:   26    charge:    3.1165    magn:   -0.0001    constr:    0.0000
     atom:   27    charge:    2.0824    magn:    0.0002    constr:    0.0000
     atom:   28    charge:    2.0879    magn:    0.0001    constr:    0.0000
     atom:   29    charge:    2.0877    magn:    0.0001    constr:    0.0000
     atom:   30    charge:    3.1168    magn:   -0.0001    constr:    0.0000
     atom:   31    charge:    2.0815    magn:    0.0003    constr:    0.0000
     atom:   32    charge:    2.0843    magn:    0.0001    constr:    0.0000
     atom:   33    charge:    2.0623    magn:    0.0004    constr:    0.0000
     atom:   34    charge:    3.1239    magn:   -0.0000    constr:    0.0000
     atom:   35    charge:    2.0878    magn:   -0.0000    constr:    0.0000
     atom:   36    charge:    2.0847    magn:   -0.0001    constr:    0.0000
     atom:   37    charge:    2.0846    magn:   -0.0001    constr:    0.0000
     atom:   38    charge:    3.1197    magn:   -0.0000    constr:    0.0000
     atom:   39    charge:    2.0912    magn:    0.0001    constr:    0.0000
     atom:   40    charge:    2.0777    magn:    0.0001    constr:    0.0000
     atom:   41    charge:    2.0869    magn:    0.0000    constr:    0.0000
     atom:   42    charge:    3.1181    magn:   -0.0001    constr:    0.0000
     atom:   43    charge:    2.0838    magn:    0.0002    constr:    0.0000
     atom:   44    charge:    2.0865    magn:    0.0001    constr:    0.0000
     atom:   45    charge:    2.0871    magn:    0.0001    constr:    0.0000
     atom:   46    charge:    3.1172    magn:   -0.0001    constr:    0.0000
     atom:   47    charge:    2.0796    magn:    0.0003    constr:    0.0000
     atom:   48    charge:    2.0844    magn:    0.0001    constr:    0.0000
     atom:   49    charge:    2.0689    magn:   -0.0000    constr:    0.0000
     atom:   50    charge:    1.2380    magn:   -0.0000    constr:    0.0000
     atom:   51    charge:    1.2799    magn:    0.0000    constr:    0.0000

     total cpu time spent up to now is     1026.4 secs

     total energy              =   -3044.95909127 Ry
     Harris-Foulkes estimate   =   -3044.96906122 Ry
     estimated scf accuracy    <       0.03986581 Ry

     total magnetization       =     0.00 Bohr mag/cell
     absolute magnetization    =     0.01 Bohr mag/cell

     iteration #  3     ecut=    40.42 Ry     beta=0.10
     Davidson diagonalization with overlap
     ethr =  9.97E-06,  avg # of iterations =  6.0

     negative rho (up, down):  1.156E-02 1.156E-02
 
     Magnetic moment per site:
     atom:    1    charge:    3.1250    magn:   -0.0001    constr:    0.0000
     atom:    2    charge:    2.0895    magn:    0.0001    constr:    0.0000
     atom:    3    charge:    3.1196    magn:   -0.0000    constr:    0.0000
     atom:    4    charge:    2.0870    magn:    0.0000    constr:    0.0000
     atom:    5    charge:    3.1170    magn:   -0.0000    constr:    0.0000
     atom:    6    charge:    2.0917    magn:    0.0000    constr:    0.0000
     atom:    7    charge:    3.1185    magn:   -0.0000    constr:    0.0000
     atom:    8    charge:    2.0818    magn:    0.0001    constr:    0.0000
     atom:    9    charge:    3.1250    magn:   -0.0001    constr:    0.0000
     atom:   10    charge:    2.0895    magn:    0.0001    constr:    0.0000
     atom:   11    charge:    3.1196    magn:   -0.0000    constr:    0.0000
     atom:   12    charge:    2.0870    magn:    0.0000    constr:    0.0000
     atom:   13    charge:    3.1147    magn:   -0.0000    constr:    0.0000
     atom:   14    charge:    2.0912    magn:    0.0000    constr:    0.0000
     atom:   15    charge:    3.1194    magn:   -0.0000    constr:    0.0000
     atom:   16    charge:    2.0884    magn:    0.0000    constr:    0.0000
     atom:   17    charge:    2.0625    magn:    0.0003    constr:    0.0000
     atom:   18    charge:    3.1240    magn:   -0.0000    constr:    0.0000
     atom:   19    charge:    2.0878    magn:   -0.0000    constr:    0.0000
     atom:   20    charge:    2.0847    magn:   -0.0001    constr:    0.0000
     atom:   21    charge:    2.0847    magn:   -0.0001    constr:    0.0000
     atom:   22    charge:    3.1197    magn:   -0.0000    constr:    0.0000
     atom:   23    charge:    2.0910    magn:    0.0001    constr:    0.0000
     atom:   24    charge:    2.0776    magn:    0.0001    constr:    0.0000
     atom:   25    charge:    2.0869    magn:    0.0000    constr:    0.0000
     atom:   26    charge:    3.1165    magn:   -0.0001    constr:    0.0000
     atom:   27    charge:    2.0822    magn:    0.0001    constr:    0.0000
     atom:   28    charge:    2.0879    magn:    0.0001    constr:    0.0000
     atom:   29    charge:    2.0878    magn:    0.0001    constr:    0.0000
     atom:   30    charge:    3.1168    magn:   -0.0001    constr:    0.0000
     atom:   31    charge:    2.0817    magn:    0.0002    constr:    0.0000
     atom:   32    charge:    2.0843    magn:    0.0001    constr:    0.0000
     atom:   33    charge:    2.0625    magn:    0.0003    constr:    0.0000
     atom:   34    charge:    3.1240    magn:   -0.0000    constr:    0.0000
     atom:   35    charge:    2.0878    magn:   -0.0000    constr:    0.0000
     atom:   36    charge:    2.0847    magn:   -0.0001    constr:    0.0000
     atom:   37    charge:    2.0847    magn:   -0.0001    constr:    0.0000
     atom:   38    charge:    3.1197    magn:   -0.0000    constr:    0.0000
     atom:   39    charge:    2.0913    magn:    0.0001    constr:    0.0000
     atom:   40    charge:    2.0776    magn:    0.0001    constr:    0.0000
     atom:   41    charge:    2.0869    magn:    0.0000    constr:    0.0000
     atom:   42    charge:    3.1182    magn:   -0.0001    constr:    0.0000
     atom:   43    charge:    2.0836    magn:    0.0001    constr:    0.0000
     atom:   44    charge:    2.0865    magn:    0.0001    constr:    0.0000
     atom:   45    charge:    2.0871    magn:    0.0001    constr:    0.0000
     atom:   46    charge:    3.1170    magn:   -0.0001    constr:    0.0000
     atom:   47    charge:    2.0798    magn:    0.0002    constr:    0.0000
     atom:   48    charge:    2.0838    magn:    0.0001    constr:    0.0000
     atom:   49    charge:    2.0652    magn:   -0.0000    constr:    0.0000
     atom:   50    charge:    1.2399    magn:   -0.0000    constr:    0.0000
     atom:   51    charge:    1.2779    magn:    0.0000    constr:    0.0000

     total cpu time spent up to now is     1282.6 secs

     total energy              =   -3044.95892746 Ry
     Harris-Foulkes estimate   =   -3044.96235478 Ry
     estimated scf accuracy    <       0.01059289 Ry

     total magnetization       =     0.00 Bohr mag/cell
     absolute magnetization    =     0.01 Bohr mag/cell

     iteration #  4     ecut=    40.42 Ry     beta=0.10
     Davidson diagonalization with overlap
     ethr =  2.65E-06,  avg # of iterations =  4.2

     negative rho (up, down):  1.155E-02 1.155E-02
 
     Magnetic moment per site:
     atom:    1    charge:    3.1251    magn:   -0.0001    constr:    0.0000
     atom:    2    charge:    2.0894    magn:    0.0001    constr:    0.0000
     atom:    3    charge:    3.1197    magn:   -0.0000    constr:    0.0000
     atom:    4    charge:    2.0870    magn:    0.0000    constr:    0.0000
     atom:    5    charge:    3.1170    magn:   -0.0000    constr:    0.0000
     atom:    6    charge:    2.0917    magn:    0.0000    constr:    0.0000
     atom:    7    charge:    3.1185    magn:   -0.0000    constr:    0.0000
     atom:    8    charge:    2.0816    magn:    0.0000    constr:    0.0000
     atom:    9    charge:    3.1251    magn:   -0.0001    constr:    0.0000
     atom:   10    charge:    2.0894    magn:    0.0001    constr:    0.0000
     atom:   11    charge:    3.1197    magn:   -0.0000    constr:    0.0000
     atom:   12    charge:    2.0870    magn:    0.0000    constr:    0.0000
     atom:   13    charge:    3.1148    magn:   -0.0000    constr:    0.0000
     atom:   14    charge:    2.0912    magn:    0.0000    constr:    0.0000
     atom:   15    charge:    3.1194    magn:   -0.0000    constr:    0.0000
     atom:   16    charge:    2.0883    magn:    0.0000    constr:    0.0000
     atom:   17    charge:    2.0623    magn:    0.0002    constr:    0.0000
     atom:   18    charge:    3.1239    magn:   -0.0000    constr:    0.0000
     atom:   19    charge:    2.0878    magn:   -0.0000    constr:    0.0000
     atom:   20    charge:    2.0847    magn:   -0.0000    constr:    0.0000
     atom:   21    charge:    2.0847    magn:   -0.0000    constr:    0.0000
     atom:   22    charge:    3.1197    magn:   -0.0000    constr:    0.0000
     atom:   23    charge:    2.0909    magn:    0.0000    constr:    0.0000
     atom:   24    charge:    2.0778    magn:    0.0000    constr:    0.0000
     atom:   25    charge:    2.0869    magn:    0.0000    constr:    0.0000
     atom:   26    charge:    3.1165    magn:   -0.0000    constr:    0.0000
     atom:   27    charge:    2.0824    magn:    0.0001    constr:    0.0000
     atom:   28    charge:    2.0879    magn:    0.0001    constr:    0.0000
     atom:   29    charge:    2.0878    magn:    0.0000    constr:    0.0000
     atom:   30    charge:    3.1168    magn:   -0.0001    constr:    0.0000
     atom:   31    charge:    2.0816    magn:    0.0002    constr:    0.0000
     atom:   32    charge:    2.0843    magn:    0.0000    constr:    0.0000
     atom:   33    charge:    2.0623    magn:    0.0002    constr:    0.0000
     atom:   34    charge:    3.1239    magn:   -0.0000    constr:    0.0000
     atom:   35    charge:    2.0878    magn:   -0.0000    constr:    0.0000
     atom:   36    charge:    2.0847    magn:   -0.0000    constr:    0.0000
     atom:   37    charge:    2.0847    magn:   -0.0000    constr:    0.0000
     atom:   38    charge:    3.1197    magn:   -0.0000    constr:    0.0000
     atom:   39    charge:    2.0912    magn:    0.0000    constr:    0.0000
     atom:   40    charge:    2.0778    magn:    0.0000    constr:    0.0000
     atom:   41    charge:    2.0869    magn:    0.0000    constr:    0.0000
     atom:   42    charge:    3.1181    magn:   -0.0000    constr:    0.0000
     atom:   43    charge:    2.0838    magn:    0.0001    constr:    0.0000
     atom:   44    charge:    2.0865    magn:    0.0001    constr:    0.0000
     atom:   45    charge:    2.0871    magn:    0.0000    constr:    0.0000
     atom:   46    charge:    3.1171    magn:   -0.0001    constr:    0.0000
     atom:   47    charge:    2.0797    magn:    0.0002    constr:    0.0000
     atom:   48    charge:    2.0836    magn:    0.0001    constr:    0.0000
     atom:   49    charge:    2.0614    magn:   -0.0000    constr:    0.0000
     atom:   50    charge:    1.2411    magn:   -0.0000    constr:    0.0000
     atom:   51    charge:    1.2762    magn:    0.0000    constr:    0.0000

     total cpu time spent up to now is     1505.2 secs

     total energy              =   -3044.95685347 Ry
     Harris-Foulkes estimate   =   -3044.95925912 Ry
     estimated scf accuracy    <       0.00418284 Ry

     total magnetization       =     0.00 Bohr mag/cell
     absolute magnetization    =     0.00 Bohr mag/cell

     iteration #  5     ecut=    40.42 Ry     beta=0.10
     Davidson diagonalization with overlap
     ethr =  1.05E-06,  avg # of iterations =  3.0

     negative rho (up, down):  1.156E-02 1.156E-02
 
     Magnetic moment per site:
     atom:    1    charge:    3.1251    magn:   -0.0001    constr:    0.0000
     atom:    2    charge:    2.0894    magn:    0.0001    constr:    0.0000
     atom:    3    charge:    3.1197    magn:   -0.0000    constr:    0.0000
     atom:    4    charge:    2.0870    magn:    0.0000    constr:    0.0000
     atom:    5    charge:    3.1170    magn:   -0.0000    constr:    0.0000
     atom:    6    charge:    2.0916    magn:    0.0000    constr:    0.0000
     atom:    7    charge:    3.1186    magn:   -0.0000    constr:    0.0000
     atom:    8    charge:    2.0815    magn:    0.0000    constr:    0.0000
     atom:    9    charge:    3.1251    magn:   -0.0001    constr:    0.0000
     atom:   10    charge:    2.0894    magn:    0.0001    constr:    0.0000
     atom:   11    charge:    3.1197    magn:   -0.0000    constr:    0.0000
     atom:   12    charge:    2.0870    magn:    0.0000    constr:    0.0000
     atom:   13    charge:    3.1148    magn:   -0.0000    constr:    0.0000
     atom:   14    charge:    2.0911    magn:    0.0000    constr:    0.0000
     atom:   15    charge:    3.1195    magn:   -0.0000    constr:    0.0000
     atom:   16    charge:    2.0883    magn:    0.0000    constr:    0.0000
     atom:   17    charge:    2.0623    magn:    0.0002    constr:    0.0000
     atom:   18    charge:    3.1239    magn:   -0.0000    constr:    0.0000
     atom:   19    charge:    2.0878    magn:   -0.0000    constr:    0.0000
     atom:   20    charge:    2.0847    magn:   -0.0000    constr:    0.0000
     atom:   21    charge:    2.0847    magn:   -0.0000    constr:    0.0000
     atom:   22    charge:    3.1197    magn:   -0.0000    constr:    0.0000
     atom:   23    charge:    2.0908    magn:    0.0000    constr:    0.0000
     atom:   24    charge:    2.0778    magn:    0.0000    constr:    0.0000
     atom:   25    charge:    2.0869    magn:    0.0000    constr:    0.0000
     atom:   26    charge:    3.1164    magn:   -0.0000    constr:    0.0000
     atom:   27    charge:    2.0824    magn:    0.0001    constr:    0.0000
     atom:   28    charge:    2.0879    magn:    0.0001    constr:    0.0000
     atom:   29    charge:    2.0877    magn:    0.0000    constr:    0.0000
     atom:   30    charge:    3.1168    magn:   -0.0001    constr:    0.0000
     atom:   31    charge:    2.0815    magn:    0.0001    constr:    0.0000
     atom:   32    charge:    2.0842    magn:    0.0000    constr:    0.0000
     atom:   33    charge:    2.0623    magn:    0.0002    constr:    0.0000
     atom:   34    charge:    3.1239    magn:   -0.0000    constr:    0.0000
     atom:   35    charge:    2.0878    magn:   -0.0000    constr:    0.0000
     atom:   36    charge:    2.0847    magn:   -0.0000    constr:    0.0000
     atom:   37    charge:    2.0847    magn:   -0.0000    constr:    0.0000
     atom:   38    charge:    3.1197    magn:   -0.0000    constr:    0.0000
     atom:   39    charge:    2.0912    magn:    0.0000    constr:    0.0000
     atom:   40    charge:    2.0778    magn:    0.0000    constr:    0.0000
     atom:   41    charge:    2.0869    magn:    0.0000    constr:    0.0000
     atom:   42    charge:    3.1181    magn:   -0.0000    constr:    0.0000
     atom:   43    charge:    2.0838    magn:    0.0001    constr:    0.0000
     atom:   44    charge:    2.0865    magn:    0.0001    constr:    0.0000
     atom:   45    charge:    2.0871    magn:    0.0000    constr:    0.0000
     atom:   46    charge:    3.1172    magn:   -0.0001    constr:    0.0000
     atom:   47    charge:    2.0796    magn:    0.0001    constr:    0.0000
     atom:   48    charge:    2.0838    magn:    0.0001    constr:    0.0000
     atom:   49    charge:    2.0600    magn:    0.0000    constr:    0.0000
     atom:   50    charge:    1.2424    magn:   -0.0000    constr:    0.0000
     atom:   51    charge:    1.2762    magn:    0.0000    constr:    0.0000

     total cpu time spent up to now is     1716.6 secs

     total energy              =   -3044.95732589 Ry
     Harris-Foulkes estimate   =   -3044.95743184 Ry
     estimated scf accuracy    <       0.00049897 Ry

     total magnetization       =     0.00 Bohr mag/cell
     absolute magnetization    =     0.00 Bohr mag/cell

     iteration #  6     ecut=    40.42 Ry     beta=0.10
     Davidson diagonalization with overlap
     ethr =  1.25E-07,  avg # of iterations =  2.0

     negative rho (up, down):  1.156E-02 1.156E-02
 
     Magnetic moment per site:
     atom:    1    charge:    3.1250    magn:   -0.0001    constr:    0.0000
     atom:    2    charge:    2.0894    magn:    0.0000    constr:    0.0000
     atom:    3    charge:    3.1196    magn:   -0.0000    constr:    0.0000
     atom:    4    charge:    2.0870    magn:    0.0000    constr:    0.0000
     atom:    5    charge:    3.1170    magn:   -0.0000    constr:    0.0000
     atom:    6    charge:    2.0916    magn:    0.0000    constr:    0.0000
     atom:    7    charge:    3.1186    magn:   -0.0000    constr:    0.0000
     atom:    8    charge:    2.0815    magn:    0.0000    constr:    0.0000
     atom:    9    charge:    3.1250    magn:   -0.0001    constr:    0.0000
     atom:   10    charge:    2.0894    magn:    0.0000    constr:    0.0000
     atom:   11    charge:    3.1196    magn:   -0.0000    constr:    0.0000
     atom:   12    charge:    2.0870    magn:    0.0000    constr:    0.0000
     atom:   13    charge:    3.1148    magn:   -0.0000    constr:    0.0000
     atom:   14    charge:    2.0911    magn:    0.0000    constr:    0.0000
     atom:   15    charge:    3.1196    magn:   -0.0000    constr:    0.0000
     atom:   16    charge:    2.0883    magn:    0.0000    constr:    0.0000
     atom:   17    charge:    2.0623    magn:    0.0002    constr:    0.0000
     atom:   18    charge:    3.1239    magn:   -0.0000    constr:    0.0000
     atom:   19    charge:    2.0878    magn:   -0.0000    constr:    0.0000
     atom:   20    charge:    2.0847    magn:   -0.0000    constr:    0.0000
     atom:   21    charge:    2.0847    magn:   -0.0000    constr:    0.0000
     atom:   22    charge:    3.1197    magn:   -0.0000    constr:    0.0000
     atom:   23    charge:    2.0908    magn:    0.0000    constr:    0.0000
     atom:   24    charge:    2.0778    magn:    0.0000    constr:    0.0000
     atom:   25    charge:    2.0869    magn:    0.0000    constr:    0.0000
     atom:   26    charge:    3.1165    magn:   -0.0000    constr:    0.0000
     atom:   27    charge:    2.0824    magn:    0.0001    constr:    0.0000
     atom:   28    charge:    2.0879    magn:    0.0000    constr:    0.0000
     atom:   29    charge:    2.0877    magn:    0.0000    constr:    0.0000
     atom:   30    charge:    3.1168    magn:   -0.0001    constr:    0.0000
     atom:   31    charge:    2.0815    magn:    0.0001    constr:    0.0000
     atom:   32    charge:    2.0843    magn:    0.0000    constr:    0.0000
     atom:   33    charge:    2.0623    magn:    0.0002    constr:    0.0000
     atom:   34    charge:    3.1239    magn:   -0.0000    constr:    0.0000
     atom:   35    charge:    2.0878    magn:   -0.0000    constr:    0.0000
     atom:   36    charge:    2.0847    magn:   -0.0000    constr:    0.0000
     atom:   37    charge:    2.0847    magn:   -0.0000    constr:    0.0000
     atom:   38    charge:    3.1197    magn:   -0.0000    constr:    0.0000
     atom:   39    charge:    2.0912    magn:    0.0000    constr:    0.0000
     atom:   40    charge:    2.0777    magn:    0.0000    constr:    0.0000
     atom:   41    charge:    2.0869    magn:    0.0000    constr:    0.0000
     atom:   42    charge:    3.1181    magn:   -0.0000    constr:    0.0000
     atom:   43    charge:    2.0838    magn:    0.0001    constr:    0.0000
     atom:   44    charge:    2.0865    magn:    0.0000    constr:    0.0000
     atom:   45    charge:    2.0871    magn:    0.0000    constr:    0.0000
     atom:   46    charge:    3.1171    magn:   -0.0001    constr:    0.0000
     atom:   47    charge:    2.0796    magn:    0.0001    constr:    0.0000
     atom:   48    charge:    2.0840    magn:    0.0001    constr:    0.0000
     atom:   49    charge:    2.0598    magn:    0.0000    constr:    0.0000
     atom:   50    charge:    1.2429    magn:   -0.0000    constr:    0.0000
     atom:   51    charge:    1.2766    magn:    0.0000    constr:    0.0000

     total cpu time spent up to now is     1908.6 secs

     total energy              =   -3044.95733919 Ry
     Harris-Foulkes estimate   =   -3044.95735955 Ry
     estimated scf accuracy    <       0.00011722 Ry

     total magnetization       =     0.00 Bohr mag/cell
     absolute magnetization    =     0.00 Bohr mag/cell

     iteration #  7     ecut=    40.42 Ry     beta=0.10
     Davidson diagonalization with overlap
     ethr =  2.93E-08,  avg # of iterations =  2.0

     negative rho (up, down):  1.156E-02 1.156E-02
 
     Magnetic moment per site:
     atom:    1    charge:    3.1250    magn:   -0.0001    constr:    0.0000
     atom:    2    charge:    2.0894    magn:    0.0000    constr:    0.0000
     atom:    3    charge:    3.1196    magn:   -0.0000    constr:    0.0000
     atom:    4    charge:    2.0870    magn:    0.0000    constr:    0.0000
     atom:    5    charge:    3.1170    magn:   -0.0000    constr:    0.0000
     atom:    6    charge:    2.0917    magn:    0.0000    constr:    0.0000
     atom:    7    charge:    3.1186    magn:   -0.0000    constr:    0.0000
     atom:    8    charge:    2.0816    magn:    0.0000    constr:    0.0000
     atom:    9    charge:    3.1250    magn:   -0.0001    constr:    0.0000
     atom:   10    charge:    2.0894    magn:    0.0000    constr:    0.0000
     atom:   11    charge:    3.1196    magn:   -0.0000    constr:    0.0000
     atom:   12    charge:    2.0870    magn:    0.0000    constr:    0.0000
     atom:   13    charge:    3.1148    magn:   -0.0000    constr:    0.0000
     atom:   14    charge:    2.0911    magn:    0.0000    constr:    0.0000
     atom:   15    charge:    3.1195    magn:   -0.0000    constr:    0.0000
     atom:   16    charge:    2.0884    magn:    0.0000    constr:    0.0000
     atom:   17    charge:    2.0623    magn:    0.0001    constr:    0.0000
     atom:   18    charge:    3.1239    magn:   -0.0000    constr:    0.0000
     atom:   19    charge:    2.0878    magn:   -0.0000    constr:    0.0000
     atom:   20    charge:    2.0847    magn:   -0.0000    constr:    0.0000
     atom:   21    charge:    2.0847    magn:   -0.0000    constr:    0.0000
     atom:   22    charge:    3.1197    magn:   -0.0000    constr:    0.0000
     atom:   23    charge:    2.0909    magn:    0.0000    constr:    0.0000
     atom:   24    charge:    2.0777    magn:    0.0000    constr:    0.0000
     atom:   25    charge:    2.0869    magn:    0.0000    constr:    0.0000
     atom:   26    charge:    3.1165    magn:   -0.0000    constr:    0.0000
     atom:   27    charge:    2.0823    magn:    0.0001    constr:    0.0000
     atom:   28    charge:    2.0879    magn:    0.0000    constr:    0.0000
     atom:   29    charge:    2.0877    magn:    0.0000    constr:    0.0000
     atom:   30    charge:    3.1168    magn:   -0.0000    constr:    0.0000
     atom:   31    charge:    2.0815    magn:    0.0001    constr:    0.0000
     atom:   32    charge:    2.0843    magn:    0.0000    constr:    0.0000
     atom:   33    charge:    2.0623    magn:    0.0001    constr:    0.0000
     atom:   34    charge:    3.1239    magn:   -0.0000    constr:    0.0000
     atom:   35    charge:    2.0878    magn:   -0.0000    constr:    0.0000
     atom:   36    charge:    2.0847    magn:   -0.0000    constr:    0.0000
     atom:   37    charge:    2.0847    magn:   -0.0000    constr:    0.0000
     atom:   38    charge:    3.1197    magn:   -0.0000    constr:    0.0000
     atom:   39    charge:    2.0912    magn:    0.0000    constr:    0.0000
     atom:   40    charge:    2.0777    magn:    0.0000    constr:    0.0000
     atom:   41    charge:    2.0869    magn:    0.0000    constr:    0.0000
     atom:   42    charge:    3.1181    magn:   -0.0000    constr:    0.0000
     atom:   43    charge:    2.0837    magn:    0.0001    constr:    0.0000
     atom:   44    charge:    2.0864    magn:    0.0000    constr:    0.0000
     atom:   45    charge:    2.0871    magn:    0.0000    constr:    0.0000
     atom:   46    charge:    3.1171    magn:   -0.0000    constr:    0.0000
     atom:   47    charge:    2.0796    magn:    0.0001    constr:    0.0000
     atom:   48    charge:    2.0840    magn:    0.0000    constr:    0.0000
     atom:   49    charge:    2.0596    magn:    0.0000    constr:    0.0000
     atom:   50    charge:    1.2437    magn:   -0.0000    constr:    0.0000
     atom:   51    charge:    1.2772    magn:    0.0000    constr:    0.0000

     total cpu time spent up to now is     2100.2 secs

     total energy              =   -3044.95732639 Ry
     Harris-Foulkes estimate   =   -3044.95734277 Ry
     estimated scf accuracy    <       0.00005743 Ry

     total magnetization       =     0.00 Bohr mag/cell
     absolute magnetization    =     0.00 Bohr mag/cell

     iteration #  8     ecut=    40.42 Ry     beta=0.10
     Davidson diagonalization with overlap
     ethr =  1.44E-08,  avg # of iterations =  3.0

     negative rho (up, down):  1.156E-02 1.156E-02
 
     Magnetic moment per site:
     atom:    1    charge:    3.1250    magn:   -0.0000    constr:    0.0000
     atom:    2    charge:    2.0894    magn:    0.0000    constr:    0.0000
     atom:    3    charge:    3.1196    magn:   -0.0000    constr:    0.0000
     atom:    4    charge:    2.0870    magn:    0.0000    constr:    0.0000
     atom:    5    charge:    3.1170    magn:   -0.0000    constr:    0.0000
     atom:    6    charge:    2.0917    magn:    0.0000    constr:    0.0000
     atom:    7    charge:    3.1185    magn:   -0.0000    constr:    0.0000
     atom:    8    charge:    2.0816    magn:    0.0000    constr:    0.0000
     atom:    9    charge:    3.1250    magn:   -0.0000    constr:    0.0000
     atom:   10    charge:    2.0894    magn:    0.0000    constr:    0.0000
     atom:   11    charge:    3.1196    magn:   -0.0000    constr:    0.0000
     atom:   12    charge:    2.0870    magn:    0.0000    constr:    0.0000
     atom:   13    charge:    3.1148    magn:   -0.0000    constr:    0.0000
     atom:   14    charge:    2.0911    magn:    0.0000    constr:    0.0000
     atom:   15    charge:    3.1195    magn:   -0.0000    constr:    0.0000
     atom:   16    charge:    2.0884    magn:    0.0000    constr:    0.0000
     atom:   17    charge:    2.0624    magn:    0.0001    constr:    0.0000
     atom:   18    charge:    3.1239    magn:   -0.0000    constr:    0.0000
     atom:   19    charge:    2.0878    magn:   -0.0000    constr:    0.0000
     atom:   20    charge:    2.0847    magn:   -0.0000    constr:    0.0000
     atom:   21    charge:    2.0847    magn:   -0.0000    constr:    0.0000
     atom:   22    charge:    3.1197    magn:   -0.0000    constr:    0.0000
     atom:   23    charge:    2.0909    magn:    0.0000    constr:    0.0000
     atom:   24    charge:    2.0777    magn:    0.0000    constr:    0.0000
     atom:   25    charge:    2.0869    magn:    0.0000    constr:    0.0000
     atom:   26    charge:    3.1165    magn:   -0.0000    constr:    0.0000
     atom:   27    charge:    2.0823    magn:    0.0000    constr:    0.0000
     atom:   28    charge:    2.0879    magn:    0.0000    constr:    0.0000
     atom:   29    charge:    2.0877    magn:    0.0000    constr:    0.0000
     atom:   30    charge:    3.1168    magn:   -0.0000    constr:    0.0000
     atom:   31    charge:    2.0815    magn:    0.0001    constr:    0.0000
     atom:   32    charge:    2.0843    magn:    0.0000    constr:    0.0000
     atom:   33    charge:    2.0624    magn:    0.0001    constr:    0.0000
     atom:   34    charge:    3.1239    magn:   -0.0000    constr:    0.0000
     atom:   35    charge:    2.0878    magn:   -0.0000    constr:    0.0000
     atom:   36    charge:    2.0847    magn:   -0.0000    constr:    0.0000
     atom:   37    charge:    2.0847    magn:   -0.0000    constr:    0.0000
     atom:   38    charge:    3.1197    magn:   -0.0000    constr:    0.0000
     atom:   39    charge:    2.0912    magn:    0.0000    constr:    0.0000
     atom:   40    charge:    2.0777    magn:    0.0000    constr:    0.0000
     atom:   41    charge:    2.0869    magn:    0.0000    constr:    0.0000
     atom:   42    charge:    3.1181    magn:   -0.0000    constr:    0.0000
     atom:   43    charge:    2.0837    magn:    0.0000    constr:    0.0000
     atom:   44    charge:    2.0865    magn:    0.0000    constr:    0.0000
     atom:   45    charge:    2.0871    magn:    0.0000    constr:    0.0000
     atom:   46    charge:    3.1171    magn:   -0.0000    constr:    0.0000
     atom:   47    charge:    2.0796    magn:    0.0001    constr:    0.0000
     atom:   48    charge:    2.0838    magn:    0.0000    constr:    0.0000
     atom:   49    charge:    2.0596    magn:    0.0000    constr:    0.0000
     atom:   50    charge:    1.2442    magn:   -0.0000    constr:    0.0000
     atom:   51    charge:    1.2774    magn:    0.0000    constr:    0.0000

     total cpu time spent up to now is     2306.2 secs

     total energy              =   -3044.95732798 Ry
     Harris-Foulkes estimate   =   -3044.95733017 Ry
     estimated scf accuracy    <       0.00001049 Ry

     total magnetization       =     0.00 Bohr mag/cell
     absolute magnetization    =     0.00 Bohr mag/cell

     iteration #  9     ecut=    40.42 Ry     beta=0.10
     Davidson diagonalization with overlap
     ethr =  2.62E-09,  avg # of iterations =  3.0

     negative rho (up, down):  1.156E-02 1.156E-02
 
     Magnetic moment per site:
     atom:    1    charge:    3.1250    magn:   -0.0000    constr:    0.0000
     atom:    2    charge:    2.0894    magn:    0.0000    constr:    0.0000
     atom:    3    charge:    3.1196    magn:   -0.0000    constr:    0.0000
     atom:    4    charge:    2.0870    magn:    0.0000    constr:    0.0000
     atom:    5    charge:    3.1170    magn:   -0.0000    constr:    0.0000
     atom:    6    charge:    2.0917    magn:    0.0000    constr:    0.0000
     atom:    7    charge:    3.1185    magn:   -0.0000    constr:    0.0000
     atom:    8    charge:    2.0816    magn:    0.0000    constr:    0.0000
     atom:    9    charge:    3.1250    magn:   -0.0000    constr:    0.0000
     atom:   10    charge:    2.0894    magn:    0.0000    constr:    0.0000
     atom:   11    charge:    3.1196    magn:   -0.0000    constr:    0.0000
     atom:   12    charge:    2.0870    magn:    0.0000    constr:    0.0000
     atom:   13    charge:    3.1148    magn:   -0.0000    constr:    0.0000
     atom:   14    charge:    2.0911    magn:    0.0000    constr:    0.0000
     atom:   15    charge:    3.1195    magn:   -0.0000    constr:    0.0000
     atom:   16    charge:    2.0883    magn:    0.0000    constr:    0.0000
     atom:   17    charge:    2.0624    magn:    0.0001    constr:    0.0000
     atom:   18    charge:    3.1239    magn:   -0.0000    constr:    0.0000
     atom:   19    charge:    2.0878    magn:   -0.0000    constr:    0.0000
     atom:   20    charge:    2.0847    magn:   -0.0000    constr:    0.0000
     atom:   21    charge:    2.0847    magn:   -0.0000    constr:    0.0000
     atom:   22    charge:    3.1197    magn:   -0.0000    constr:    0.0000
     atom:   23    charge:    2.0909    magn:    0.0000    constr:    0.0000
     atom:   24    charge:    2.0777    magn:    0.0000    constr:    0.0000
     atom:   25    charge:    2.0869    magn:    0.0000    constr:    0.0000
     atom:   26    charge:    3.1165    magn:   -0.0000    constr:    0.0000
     atom:   27    charge:    2.0824    magn:    0.0000    constr:    0.0000
     atom:   28    charge:    2.0879    magn:    0.0000    constr:    0.0000
     atom:   29    charge:    2.0877    magn:    0.0000    constr:    0.0000
     atom:   30    charge:    3.1168    magn:   -0.0000    constr:    0.0000
     atom:   31    charge:    2.0816    magn:    0.0001    constr:    0.0000
     atom:   32    charge:    2.0843    magn:    0.0000    constr:    0.0000
     atom:   33    charge:    2.0624    magn:    0.0001    constr:    0.0000
     atom:   34    charge:    3.1239    magn:   -0.0000    constr:    0.0000
     atom:   35    charge:    2.0878    magn:   -0.0000    constr:    0.0000
     atom:   36    charge:    2.0847    magn:   -0.0000    constr:    0.0000
     atom:   37    charge:    2.0847    magn:   -0.0000    constr:    0.0000
     atom:   38    charge:    3.1197    magn:   -0.0000    constr:    0.0000
     atom:   39    charge:    2.0912    magn:    0.0000    constr:    0.0000
     atom:   40    charge:    2.0777    magn:    0.0000    constr:    0.0000
     atom:   41    charge:    2.0869    magn:    0.0000    constr:    0.0000
     atom:   42    charge:    3.1181    magn:   -0.0000    constr:    0.0000
     atom:   43    charge:    2.0838    magn:    0.0000    constr:    0.0000
     atom:   44    charge:    2.0865    magn:    0.0000    constr:    0.0000
     atom:   45    charge:    2.0871    magn:    0.0000    constr:    0.0000
     atom:   46    charge:    3.1171    magn:   -0.0000    constr:    0.0000
     atom:   47    charge:    2.0797    magn:    0.0001    constr:    0.0000
     atom:   48    charge:    2.0838    magn:    0.0000    constr:    0.0000
     atom:   49    charge:    2.0597    magn:    0.0000    constr:    0.0000
     atom:   50    charge:    1.2440    magn:   -0.0000    constr:    0.0000
     atom:   51    charge:    1.2773    magn:    0.0000    constr:    0.0000

     total cpu time spent up to now is     2515.2 secs

     total energy              =   -3044.95732792 Ry
     Harris-Foulkes estimate   =   -3044.95732912 Ry
     estimated scf accuracy    <       0.00000516 Ry

     total magnetization       =     0.00 Bohr mag/cell
     absolute magnetization    =     0.00 Bohr mag/cell

     iteration # 10     ecut=    40.42 Ry     beta=0.10
     Davidson diagonalization with overlap
     ethr =  1.29E-09,  avg # of iterations =  2.0

     negative rho (up, down):  1.156E-02 1.156E-02
 
     Magnetic moment per site:
     atom:    1    charge:    3.1250    magn:   -0.0000    constr:    0.0000
     atom:    2    charge:    2.0894    magn:    0.0000    constr:    0.0000
     atom:    3    charge:    3.1196    magn:   -0.0000    constr:    0.0000
     atom:    4    charge:    2.0870    magn:    0.0000    constr:    0.0000
     atom:    5    charge:    3.1170    magn:   -0.0000    constr:    0.0000
     atom:    6    charge:    2.0916    magn:    0.0000    constr:    0.0000
     atom:    7    charge:    3.1186    magn:   -0.0000    constr:    0.0000
     atom:    8    charge:    2.0815    magn:    0.0000    constr:    0.0000
     atom:    9    charge:    3.1250    magn:   -0.0000    constr:    0.0000
     atom:   10    charge:    2.0894    magn:    0.0000    constr:    0.0000
     atom:   11    charge:    3.1196    magn:   -0.0000    constr:    0.0000
     atom:   12    charge:    2.0870    magn:    0.0000    constr:    0.0000
     atom:   13    charge:    3.1148    magn:   -0.0000    constr:    0.0000
     atom:   14    charge:    2.0911    magn:    0.0000    constr:    0.0000
     atom:   15    charge:    3.1195    magn:   -0.0000    constr:    0.0000
     atom:   16    charge:    2.0883    magn:    0.0000    constr:    0.0000
     atom:   17    charge:    2.0623    magn:    0.0000    constr:    0.0000
     atom:   18    charge:    3.1239    magn:   -0.0000    constr:    0.0000
     atom:   19    charge:    2.0878    magn:   -0.0000    constr:    0.0000
     atom:   20    charge:    2.0847    magn:   -0.0000    constr:    0.0000
     atom:   21    charge:    2.0846    magn:   -0.0000    constr:    0.0000
     atom:   22    charge:    3.1197    magn:   -0.0000    constr:    0.0000
     atom:   23    charge:    2.0908    magn:    0.0000    constr:    0.0000
     atom:   24    charge:    2.0777    magn:    0.0000    constr:    0.0000
     atom:   25    charge:    2.0869    magn:    0.0000    constr:    0.0000
     atom:   26    charge:    3.1165    magn:   -0.0000    constr:    0.0000
     atom:   27    charge:    2.0824    magn:    0.0000    constr:    0.0000
     atom:   28    charge:    2.0879    magn:    0.0000    constr:    0.0000
     atom:   29    charge:    2.0877    magn:    0.0000    constr:    0.0000
     atom:   30    charge:    3.1168    magn:   -0.0000    constr:    0.0000
     atom:   31    charge:    2.0816    magn:    0.0000    constr:    0.0000
     atom:   32    charge:    2.0842    magn:    0.0000    constr:    0.0000
     atom:   33    charge:    2.0623    magn:    0.0000    constr:    0.0000
     atom:   34    charge:    3.1239    magn:   -0.0000    constr:    0.0000
     atom:   35    charge:    2.0878    magn:   -0.0000    constr:    0.0000
     atom:   36    charge:    2.0847    magn:   -0.0000    constr:    0.0000
     atom:   37    charge:    2.0846    magn:   -0.0000    constr:    0.0000
     atom:   38    charge:    3.1197    magn:   -0.0000    constr:    0.0000
     atom:   39    charge:    2.0912    magn:    0.0000    constr:    0.0000
     atom:   40    charge:    2.0777    magn:    0.0000    constr:    0.0000
     atom:   41    charge:    2.0869    magn:    0.0000    constr:    0.0000
     atom:   42    charge:    3.1181    magn:   -0.0000    constr:    0.0000
     atom:   43    charge:    2.0838    magn:    0.0000    constr:    0.0000
     atom:   44    charge:    2.0865    magn:    0.0000    constr:    0.0000
     atom:   45    charge:    2.0871    magn:    0.0000    constr:    0.0000
     atom:   46    charge:    3.1171    magn:   -0.0000    constr:    0.0000
     atom:   47    charge:    2.0797    magn:    0.0000    constr:    0.0000
     atom:   48    charge:    2.0839    magn:    0.0000    constr:    0.0000
     atom:   49    charge:    2.0597    magn:    0.0000    constr:    0.0000
     atom:   50    charge:    1.2438    magn:   -0.0000    constr:    0.0000
     atom:   51    charge:    1.2772    magn:    0.0000    constr:    0.0000

     total cpu time spent up to now is     2706.6 secs

     End of self-consistent calculation

 ------ SPIN UP ------------


          k = 0.0000 0.0000 0.0000 ( 34665 PWs)   bands (ev):

   -57.8475 -57.8125 -57.5431 -57.4873 -57.4229 -57.3866 -57.3049 -57.2695
   -57.2080 -57.1727 -57.1479 -57.1125 -56.9186 -56.8448 -56.3086 -56.2733
   -34.2838 -34.1287 -34.1001 -34.0900 -34.0490 -33.9547 -33.8987 -33.8939
   -33.8591 -33.7984 -33.7661 -33.7571 -33.7506 -33.7179 -33.6992 -33.6983
   -33.6792 -33.6701 -33.6519 -33.5835 -33.5597 -33.4930 -33.4863 -33.4656
   -33.4586 -33.4568 -33.4216 -33.4136 -33.4052 -33.3879 -33.3835 -33.3632
   -33.3438 -33.3378 -33.3070 -33.3048 -33.2792 -33.1802 -33.1744 -33.1167
   -33.0723 -32.9721 -32.7273 -32.6598 -32.6337 -32.5313 -32.4395 -32.3312
   -24.3990 -20.8741 -18.2068 -18.0007 -17.7857 -17.6590 -17.5266 -17.5245
   -17.2404 -17.2159 -17.1771 -17.0816 -17.0805 -17.0339 -17.0301 -16.9516
   -16.9091 -16.8893 -16.8708 -16.8298 -16.7609 -16.7173 -16.6027 -16.5744
   -16.5529 -16.5393 -16.4488 -16.3369 -16.3044 -16.2738 -16.1408 -16.1115
   -14.8906 -14.8057  -9.8817  -7.4595  -7.4407  -5.9742  -5.5972  -5.5365
    -5.3921  -5.3836  -5.3226  -5.0279  -4.9654  -4.6184  -4.6109  -4.5781
    -4.5706  -4.5202  -4.3921  -4.3022  -4.2528  -4.2339  -4.2008  -4.1966
    -4.1914  -4.1830  -4.1164  -4.1103  -4.0387  -4.0153  -3.9835  -3.9448
    -3.9059  -3.8401  -3.8024  -3.7771  -3.7494  -3.6695  -3.6493  -3.5742
    -3.5717  -3.5473  -3.4836  -3.3619  -3.2300  -3.1943  -3.0914  -3.0291
    -2.9749  -2.9081  -2.8427  -2.8254  -2.7714  -2.7695  -2.7498  -2.6296
    -2.5919  -2.5334  -2.4658  -2.4281  -2.3989  -2.3841  -2.3525  -2.3119
    -2.3072  -2.2787  -2.2422  -2.2127  -2.2034  -2.0809  -2.0212  -1.9243
    -1.7804  -1.7747  -1.7561  -1.7094  -1.6827  -1.6693  -1.5919  -1.5658
    -1.4699  -1.4620  -1.4387  -1.4236  -1.4194  -1.3146  -1.2604  -1.2524
    -1.2339  -1.1625  -1.1028  -1.0440  -0.9464  -0.7702  -0.7389  -0.7367
    -0.6783  -0.5462  -0.3945  -0.2589  -0.2004  -0.0323   0.0948   0.1099
     1.4946   1.5229   1.8056   1.8363   1.8566   1.8710   2.0375   2.0608
     2.0938   2.2086   2.3292   2.3440   2.3830   2.3994   2.4339   2.4490
     2.5017   2.5352   2.5888   2.6329   2.6400   2.6519   2.7247   2.7720
     2.8337   2.8628   2.9582   2.9679   2.9691   2.9890   3.0362   3.0512
     3.0690   3.0696   3.0775   3.1150   3.2026   3.2091   3.2741   3.2747
     3.3204   3.3581   3.3875   3.4996   3.5051   3.6399   3.8498   3.9493
     3.9534   4.0194   4.0232   4.1483   4.2288   4.4355   4.5060   4.6266
     4.8772   4.9146   4.9819   5.1108   5.1816   5.3638   5.3703   5.3932
     5.4640   5.5544   5.5966   5.6103   5.6850   5.7020   5.7086   5.7640
     5.8976   5.9567   5.9873   5.9875   6.0683   6.1147   6.1931   6.2008
     6.4441   6.6161   6.7380   6.7653   6.8570   7.1399   7.2837   7.5576
     7.9488   7.9877   8.1522   8.4332   8.6840   8.9034   8.9333   8.9542
     9.2403   9.2704   9.2734   9.3688

          k = 0.0000 0.0280 0.0000 ( 34717 PWs)   bands (ev):

   -57.8452 -57.8149 -57.5416 -57.4888 -57.4206 -57.3890 -57.3025 -57.2719
   -57.2057 -57.1750 -57.1455 -57.1149 -56.9174 -56.8460 -56.3062 -56.2756
   -34.2584 -34.1267 -34.1020 -34.0642 -34.0428 -33.9612 -33.9209 -33.8736
   -33.8526 -33.7756 -33.7681 -33.7609 -33.7488 -33.7189 -33.7031 -33.6995
   -33.6739 -33.6461 -33.6454 -33.5765 -33.5688 -33.5181 -33.4842 -33.4753
   -33.4604 -33.4508 -33.4324 -33.4095 -33.3953 -33.3868 -33.3822 -33.3697
   -33.3430 -33.3427 -33.3327 -33.3065 -33.3049 -33.1797 -33.1714 -33.1173
   -33.0766 -33.0003 -32.7016 -32.6581 -32.6356 -32.5252 -32.4458 -32.3587
   -24.3990 -20.8741 -18.1453 -17.9427 -17.7328 -17.6057 -17.5059 -17.4776
   -17.2600 -17.2180 -17.1856 -17.1455 -17.0859 -17.0316 -17.0215 -16.9378
   -16.9233 -16.8752 -16.8580 -16.8309 -16.7916 -16.7749 -16.6269 -16.5700
   -16.5442 -16.5317 -16.4784 -16.3329 -16.3222 -16.2918 -16.1664 -16.1537
   -14.9004 -14.8289  -9.8816  -7.4610  -7.4405  -5.9731  -5.5092  -5.4522
    -5.3136  -5.3046  -5.2452  -4.9100  -4.8903  -4.6432  -4.6131  -4.5419
    -4.5172  -4.4826  -4.3475  -4.3186  -4.3175  -4.2659  -4.2592  -4.2266
    -4.1891  -4.1745  -4.1352  -4.1225  -4.1100  -4.0809  -4.0377  -4.0141
    -3.9579  -3.9525  -3.8878  -3.8293  -3.7645  -3.7493  -3.7302  -3.5961
    -3.5141  -3.5012  -3.4112  -3.3366  -3.1558  -3.1080  -3.0214  -2.9804
    -2.8545  -2.8186  -2.7814  -2.7755  -2.6994  -2.6697  -2.6627  -2.6454
    -2.5977  -2.5848  -2.5478  -2.4829  -2.4396  -2.3797  -2.3509  -2.3083
    -2.2672  -2.2493  -2.2345  -2.1561  -2.0818  -2.0488  -1.9666  -1.9063
    -1.8723  -1.8494  -1.8185  -1.8070  -1.7237  -1.7013  -1.6606  -1.6284
    -1.5858  -1.5200  -1.4973  -1.4352  -1.4180  -1.3876  -1.3080  -1.2651
    -1.2225  -1.1813  -1.0942  -1.0567  -0.9775  -0.9382  -0.8722  -0.7914
    -0.7585  -0.5608  -0.4363  -0.2558  -0.2472  -0.0213   0.0493   0.0743
     1.5798   1.6271   1.8366   1.8395   1.8937   1.9751   2.0165   2.0841
     2.1450   2.2371   2.2944   2.3476   2.3517   2.4116   2.4217   2.4584
     2.4881   2.5060   2.5620   2.6034   2.6541   2.7055   2.7381   2.7516
     2.7933   2.8495   2.9080   2.9252   2.9620   2.9895   3.0138   3.0464
     3.0629   3.0720   3.1577   3.1671   3.2262   3.2732   3.2943   3.3487
     3.3919   3.4339   3.4736   3.4832   3.5341   3.6069   3.7995   3.9099
     3.9541   4.0278   4.0992   4.1236   4.1606   4.3784   4.5643   4.7253
     4.8825   4.9918   5.0800   5.1764   5.1859   5.3784   5.3974   5.4522
     5.4664   5.5352   5.5694   5.5958   5.6398   5.6653   5.7048   5.7973
     5.8578   5.8992   5.9502   5.9923   5.9966   6.0297   6.0902   6.2773
     6.4247   6.5225   6.7136   6.7632   6.7857   7.0468   7.3686   7.4577
     7.7299   7.9645   8.1072   8.3004   8.4241   8.7493   9.0140   9.0608
     9.0915   9.3100   9.3772   9.4223

          k = 0.0000 0.0560 0.0000 ( 34721 PWs)   bands (ev):

   -57.8388 -57.8213 -57.5383 -57.4921 -57.4144 -57.3952 -57.2961 -57.2784
   -57.1993 -57.1815 -57.1391 -57.1214 -56.9149 -56.8486 -56.2998 -56.2821
   -34.1886 -34.1214 -34.1070 -34.0257 -33.9939 -33.9937 -33.9786 -33.8370
   -33.8072 -33.7963 -33.7845 -33.7457 -33.7379 -33.7233 -33.7041 -33.6989
   -33.6279 -33.6093 -33.6039 -33.5776 -33.5689 -33.5570 -33.5057 -33.4993
   -33.4788 -33.4651 -33.4344 -33.4084 -33.4051 -33.3874 -33.3845 -33.3804
   -33.3704 -33.3559 -33.3344 -33.3332 -33.2991 -33.1790 -33.1678 -33.1186
   -33.0902 -33.0676 -32.6533 -32.6403 -32.6308 -32.5086 -32.4627 -32.4329
   -24.3989 -20.8739 -17.9738 -17.7825 -17.5928 -17.4790 -17.4575 -17.4516
   -17.3495 -17.3169 -17.2108 -17.1169 -17.1028 -17.0716 -17.0494 -17.0116
   -16.8898 -16.8887 -16.8753 -16.8441 -16.7786 -16.7190 -16.6907 -16.6474
   -16.5592 -16.5029 -16.4720 -16.3595 -16.3472 -16.3117 -16.2783 -16.2158
   -14.9180 -14.8792  -9.8813  -7.4641  -7.4400  -5.9712  -5.2670  -5.2165
    -5.1060  -5.0755  -5.0366  -4.7673  -4.6910  -4.6567  -4.5825  -4.5691
    -4.5416  -4.5281  -4.4992  -4.4169  -4.3851  -4.3807  -4.3558  -4.3509
    -4.2865  -4.2465  -4.2312  -4.1793  -4.1658  -4.1225  -4.0946  -4.0442
    -3.9829  -3.9554  -3.8854  -3.8083  -3.7522  -3.6308  -3.6046  -3.5103
    -3.4478  -3.4167  -3.3944  -3.2961  -3.2021  -3.0476  -3.0029  -2.9926
    -2.9598  -2.9065  -2.8093  -2.7608  -2.7106  -2.6767  -2.6338  -2.5007
    -2.4799  -2.4774  -2.4444  -2.4215  -2.3662  -2.3335  -2.3125  -2.3005
    -2.2345  -2.2090  -2.1302  -2.0988  -2.0799  -2.0630  -2.0425  -2.0206
    -1.9717  -1.9313  -1.8972  -1.8244  -1.7455  -1.7137  -1.6988  -1.6855
    -1.6663  -1.6009  -1.5468  -1.5285  -1.5122  -1.4709  -1.4053  -1.3840
    -1.3060  -1.2679  -1.1944  -1.1735  -1.0948  -1.0284  -0.9540  -0.9219
    -0.8230  -0.7420  -0.6220  -0.4210  -0.0664  -0.0107   0.0204   0.0235
     1.7166   1.8533   1.8793   1.9590   1.9821   2.0272   2.1085   2.1695
     2.1906   2.2288   2.2335   2.2503   2.2694   2.3295   2.3540   2.4790
     2.4933   2.5240   2.6182   2.6265   2.6528   2.7052   2.7235   2.7695
     2.7741   2.7993   2.8187   2.9116   2.9281   2.9830   3.0484   3.0646
     3.0802   3.1412   3.1578   3.1952   3.2915   3.3300   3.3838   3.3860
     3.4552   3.5266   3.5829   3.6337   3.6615   3.6914   3.7172   3.8163
     3.9520   3.9706   3.9841   4.0628   4.2135   4.2869   4.6899   4.8152
     4.9991   5.1372   5.2283   5.2711   5.3015   5.3707   5.3987   5.4453
     5.4930   5.5734   5.5827   5.5928   5.6141   5.6693   5.6957   5.7104
     5.7253   5.7662   5.8019   5.8692   5.9568   5.9996   6.1786   6.3021
     6.3518   6.3973   6.6194   6.6299   6.7826   6.8967   7.0244   7.2490
     7.6747   7.7097   7.8273   8.2839   8.4344   8.6198   8.8748   9.0447
     9.2641   9.3407   9.4561   9.5972

          k = 0.0000-0.0840 0.0000 ( 34678 PWs)   bands (ev):

   -57.8301 -57.8300 -57.5365 -57.4940 -57.4086 -57.4010 -57.2873 -57.2872
   -57.1918 -57.1890 -57.1313 -57.1292 -56.9135 -56.8499 -56.2910 -56.2909
   -34.1142 -34.1142 -34.0920 -34.0920 -34.0022 -34.0022 -33.9110 -33.8780
   -33.8201 -33.8028 -33.7503 -33.7411 -33.7270 -33.7084 -33.7036 -33.6927
   -33.6048 -33.6041 -33.6040 -33.5975 -33.5294 -33.5289 -33.5081 -33.5057
   -33.4865 -33.4786 -33.4720 -33.4716 -33.4120 -33.4097 -33.3831 -33.3801
   -33.3741 -33.3720 -33.3276 -33.3258 -33.2340 -33.1997 -33.1757 -33.1241
   -33.1184 -33.0866 -32.6468 -32.6468 -32.5328 -32.5328 -32.4856 -32.4856
   -24.3989 -20.8739 -17.7360 -17.7243 -17.5623 -17.5613 -17.4520 -17.4329
   -17.2810 -17.2739 -17.2079 -17.2071 -17.1746 -17.1713 -16.9894 -16.9892
   -16.9683 -16.9642 -16.8033 -16.7799 -16.7511 -16.7491 -16.6727 -16.6657
   -16.5840 -16.5376 -16.4054 -16.4039 -16.3615 -16.3599 -16.2833 -16.2826
   -14.9160 -14.9160  -9.8812  -7.4655  -7.4397  -5.9704  -4.9567  -4.9541
    -4.8828  -4.8827  -4.8361  -4.8217  -4.7936  -4.7865  -4.7505  -4.7360
    -4.5578  -4.5388  -4.5256  -4.5226  -4.4510  -4.4493  -4.4450  -4.4423
    -4.2926  -4.2535  -4.1874  -4.1867  -4.1729  -4.1510  -4.0416  -3.9832
    -3.9821  -3.9456  -3.8707  -3.8258  -3.6829  -3.6423  -3.4918  -3.4804
    -3.3253  -3.3179  -3.2550  -3.1836  -3.1566  -3.1342  -2.9948  -2.9767
    -2.9604  -2.9082  -2.8889  -2.8436  -2.7458  -2.7182  -2.7003  -2.6789
    -2.6526  -2.6461  -2.6019  -2.4859  -2.4769  -2.4519  -2.1905  -2.1515
    -2.1326  -2.0909  -2.0469  -2.0142  -1.9641  -1.9625  -1.9579  -1.9077
    -1.8988  -1.8956  -1.8785  -1.8224  -1.8080  -1.7381  -1.6591  -1.6583
    -1.6250  -1.6078  -1.5855  -1.5843  -1.5759  -1.5733  -1.5564  -1.4405
    -1.4074  -1.2955  -1.2807  -1.2516  -1.1572  -1.1502  -1.1280  -1.1206
    -0.7158  -0.6597  -0.6260  -0.6183  -0.0110  -0.0106   0.0264   0.0267
     1.8808   1.8849   1.9760   1.9786   2.0720   2.0744   2.0746   2.0904
     2.1958   2.1969   2.1971   2.2121   2.3084   2.3487   2.4038   2.4063
     2.4938   2.4987   2.5659   2.5666   2.6454   2.7161   2.7305   2.7929
     2.8003   2.8319   2.8717   2.9128   2.9440   2.9617   3.0204   3.0395
     3.0430   3.1646   3.2226   3.2955   3.3024   3.3035   3.3052   3.3875
     3.5857   3.5876   3.6554   3.6711   3.6957   3.7595   3.7611   3.8349
     3.8974   3.8996   3.9635   3.9639   4.0939   4.3739   4.7641   4.7891
     5.1208   5.1380   5.2578   5.2959   5.3580   5.3580   5.4627   5.4874
     5.5199   5.5369   5.5492   5.6101   5.6291   5.6709   5.6779   5.6785
     5.7413   5.8034   5.8113   5.8339   5.9782   5.9820   6.0229   6.0739
     6.3993   6.4037   6.5351   6.5718   6.8540   6.8584   6.9802   6.9932
     7.5079   7.5423   7.8148   8.2013   8.3453   8.6603   9.0469   9.1333
     9.4085   9.4533   9.5918   9.6366

          k = 0.0253 0.0000 0.0000 ( 34707 PWs)   bands (ev):

   -57.8475 -57.8125 -57.5431 -57.4873 -57.4229 -57.3867 -57.3049 -57.2695
   -57.2080 -57.1727 -57.1479 -57.1125 -56.9186 -56.8448 -56.3086 -56.2733
   -34.2841 -34.1287 -34.1002 -34.0901 -34.0483 -33.9547 -33.8993 -33.8940
   -33.8591 -33.7999 -33.7659 -33.7570 -33.7494 -33.7189 -33.7097 -33.6996
   -33.6793 -33.6561 -33.6501 -33.5779 -33.5602 -33.4931 -33.4862 -33.4652
   -33.4586 -33.4569 -33.4211 -33.4170 -33.4052 -33.3934 -33.3823 -33.3632
   -33.3438 -33.3376 -33.3072 -33.3048 -33.2793 -33.1813 -33.1745 -33.1167
   -33.0724 -32.9722 -32.7272 -32.6608 -32.6332 -32.5313 -32.4396 -32.3313
   -24.3990 -20.8741 -18.1787 -17.9591 -17.7455 -17.6210 -17.5261 -17.5211
   -17.2939 -17.2592 -17.1763 -17.0957 -17.0800 -17.0765 -17.0487 -16.9881
   -16.9415 -16.9305 -16.8453 -16.8242 -16.7342 -16.6381 -16.6348 -16.5535
   -16.5455 -16.5426 -16.4916 -16.3373 -16.2948 -16.2745 -16.1403 -16.1115
   -14.8894 -14.8055  -9.8810  -7.4598  -7.4403  -5.9736  -5.5681  -5.4197
    -5.2835  -5.2694  -5.2148  -5.0197  -4.9641  -4.8116  -4.6073  -4.5931
    -4.5489  -4.5225  -4.4731  -4.4647  -4.3637  -4.2292  -4.2182  -4.2003
    -4.1186  -4.1015  -4.0944  -4.0150  -3.9978  -3.9659  -3.9020  -3.8694
    -3.8625  -3.8431  -3.8055  -3.7579  -3.7312  -3.6476  -3.6068  -3.5173
    -3.4947  -3.4525  -3.3652  -3.2882  -3.2460  -3.1855  -3.1633  -3.0609
    -3.0456  -2.9452  -2.9219  -2.8156  -2.7886  -2.7491  -2.7305  -2.7036
    -2.6785  -2.6407  -2.5285  -2.5258  -2.4774  -2.4049  -2.3909  -2.3422
    -2.2842  -2.2474  -2.2442  -2.1625  -2.1254  -2.0605  -1.9677  -1.9280
    -1.8293  -1.8037  -1.7848  -1.7576  -1.7321  -1.6647  -1.6387  -1.5229
    -1.5138  -1.5057  -1.4606  -1.4410  -1.3874  -1.3712  -1.3037  -1.2822
    -1.2608  -1.1480  -1.1252  -1.0240  -0.9896  -0.9256  -0.8420  -0.7995
    -0.7172  -0.5898  -0.3890  -0.2887  -0.2286  -0.0464   0.0523   0.0533
     1.5113   1.5787   1.8558   1.8699   1.9595   1.9819   2.0265   2.1088
     2.1876   2.2191   2.2849   2.2970   2.3387   2.3934   2.4083   2.4217
     2.4370   2.5088   2.5153   2.5776   2.6417   2.6542   2.6849   2.7948
     2.8104   2.8660   2.9703   2.9739   2.9834   3.0470   3.0595   3.0705
     3.1238   3.1565   3.1820   3.2070   3.2151   3.2668   3.3058   3.3545
     3.3685   3.4033   3.4402   3.4674   3.5621   3.5856   3.7801   3.8550
     4.0137   4.0303   4.0351   4.1363   4.2137   4.3886   4.6123   4.6524
     4.7382   4.8987   4.9169   4.9601   4.9847   5.0363   5.2018   5.4725
     5.5431   5.6059   5.6993   5.7108   5.7770   5.8088   5.9147   5.9298
     5.9766   6.0095   6.0129   6.0448   6.1082   6.1234   6.2367   6.2925
     6.4584   6.6308   6.7272   6.7445   6.8610   7.1398   7.1620   7.3557
     7.8276   8.0331   8.1729   8.3334   8.4083   8.7347   8.8498   8.9353
     8.9847   9.2505   9.2764   9.4179

          k = 0.0253 0.0280 0.0000 ( 34687 PWs)   bands (ev):

   -57.8451 -57.8149 -57.5416 -57.4888 -57.4206 -57.3890 -57.3025 -57.2719
   -57.2057 -57.1750 -57.1456 -57.1149 -56.9174 -56.8460 -56.3062 -56.2756
   -34.2587 -34.1267 -34.1020 -34.0643 -34.0421 -33.9611 -33.9209 -33.8742
   -33.8527 -33.7766 -33.7684 -33.7607 -33.7475 -33.7193 -33.7063 -33.7031
   -33.6742 -33.6437 -33.6372 -33.5711 -33.5689 -33.5182 -33.4841 -33.4739
   -33.4604 -33.4509 -33.4332 -33.4127 -33.3949 -33.3912 -33.3817 -33.3697
   -33.3430 -33.3428 -33.3328 -33.3065 -33.3048 -33.1806 -33.1714 -33.1174
   -33.0766 -33.0003 -32.7015 -32.6590 -32.6350 -32.5252 -32.4458 -32.3587
   -24.3989 -20.8740 -18.1185 -17.9020 -17.6941 -17.5692 -17.5053 -17.4724
   -17.2785 -17.2621 -17.2337 -17.1098 -17.0911 -17.0755 -17.0199 -16.9782
   -16.9519 -16.8938 -16.8640 -16.8545 -16.7783 -16.6867 -16.6591 -16.5730
   -16.5346 -16.5292 -16.5076 -16.3327 -16.3131 -16.2922 -16.1661 -16.1540
   -14.8994 -14.8290  -9.8808  -7.4612  -7.4400  -5.9726  -5.4837  -5.3348
    -5.2030  -5.1911  -5.1367  -4.9045  -4.8889  -4.7581  -4.6000  -4.5479
    -4.5007  -4.4755  -4.4438  -4.3847  -4.3502  -4.3149  -4.2537  -4.2218
    -4.1855  -4.1497  -4.1173  -4.0995  -4.0618  -4.0001  -3.9884  -3.9573
    -3.9441  -3.8822  -3.8741  -3.7846  -3.7637  -3.7082  -3.7026  -3.5096
    -3.4842  -3.4184  -3.3652  -3.3059  -3.1900  -3.1326  -3.0978  -2.9562
    -2.8741  -2.8488  -2.8238  -2.8121  -2.7763  -2.7064  -2.6585  -2.6426
    -2.6180  -2.6018  -2.5756  -2.5451  -2.4833  -2.4319  -2.3792  -2.3543
    -2.2958  -2.2741  -2.2226  -2.1392  -2.0917  -2.0613  -2.0196  -1.9380
    -1.9075  -1.8816  -1.8191  -1.7929  -1.7670  -1.7476  -1.6917  -1.6524
    -1.5962  -1.5384  -1.5079  -1.4941  -1.4463  -1.4061  -1.3568  -1.2588
    -1.2357  -1.2278  -1.0815  -1.0240  -1.0035  -0.9376  -0.9142  -0.8973
    -0.8108  -0.5995  -0.4475  -0.3085  -0.2412  -0.0168   0.0253   0.0343
     1.5729   1.6998   1.8672   1.8738   1.9893   2.0050   2.1100   2.1434
     2.2062   2.2511   2.2877   2.2994   2.3510   2.3634   2.3846   2.3960
     2.4774   2.5135   2.5505   2.5802   2.6013   2.6600   2.7454   2.7755
     2.8140   2.8645   2.9471   2.9533   2.9652   2.9719   3.0238   3.0651
     3.1331   3.1817   3.2294   3.2421   3.2685   3.2777   3.3411   3.3832
     3.4292   3.4523   3.4924   3.5082   3.5509   3.5961   3.7347   3.8526
     3.9867   4.0188   4.0593   4.1442   4.1848   4.3379   4.6561   4.7390
     4.7903   4.9127   4.9578   4.9993   5.0108   5.1012   5.2597   5.4969
     5.5337   5.5761   5.6145   5.6974   5.7176   5.7936   5.8498   5.8952
     5.9285   5.9717   5.9971   6.0211   6.0238   6.0915   6.2723   6.2994
     6.4441   6.5299   6.7227   6.7612   6.7909   7.0372   7.2369   7.4214
     7.5896   7.9970   8.1508   8.2850   8.3846   8.5121   8.5931   8.8595
     9.0353   9.2930   9.4040   9.4703

          k = 0.0253 0.0560 0.0000 ( 34699 PWs)   bands (ev):

   -57.8388 -57.8213 -57.5383 -57.4921 -57.4144 -57.3952 -57.2961 -57.2784
   -57.1993 -57.1815 -57.1391 -57.1214 -56.9149 -56.8486 -56.2998 -56.2821
   -34.1889 -34.1214 -34.1071 -34.0252 -33.9940 -33.9937 -33.9784 -33.8370
   -33.8075 -33.7965 -33.7845 -33.7450 -33.7379 -33.7235 -33.7057 -33.7002
   -33.6268 -33.6091 -33.6045 -33.5740 -33.5687 -33.5526 -33.5065 -33.4961
   -33.4788 -33.4651 -33.4344 -33.4086 -33.4069 -33.3879 -33.3875 -33.3815
   -33.3705 -33.3565 -33.3344 -33.3332 -33.2990 -33.1796 -33.1679 -33.1189
   -33.0902 -33.0675 -32.6539 -32.6401 -32.6307 -32.5086 -32.4627 -32.4329
   -24.3989 -20.8739 -17.9515 -17.7454 -17.5602 -17.4733 -17.4486 -17.4278
   -17.3406 -17.3194 -17.2143 -17.1468 -17.1213 -17.0588 -17.0319 -17.0191
   -16.9237 -16.9179 -16.8851 -16.8376 -16.8026 -16.7609 -16.7122 -16.6209
   -16.6023 -16.4975 -16.4576 -16.3528 -16.3448 -16.3126 -16.2792 -16.2154
   -14.9173 -14.8794  -9.8806  -7.4642  -7.4396  -5.9708  -5.2528  -5.1003
    -4.9930  -4.9662  -4.9306  -4.7617  -4.6904  -4.6763  -4.5596  -4.5512
    -4.5310  -4.5242  -4.4215  -4.3817  -4.3735  -4.3473  -4.3153  -4.2959
    -4.2549  -4.2387  -4.2211  -4.1856  -4.1184  -4.1015  -4.0884  -4.0344
    -3.9987  -3.9427  -3.8729  -3.8348  -3.7514  -3.6584  -3.5696  -3.4996
    -3.4609  -3.4432  -3.4041  -3.2301  -3.2013  -3.0594  -3.0186  -2.9974
    -2.9673  -2.8922  -2.8215  -2.7915  -2.7372  -2.6964  -2.6572  -2.6086
    -2.5853  -2.5462  -2.4967  -2.4815  -2.4412  -2.4271  -2.3470  -2.3027
    -2.2846  -2.2585  -2.2031  -2.1621  -2.1191  -2.1045  -2.0448  -2.0273
    -1.9767  -1.9534  -1.9032  -1.8651  -1.8487  -1.8073  -1.7539  -1.7229
    -1.6940  -1.6163  -1.5918  -1.5222  -1.4992  -1.4480  -1.4140  -1.3690
    -1.2843  -1.2556  -1.1871  -1.1265  -1.0984  -0.9986  -0.9696  -0.8997
    -0.8444  -0.7623  -0.6274  -0.4324  -0.0651  -0.0246   0.0007   0.0237
     1.7129   1.8792   1.9040   2.0252   2.0289   2.0490   2.1352   2.1513
[...]
    -2.7027  -2.6612  -2.6513  -2.6433  -2.6108  -2.5668  -2.5320  -2.5131
    -2.5123  -2.4521  -2.4148  -2.4041  -2.3623  -2.3307  -2.2902  -2.2859
    -2.2606  -2.1740  -2.1682  -2.1670  -2.0403  -2.0041  -1.8536  -1.8232
    -1.7651  -1.7148  -1.4633  -1.4173  -1.3485  -1.3477  -1.1975  -1.1820
    -1.1724  -1.1704  -1.1515  -1.1165  -1.0726  -0.9406  -0.9197  -0.7804
    -0.7730  -0.7551  -0.6927  -0.6923  -0.0863  -0.0862   0.0514   0.0517
     1.9552   1.9716   2.0170   2.0224   2.0474   2.0505   2.0592   2.0637
     2.3270   2.3414   2.3472   2.3573   2.4218   2.4284   2.4968   2.5096
     2.5354   2.5360   2.5860   2.6929   2.7066   2.8110   2.8230   2.8397
     2.8506   2.9199   2.9984   3.0761   3.0833   3.1320   3.1643   3.2141
     3.2294   3.2558   3.3066   3.3338   3.3683   3.3717   3.4121   3.4382
     3.5280   3.5447   3.6397   3.6941   3.7619   3.7849   3.7942   3.7943
     3.9250   3.9299   3.9499   3.9499   4.2567   4.5132   4.6361   4.6365
     4.6863   4.7082   4.7437   4.7569   4.7577   4.7758   5.0476   5.0784
     5.2006   5.2330   5.5920   5.6074   5.7829   5.7973   5.9115   6.0190
     6.1413   6.1811   6.1880   6.2186   6.4239   6.4462   6.4679   6.5079
     6.5099   6.5309   6.6851   6.6859   6.7473   6.7488   7.0579   7.1240
     7.6741   7.7214   7.8380   7.8418   8.0500   8.1100   8.3826   8.4189
     8.5546   8.6953   8.8038   9.1923

          k =-0.0253 0.0280 0.0000 ( 34687 PWs)   bands (ev):

   -57.8452 -57.8149 -57.5416 -57.4889 -57.4206 -57.3890 -57.3026 -57.2720
   -57.2057 -57.1751 -57.1456 -57.1150 -56.9176 -56.8461 -56.3064 -56.2758
   -34.2587 -34.1267 -34.1020 -34.0643 -34.0421 -33.9611 -33.9210 -33.8742
   -33.8528 -33.7766 -33.7685 -33.7608 -33.7476 -33.7194 -33.7065 -33.7031
   -33.6742 -33.6437 -33.6372 -33.5711 -33.5690 -33.5182 -33.4842 -33.4740
   -33.4604 -33.4509 -33.4333 -33.4127 -33.3950 -33.3913 -33.3817 -33.3697
   -33.3431 -33.3428 -33.3328 -33.3066 -33.3049 -33.1807 -33.1716 -33.1175
   -33.0767 -33.0005 -32.7017 -32.6591 -32.6352 -32.5254 -32.4460 -32.3589
   -24.3989 -20.8740 -18.1184 -17.9020 -17.6940 -17.5691 -17.5053 -17.4722
   -17.2785 -17.2624 -17.2336 -17.1099 -17.0913 -17.0754 -17.0204 -16.9782
   -16.9519 -16.8937 -16.8641 -16.8541 -16.7773 -16.6867 -16.6593 -16.5731
   -16.5346 -16.5289 -16.5075 -16.3326 -16.3130 -16.2921 -16.1659 -16.1540
   -14.8991 -14.8286  -9.8808  -7.4612  -7.4400  -5.9726  -5.4836  -5.3349
    -5.2027  -5.1907  -5.1367  -4.9048  -4.8890  -4.7589  -4.5989  -4.5483
    -4.5006  -4.4757  -4.4443  -4.3846  -4.3505  -4.3148  -4.2561  -4.2214
    -4.1858  -4.1502  -4.1175  -4.0995  -4.0608  -4.0002  -3.9880  -3.9581
    -3.9439  -3.8821  -3.8753  -3.7845  -3.7639  -3.7084  -3.7016  -3.5081
    -3.4828  -3.4162  -3.3634  -3.3069  -3.1894  -3.1326  -3.0978  -2.9576
    -2.8748  -2.8453  -2.8242  -2.8128  -2.7770  -2.7061  -2.6586  -2.6401
    -2.6209  -2.6010  -2.5756  -2.5455  -2.4850  -2.4313  -2.3772  -2.3555
    -2.2941  -2.2739  -2.2238  -2.1417  -2.0917  -2.0610  -2.0193  -1.9428
    -1.9050  -1.8842  -1.8222  -1.7915  -1.7678  -1.7463  -1.6914  -1.6528
    -1.5928  -1.5356  -1.5079  -1.4921  -1.4479  -1.4061  -1.3586  -1.2590
    -1.2390  -1.2284  -1.0816  -1.0215  -1.0003  -0.9402  -0.9136  -0.8944
    -0.8114  -0.5997  -0.4474  -0.3085  -0.2410  -0.0167   0.0255   0.0346
     1.5729   1.6998   1.8671   1.8742   1.9895   2.0065   2.1107   2.1454
     2.2086   2.2499   2.2865   2.2952   2.3524   2.3632   2.3844   2.3980
     2.4767   2.5138   2.5500   2.5793   2.6017   2.6606   2.7414   2.7754
     2.8155   2.8644   2.9458   2.9522   2.9642   2.9711   3.0241   3.0636
     3.1351   3.1833   3.2307   3.2423   3.2689   3.2771   3.3404   3.3803
     3.4313   3.4538   3.4923   3.5082   3.5496   3.5963   3.7348   3.8524
     3.9867   4.0186   4.0595   4.1442   4.1842   4.3378   4.6562   4.7358
     4.7924   4.9120   4.9567   4.9983   5.0112   5.1009   5.2586   5.4965
     5.5327   5.5764   5.6148   5.6971   5.7176   5.7921   5.8558   5.8971
     5.9272   5.9708   5.9963   6.0210   6.0240   6.0913   6.2723   6.2990
     6.4456   6.5300   6.7221   6.7612   6.7909   7.0371   7.2401   7.4226
     7.5892   7.9970   8.1529   8.2840   8.3819   8.5121   8.5896   8.8604
     9.0361   9.2905   9.4067   9.4681

          k =-0.0253 0.0560 0.0000 ( 34699 PWs)   bands (ev):

   -57.8388 -57.8213 -57.5384 -57.4922 -57.4145 -57.3952 -57.2961 -57.2785
   -57.1993 -57.1815 -57.1392 -57.1214 -56.9150 -56.8487 -56.2999 -56.2823
   -34.1889 -34.1214 -34.1071 -34.0252 -33.9940 -33.9937 -33.9784 -33.8370
   -33.8076 -33.7966 -33.7846 -33.7451 -33.7379 -33.7235 -33.7057 -33.7003
   -33.6266 -33.6095 -33.6045 -33.5741 -33.5687 -33.5527 -33.5065 -33.4962
   -33.4788 -33.4652 -33.4345 -33.4086 -33.4070 -33.3879 -33.3875 -33.3815
   -33.3706 -33.3566 -33.3345 -33.3333 -33.2991 -33.1797 -33.1680 -33.1190
   -33.0903 -33.0677 -32.6541 -32.6402 -32.6309 -32.5088 -32.4629 -32.4330
   -24.3989 -20.8739 -17.9513 -17.7454 -17.5600 -17.4734 -17.4486 -17.4277
   -17.3402 -17.3194 -17.2143 -17.1468 -17.1218 -17.0588 -17.0319 -17.0208
   -16.9237 -16.9178 -16.8841 -16.8355 -16.8031 -16.7609 -16.7128 -16.6206
   -16.6023 -16.4974 -16.4575 -16.3527 -16.3447 -16.3125 -16.2791 -16.2153
   -14.9170 -14.8791  -9.8806  -7.4642  -7.4396  -5.9709  -5.2527  -5.1003
    -4.9919  -4.9657  -4.9306  -4.7613  -4.6907  -4.6773  -4.5611  -4.5525
    -4.5302  -4.5235  -4.4237  -4.3827  -4.3732  -4.3473  -4.3132  -4.2956
    -4.2552  -4.2392  -4.2204  -4.1861  -4.1184  -4.1031  -4.0885  -4.0353
    -3.9992  -3.9428  -3.8731  -3.8340  -3.7513  -3.6571  -3.5709  -3.4958
    -3.4594  -3.4414  -3.4017  -3.2309  -3.2031  -3.0586  -3.0185  -2.9971
    -2.9660  -2.8924  -2.8202  -2.7922  -2.7379  -2.6964  -2.6579  -2.6079
    -2.5850  -2.5457  -2.4970  -2.4821  -2.4406  -2.4277  -2.3469  -2.3037
    -2.2848  -2.2599  -2.2037  -2.1635  -2.1185  -2.1067  -2.0424  -2.0271
    -1.9793  -1.9559  -1.9066  -1.8658  -1.8462  -1.8071  -1.7516  -1.7248
    -1.6913  -1.6154  -1.5915  -1.5189  -1.4984  -1.4514  -1.4147  -1.3675
    -1.2846  -1.2550  -1.1856  -1.1260  -1.0984  -0.9985  -0.9691  -0.9008
    -0.8447  -0.7616  -0.6272  -0.4325  -0.0649  -0.0244   0.0009   0.0239
     1.7128   1.8798   1.9040   2.0252   2.0285   2.0511   2.1380   2.1516
     2.2242   2.2389   2.2608   2.2776   2.3254   2.3713   2.3985   2.4739
     2.5280   2.5498   2.6167   2.6286   2.6491   2.6574   2.7250   2.7541
     2.7746   2.7921   2.8427   2.8525   2.9571   3.0279   3.0871   3.1087
     3.1672   3.1798   3.2133   3.2429   3.2913   3.3233   3.3743   3.4096
     3.4698   3.5002   3.6056   3.6336   3.6673   3.7081   3.7305   3.7890
     3.9056   3.9524   3.9875   4.1023   4.1831   4.3297   4.7482   4.8175
     4.9596   5.0007   5.0698   5.0868   5.1107   5.1964   5.2975   5.4058
     5.4279   5.4990   5.5663   5.5989   5.6904   5.7031   5.7650   5.7942
     5.8551   5.8816   5.9212   5.9870   6.0249   6.2012   6.2247   6.3647
     6.3893   6.4394   6.6313   6.6327   6.8271   6.8916   7.0667   7.2716
     7.4873   7.7617   7.8607   8.1989   8.3894   8.5651   8.6551   8.9138
     9.0105   9.0758   9.3413   9.4050

          k =-0.0506 0.0280 0.0000 ( 34685 PWs)   bands (ev):

   -57.8452 -57.8149 -57.5416 -57.4889 -57.4206 -57.3890 -57.3025 -57.2720
   -57.2058 -57.1751 -57.1456 -57.1150 -56.9176 -56.8461 -56.3064 -56.2758
   -34.2594 -34.1267 -34.1020 -34.0645 -34.0407 -33.9611 -33.9210 -33.8755
   -33.8528 -33.7790 -33.7689 -33.7606 -33.7464 -33.7208 -33.7136 -33.7031
   -33.6750 -33.6403 -33.6236 -33.5694 -33.5590 -33.5184 -33.4839 -33.4715
   -33.4604 -33.4511 -33.4363 -33.4192 -33.4005 -33.3943 -33.3802 -33.3697
   -33.3432 -33.3429 -33.3329 -33.3065 -33.3048 -33.1828 -33.1716 -33.1177
   -33.0767 -33.0005 -32.7015 -32.6610 -32.6342 -32.5254 -32.4460 -32.3589
   -24.3989 -20.8739 -18.0600 -17.8032 -17.6018 -17.5062 -17.5032 -17.4293
   -17.3645 -17.2845 -17.2714 -17.1446 -17.1163 -17.0928 -17.0895 -17.0271
   -17.0076 -16.9986 -16.8940 -16.7964 -16.7482 -16.7006 -16.6128 -16.5961
   -16.5627 -16.5218 -16.4857 -16.3315 -16.3017 -16.2932 -16.1658 -16.1549
   -14.8971 -14.8287  -9.8793  -7.4617  -7.4393  -5.9718  -5.4674  -5.0413
    -4.9717  -4.9637  -4.8928  -4.8682  -4.8487  -4.8055  -4.6661  -4.6120
    -4.5891  -4.5384  -4.4771  -4.3886  -4.3407  -4.2565  -4.2047  -4.1840
    -4.1625  -4.1525  -4.0806  -4.0385  -4.0049  -3.9800  -3.9373  -3.9120
    -3.8937  -3.8553  -3.8111  -3.7506  -3.7345  -3.6143  -3.4799  -3.4493
    -3.4188  -3.3596  -3.3319  -3.2849  -3.2141  -3.1323  -3.0886  -3.0302
    -2.9609  -2.9334  -2.8913  -2.8831  -2.8356  -2.7805  -2.7621  -2.7111
    -2.6685  -2.6474  -2.6169  -2.5663  -2.5289  -2.5076  -2.4636  -2.4355
    -2.3722  -2.3425  -2.2629  -2.2334  -2.1674  -2.1328  -2.1203  -2.0776
    -2.0293  -1.9631  -1.9345  -1.9038  -1.8758  -1.8078  -1.7219  -1.6639
    -1.6321  -1.6007  -1.5294  -1.5002  -1.4620  -1.4370  -1.3515  -1.2996
    -1.2178  -1.1733  -1.0684  -1.0478  -0.9827  -0.9530  -0.9158  -0.8865
    -0.8427  -0.6789  -0.4804  -0.4270  -0.2279  -0.0455  -0.0149  -0.0015
     1.5574   1.7636   1.8896   1.9138   1.9284   2.0059   2.0371   2.1124
     2.2116   2.2287   2.2680   2.3301   2.3788   2.4218   2.4269   2.4894
     2.5044   2.5448   2.5745   2.6195   2.6731   2.7384   2.7915   2.7993
     2.8371   2.8970   2.9151   2.9834   2.9877   3.0363   3.1029   3.1291
     3.1959   3.2229   3.2500   3.2776   3.3385   3.3617   3.4088   3.4426
     3.4691   3.5027   3.5151   3.5557   3.6046   3.6619   3.7056   3.7877
     3.8946   4.0039   4.0993   4.1219   4.2560   4.3132   4.4945   4.6084
     4.6245   4.6534   4.8169   4.8699   4.9640   5.2821   5.3568   5.4483
     5.4935   5.5440   5.6244   5.6800   5.7059   5.7219   5.8606   5.9022
     5.9566   5.9949   6.2344   6.2545   6.3130   6.3439   6.4045   6.4916
     6.5185   6.6110   6.6618   6.7285   6.8011   6.9798   7.0047   7.4239
     7.5651   7.7109   7.8337   8.0624   8.3401   8.4656   8.5472   8.9034
     9.1081   9.1785   9.4067   9.4774

          k =-0.0506 0.0560 0.0000 ( 34596 PWs)   bands (ev):

   -57.8388 -57.8213 -57.5384 -57.4922 -57.4145 -57.3952 -57.2961 -57.2784
   -57.1994 -57.1815 -57.1392 -57.1214 -56.9150 -56.8487 -56.2999 -56.2823
   -34.1894 -34.1214 -34.1071 -34.0240 -33.9942 -33.9939 -33.9780 -33.8371
   -33.8083 -33.7969 -33.7846 -33.7440 -33.7377 -33.7239 -33.7080 -33.7028
   -33.6238 -33.6096 -33.6055 -33.5683 -33.5672 -33.5424 -33.5092 -33.4899
   -33.4787 -33.4651 -33.4346 -33.4109 -33.4083 -33.3953 -33.3875 -33.3836
   -33.3708 -33.3578 -33.3344 -33.3331 -33.2989 -33.1809 -33.1681 -33.1196
   -33.0903 -33.0675 -32.6552 -32.6398 -32.6307 -32.5088 -32.4629 -32.4330
   -24.3988 -20.8737 -17.9031 -17.6521 -17.4865 -17.4626 -17.4417 -17.3685
   -17.3249 -17.2999 -17.2254 -17.1888 -17.1264 -17.1010 -17.0372 -17.0112
   -17.0086 -16.9455 -16.9333 -16.8705 -16.8300 -16.8034 -16.7335 -16.6878
   -16.5896 -16.4871 -16.4384 -16.3433 -16.3388 -16.3152 -16.2811 -16.2148
   -14.9158 -14.8794  -9.8790  -7.4645  -7.4387  -5.9701  -5.2448  -4.8070
    -4.7591  -4.7523  -4.7166  -4.6771  -4.6673  -4.6296  -4.5267  -4.5062
    -4.4814  -4.4619  -4.3710  -4.3259  -4.3007  -4.2985  -4.2575  -4.2385
    -4.2115  -4.2011  -4.1855  -4.1579  -4.1050  -4.0678  -4.0574  -4.0300
    -3.9725  -3.9112  -3.8455  -3.8107  -3.7085  -3.6778  -3.5377  -3.5096
    -3.4925  -3.4245  -3.4057  -3.2300  -3.1377  -3.1030  -3.0549  -3.0115
    -2.9752  -2.9383  -2.9140  -2.8821  -2.8312  -2.7938  -2.7380  -2.7343
    -2.6609  -2.6457  -2.6186  -2.5443  -2.5117  -2.4953  -2.4763  -2.4546
    -2.4271  -2.3889  -2.3161  -2.3014  -2.2799  -2.2497  -2.2082  -2.1945
    -2.1217  -2.0795  -2.0513  -2.0102  -1.9647  -1.8814  -1.8149  -1.7981
    -1.7299  -1.6290  -1.5569  -1.5132  -1.4774  -1.3999  -1.3679  -1.2556
    -1.2006  -1.1608  -1.1203  -1.0616  -1.0159  -0.9510  -0.9378  -0.8578
    -0.8232  -0.8105  -0.6796  -0.4920  -0.0768  -0.0396  -0.0262   0.0297
     1.7155   1.9034   1.9329   1.9872   2.0464   2.0882   2.0941   2.1482
     2.1958   2.2465   2.3562   2.3955   2.4049   2.4278   2.4491   2.4724
     2.5651   2.5825   2.6187   2.6411   2.6777   2.7030   2.7647   2.7943
     2.8644   2.8771   2.9177   2.9481   2.9975   3.0351   3.1543   3.1786
     3.2007   3.2371   3.2751   3.2985   3.3362   3.3606   3.3708   3.4388
     3.5098   3.5407   3.5852   3.6564   3.7107   3.7462   3.7543   3.7708
     3.8069   3.9489   4.0004   4.1274   4.1761   4.4162   4.6180   4.6550
     4.7201   4.7259   4.8702   4.9738   5.0446   5.1184   5.1837   5.2062
     5.2798   5.4376   5.5456   5.6088   5.6993   5.7169   5.8058   5.9475
     5.9867   6.0884   6.1483   6.1861   6.2280   6.2790   6.4468   6.4656
     6.5316   6.5697   6.6593   6.6721   6.8247   6.9240   7.0218   7.3125
     7.3279   7.7736   7.8601   8.0355   8.1352   8.1918   8.6101   8.7039
     8.8975   8.9790   9.1597   9.3707

     the Fermi energy is     0.8423 ev

!    total energy              =   -3044.95732859 Ry
     Harris-Foulkes estimate   =   -3044.95732842 Ry
     estimated scf accuracy    <       0.00000068 Ry

     The total energy is the sum of the following terms:

     one-electron contribution =  -40863.48711386 Ry
     hartree contribution      =   20503.65137062 Ry
     xc contribution           =    -557.14384609 Ry
     ewald contribution        =   17872.02246814 Ry
     smearing contrib. (-TS)   =      -0.00020740 Ry

     total magnetization       =     0.00 Bohr mag/cell
     absolute magnetization    =     0.00 Bohr mag/cell

     convergence has been achieved in  10 iterations

     Forces acting on atoms (Ry/au):


     negative rho (up, down):  1.156E-02 1.156E-02
     atom    1 type  1   force =    -0.00008097    0.00030585   -0.13616646
     atom    2 type  2   force =     0.00010684   -0.00008072    0.07534302
     atom    3 type  1   force =     0.00126983    0.00109395   -0.06009834
     atom    4 type  2   force =     0.00660787   -0.00006810    0.00974032
     atom    5 type  1   force =    -0.00134850   -0.00014079   -0.00023749
     atom    6 type  2   force =    -0.00194466   -0.00368211   -0.00861190
     atom    7 type  1   force =     0.01172986    0.00829654   -0.01875695
     atom    8 type  2   force =     0.00041169   -0.00012757    0.00087058
     atom    9 type  1   force =     0.00013355    0.00035528   -0.13623212
     atom   10 type  2   force =     0.00016666   -0.00003328    0.07528879
     atom   11 type  1   force =     0.00126402   -0.00086985   -0.06022856
     atom   12 type  2   force =     0.00604765   -0.00010968    0.00860610
     atom   13 type  1   force =     0.00017816   -0.00015778   -0.00059215
     atom   14 type  2   force =    -0.00212779    0.00310970   -0.00867739
     atom   15 type  1   force =     0.01190710   -0.00810456   -0.01902051
     atom   16 type  2   force =     0.00758828    0.00008090    0.01160086
     atom   17 type  2   force =    -0.00002288   -0.00005522    0.08015737
     atom   18 type  1   force =    -0.00006151    0.00022693    0.11892315
     atom   19 type  2   force =     0.00039404    0.00018931   -0.06796265
     atom   20 type  2   force =    -0.06269909    0.00004944   -0.03204311
     atom   21 type  2   force =     0.06274969    0.00015018   -0.03251528
     atom   22 type  1   force =    -0.00048608   -0.00012575    0.06413004
     atom   23 type  2   force =     0.00014928    0.00064257   -0.00244453
     atom   24 type  2   force =     0.00049708    0.00003666   -0.02225787
     atom   25 type  2   force =    -0.00644232   -0.00025682    0.00829451
     atom   26 type  1   force =    -0.00013608   -0.00003968    0.00231429
     atom   27 type  2   force =     0.00264877   -0.00153111   -0.00222503
     atom   28 type  2   force =    -0.00002637   -0.00001783   -0.00143693
     atom   29 type  2   force =     0.00011084   -0.00005560   -0.00047476
     atom   30 type  1   force =     0.00590242    0.00036436   -0.00091434
     atom   31 type  2   force =    -0.00228801    0.00171007    0.00118007
     atom   32 type  2   force =     0.00150446   -0.00009903    0.00223218
     atom   33 type  2   force =     0.00000166    0.00015223    0.08022668
     atom   34 type  1   force =    -0.00007550    0.00023548    0.11893320
     atom   35 type  2   force =     0.00036088    0.00032341   -0.06791639
     atom   36 type  2   force =    -0.06269596    0.00009929   -0.03225060
     atom   37 type  2   force =     0.06286282    0.00017363   -0.03200351
     atom   38 type  1   force =    -0.00069157    0.00000868    0.06395543
     atom   39 type  2   force =     0.00018363   -0.00084424   -0.00242969
     atom   40 type  2   force =     0.00060707   -0.00227806   -0.02241143
     atom   41 type  2   force =    -0.00618947   -0.00030999    0.00770058
     atom   42 type  1   force =    -0.00012063   -0.00009861    0.00231700
     atom   43 type  2   force =     0.00270575    0.00151331   -0.00226238
     atom   44 type  2   force =     0.00037250   -0.00012642   -0.00064757
     atom   45 type  2   force =    -0.00021381   -0.00006341   -0.00091769
     atom   46 type  1   force =    -0.02020671    0.00041712   -0.00572420
     atom   47 type  2   force =    -0.00230471   -0.00156532    0.00120375
     atom   48 type  2   force =     0.00047410   -0.00048446   -0.03166960
     atom   49 type  2   force =    -0.05025852    0.00099774    0.15746302
     atom   50 type  3   force =    -0.05546487    0.00398204   -0.13610921
     atom   51 type  3   force =     0.08694949   -0.00318867    0.05475771

     Total force =     0.445209     Total SCF correction =     0.001800
 !ASE

     Writing output data file calc.save
 
     init_run     :     56.09s CPU     69.56s WALL (       1 calls)
     electrons    :   2073.28s CPU   2636.94s WALL (       1 calls)
     forces       :     40.63s CPU     42.44s WALL (       1 calls)

     Called by init_run:
     wfcinit      :     47.62s CPU     60.42s WALL (       1 calls)
     potinit      :      1.63s CPU      1.92s WALL (       1 calls)

     Called by electrons:
     c_bands      :   1795.23s CPU   2285.94s WALL (      10 calls)
     sum_band     :    233.64s CPU    300.16s WALL (      10 calls)
     v_of_rho     :     11.02s CPU     13.91s WALL (      11 calls)
     newd         :     37.48s CPU     41.20s WALL (      11 calls)
     mix_rho      :      0.36s CPU      0.53s WALL (      10 calls)
     vdW_energy   :      1.95s CPU      2.38s WALL (      12 calls)
     vdW_ffts     :      2.96s CPU      3.89s WALL (      24 calls)
     vdW_v        :      1.11s CPU      1.32s WALL (      12 calls)

     Called by c_bands:
     init_us_2    :      5.91s CPU      6.43s WALL (     880 calls)
     cegterg      :   1760.02s CPU   2248.62s WALL (     400 calls)

     Called by *egterg:
     h_psi        :    697.62s CPU   1104.04s WALL (    2156 calls)
     s_psi        :     93.60s CPU     98.56s WALL (    2156 calls)
     g_psi        :      4.88s CPU      5.00s WALL (    1716 calls)
     cdiaghg      :    621.66s CPU    634.80s WALL (    2116 calls)

     Called by h_psi:
     add_vuspsi   :     94.07s CPU     98.85s WALL (    2156 calls)

     General routines
     calbec       :    142.99s CPU    146.71s WALL (    2596 calls)
     fft          :      6.14s CPU      8.07s WALL (     948 calls)
     ffts         :      0.05s CPU      0.07s WALL (      42 calls)
     fftw         :    458.98s CPU    891.39s WALL (  722138 calls)
     interpolate  :      0.32s CPU      0.52s WALL (      42 calls)
     davcio       :      0.17s CPU      3.33s WALL (      40 calls)
 
     Parallel routines
     fft_scatter  :    240.10s CPU    473.25s WALL (  723128 calls)
 
     PWSCF        : 36m11.04s CPU    45m54.05s WALL

 
   This run was terminated on:  18:40:43  10Mar2018            

=------------------------------------------------------------------------------=
   JOB DONE.
=------------------------------------------------------------------------------=
