  python dir          : /home/vossj/suncat/lib/python2.7/site-packages/espresso
  espresso dir        : /home/vossj/suncat/esdld/espresso-dynpy-beef/bin
  pseudo dir          : /home/alatimer/bin/psp/esp_psp_w_gbrvRu/
  ase-espresso py git : ffa2778-git



     Program PWSCF v.5.1rc2 (svn rev. ) starts on 26Feb2018 at  9:18:18 

     This program is part of the open-source Quantum ESPRESSO suite
     for quantum simulation of materials; please cite
         "P. Giannozzi et al., J. Phys.:Condens. Matter 21 395502 (2009);
          URL http://www.quantum-espresso.org", 
     in publications or presentations arising from this work. More details at
     http://www.quantum-espresso.org/quote

     Parallel version (MPI), running on    16 processors
     R & G space division:  proc/nbgrp/npool/nimage =      16
     Reading input from pw.inp
     Message from routine read_cards :
     DEPRECATED: no units specified in CELL_PARAMETERS card

     Current dimensions of program PWSCF are:
     Max number of different atomic species (ntypx) = 10
     Max number of k-points (npk) =  40000
     Max angular momentum in pseudopotentials (lmaxx) =  3

     **************************************************************************
     Initializing libbeef V0.1.1 with the BEEF-vdW functional.
     Citation: Wellendorff et al., PRB 85, 235149 (2012).
     **************************************************************************


     IMPORTANT: XC functional enforced from input :
     Exchange-correlation      = BEEF ( 1  4 27 13 2)
     Any further DFT definition will be discarded
     Please, verify this is what you really want


     Subspace diagonalization in iterative solution of the eigenvalue problem:
     a serial algorithm will be used

 
     Parallelization info
     --------------------
     sticks:   dense  smooth     PW     G-vecs:    dense   smooth      PW
     Min         281     112     31                68535    17318    2565
     Max         282     113     32                68545    17369    2582
     Sum        4501    1795    503              1096637   277353   41113
 
     Generating pointlists ...
     new r_m :   0.4125 (alat units)  0.7795 (a.u.) for type    1
     new r_m :   0.4125 (alat units)  0.7795 (a.u.) for type    2
     new r_m :   0.4125 (alat units)  0.7795 (a.u.) for type    3
     new r_m :   0.4125 (alat units)  0.7795 (a.u.) for type    4


     bravais-lattice index     =            0
     lattice parameter (alat)  =       1.8897  a.u.
     unit-cell volume          =    7990.9933 (a.u.)^3
     number of atoms/cell      =           54
     number of atomic types    =            4
     number of electrons       =       398.00
     number of Kohn-Sham states=          299
     kinetic-energy cutoff     =      40.4243  Ry
     charge density cutoff     =     404.2426  Ry
     convergence threshold     =      7.3E-07
     mixing beta               =       0.1000
     number of iterations used =           10  plain     mixing
     Exchange-correlation      = BEEF ( 1  4 27 13 2)
     nstep                     =           50


     celldm(1)=   1.889726  celldm(2)=   0.000000  celldm(3)=   0.000000
     celldm(4)=   0.000000  celldm(5)=   0.000000  celldm(6)=   0.000000

     crystal axes: (cart. coord. in units of alat)
               a(1) = (   6.590708   0.000000   0.000000 )  
               a(2) = (   0.000000   5.950229   0.000000 )  
               a(3) = (   0.000000   0.000000  30.195235 )  

     reciprocal axes: (cart. coord. in units 2 pi/alat)
               b(1) = (  0.151729  0.000000  0.000000 )  
               b(2) = (  0.000000  0.168061  0.000000 )  
               b(3) = (  0.000000  0.000000  0.033118 )  


     PseudoPot. # 1 for Ti read from file:
     /home/alatimer/bin/psp/esp_psp_w_gbrvRu/Ti.UPF
     MD5 check sum: 8e4df49b7f0d34bbd5052bf3f5ea0213
     Pseudo is Ultrasoft, Zval = 12.0
     Generated by new atomic code, or converted to UPF format
     Using radial grid of  851 points,  6 beta functions with: 
                l(1) =   0
                l(2) =   0
                l(3) =   1
                l(4) =   1
                l(5) =   2
                l(6) =   2
     Q(r) pseudized with  8 coefficients,  rinner =    1.000   1.000   1.000
                                                       1.000   1.000

     PseudoPot. # 2 for  O read from file:
     /home/alatimer/bin/psp/esp_psp_w_gbrvRu/O.UPF
     MD5 check sum: e057bbcf3229fb5d8c36c0c92f9568b4
     Pseudo is Ultrasoft + core correction, Zval =  6.0
     Generated using "atomic" code by A. Dal Corso  v.5.0.2 svn rev. 9415
     Using radial grid of 1095 points,  4 beta functions with: 
                l(1) =   0
                l(2) =   0
                l(3) =   1
                l(4) =   1
     Q(r) pseudized with 0 coefficients 


     PseudoPot. # 3 for  C read from file:
     /home/alatimer/bin/psp/esp_psp_w_gbrvRu/C.UPF
     MD5 check sum: ab446d787031eba755f1d5ee46644bb0
     Pseudo is Ultrasoft + core correction, Zval =  4.0
     Generated using "atomic" code by A. Dal Corso  v.5.0.2 svn rev. 9415
     Using radial grid of 1073 points,  4 beta functions with: 
                l(1) =   0
                l(2) =   0
                l(3) =   1
                l(4) =   1
     Q(r) pseudized with 0 coefficients 


     PseudoPot. # 4 for  H read from file:
     /home/alatimer/bin/psp/esp_psp_w_gbrvRu/H.UPF
     MD5 check sum: bd57da0722753ddfd9833a65b40bb853
     Pseudo is Ultrasoft, Zval =  1.0
     Generated using "atomic" code by A. Dal Corso  v.5.0.2 svn rev. 9415
     Using radial grid of  929 points,  2 beta functions with: 
                l(1) =   0
                l(2) =   0
     Q(r) pseudized with 0 coefficients 


     vdW kernel table read from file vdW_kernel_table
     MD5 check sum: 095c7af220d748ca6e76c0b4c6cfb241

     atomic species   valence    mass     pseudopotential
        Ti1           12.00    47.88000     Ti( 1.00)
        O1             6.00    15.99940      O( 1.00)
        C1             4.00    12.01100      C( 1.00)
        H1             1.00     1.00794      H( 1.00)

     Starting magnetic structure 
     atomic species   magnetization
        Ti1          0.250
        O1           0.500
        C1           0.750
        H1           0.000

     No symmetry found



   Cartesian axes

     site n.     atom                  positions (alat units)
         1           Ti1 tau(   1) = (   1.6476770   0.7437786   2.6545865  )
         2           O1  tau(   2) = (   1.6476770   2.2313359   3.9361215  )
         3           Ti1 tau(   3) = (   1.6476770   2.2313359   5.9499405  )
         4           O1  tau(   4) = (   0.3661420   0.7437786   5.9499405  )
         5           Ti1 tau(   5) = (   1.6407309   0.9134410   9.3139491  )
         6           O1  tau(   6) = (   1.6648823   2.2608486  10.4895904  )
         7           Ti1 tau(   7) = (   1.7578240   2.2899216  13.0472362  )
         8           O1  tau(   8) = (   0.4801583   0.7600008  12.7739736  )
         9           Ti1 tau(   9) = (   1.6476770   3.7188931   2.6545865  )
        10           O1  tau(  10) = (   1.6476770   5.2064503   3.9361215  )
        11           Ti1 tau(  11) = (   1.6476770   5.2064503   5.9499405  )
        12           O1  tau(  12) = (   0.3661420   3.7188931   5.9499405  )
        13           Ti1 tau(  13) = (   1.6336050   3.7786827   9.1566831  )
        14           O1  tau(  14) = (   1.6678212   5.2513959  10.5409436  )
        15           Ti1 tau(  15) = (   1.7144009   5.2558216  12.3462911  )
        16           O1  tau(  16) = (   0.4635505   3.7986228  12.7318280  )
        17           O1  tau(  17) = (   1.6476770   2.2313359   1.3730516  )
        18           Ti1 tau(  18) = (   4.9430310   2.2313359   2.6545865  )
        19           O1  tau(  19) = (   4.9430310   2.2313359   4.6684056  )
        20           O1  tau(  20) = (   6.2245660   0.7437786   2.6545865  )
        21           O1  tau(  21) = (   3.6614961   0.7437786   2.6545865  )
        22           Ti1 tau(  22) = (   4.9430310   0.7437786   5.9499405  )
        23           O1  tau(  23) = (   1.6683653   2.2752577   7.9427336  )
        24           O1  tau(  24) = (   4.9430310   2.2313359   7.2314755  )
        25           O1  tau(  25) = (   2.9292120   0.7437786   5.9499405  )
        26           Ti1 tau(  26) = (   4.9404121   2.2664794   9.4552217  )
        27           O1  tau(  27) = (   5.0099888   2.2616732  11.2946145  )
        28           O1  tau(  28) = (   6.2612001   0.7714827   9.2659748  )
        29           O1  tau(  29) = (   3.6791272   0.7744986   9.2965846  )
        30           Ti1 tau(  30) = (   5.0117873   0.7976728  12.8161605  )
        31           O1  tau(  31) = (   4.9963122   2.2836652  13.8750618  )
        32           O1  tau(  32) = (   2.9819382   0.7448324  12.7109220  )
        33           O1  tau(  33) = (   1.6476770   5.2064503   1.3730516  )
        34           Ti1 tau(  34) = (   4.9430310   5.2064503   2.6545865  )
        35           O1  tau(  35) = (   4.9430310   5.2064503   4.6684056  )
        36           O1  tau(  36) = (   6.2245660   3.7188931   2.6545865  )
        37           O1  tau(  37) = (   3.6614961   3.7188931   2.6545865  )
        38           Ti1 tau(  38) = (   4.9430310   3.7188931   5.9499405  )
        39           O1  tau(  39) = (   1.6664207   5.2035600   7.9365221  )
        40           O1  tau(  40) = (   4.9430310   5.2064503   7.2314755  )
        41           O1  tau(  41) = (   2.9292120   3.7188931   5.9499405  )
        42           Ti1 tau(  42) = (   4.9524353   5.2460635   9.4426343  )
        43           O1  tau(  43) = (   5.0107556   5.2394944  11.2927493  )
        44           O1  tau(  44) = (   6.2663940   3.7551737   9.2646230  )
        45           O1  tau(  45) = (   3.6780957   3.7542261   9.2971476  )
        46           Ti1 tau(  46) = (   5.0587989   3.7766986  12.8010349  )
        47           O1  tau(  47) = (   5.0196089   5.2502198  13.8813978  )
        48           O1  tau(  48) = (   2.9624133   3.7943242  12.7299881  )
        49           O1  tau(  49) = (   1.7427453   2.2533568  14.8370015  )
        50           C1  tau(  50) = (   2.7196098   4.2826273  16.2318421  )
        51           H1  tau(  51) = (   3.3037454   4.9555546  15.5827400  )
        52           H1  tau(  52) = (   3.3286606   3.7870117  16.9822022  )
        53           H1  tau(  53) = (   2.3125587   3.4026405  15.5729816  )
        54           H1  tau(  54) = (   1.8391288   4.7650601  16.6448379  )

     number of k points=    40  Fermi-Dirac smearing, width (Ry)=  0.0073
                       cart. coord. in units 2pi/alat
        k(    1) = (   0.0000000   0.0000000   0.0000000), wk =   0.0277778
        k(    2) = (   0.0000000   0.0280101   0.0000000), wk =   0.0555556
        k(    3) = (   0.0000000   0.0560203   0.0000000), wk =   0.0555556
        k(    4) = (   0.0000000  -0.0840304   0.0000000), wk =   0.0277778
        k(    5) = (   0.0252881   0.0000000   0.0000000), wk =   0.0555556
        k(    6) = (   0.0252881   0.0280101   0.0000000), wk =   0.0555556
        k(    7) = (   0.0252881   0.0560203   0.0000000), wk =   0.0555556
        k(    8) = (   0.0252881  -0.0840304   0.0000000), wk =   0.0555556
        k(    9) = (   0.0505763   0.0000000   0.0000000), wk =   0.0555556
        k(   10) = (   0.0505763   0.0280101   0.0000000), wk =   0.0555556
        k(   11) = (   0.0505763   0.0560203   0.0000000), wk =   0.0555556
        k(   12) = (   0.0505763  -0.0840304   0.0000000), wk =   0.0555556
        k(   13) = (  -0.0758644   0.0000000   0.0000000), wk =   0.0277778
        k(   14) = (  -0.0758644   0.0280101   0.0000000), wk =   0.0555556
        k(   15) = (  -0.0758644   0.0560203   0.0000000), wk =   0.0555556
        k(   16) = (  -0.0758644  -0.0840304   0.0000000), wk =   0.0277778
        k(   17) = (  -0.0252881   0.0280101   0.0000000), wk =   0.0555556
        k(   18) = (  -0.0252881   0.0560203   0.0000000), wk =   0.0555556
        k(   19) = (  -0.0505763   0.0280101   0.0000000), wk =   0.0555556
        k(   20) = (  -0.0505763   0.0560203   0.0000000), wk =   0.0555556
        k(   21) = (   0.0000000   0.0000000   0.0000000), wk =   0.0277778
        k(   22) = (   0.0000000   0.0280101   0.0000000), wk =   0.0555556
        k(   23) = (   0.0000000   0.0560203   0.0000000), wk =   0.0555556
        k(   24) = (   0.0000000  -0.0840304   0.0000000), wk =   0.0277778
        k(   25) = (   0.0252881   0.0000000   0.0000000), wk =   0.0555556
        k(   26) = (   0.0252881   0.0280101   0.0000000), wk =   0.0555556
        k(   27) = (   0.0252881   0.0560203   0.0000000), wk =   0.0555556
        k(   28) = (   0.0252881  -0.0840304   0.0000000), wk =   0.0555556
        k(   29) = (   0.0505763   0.0000000   0.0000000), wk =   0.0555556
        k(   30) = (   0.0505763   0.0280101   0.0000000), wk =   0.0555556
        k(   31) = (   0.0505763   0.0560203   0.0000000), wk =   0.0555556
        k(   32) = (   0.0505763  -0.0840304   0.0000000), wk =   0.0555556
        k(   33) = (  -0.0758644   0.0000000   0.0000000), wk =   0.0277778
        k(   34) = (  -0.0758644   0.0280101   0.0000000), wk =   0.0555556
        k(   35) = (  -0.0758644   0.0560203   0.0000000), wk =   0.0555556
        k(   36) = (  -0.0758644  -0.0840304   0.0000000), wk =   0.0277778
        k(   37) = (  -0.0252881   0.0280101   0.0000000), wk =   0.0555556
        k(   38) = (  -0.0252881   0.0560203   0.0000000), wk =   0.0555556
        k(   39) = (  -0.0505763   0.0280101   0.0000000), wk =   0.0555556
        k(   40) = (  -0.0505763   0.0560203   0.0000000), wk =   0.0555556

     Dense  grid:  1096637 G-vectors     FFT dimensions: (  80,  72, 375)

     Smooth grid:   277353 G-vectors     FFT dimensions: (  54,  45, 240)

     Largest allocated arrays     est. size (Mb)     dimensions
        Kohn-Sham Wavefunctions         9.95 Mb     (    2180,  299)
        NL pseudopotentials            18.89 Mb     (    2180,  568)
        Each V/rho on FFT grid          4.22 Mb     (  138240,   2)
        Each G-vector array             0.52 Mb     (   68538)
        G-vector shells                 0.25 Mb     (   33046)
     Largest temporary arrays     est. size (Mb)     dimensions
        Auxiliary wavefunctions        39.78 Mb     (    2180, 1196)
        Each subspace H/S matrix       21.83 Mb     (    1196, 1196)
        Each <psi_i|beta_j> matrix      2.59 Mb     (     568,  299)
        Arrays for rho mixing          21.09 Mb     (  138240,   10)

     Check: negative/imaginary core charge=   -0.000049    0.000000

     The initial density is read from file :
     ./calc.save/charge-density.dat


     negative rho (up, down):  1.189E-02 1.196E-02


     ************************************************************************
     *
     * You are using vdW-DF for exchange-correlation in this calculation.
     * Please cite the following three references that made this development
     * possible:
     *
     *   M. Dion, H. Rydberg, E. Schroder, D. C. Langreth, and
     *   B. I. Lundqvist, Phys. Rev. Lett. 92, 246401 (2004).
     *
     *   T. Thonhauser, V. R. Cooper, S. Li, A. Puzder, P. Hyldgaard, and
     *   D. C. Langreth, Phys. Rev. B 76, 125112 (2007).
     *
     *   G. Roman-Perez and J. M. Soler, Phys. Rev. Lett. 103, 096102 (2009).
     *
     *
     * If you are using vdW-DF2, please also cite:
     *
     *   K. Lee, E. D. Murray, L. Kong, B. I. Lundqvist, and
     *   D. C. Langreth, Phys. Rev. B 82, 081101(R) (2010).
     *
     *
     * If you are calculating the stress with vdW-DF, please also cite:
     *
     *   R. Sabatini, E. Kucukbenli, B. Kolb, T. Thonhauser, and
     *   S. de Gironcoli, J. Phys.: Condens. Matter 24, 424209 (2012).
     *
     ************************************************************************

     Carrying out vdW-DF run using the following parameters:

     Nqs =      20    Nr_points =    1024   r_max =   100.000
     q_mesh =
               0.00001000     0.04494208     0.09755937     0.15916263
               0.23128650     0.31572767     0.41458969     0.53033537
               0.66584808     0.82450364     1.01025438     1.22772762
               1.48234092     1.78043706     2.12944203     2.53805004
               3.01644009     3.57652955     4.23227104     5.00000000

     Gradients computed in reciprocal space

     ************************************************************************


     Starting wfc are  300 randomized atomic wfcs

     total cpu time spent up to now is       79.4 secs

     Self-consistent Calculation

     iteration #  1     ecut=    40.42 Ry     beta=0.10
     Davidson diagonalization with overlap
     ethr =  1.00E-05,  avg # of iterations = 15.0

     Threshold (ethr) on eigenvalues was too large:
     Diagonalizing with lowered threshold

     Davidson diagonalization with overlap
     ethr =  5.35E-07,  avg # of iterations =  1.0

     negative rho (up, down):  1.189E-02 1.196E-02
 
     Magnetic moment per site:
     atom:    1    charge:    3.1244    magn:   -0.0003    constr:    0.0000
     atom:    2    charge:    2.0897    magn:    0.0003    constr:    0.0000
     atom:    3    charge:    3.1198    magn:   -0.0000    constr:    0.0000
     atom:    4    charge:    2.0867    magn:   -0.0001    constr:    0.0000
     atom:    5    charge:    3.1161    magn:   -0.0002    constr:    0.0000
     atom:    6    charge:    2.0795    magn:    0.0020    constr:    0.0000
     atom:    7    charge:    3.1167    magn:   -0.0053    constr:    0.0000
     atom:    8    charge:    2.0794    magn:    0.0248    constr:    0.0000
     atom:    9    charge:    3.1244    magn:   -0.0003    constr:    0.0000
     atom:   10    charge:    2.0898    magn:    0.0003    constr:    0.0000
     atom:   11    charge:    3.1198    magn:   -0.0000    constr:    0.0000
     atom:   12    charge:    2.0870    magn:   -0.0000    constr:    0.0000
     atom:   13    charge:    3.1150    magn:   -0.0002    constr:    0.0000
     atom:   14    charge:    2.0939    magn:    0.0022    constr:    0.0000
     atom:   15    charge:    3.1184    magn:   -0.0008    constr:    0.0000
     atom:   16    charge:    2.0828    magn:    0.0046    constr:    0.0000
     atom:   17    charge:    2.0624    magn:    0.0018    constr:    0.0000
     atom:   18    charge:    3.1239    magn:   -0.0001    constr:    0.0000
     atom:   19    charge:    2.0875    magn:    0.0001    constr:    0.0000
     atom:   20    charge:    2.0847    magn:    0.0002    constr:    0.0000
     atom:   21    charge:    2.0847    magn:    0.0002    constr:    0.0000
     atom:   22    charge:    3.1199    magn:    0.0000    constr:    0.0000
     atom:   23    charge:    2.0908    magn:    0.0002    constr:    0.0000
     atom:   24    charge:    2.0754    magn:   -0.0002    constr:    0.0000
     atom:   25    charge:    2.0867    magn:    0.0000    constr:    0.0000
     atom:   26    charge:    3.1127    magn:   -0.0002    constr:    0.0000
     atom:   27    charge:    2.0803    magn:    0.0025    constr:    0.0000
     atom:   28    charge:    2.0839    magn:    0.0006    constr:    0.0000
     atom:   29    charge:    2.0860    magn:    0.0008    constr:    0.0000
     atom:   30    charge:    3.1172    magn:   -0.0008    constr:    0.0000
     atom:   31    charge:    2.0825    magn:    0.0006    constr:    0.0000
     atom:   32    charge:    2.0830    magn:    0.0064    constr:    0.0000
     atom:   33    charge:    2.0624    magn:    0.0018    constr:    0.0000
     atom:   34    charge:    3.1239    magn:   -0.0001    constr:    0.0000
     atom:   35    charge:    2.0876    magn:    0.0001    constr:    0.0000
     atom:   36    charge:    2.0847    magn:    0.0002    constr:    0.0000
     atom:   37    charge:    2.0847    magn:    0.0002    constr:    0.0000
     atom:   38    charge:    3.1200    magn:    0.0000    constr:    0.0000
     atom:   39    charge:    2.0839    magn:    0.0002    constr:    0.0000
     atom:   40    charge:    2.0756    magn:   -0.0003    constr:    0.0000
     atom:   41    charge:    2.0870    magn:   -0.0000    constr:    0.0000
     atom:   42    charge:    3.1151    magn:   -0.0002    constr:    0.0000
     atom:   43    charge:    2.0803    magn:    0.0030    constr:    0.0000
     atom:   44    charge:    2.0851    magn:    0.0008    constr:    0.0000
     atom:   45    charge:    2.0858    magn:    0.0004    constr:    0.0000
     atom:   46    charge:    3.1147    magn:   -0.0007    constr:    0.0000
     atom:   47    charge:    2.0808    magn:    0.0046    constr:    0.0000
     atom:   48    charge:    2.0837    magn:    0.0136    constr:    0.0000
     atom:   49    charge:    2.0518    magn:    0.2396    constr:    0.0000
     atom:   50    charge:    0.6703    magn:    0.0548    constr:    0.0000
     atom:   51    charge:    0.4116    magn:    0.0010    constr:    0.0000
     atom:   52    charge:    0.4227    magn:    0.0008    constr:    0.0000
     atom:   53    charge:    0.3674    magn:    0.0234    constr:    0.0000
     atom:   54    charge:    0.4232    magn:    0.0006    constr:    0.0000

     total cpu time spent up to now is     1208.6 secs

     total energy              =   -3021.14968872 Ry
     Harris-Foulkes estimate   =   -3021.14991784 Ry
     estimated scf accuracy    <       0.00212958 Ry

     total magnetization       =     1.06 Bohr mag/cell
     absolute magnetization    =     1.23 Bohr mag/cell

     iteration #  2     ecut=    40.42 Ry     beta=0.10
     Davidson diagonalization with overlap
     ethr =  5.35E-07,  avg # of iterations =  2.0

     negative rho (up, down):  1.189E-02 1.196E-02
 
     Magnetic moment per site:
     atom:    1    charge:    3.1244    magn:   -0.0003    constr:    0.0000
     atom:    2    charge:    2.0897    magn:    0.0003    constr:    0.0000
     atom:    3    charge:    3.1198    magn:   -0.0000    constr:    0.0000
     atom:    4    charge:    2.0867    magn:   -0.0001    constr:    0.0000
     atom:    5    charge:    3.1161    magn:   -0.0002    constr:    0.0000
     atom:    6    charge:    2.0795    magn:    0.0021    constr:    0.0000
     atom:    7    charge:    3.1167    magn:   -0.0053    constr:    0.0000
     atom:    8    charge:    2.0794    magn:    0.0248    constr:    0.0000
     atom:    9    charge:    3.1244    magn:   -0.0003    constr:    0.0000
     atom:   10    charge:    2.0899    magn:    0.0003    constr:    0.0000
     atom:   11    charge:    3.1198    magn:   -0.0000    constr:    0.0000
     atom:   12    charge:    2.0871    magn:   -0.0000    constr:    0.0000
     atom:   13    charge:    3.1150    magn:   -0.0002    constr:    0.0000
     atom:   14    charge:    2.0939    magn:    0.0022    constr:    0.0000
     atom:   15    charge:    3.1184    magn:   -0.0008    constr:    0.0000
     atom:   16    charge:    2.0828    magn:    0.0046    constr:    0.0000
     atom:   17    charge:    2.0626    magn:    0.0017    constr:    0.0000
     atom:   18    charge:    3.1239    magn:   -0.0001    constr:    0.0000
     atom:   19    charge:    2.0875    magn:    0.0001    constr:    0.0000
     atom:   20    charge:    2.0847    magn:    0.0002    constr:    0.0000
     atom:   21    charge:    2.0847    magn:    0.0002    constr:    0.0000
     atom:   22    charge:    3.1199    magn:    0.0000    constr:    0.0000
     atom:   23    charge:    2.0908    magn:    0.0002    constr:    0.0000
     atom:   24    charge:    2.0754    magn:   -0.0002    constr:    0.0000
     atom:   25    charge:    2.0867    magn:    0.0000    constr:    0.0000
     atom:   26    charge:    3.1127    magn:   -0.0002    constr:    0.0000
     atom:   27    charge:    2.0802    magn:    0.0025    constr:    0.0000
     atom:   28    charge:    2.0839    magn:    0.0006    constr:    0.0000
     atom:   29    charge:    2.0860    magn:    0.0008    constr:    0.0000
     atom:   30    charge:    3.1172    magn:   -0.0008    constr:    0.0000
     atom:   31    charge:    2.0825    magn:    0.0006    constr:    0.0000
     atom:   32    charge:    2.0830    magn:    0.0064    constr:    0.0000
     atom:   33    charge:    2.0625    magn:    0.0018    constr:    0.0000
     atom:   34    charge:    3.1239    magn:   -0.0001    constr:    0.0000
     atom:   35    charge:    2.0876    magn:    0.0001    constr:    0.0000
     atom:   36    charge:    2.0847    magn:    0.0002    constr:    0.0000
     atom:   37    charge:    2.0847    magn:    0.0002    constr:    0.0000
     atom:   38    charge:    3.1200    magn:    0.0000    constr:    0.0000
     atom:   39    charge:    2.0839    magn:    0.0002    constr:    0.0000
     atom:   40    charge:    2.0756    magn:   -0.0003    constr:    0.0000
     atom:   41    charge:    2.0870    magn:   -0.0000    constr:    0.0000
     atom:   42    charge:    3.1151    magn:   -0.0002    constr:    0.0000
     atom:   43    charge:    2.0803    magn:    0.0030    constr:    0.0000
     atom:   44    charge:    2.0851    magn:    0.0008    constr:    0.0000
     atom:   45    charge:    2.0858    magn:    0.0004    constr:    0.0000
     atom:   46    charge:    3.1147    magn:   -0.0007    constr:    0.0000
     atom:   47    charge:    2.0808    magn:    0.0046    constr:    0.0000
     atom:   48    charge:    2.0837    magn:    0.0136    constr:    0.0000
     atom:   49    charge:    2.0518    magn:    0.2396    constr:    0.0000
     atom:   50    charge:    0.6698    magn:    0.0548    constr:    0.0000
     atom:   51    charge:    0.4116    magn:    0.0010    constr:    0.0000
     atom:   52    charge:    0.4227    magn:    0.0008    constr:    0.0000
     atom:   53    charge:    0.3673    magn:    0.0234    constr:    0.0000
     atom:   54    charge:    0.4233    magn:    0.0006    constr:    0.0000

     total cpu time spent up to now is     1418.8 secs

     total energy              =   -3021.14959593 Ry
     Harris-Foulkes estimate   =   -3021.14973590 Ry
     estimated scf accuracy    <       0.00179836 Ry

     total magnetization       =     1.06 Bohr mag/cell
     absolute magnetization    =     1.23 Bohr mag/cell

     iteration #  3     ecut=    40.42 Ry     beta=0.10
     Davidson diagonalization with overlap
     ethr =  4.52E-07,  avg # of iterations =  1.7

     negative rho (up, down):  1.188E-02 1.195E-02
 
     Magnetic moment per site:
     atom:    1    charge:    3.1244    magn:   -0.0003    constr:    0.0000
     atom:    2    charge:    2.0897    magn:    0.0003    constr:    0.0000
     atom:    3    charge:    3.1198    magn:   -0.0000    constr:    0.0000
     atom:    4    charge:    2.0867    magn:   -0.0001    constr:    0.0000
     atom:    5    charge:    3.1161    magn:   -0.0002    constr:    0.0000
     atom:    6    charge:    2.0795    magn:    0.0021    constr:    0.0000
     atom:    7    charge:    3.1167    magn:   -0.0052    constr:    0.0000
     atom:    8    charge:    2.0793    magn:    0.0248    constr:    0.0000
     atom:    9    charge:    3.1244    magn:   -0.0003    constr:    0.0000
     atom:   10    charge:    2.0898    magn:    0.0003    constr:    0.0000
     atom:   11    charge:    3.1198    magn:   -0.0000    constr:    0.0000
     atom:   12    charge:    2.0871    magn:   -0.0000    constr:    0.0000
     atom:   13    charge:    3.1150    magn:   -0.0002    constr:    0.0000
     atom:   14    charge:    2.0939    magn:    0.0022    constr:    0.0000
     atom:   15    charge:    3.1184    magn:   -0.0008    constr:    0.0000
     atom:   16    charge:    2.0828    magn:    0.0046    constr:    0.0000
     atom:   17    charge:    2.0624    magn:    0.0016    constr:    0.0000
     atom:   18    charge:    3.1240    magn:   -0.0001    constr:    0.0000
     atom:   19    charge:    2.0875    magn:    0.0001    constr:    0.0000
     atom:   20    charge:    2.0847    magn:    0.0001    constr:    0.0000
     atom:   21    charge:    2.0847    magn:    0.0001    constr:    0.0000
     atom:   22    charge:    3.1199    magn:    0.0000    constr:    0.0000
     atom:   23    charge:    2.0908    magn:    0.0002    constr:    0.0000
     atom:   24    charge:    2.0754    magn:   -0.0001    constr:    0.0000
     atom:   25    charge:    2.0867    magn:    0.0000    constr:    0.0000
     atom:   26    charge:    3.1127    magn:   -0.0002    constr:    0.0000
     atom:   27    charge:    2.0802    magn:    0.0025    constr:    0.0000
     atom:   28    charge:    2.0839    magn:    0.0006    constr:    0.0000
     atom:   29    charge:    2.0860    magn:    0.0008    constr:    0.0000
     atom:   30    charge:    3.1172    magn:   -0.0008    constr:    0.0000
     atom:   31    charge:    2.0825    magn:    0.0006    constr:    0.0000
     atom:   32    charge:    2.0830    magn:    0.0064    constr:    0.0000
     atom:   33    charge:    2.0624    magn:    0.0016    constr:    0.0000
     atom:   34    charge:    3.1239    magn:   -0.0001    constr:    0.0000
     atom:   35    charge:    2.0875    magn:    0.0001    constr:    0.0000
     atom:   36    charge:    2.0847    magn:    0.0001    constr:    0.0000
     atom:   37    charge:    2.0847    magn:    0.0001    constr:    0.0000
     atom:   38    charge:    3.1200    magn:    0.0000    constr:    0.0000
     atom:   39    charge:    2.0839    magn:    0.0002    constr:    0.0000
     atom:   40    charge:    2.0756    magn:   -0.0002    constr:    0.0000
     atom:   41    charge:    2.0870    magn:   -0.0000    constr:    0.0000
     atom:   42    charge:    3.1151    magn:   -0.0002    constr:    0.0000
     atom:   43    charge:    2.0803    magn:    0.0030    constr:    0.0000
     atom:   44    charge:    2.0851    magn:    0.0009    constr:    0.0000
     atom:   45    charge:    2.0858    magn:    0.0004    constr:    0.0000
     atom:   46    charge:    3.1147    magn:   -0.0007    constr:    0.0000
     atom:   47    charge:    2.0809    magn:    0.0046    constr:    0.0000
     atom:   48    charge:    2.0837    magn:    0.0135    constr:    0.0000
     atom:   49    charge:    2.0519    magn:    0.2394    constr:    0.0000
     atom:   50    charge:    0.6678    magn:    0.0548    constr:    0.0000
     atom:   51    charge:    0.4118    magn:    0.0009    constr:    0.0000
     atom:   52    charge:    0.4227    magn:    0.0009    constr:    0.0000
     atom:   53    charge:    0.3672    magn:    0.0236    constr:    0.0000
     atom:   54    charge:    0.4237    magn:    0.0007    constr:    0.0000

     total cpu time spent up to now is     1623.7 secs

     total energy              =   -3021.14937481 Ry
     Harris-Foulkes estimate   =   -3021.14967768 Ry
     estimated scf accuracy    <       0.00195765 Ry

     total magnetization       =     1.06 Bohr mag/cell
     absolute magnetization    =     1.23 Bohr mag/cell

     iteration #  4     ecut=    40.42 Ry     beta=0.10
     Davidson diagonalization with overlap
     ethr =  4.52E-07,  avg # of iterations =  3.0

     negative rho (up, down):  1.189E-02 1.195E-02
 
     Magnetic moment per site:
     atom:    1    charge:    3.1244    magn:   -0.0003    constr:    0.0000
     atom:    2    charge:    2.0897    magn:    0.0003    constr:    0.0000
     atom:    3    charge:    3.1198    magn:   -0.0000    constr:    0.0000
     atom:    4    charge:    2.0867    magn:   -0.0001    constr:    0.0000
     atom:    5    charge:    3.1161    magn:   -0.0002    constr:    0.0000
     atom:    6    charge:    2.0795    magn:    0.0021    constr:    0.0000
     atom:    7    charge:    3.1167    magn:   -0.0052    constr:    0.0000
     atom:    8    charge:    2.0791    magn:    0.0249    constr:    0.0000
     atom:    9    charge:    3.1244    magn:   -0.0003    constr:    0.0000
     atom:   10    charge:    2.0898    magn:    0.0003    constr:    0.0000
     atom:   11    charge:    3.1198    magn:   -0.0000    constr:    0.0000
     atom:   12    charge:    2.0871    magn:   -0.0000    constr:    0.0000
     atom:   13    charge:    3.1150    magn:   -0.0002    constr:    0.0000
     atom:   14    charge:    2.0939    magn:    0.0022    constr:    0.0000
     atom:   15    charge:    3.1184    magn:   -0.0008    constr:    0.0000
     atom:   16    charge:    2.0828    magn:    0.0046    constr:    0.0000
     atom:   17    charge:    2.0624    magn:    0.0015    constr:    0.0000
     atom:   18    charge:    3.1239    magn:   -0.0001    constr:    0.0000
     atom:   19    charge:    2.0875    magn:    0.0001    constr:    0.0000
     atom:   20    charge:    2.0847    magn:    0.0001    constr:    0.0000
     atom:   21    charge:    2.0847    magn:    0.0001    constr:    0.0000
     atom:   22    charge:    3.1199    magn:    0.0000    constr:    0.0000
     atom:   23    charge:    2.0908    magn:    0.0002    constr:    0.0000
     atom:   24    charge:    2.0754    magn:   -0.0001    constr:    0.0000
     atom:   25    charge:    2.0867    magn:    0.0000    constr:    0.0000
     atom:   26    charge:    3.1127    magn:   -0.0002    constr:    0.0000
     atom:   27    charge:    2.0802    magn:    0.0025    constr:    0.0000
     atom:   28    charge:    2.0839    magn:    0.0006    constr:    0.0000
     atom:   29    charge:    2.0860    magn:    0.0008    constr:    0.0000
     atom:   30    charge:    3.1171    magn:   -0.0008    constr:    0.0000
     atom:   31    charge:    2.0826    magn:    0.0006    constr:    0.0000
     atom:   32    charge:    2.0829    magn:    0.0064    constr:    0.0000
     atom:   33    charge:    2.0624    magn:    0.0015    constr:    0.0000
     atom:   34    charge:    3.1239    magn:   -0.0001    constr:    0.0000
     atom:   35    charge:    2.0876    magn:    0.0001    constr:    0.0000
     atom:   36    charge:    2.0847    magn:    0.0001    constr:    0.0000
     atom:   37    charge:    2.0847    magn:    0.0001    constr:    0.0000
     atom:   38    charge:    3.1200    magn:    0.0000    constr:    0.0000
     atom:   39    charge:    2.0839    magn:    0.0002    constr:    0.0000
     atom:   40    charge:    2.0756    magn:   -0.0002    constr:    0.0000
     atom:   41    charge:    2.0870    magn:   -0.0000    constr:    0.0000
     atom:   42    charge:    3.1151    magn:   -0.0002    constr:    0.0000
     atom:   43    charge:    2.0802    magn:    0.0030    constr:    0.0000
     atom:   44    charge:    2.0851    magn:    0.0009    constr:    0.0000
     atom:   45    charge:    2.0858    magn:    0.0004    constr:    0.0000
     atom:   46    charge:    3.1148    magn:   -0.0007    constr:    0.0000
     atom:   47    charge:    2.0807    magn:    0.0046    constr:    0.0000
     atom:   48    charge:    2.0837    magn:    0.0135    constr:    0.0000
     atom:   49    charge:    2.0516    magn:    0.2396    constr:    0.0000
     atom:   50    charge:    0.6680    magn:    0.0546    constr:    0.0000
     atom:   51    charge:    0.4118    magn:    0.0009    constr:    0.0000
     atom:   52    charge:    0.4227    magn:    0.0009    constr:    0.0000
     atom:   53    charge:    0.3674    magn:    0.0234    constr:    0.0000
     atom:   54    charge:    0.4237    magn:    0.0007    constr:    0.0000

     total cpu time spent up to now is     1854.6 secs

     total energy              =   -3021.14946571 Ry
     Harris-Foulkes estimate   =   -3021.14949452 Ry
     estimated scf accuracy    <       0.00027963 Ry

     total magnetization       =     1.06 Bohr mag/cell
     absolute magnetization    =     1.23 Bohr mag/cell

     iteration #  5     ecut=    40.42 Ry     beta=0.10
     Davidson diagonalization with overlap
     ethr =  7.03E-08,  avg # of iterations =  2.4

     negative rho (up, down):  1.189E-02 1.195E-02
 
     Magnetic moment per site:
     atom:    1    charge:    3.1244    magn:   -0.0002    constr:    0.0000
     atom:    2    charge:    2.0897    magn:    0.0002    constr:    0.0000
     atom:    3    charge:    3.1198    magn:   -0.0000    constr:    0.0000
     atom:    4    charge:    2.0867    magn:   -0.0001    constr:    0.0000
     atom:    5    charge:    3.1161    magn:   -0.0002    constr:    0.0000
     atom:    6    charge:    2.0795    magn:    0.0021    constr:    0.0000
     atom:    7    charge:    3.1167    magn:   -0.0053    constr:    0.0000
     atom:    8    charge:    2.0791    magn:    0.0250    constr:    0.0000
     atom:    9    charge:    3.1244    magn:   -0.0002    constr:    0.0000
     atom:   10    charge:    2.0898    magn:    0.0002    constr:    0.0000
     atom:   11    charge:    3.1198    magn:   -0.0000    constr:    0.0000
     atom:   12    charge:    2.0870    magn:   -0.0000    constr:    0.0000
     atom:   13    charge:    3.1150    magn:   -0.0002    constr:    0.0000
     atom:   14    charge:    2.0939    magn:    0.0022    constr:    0.0000
     atom:   15    charge:    3.1184    magn:   -0.0008    constr:    0.0000
     atom:   16    charge:    2.0828    magn:    0.0046    constr:    0.0000
     atom:   17    charge:    2.0624    magn:    0.0014    constr:    0.0000
     atom:   18    charge:    3.1239    magn:   -0.0001    constr:    0.0000
     atom:   19    charge:    2.0875    magn:    0.0001    constr:    0.0000
     atom:   20    charge:    2.0847    magn:    0.0001    constr:    0.0000
     atom:   21    charge:    2.0847    magn:    0.0001    constr:    0.0000
     atom:   22    charge:    3.1199    magn:    0.0000    constr:    0.0000
     atom:   23    charge:    2.0908    magn:    0.0002    constr:    0.0000
     atom:   24    charge:    2.0754    magn:   -0.0001    constr:    0.0000
     atom:   25    charge:    2.0867    magn:    0.0000    constr:    0.0000
     atom:   26    charge:    3.1127    magn:   -0.0002    constr:    0.0000
     atom:   27    charge:    2.0803    magn:    0.0026    constr:    0.0000
     atom:   28    charge:    2.0839    magn:    0.0007    constr:    0.0000
     atom:   29    charge:    2.0860    magn:    0.0008    constr:    0.0000
     atom:   30    charge:    3.1171    magn:   -0.0008    constr:    0.0000
     atom:   31    charge:    2.0825    magn:    0.0006    constr:    0.0000
     atom:   32    charge:    2.0828    magn:    0.0064    constr:    0.0000
     atom:   33    charge:    2.0624    magn:    0.0014    constr:    0.0000
     atom:   34    charge:    3.1239    magn:   -0.0001    constr:    0.0000
     atom:   35    charge:    2.0876    magn:    0.0000    constr:    0.0000
     atom:   36    charge:    2.0847    magn:    0.0001    constr:    0.0000
     atom:   37    charge:    2.0847    magn:    0.0001    constr:    0.0000
     atom:   38    charge:    3.1200    magn:    0.0000    constr:    0.0000
     atom:   39    charge:    2.0839    magn:    0.0002    constr:    0.0000
     atom:   40    charge:    2.0756    magn:   -0.0002    constr:    0.0000
     atom:   41    charge:    2.0870    magn:   -0.0000    constr:    0.0000
     atom:   42    charge:    3.1151    magn:   -0.0002    constr:    0.0000
     atom:   43    charge:    2.0803    magn:    0.0031    constr:    0.0000
     atom:   44    charge:    2.0851    magn:    0.0009    constr:    0.0000
     atom:   45    charge:    2.0858    magn:    0.0005    constr:    0.0000
     atom:   46    charge:    3.1148    magn:   -0.0007    constr:    0.0000
     atom:   47    charge:    2.0805    magn:    0.0047    constr:    0.0000
     atom:   48    charge:    2.0837    magn:    0.0136    constr:    0.0000
     atom:   49    charge:    2.0515    magn:    0.2398    constr:    0.0000
     atom:   50    charge:    0.6681    magn:    0.0545    constr:    0.0000
     atom:   51    charge:    0.4118    magn:    0.0008    constr:    0.0000
     atom:   52    charge:    0.4226    magn:    0.0009    constr:    0.0000
     atom:   53    charge:    0.3675    magn:    0.0232    constr:    0.0000
     atom:   54    charge:    0.4237    magn:    0.0007    constr:    0.0000

     total cpu time spent up to now is     2071.8 secs

     total energy              =   -3021.14946164 Ry
     Harris-Foulkes estimate   =   -3021.14947220 Ry
     estimated scf accuracy    <       0.00012271 Ry

     total magnetization       =     1.06 Bohr mag/cell
     absolute magnetization    =     1.23 Bohr mag/cell

     iteration #  6     ecut=    40.42 Ry     beta=0.10
     Davidson diagonalization with overlap
     ethr =  3.08E-08,  avg # of iterations =  3.0

     negative rho (up, down):  1.189E-02 1.195E-02
 
     Magnetic moment per site:
     atom:    1    charge:    3.1244    magn:   -0.0002    constr:    0.0000
     atom:    2    charge:    2.0897    magn:    0.0002    constr:    0.0000
     atom:    3    charge:    3.1198    magn:   -0.0000    constr:    0.0000
     atom:    4    charge:    2.0867    magn:   -0.0001    constr:    0.0000
     atom:    5    charge:    3.1161    magn:   -0.0002    constr:    0.0000
     atom:    6    charge:    2.0795    magn:    0.0021    constr:    0.0000
     atom:    7    charge:    3.1167    magn:   -0.0053    constr:    0.0000
     atom:    8    charge:    2.0792    magn:    0.0250    constr:    0.0000
     atom:    9    charge:    3.1244    magn:   -0.0002    constr:    0.0000
     atom:   10    charge:    2.0898    magn:    0.0002    constr:    0.0000
     atom:   11    charge:    3.1198    magn:   -0.0000    constr:    0.0000
     atom:   12    charge:    2.0870    magn:   -0.0000    constr:    0.0000
     atom:   13    charge:    3.1150    magn:   -0.0002    constr:    0.0000
     atom:   14    charge:    2.0939    magn:    0.0022    constr:    0.0000
     atom:   15    charge:    3.1183    magn:   -0.0008    constr:    0.0000
     atom:   16    charge:    2.0828    magn:    0.0046    constr:    0.0000
     atom:   17    charge:    2.0624    magn:    0.0013    constr:    0.0000
     atom:   18    charge:    3.1239    magn:   -0.0001    constr:    0.0000
     atom:   19    charge:    2.0875    magn:    0.0000    constr:    0.0000
     atom:   20    charge:    2.0847    magn:    0.0001    constr:    0.0000
     atom:   21    charge:    2.0847    magn:    0.0001    constr:    0.0000
     atom:   22    charge:    3.1199    magn:    0.0000    constr:    0.0000
     atom:   23    charge:    2.0908    magn:    0.0002    constr:    0.0000
     atom:   24    charge:    2.0754    magn:   -0.0001    constr:    0.0000
     atom:   25    charge:    2.0867    magn:    0.0000    constr:    0.0000
     atom:   26    charge:    3.1127    magn:   -0.0002    constr:    0.0000
     atom:   27    charge:    2.0803    magn:    0.0026    constr:    0.0000
     atom:   28    charge:    2.0839    magn:    0.0007    constr:    0.0000
     atom:   29    charge:    2.0860    magn:    0.0008    constr:    0.0000
     atom:   30    charge:    3.1171    magn:   -0.0008    constr:    0.0000
     atom:   31    charge:    2.0825    magn:    0.0006    constr:    0.0000
     atom:   32    charge:    2.0828    magn:    0.0065    constr:    0.0000
     atom:   33    charge:    2.0624    magn:    0.0013    constr:    0.0000
     atom:   34    charge:    3.1239    magn:   -0.0001    constr:    0.0000
     atom:   35    charge:    2.0876    magn:    0.0000    constr:    0.0000
     atom:   36    charge:    2.0847    magn:    0.0001    constr:    0.0000
     atom:   37    charge:    2.0847    magn:    0.0001    constr:    0.0000
     atom:   38    charge:    3.1200    magn:    0.0000    constr:    0.0000
     atom:   39    charge:    2.0839    magn:    0.0002    constr:    0.0000
     atom:   40    charge:    2.0756    magn:   -0.0002    constr:    0.0000
     atom:   41    charge:    2.0870    magn:   -0.0000    constr:    0.0000
     atom:   42    charge:    3.1151    magn:   -0.0002    constr:    0.0000
     atom:   43    charge:    2.0803    magn:    0.0031    constr:    0.0000
     atom:   44    charge:    2.0851    magn:    0.0009    constr:    0.0000
     atom:   45    charge:    2.0858    magn:    0.0005    constr:    0.0000
     atom:   46    charge:    3.1148    magn:   -0.0007    constr:    0.0000
     atom:   47    charge:    2.0805    magn:    0.0047    constr:    0.0000
     atom:   48    charge:    2.0837    magn:    0.0136    constr:    0.0000
     atom:   49    charge:    2.0515    magn:    0.2399    constr:    0.0000
     atom:   50    charge:    0.6683    magn:    0.0545    constr:    0.0000
     atom:   51    charge:    0.4118    magn:    0.0008    constr:    0.0000
     atom:   52    charge:    0.4225    magn:    0.0009    constr:    0.0000
     atom:   53    charge:    0.3676    magn:    0.0231    constr:    0.0000
     atom:   54    charge:    0.4236    magn:    0.0007    constr:    0.0000

     total cpu time spent up to now is     2302.4 secs

     total energy              =   -3021.14946790 Ry
     Harris-Foulkes estimate   =   -3021.14946746 Ry
     estimated scf accuracy    <       0.00003275 Ry

     total magnetization       =     1.06 Bohr mag/cell
     absolute magnetization    =     1.23 Bohr mag/cell

     iteration #  7     ecut=    40.42 Ry     beta=0.10
     Davidson diagonalization with overlap
     ethr =  8.23E-09,  avg # of iterations =  3.0

     negative rho (up, down):  1.189E-02 1.195E-02
 
     Magnetic moment per site:
     atom:    1    charge:    3.1244    magn:   -0.0002    constr:    0.0000
     atom:    2    charge:    2.0897    magn:    0.0002    constr:    0.0000
     atom:    3    charge:    3.1198    magn:   -0.0000    constr:    0.0000
     atom:    4    charge:    2.0867    magn:   -0.0001    constr:    0.0000
     atom:    5    charge:    3.1161    magn:   -0.0003    constr:    0.0000
     atom:    6    charge:    2.0795    magn:    0.0021    constr:    0.0000
     atom:    7    charge:    3.1167    magn:   -0.0053    constr:    0.0000
     atom:    8    charge:    2.0793    magn:    0.0250    constr:    0.0000
     atom:    9    charge:    3.1244    magn:   -0.0002    constr:    0.0000
     atom:   10    charge:    2.0898    magn:    0.0002    constr:    0.0000
     atom:   11    charge:    3.1198    magn:   -0.0000    constr:    0.0000
     atom:   12    charge:    2.0870    magn:   -0.0000    constr:    0.0000
     atom:   13    charge:    3.1150    magn:   -0.0002    constr:    0.0000
     atom:   14    charge:    2.0939    magn:    0.0023    constr:    0.0000
     atom:   15    charge:    3.1184    magn:   -0.0008    constr:    0.0000
     atom:   16    charge:    2.0828    magn:    0.0047    constr:    0.0000
     atom:   17    charge:    2.0624    magn:    0.0012    constr:    0.0000
     atom:   18    charge:    3.1239    magn:   -0.0000    constr:    0.0000
     atom:   19    charge:    2.0875    magn:    0.0000    constr:    0.0000
     atom:   20    charge:    2.0847    magn:    0.0001    constr:    0.0000
     atom:   21    charge:    2.0847    magn:    0.0001    constr:    0.0000
     atom:   22    charge:    3.1199    magn:    0.0000    constr:    0.0000
     atom:   23    charge:    2.0908    magn:    0.0003    constr:    0.0000
     atom:   24    charge:    2.0754    magn:   -0.0001    constr:    0.0000
     atom:   25    charge:    2.0867    magn:    0.0000    constr:    0.0000
     atom:   26    charge:    3.1127    magn:   -0.0003    constr:    0.0000
     atom:   27    charge:    2.0803    magn:    0.0026    constr:    0.0000
     atom:   28    charge:    2.0839    magn:    0.0007    constr:    0.0000
     atom:   29    charge:    2.0860    magn:    0.0009    constr:    0.0000
     atom:   30    charge:    3.1171    magn:   -0.0008    constr:    0.0000
     atom:   31    charge:    2.0824    magn:    0.0006    constr:    0.0000
     atom:   32    charge:    2.0829    magn:    0.0065    constr:    0.0000
     atom:   33    charge:    2.0624    magn:    0.0012    constr:    0.0000
     atom:   34    charge:    3.1239    magn:   -0.0000    constr:    0.0000
     atom:   35    charge:    2.0876    magn:    0.0000    constr:    0.0000
     atom:   36    charge:    2.0847    magn:    0.0001    constr:    0.0000
     atom:   37    charge:    2.0847    magn:    0.0001    constr:    0.0000
     atom:   38    charge:    3.1200    magn:    0.0000    constr:    0.0000
     atom:   39    charge:    2.0839    magn:    0.0002    constr:    0.0000
     atom:   40    charge:    2.0756    magn:   -0.0001    constr:    0.0000
     atom:   41    charge:    2.0870    magn:   -0.0000    constr:    0.0000
     atom:   42    charge:    3.1151    magn:   -0.0002    constr:    0.0000
     atom:   43    charge:    2.0803    magn:    0.0031    constr:    0.0000
     atom:   44    charge:    2.0851    magn:    0.0009    constr:    0.0000
     atom:   45    charge:    2.0858    magn:    0.0005    constr:    0.0000
     atom:   46    charge:    3.1148    magn:   -0.0007    constr:    0.0000
     atom:   47    charge:    2.0805    magn:    0.0047    constr:    0.0000
     atom:   48    charge:    2.0837    magn:    0.0136    constr:    0.0000
     atom:   49    charge:    2.0516    magn:    0.2400    constr:    0.0000
     atom:   50    charge:    0.6686    magn:    0.0545    constr:    0.0000
     atom:   51    charge:    0.4117    magn:    0.0008    constr:    0.0000
     atom:   52    charge:    0.4225    magn:    0.0009    constr:    0.0000
     atom:   53    charge:    0.3676    magn:    0.0230    constr:    0.0000
     atom:   54    charge:    0.4235    magn:    0.0007    constr:    0.0000

     total cpu time spent up to now is     2530.9 secs

     total energy              =   -3021.14946688 Ry
     Harris-Foulkes estimate   =   -3021.14946923 Ry
     estimated scf accuracy    <       0.00001207 Ry

     total magnetization       =     1.06 Bohr mag/cell
     absolute magnetization    =     1.23 Bohr mag/cell

     iteration #  8     ecut=    40.42 Ry     beta=0.10
     Davidson diagonalization with overlap
     ethr =  3.03E-09,  avg # of iterations =  3.0

     negative rho (up, down):  1.189E-02 1.195E-02
 
     Magnetic moment per site:
     atom:    1    charge:    3.1244    magn:   -0.0002    constr:    0.0000
     atom:    2    charge:    2.0897    magn:    0.0002    constr:    0.0000
     atom:    3    charge:    3.1198    magn:   -0.0000    constr:    0.0000
     atom:    4    charge:    2.0867    magn:   -0.0001    constr:    0.0000
     atom:    5    charge:    3.1161    magn:   -0.0003    constr:    0.0000
     atom:    6    charge:    2.0795    magn:    0.0021    constr:    0.0000
     atom:    7    charge:    3.1167    magn:   -0.0053    constr:    0.0000
     atom:    8    charge:    2.0793    magn:    0.0251    constr:    0.0000
     atom:    9    charge:    3.1244    magn:   -0.0002    constr:    0.0000
     atom:   10    charge:    2.0898    magn:    0.0002    constr:    0.0000
     atom:   11    charge:    3.1198    magn:   -0.0000    constr:    0.0000
     atom:   12    charge:    2.0870    magn:   -0.0000    constr:    0.0000
     atom:   13    charge:    3.1150    magn:   -0.0002    constr:    0.0000
     atom:   14    charge:    2.0939    magn:    0.0023    constr:    0.0000
     atom:   15    charge:    3.1184    magn:   -0.0008    constr:    0.0000
     atom:   16    charge:    2.0828    magn:    0.0047    constr:    0.0000
     atom:   17    charge:    2.0624    magn:    0.0011    constr:    0.0000
     atom:   18    charge:    3.1239    magn:   -0.0000    constr:    0.0000
     atom:   19    charge:    2.0875    magn:    0.0000    constr:    0.0000
     atom:   20    charge:    2.0847    magn:    0.0001    constr:    0.0000
     atom:   21    charge:    2.0847    magn:    0.0001    constr:    0.0000
     atom:   22    charge:    3.1199    magn:    0.0000    constr:    0.0000
     atom:   23    charge:    2.0908    magn:    0.0003    constr:    0.0000
     atom:   24    charge:    2.0754    magn:   -0.0000    constr:    0.0000
     atom:   25    charge:    2.0867    magn:    0.0000    constr:    0.0000
     atom:   26    charge:    3.1127    magn:   -0.0003    constr:    0.0000
     atom:   27    charge:    2.0803    magn:    0.0027    constr:    0.0000
     atom:   28    charge:    2.0839    magn:    0.0007    constr:    0.0000
     atom:   29    charge:    2.0860    magn:    0.0009    constr:    0.0000
     atom:   30    charge:    3.1171    magn:   -0.0008    constr:    0.0000
     atom:   31    charge:    2.0825    magn:    0.0006    constr:    0.0000
     atom:   32    charge:    2.0829    magn:    0.0065    constr:    0.0000
     atom:   33    charge:    2.0624    magn:    0.0011    constr:    0.0000
     atom:   34    charge:    3.1239    magn:   -0.0000    constr:    0.0000
     atom:   35    charge:    2.0875    magn:    0.0000    constr:    0.0000
     atom:   36    charge:    2.0847    magn:    0.0001    constr:    0.0000
     atom:   37    charge:    2.0847    magn:    0.0001    constr:    0.0000
     atom:   38    charge:    3.1200    magn:    0.0000    constr:    0.0000
     atom:   39    charge:    2.0839    magn:    0.0002    constr:    0.0000
     atom:   40    charge:    2.0756    magn:   -0.0001    constr:    0.0000
     atom:   41    charge:    2.0870    magn:   -0.0000    constr:    0.0000
     atom:   42    charge:    3.1151    magn:   -0.0002    constr:    0.0000
     atom:   43    charge:    2.0803    magn:    0.0032    constr:    0.0000
     atom:   44    charge:    2.0851    magn:    0.0010    constr:    0.0000
     atom:   45    charge:    2.0858    magn:    0.0005    constr:    0.0000
     atom:   46    charge:    3.1148    magn:   -0.0007    constr:    0.0000
     atom:   47    charge:    2.0806    magn:    0.0047    constr:    0.0000
     atom:   48    charge:    2.0837    magn:    0.0136    constr:    0.0000
     atom:   49    charge:    2.0517    magn:    0.2400    constr:    0.0000
     atom:   50    charge:    0.6687    magn:    0.0544    constr:    0.0000
     atom:   51    charge:    0.4117    magn:    0.0008    constr:    0.0000
     atom:   52    charge:    0.4225    magn:    0.0010    constr:    0.0000
     atom:   53    charge:    0.3676    magn:    0.0230    constr:    0.0000
     atom:   54    charge:    0.4234    magn:    0.0007    constr:    0.0000

     total cpu time spent up to now is     2764.4 secs

     total energy              =   -3021.14946785 Ry
     Harris-Foulkes estimate   =   -3021.14946799 Ry
     estimated scf accuracy    <       0.00000423 Ry

     total magnetization       =     1.06 Bohr mag/cell
     absolute magnetization    =     1.23 Bohr mag/cell

     iteration #  9     ecut=    40.42 Ry     beta=0.10
     Davidson diagonalization with overlap
     ethr =  1.06E-09,  avg # of iterations =  3.0

     negative rho (up, down):  1.189E-02 1.195E-02
 
     Magnetic moment per site:
     atom:    1    charge:    3.1244    magn:   -0.0002    constr:    0.0000
     atom:    2    charge:    2.0897    magn:    0.0001    constr:    0.0000
     atom:    3    charge:    3.1198    magn:   -0.0000    constr:    0.0000
     atom:    4    charge:    2.0867    magn:   -0.0001    constr:    0.0000
     atom:    5    charge:    3.1161    magn:   -0.0003    constr:    0.0000
     atom:    6    charge:    2.0795    magn:    0.0022    constr:    0.0000
     atom:    7    charge:    3.1167    magn:   -0.0054    constr:    0.0000
     atom:    8    charge:    2.0793    magn:    0.0251    constr:    0.0000
     atom:    9    charge:    3.1244    magn:   -0.0002    constr:    0.0000
     atom:   10    charge:    2.0898    magn:    0.0002    constr:    0.0000
     atom:   11    charge:    3.1198    magn:   -0.0000    constr:    0.0000
     atom:   12    charge:    2.0870    magn:   -0.0000    constr:    0.0000
     atom:   13    charge:    3.1150    magn:   -0.0002    constr:    0.0000
     atom:   14    charge:    2.0939    magn:    0.0023    constr:    0.0000
     atom:   15    charge:    3.1184    magn:   -0.0008    constr:    0.0000
     atom:   16    charge:    2.0828    magn:    0.0047    constr:    0.0000
     atom:   17    charge:    2.0624    magn:    0.0010    constr:    0.0000
     atom:   18    charge:    3.1239    magn:   -0.0000    constr:    0.0000
     atom:   19    charge:    2.0875    magn:    0.0000    constr:    0.0000
     atom:   20    charge:    2.0847    magn:    0.0001    constr:    0.0000
     atom:   21    charge:    2.0847    magn:    0.0001    constr:    0.0000
     atom:   22    charge:    3.1199    magn:    0.0000    constr:    0.0000
     atom:   23    charge:    2.0908    magn:    0.0003    constr:    0.0000
     atom:   24    charge:    2.0754    magn:   -0.0000    constr:    0.0000
     atom:   25    charge:    2.0867    magn:    0.0000    constr:    0.0000
     atom:   26    charge:    3.1127    magn:   -0.0003    constr:    0.0000
     atom:   27    charge:    2.0802    magn:    0.0027    constr:    0.0000
     atom:   28    charge:    2.0839    magn:    0.0008    constr:    0.0000
     atom:   29    charge:    2.0860    magn:    0.0009    constr:    0.0000
     atom:   30    charge:    3.1171    magn:   -0.0008    constr:    0.0000
     atom:   31    charge:    2.0825    magn:    0.0006    constr:    0.0000
     atom:   32    charge:    2.0829    magn:    0.0065    constr:    0.0000
     atom:   33    charge:    2.0624    magn:    0.0010    constr:    0.0000
     atom:   34    charge:    3.1239    magn:   -0.0000    constr:    0.0000
     atom:   35    charge:    2.0875    magn:    0.0000    constr:    0.0000
     atom:   36    charge:    2.0847    magn:    0.0001    constr:    0.0000
     atom:   37    charge:    2.0847    magn:    0.0001    constr:    0.0000
     atom:   38    charge:    3.1200    magn:    0.0000    constr:    0.0000
     atom:   39    charge:    2.0839    magn:    0.0002    constr:    0.0000
     atom:   40    charge:    2.0756    magn:   -0.0001    constr:    0.0000
     atom:   41    charge:    2.0870    magn:   -0.0000    constr:    0.0000
     atom:   42    charge:    3.1151    magn:   -0.0002    constr:    0.0000
     atom:   43    charge:    2.0803    magn:    0.0032    constr:    0.0000
     atom:   44    charge:    2.0851    magn:    0.0010    constr:    0.0000
     atom:   45    charge:    2.0858    magn:    0.0005    constr:    0.0000
     atom:   46    charge:    3.1147    magn:   -0.0007    constr:    0.0000
     atom:   47    charge:    2.0807    magn:    0.0047    constr:    0.0000
     atom:   48    charge:    2.0837    magn:    0.0137    constr:    0.0000
     atom:   49    charge:    2.0518    magn:    0.2401    constr:    0.0000
     atom:   50    charge:    0.6688    magn:    0.0544    constr:    0.0000
     atom:   51    charge:    0.4117    magn:    0.0008    constr:    0.0000
     atom:   52    charge:    0.4225    magn:    0.0010    constr:    0.0000
     atom:   53    charge:    0.3675    magn:    0.0230    constr:    0.0000
     atom:   54    charge:    0.4233    magn:    0.0007    constr:    0.0000

     total cpu time spent up to now is     2995.3 secs

     total energy              =   -3021.14946798 Ry
     Harris-Foulkes estimate   =   -3021.14946819 Ry
     estimated scf accuracy    <       0.00000113 Ry

     total magnetization       =     1.06 Bohr mag/cell
     absolute magnetization    =     1.23 Bohr mag/cell

     iteration # 10     ecut=    40.42 Ry     beta=0.10
     Davidson diagonalization with overlap
     ethr =  2.84E-10,  avg # of iterations =  3.5

     negative rho (up, down):  1.189E-02 1.195E-02
 
     Magnetic moment per site:
     atom:    1    charge:    3.1244    magn:   -0.0001    constr:    0.0000
     atom:    2    charge:    2.0897    magn:    0.0001    constr:    0.0000
     atom:    3    charge:    3.1198    magn:   -0.0000    constr:    0.0000
     atom:    4    charge:    2.0867    magn:   -0.0001    constr:    0.0000
     atom:    5    charge:    3.1161    magn:   -0.0003    constr:    0.0000
     atom:    6    charge:    2.0795    magn:    0.0022    constr:    0.0000
     atom:    7    charge:    3.1167    magn:   -0.0054    constr:    0.0000
     atom:    8    charge:    2.0792    magn:    0.0251    constr:    0.0000
     atom:    9    charge:    3.1244    magn:   -0.0001    constr:    0.0000
     atom:   10    charge:    2.0898    magn:    0.0001    constr:    0.0000
     atom:   11    charge:    3.1198    magn:   -0.0000    constr:    0.0000
     atom:   12    charge:    2.0870    magn:   -0.0000    constr:    0.0000
     atom:   13    charge:    3.1150    magn:   -0.0002    constr:    0.0000
     atom:   14    charge:    2.0939    magn:    0.0023    constr:    0.0000
     atom:   15    charge:    3.1184    magn:   -0.0008    constr:    0.0000
     atom:   16    charge:    2.0828    magn:    0.0047    constr:    0.0000
     atom:   17    charge:    2.0624    magn:    0.0008    constr:    0.0000
     atom:   18    charge:    3.1239    magn:   -0.0000    constr:    0.0000
     atom:   19    charge:    2.0876    magn:    0.0000    constr:    0.0000
     atom:   20    charge:    2.0847    magn:    0.0001    constr:    0.0000
     atom:   21    charge:    2.0847    magn:    0.0001    constr:    0.0000
     atom:   22    charge:    3.1199    magn:    0.0000    constr:    0.0000
     atom:   23    charge:    2.0908    magn:    0.0003    constr:    0.0000
     atom:   24    charge:    2.0754    magn:   -0.0000    constr:    0.0000
     atom:   25    charge:    2.0867    magn:    0.0000    constr:    0.0000
     atom:   26    charge:    3.1127    magn:   -0.0003    constr:    0.0000
     atom:   27    charge:    2.0802    magn:    0.0027    constr:    0.0000
     atom:   28    charge:    2.0839    magn:    0.0008    constr:    0.0000
     atom:   29    charge:    2.0860    magn:    0.0009    constr:    0.0000
     atom:   30    charge:    3.1171    magn:   -0.0008    constr:    0.0000
     atom:   31    charge:    2.0825    magn:    0.0006    constr:    0.0000
     atom:   32    charge:    2.0829    magn:    0.0065    constr:    0.0000
     atom:   33    charge:    2.0624    magn:    0.0008    constr:    0.0000
     atom:   34    charge:    3.1239    magn:   -0.0000    constr:    0.0000
     atom:   35    charge:    2.0876    magn:    0.0000    constr:    0.0000
     atom:   36    charge:    2.0847    magn:    0.0001    constr:    0.0000
     atom:   37    charge:    2.0847    magn:    0.0001    constr:    0.0000
     atom:   38    charge:    3.1200    magn:    0.0000    constr:    0.0000
     atom:   39    charge:    2.0839    magn:    0.0002    constr:    0.0000
     atom:   40    charge:    2.0756    magn:   -0.0001    constr:    0.0000
     atom:   41    charge:    2.0870    magn:   -0.0000    constr:    0.0000
     atom:   42    charge:    3.1151    magn:   -0.0003    constr:    0.0000
     atom:   43    charge:    2.0803    magn:    0.0032    constr:    0.0000
     atom:   44    charge:    2.0851    magn:    0.0010    constr:    0.0000
     atom:   45    charge:    2.0858    magn:    0.0006    constr:    0.0000
     atom:   46    charge:    3.1148    magn:   -0.0007    constr:    0.0000
     atom:   47    charge:    2.0806    magn:    0.0047    constr:    0.0000
     atom:   48    charge:    2.0837    magn:    0.0137    constr:    0.0000
     atom:   49    charge:    2.0517    magn:    0.2402    constr:    0.0000
     atom:   50    charge:    0.6687    magn:    0.0544    constr:    0.0000
     atom:   51    charge:    0.4117    magn:    0.0008    constr:    0.0000
     atom:   52    charge:    0.4225    magn:    0.0010    constr:    0.0000
     atom:   53    charge:    0.3675    magn:    0.0230    constr:    0.0000
     atom:   54    charge:    0.4234    magn:    0.0007    constr:    0.0000

     total cpu time spent up to now is     3243.7 secs

     End of self-consistent calculation

 ------ SPIN UP ------------


          k = 0.0000 0.0000 0.0000 ( 34665 PWs)   bands (ev):

   -58.3072 -58.2722 -57.3892 -57.3835 -57.3505 -57.3128 -57.2614 -57.0924
   -57.0659 -57.0604 -57.0220 -56.9233 -56.8981 -56.8880 -56.8021 -56.7637
   -34.7524 -34.5758 -34.5470 -34.5138 -34.4188 -34.3619 -33.8843 -33.8719
   -33.7538 -33.6808 -33.6388 -33.5959 -33.5637 -33.5568 -33.5508 -33.5443
   -33.5326 -33.5178 -33.4925 -33.4909 -33.4765 -33.4745 -33.4721 -33.4530
   -33.3427 -33.3370 -33.3332 -33.3306 -33.3175 -33.2896 -33.2841 -33.2640
   -33.2438 -33.2384 -33.2381 -33.2288 -33.1996 -33.1782 -33.1430 -33.1419
   -33.1035 -33.0801 -33.0520 -33.0301 -33.0167 -32.9910 -32.9502 -32.8832
   -18.4725 -18.0397 -17.8154 -17.7150 -17.5545 -17.5330 -17.4890 -17.3873
   -17.3606 -17.2605 -17.0484 -17.0277 -17.0199 -16.9894 -16.9287 -16.8577
   -16.8385 -16.8012 -16.7433 -16.7112 -16.6923 -16.6598 -16.5959 -16.5919
   -16.4691 -16.4214 -16.4023 -16.3647 -16.3288 -16.1489 -16.0880 -15.6026
   -15.5417 -11.1434  -6.0510  -5.4999  -5.2858  -5.2059  -5.0970  -4.9949
    -4.9850  -4.9236  -4.8817  -4.7358  -4.6531  -4.6027  -4.5887  -4.5134
    -4.4322  -4.4169  -4.3555  -4.3194  -4.2341  -4.2217  -4.1946  -4.1451
    -4.0341  -4.0262  -3.9814  -3.9111  -3.8951  -3.8891  -3.8863  -3.8218
    -3.7798  -3.7553  -3.6843  -3.6412  -3.6115  -3.5853  -3.5437  -3.5309
    -3.5008  -3.4213  -3.4104  -3.3628  -3.2759  -3.2351  -3.1909  -3.0897
    -2.9212  -2.8998  -2.8540  -2.8027  -2.7488  -2.6967  -2.6746  -2.6630
    -2.6366  -2.5396  -2.4884  -2.4416  -2.3806  -2.3355  -2.2515  -2.2322
    -2.2279  -2.1629  -2.0706  -2.0440  -2.0030  -1.9622  -1.9325  -1.9013
    -1.8561  -1.7403  -1.6970  -1.6712  -1.6434  -1.6333  -1.5892  -1.5071
    -1.4236  -1.3699  -1.3555  -1.3404  -1.3158  -1.2708  -1.2270  -1.1731
    -1.1622  -1.1132  -1.1111  -1.0970  -1.0666  -0.9829  -0.8760  -0.8362
    -0.8111  -0.6959  -0.6896  -0.6268  -0.5549  -0.5134  -0.4857  -0.1893
     1.0236   1.1204   1.4153   1.6936   1.8018   1.9198   1.9672   2.0138
     2.0440   2.1312   2.2080   2.2285   2.2749   2.3936   2.4689   2.4827
     2.4898   2.5168   2.6196   2.6649   2.6698   2.6865   2.7086   2.8254
     2.8402   2.8847   2.8990   2.9522   2.9667   3.0197   3.0284   3.0499
     3.1037   3.1590   3.1972   3.1983   3.2459   3.2539   3.4097   3.4449
     3.4767   3.5189   3.5959   3.6246   3.6686   3.7126   3.8271   3.9545
     4.1024   4.1340   4.3249   4.4711   4.5928   4.7049   4.7826   4.8335
     5.0834   5.1311   5.2081   5.3520   5.3960   5.4016   5.4251   5.4312
     5.4467   5.5208   5.5530   5.6606   5.7169   5.7339   5.9044   5.9194
     5.9542   6.0734   6.0923   6.1346   6.2163   6.2941   6.4207   6.4880
     6.5410   6.5653   6.7812   6.8128   7.2147   7.9168   8.1519   8.1750
     8.3420   8.3885   8.6452   8.7095   8.7513   8.9659   9.1507   9.2435
     9.2965   9.4469   9.6205

          k = 0.0000 0.0280 0.0000 ( 34717 PWs)   bands (ev):

   -58.3049 -58.2745 -57.3875 -57.3819 -57.3529 -57.3139 -57.2610 -57.0922
   -57.0660 -57.0588 -57.0240 -56.9209 -56.8984 -56.8904 -56.7996 -56.7662
   -34.7270 -34.5738 -34.5489 -34.5075 -34.4253 -34.3890 -33.8589 -33.8464
   -33.7330 -33.6745 -33.6326 -33.5934 -33.5706 -33.5531 -33.5451 -33.5370
   -33.5319 -33.5197 -33.5165 -33.4993 -33.4915 -33.4749 -33.4663 -33.4466
   -33.3370 -33.3311 -33.3177 -33.3153 -33.3108 -33.3062 -33.2816 -33.2624
   -33.2485 -33.2402 -33.2387 -33.2281 -33.2044 -33.2015 -33.1492 -33.1359
   -33.1154 -33.0766 -33.0581 -33.0301 -33.0165 -32.9958 -32.9777 -32.9119
   -18.4142 -17.9800 -17.7654 -17.6847 -17.6093 -17.5098 -17.4400 -17.3753
   -17.3293 -17.2912 -17.0994 -17.0070 -16.9986 -16.9786 -16.9308 -16.8793
   -16.7991 -16.7768 -16.7641 -16.7389 -16.7106 -16.6847 -16.6212 -16.5694
   -16.4832 -16.4467 -16.4091 -16.3880 -16.3610 -16.1677 -16.1296 -15.6166
   -15.5672 -11.1444  -5.9656  -5.4157  -5.2064  -5.1353  -5.0270  -4.9591
    -4.9285  -4.9018  -4.8108  -4.7324  -4.6716  -4.6568  -4.5297  -4.5188
    -4.4197  -4.3799  -4.3661  -4.3262  -4.2608  -4.2136  -4.2007  -4.1796
    -4.1027  -4.0701  -4.0187  -4.0008  -3.9812  -3.9739  -3.9247  -3.8553
    -3.8175  -3.7569  -3.7400  -3.7188  -3.6851  -3.6078  -3.5538  -3.4388
    -3.4041  -3.3232  -3.3034  -3.2969  -3.2706  -3.1263  -3.1072  -2.9477
    -2.9064  -2.8853  -2.8021  -2.7517  -2.7471  -2.7239  -2.6889  -2.6545
    -2.6012  -2.5201  -2.4607  -2.4452  -2.4177  -2.2827  -2.2581  -2.2260
    -2.2152  -2.1560  -2.1477  -2.0311  -1.9861  -1.9608  -1.9284  -1.9156
    -1.8767  -1.7702  -1.7608  -1.7220  -1.6835  -1.6132  -1.5852  -1.5748
    -1.5044  -1.4627  -1.3941  -1.3801  -1.3774  -1.3602  -1.2874  -1.2745
    -1.2380  -1.1775  -1.1512  -1.0723  -0.9961  -0.9561  -0.9317  -0.8996
    -0.8791  -0.8424  -0.7320  -0.6019  -0.5756  -0.5619  -0.5418  -0.2304
     1.1563   1.1614   1.4165   1.8299   1.8742   1.8917   1.9243   2.0007
     2.0591   2.0771   2.2982   2.3064   2.3393   2.4563   2.4923   2.5128
     2.5206   2.5424   2.5473   2.5959   2.7129   2.7308   2.8008   2.8120
     2.8340   2.8985   2.9348   2.9632   2.9797   2.9925   3.0137   3.0645
     3.0848   3.1211   3.1745   3.2332   3.2456   3.3261   3.4344   3.4752
     3.5111   3.5418   3.5641   3.5870   3.6422   3.6655   3.7854   3.9066
     4.0566   4.2012   4.2812   4.5244   4.7034   4.7061   4.8127   4.9085
     5.1102   5.1716   5.2541   5.3011   5.3712   5.4104   5.4332   5.4775
     5.5052   5.5355   5.5480   5.6598   5.7032   5.7123   5.8215   5.8825
     5.9447   5.9900   6.0368   6.0495   6.1790   6.2499   6.3869   6.4322
     6.4496   6.5540   6.7248   6.8156   7.3203   7.4519   7.9944   8.0664
     8.3428   8.4970   8.5248   8.7069   8.7819   8.9816   9.1057   9.3031
     9.3684   9.4342   9.5179

          k = 0.0000 0.0560 0.0000 ( 34721 PWs)   bands (ev):

   -58.2985 -58.2809 -57.3841 -57.3768 -57.3592 -57.3161 -57.2603 -57.0917
   -57.0664 -57.0542 -57.0290 -56.9145 -56.8988 -56.8969 -56.7929 -56.7729
   -34.6571 -34.5686 -34.5541 -34.4904 -34.4621 -34.4429 -33.7890 -33.7770
   -33.6823 -33.6576 -33.6159 -33.5938 -33.5930 -33.5871 -33.5724 -33.5690
   -33.5410 -33.5319 -33.5147 -33.4961 -33.4729 -33.4682 -33.4647 -33.4124
   -33.3716 -33.3269 -33.3245 -33.3094 -33.2831 -33.2731 -33.2578 -33.2577
   -33.2565 -33.2480 -33.2449 -33.2268 -33.2189 -33.2108 -33.1666 -33.1348
   -33.1197 -33.0748 -33.0738 -33.0516 -33.0295 -33.0164 -33.0079 -32.9824
   -18.2531 -17.8154 -17.7930 -17.6356 -17.6020 -17.4121 -17.3930 -17.3748
   -17.3094 -17.2670 -17.2326 -17.0464 -16.9910 -16.9228 -16.9189 -16.9018
   -16.8436 -16.8183 -16.7298 -16.7064 -16.7009 -16.6751 -16.6247 -16.5624
   -16.5159 -16.5104 -16.4546 -16.4427 -16.4159 -16.2331 -16.2101 -15.6451
   -15.6209 -11.1462  -5.7262  -5.1829  -5.0470  -4.9904  -4.9547  -4.9203
    -4.8498  -4.8339  -4.8165  -4.7725  -4.7346  -4.5551  -4.5096  -4.4668
    -4.3952  -4.3941  -4.3524  -4.3214  -4.3068  -4.2889  -4.2510  -4.2146
    -4.2101  -4.1925  -4.1311  -4.0591  -4.0151  -3.9741  -3.9659  -3.9088
    -3.8673  -3.8171  -3.7288  -3.6956  -3.6085  -3.5408  -3.4124  -3.4051
    -3.3645  -3.2852  -3.2464  -3.1336  -3.0893  -3.0705  -3.0392  -3.0121
    -2.9687  -2.9584  -2.8277  -2.7981  -2.7410  -2.6967  -2.6516  -2.5557
    -2.4844  -2.4754  -2.4416  -2.3563  -2.3034  -2.2979  -2.2230  -2.1893
    -2.1542  -2.1404  -2.1196  -2.0876  -2.0550  -2.0112  -1.9964  -1.9705
    -1.9347  -1.8926  -1.8827  -1.8620  -1.8144  -1.7535  -1.6585  -1.6074
    -1.5958  -1.5791  -1.5135  -1.4749  -1.4519  -1.4468  -1.4326  -1.3779
    -1.2934  -1.2727  -1.2161  -1.1979  -1.0910  -1.0065  -0.9799  -0.9454
    -0.8609  -0.8375  -0.7386  -0.7170  -0.6218  -0.5834  -0.5656  -0.3337
     1.2852   1.4269   1.4996   1.7208   1.7975   1.8905   1.9611   2.0589
     2.1394   2.2751   2.2802   2.3320   2.4161   2.4854   2.5046   2.5306
     2.5716   2.6109   2.6613   2.7083   2.7518   2.7691   2.8003   2.8487
     2.8641   2.8829   2.8927   2.9626   3.0090   3.0271   3.0360   3.0627
     3.1239   3.1571   3.1806   3.2589   3.3072   3.3386   3.3854   3.4332
     3.4710   3.4867   3.5624   3.6104   3.6735   3.6855   3.7252   3.8010
     3.9234   4.1585   4.3236   4.6515   4.7418   4.8421   4.9338   5.0719
     5.0777   5.1749   5.2815   5.3328   5.4011   5.4365   5.4698   5.4987
     5.4991   5.5612   5.5809   5.6471   5.6521   5.7529   5.7711   5.8121
     5.8485   5.8667   5.8877   5.9302   6.1166   6.1575   6.2965   6.3698
     6.4234   6.4419   6.7195   6.7475   6.9978   7.2130   7.6132   7.7459
     8.1993   8.3757   8.6981   8.8210   8.8359   8.8848   9.1792   9.3343
     9.4073   9.5981   9.7080

          k = 0.0000-0.0840 0.0000 ( 34678 PWs)   bands (ev):

   -58.2904 -58.2890 -57.3825 -57.3704 -57.3661 -57.3173 -57.2599 -57.0915
   -57.0667 -57.0509 -57.0324 -56.9060 -56.9054 -56.8991 -56.7862 -56.7797
   -34.5622 -34.5612 -34.5603 -34.5597 -34.4673 -34.4661 -33.7052 -33.6921
   -33.6884 -33.6496 -33.6483 -33.6425 -33.6109 -33.5948 -33.5907 -33.5800
   -33.5395 -33.5338 -33.5142 -33.5054 -33.4699 -33.4634 -33.4016 -33.3865
   -33.3818 -33.3658 -33.3283 -33.3237 -33.3062 -33.2752 -33.2623 -33.2533
   -33.2515 -33.2510 -33.2267 -33.2240 -33.1758 -33.1512 -33.1504 -33.1425
   -33.1280 -33.1256 -33.0976 -33.0970 -33.0298 -33.0216 -33.0187 -33.0128
   -18.0280 -18.0272 -17.5955 -17.5863 -17.5125 -17.4887 -17.4885 -17.3982
   -17.2612 -17.2206 -17.1332 -17.1076 -17.0755 -17.0405 -16.8971 -16.8478
   -16.8108 -16.8105 -16.8091 -16.6777 -16.6158 -16.6124 -16.6062 -16.5822
   -16.5501 -16.5285 -16.5102 -16.4779 -16.4688 -16.2756 -16.2514 -15.6544
   -15.6544 -11.1471  -5.3867  -5.3864  -4.9166  -4.8904  -4.8894  -4.8768
    -4.8546  -4.7730  -4.7614  -4.7223  -4.6616  -4.6071  -4.5694  -4.5633
    -4.4947  -4.4721  -4.4489  -4.3946  -4.3788  -4.2687  -4.2564  -4.2487
    -4.1614  -4.1190  -4.0694  -4.0333  -3.9946  -3.9026  -3.8861  -3.8515
    -3.7841  -3.7259  -3.6813  -3.6743  -3.6521  -3.6339  -3.6226  -3.4099
    -3.3632  -3.3475  -3.1504  -3.0799  -3.0740  -3.0290  -2.9300  -2.9293
    -2.9199  -2.8525  -2.8295  -2.7938  -2.7757  -2.6960  -2.6720  -2.6464
    -2.5234  -2.5039  -2.4228  -2.4063  -2.3985  -2.3764  -2.3137  -2.2417
    -2.2301  -2.1678  -2.1219  -2.0591  -2.0080  -1.9824  -1.9783  -1.9726
    -1.9683  -1.9436  -1.8421  -1.8012  -1.7809  -1.7309  -1.6947  -1.6594
    -1.6436  -1.6125  -1.5933  -1.5190  -1.5101  -1.4678  -1.4483  -1.4246
    -1.3837  -1.3334  -1.2815  -1.1805  -1.1401  -1.1189  -1.0934  -1.0686
    -0.8408  -0.8169  -0.6197  -0.6107  -0.6055  -0.5976  -0.5486  -0.5001
     1.4814   1.4841   1.6337   1.6343   1.7133   1.7142   2.0843   2.0851
     2.1482   2.2032   2.3740   2.4086   2.4451   2.4912   2.5390   2.5467
     2.6536   2.6654   2.6749   2.6885   2.7406   2.7510   2.8087   2.8114
     2.9113   2.9465   2.9900   3.0177   3.0227   3.0257   3.0321   3.0355
     3.0429   3.2240   3.2335   3.2642   3.2966   3.3387   3.3649   3.3950
     3.4322   3.4470   3.5021   3.6242   3.6952   3.7342   3.7486   3.7908
     3.8448   4.0357   4.3761   4.7558   4.8314   4.8650   4.8657   5.0512
     5.1434   5.2229   5.3137   5.3295   5.3641   5.4071   5.4675   5.5424
     5.5638   5.5958   5.5984   5.6859   5.6987   5.7179   5.7282   5.7418
     5.7676   5.8082   5.8414   5.9421   6.0247   6.1570   6.2836   6.3849
     6.4595   6.4760   6.5887   6.6079   6.9335   6.9840   7.4520   7.6137
     8.0325   8.2329   8.7169   8.9127   9.1313   9.2299   9.3460   9.3475
     9.4496   9.6131   9.7001

          k = 0.0253 0.0000 0.0000 ( 34707 PWs)   bands (ev):

   -58.3072 -58.2722 -57.3889 -57.3839 -57.3505 -57.3128 -57.2614 -57.0924
   -57.0657 -57.0607 -57.0220 -56.9233 -56.8981 -56.8880 -56.8021 -56.7637
   -34.7527 -34.5758 -34.5470 -34.5130 -34.4188 -34.3620 -33.8845 -33.8738
   -33.7540 -33.6729 -33.6387 -33.5960 -33.5671 -33.5571 -33.5531 -33.5445
   -33.5327 -33.5211 -33.4921 -33.4910 -33.4755 -33.4727 -33.4705 -33.4532
   -33.3426 -33.3380 -33.3311 -33.3297 -33.3144 -33.2896 -33.2841 -33.2652
   -33.2491 -33.2381 -33.2379 -33.2286 -33.1996 -33.1784 -33.1419 -33.1414
   -33.1030 -33.0801 -33.0520 -33.0342 -33.0157 -32.9910 -32.9504 -32.8834
   -18.4279 -18.0018 -17.7935 -17.7876 -17.5642 -17.4600 -17.4521 -17.3866
   -17.3650 -17.3243 -17.1096 -17.0413 -17.0166 -16.9834 -16.9313 -16.8951
   -16.8607 -16.7976 -16.7675 -16.7454 -16.6416 -16.5993 -16.5899 -16.5822
   -16.4673 -16.4465 -16.4029 -16.3866 -16.3264 -16.1473 -16.0881 -15.6015
   -15.5416 -11.1433  -5.9262  -5.3934  -5.2176  -5.2024  -5.0770  -5.0274
    -4.9733  -4.9267  -4.8831  -4.7378  -4.7011  -4.5866  -4.5828  -4.5153
    -4.4875  -4.4119  -4.3305  -4.2651  -4.2609  -4.2004  -4.1913  -4.1073
    -4.0326  -3.9997  -3.9926  -3.9180  -3.9027  -3.8609  -3.8504  -3.7972
    -3.7334  -3.6887  -3.6410  -3.5991  -3.5586  -3.5560  -3.5257  -3.4968
    -3.4406  -3.4172  -3.3216  -3.3171  -3.2765  -3.2602  -3.2398  -3.1541
    -3.0146  -2.9038  -2.8409  -2.8205  -2.7711  -2.7458  -2.7021  -2.6727
    -2.6139  -2.5607  -2.5426  -2.5006  -2.4376  -2.3843  -2.3354  -2.2689
    -2.2507  -2.2012  -2.0937  -2.0483  -2.0075  -1.9578  -1.8857  -1.8534
    -1.8299  -1.8011  -1.7154  -1.6275  -1.5816  -1.5735  -1.5480  -1.5118
    -1.4802  -1.4356  -1.4315  -1.3956  -1.3368  -1.3046  -1.2928  -1.2243
    -1.1887  -1.1583  -1.1082  -1.0855  -1.0445  -1.0257  -0.9589  -0.9142
    -0.8368  -0.8299  -0.6731  -0.6462  -0.6090  -0.5914  -0.5600  -0.2488
     1.1062   1.1208   1.4144   1.7812   1.8174   1.9025   1.9289   2.0480
     2.0839   2.1158   2.2022   2.2431   2.3363   2.3820   2.4401   2.5040
     2.5263   2.5950   2.6271   2.6463   2.6766   2.7021   2.8106   2.8248
     2.8451   2.8483   2.8896   2.8988   2.9438   3.0255   3.0738   3.1323
     3.1891   3.2010   3.2142   3.2161   3.2405   3.3079   3.4055   3.4417
     3.4872   3.5426   3.5913   3.6332   3.6980   3.7626   3.7840   3.9077
     4.0509   4.1901   4.2630   4.4241   4.5799   4.6225   4.8080   4.8266
     4.9585   4.9827   5.0857   5.1696   5.3022   5.3152   5.4267   5.5297
     5.5569   5.7080   5.7407   5.9037   5.9120   5.9370   5.9619   5.9856
     6.0223   6.0318   6.0684   6.1682   6.2272   6.2595   6.4389   6.4946
     6.5416   6.6178   6.7391   6.8095   7.2605   7.6734   7.7591   8.0209
     8.2251   8.3002   8.3764   8.6848   8.7575   8.9655   9.1057   9.2166
     9.4004   9.4987   9.7696

          k = 0.0253 0.0280 0.0000 ( 34687 PWs)   bands (ev):

   -58.3049 -58.2745 -57.3872 -57.3822 -57.3529 -57.3139 -57.2610 -57.0921
   -57.0658 -57.0589 -57.0240 -56.9209 -56.8983 -56.8904 -56.7996 -56.7662
   -34.7273 -34.5738 -34.5489 -34.5068 -34.4252 -34.3890 -33.8591 -33.8484
   -33.7331 -33.6668 -33.6326 -33.5935 -33.5677 -33.5535 -33.5502 -33.5404
   -33.5324 -33.5206 -33.5190 -33.4989 -33.4915 -33.4688 -33.4667 -33.4473
   -33.3372 -33.3271 -33.3176 -33.3167 -33.3073 -33.3060 -33.2816 -33.2633
   -33.2528 -33.2397 -33.2387 -33.2297 -33.2041 -33.2014 -33.1473 -33.1359
   -33.1157 -33.0767 -33.0581 -33.0322 -33.0167 -32.9958 -32.9776 -32.9119
   -18.3706 -17.9435 -17.7760 -17.7400 -17.5235 -17.5212 -17.4135 -17.3685
   -17.3516 -17.3199 -17.1140 -17.0709 -17.0006 -16.9695 -16.9203 -16.8778
   -16.8309 -16.8055 -16.7962 -16.7338 -16.6709 -16.6671 -16.6143 -16.5503
   -16.4887 -16.4663 -16.4111 -16.4063 -16.3580 -16.1659 -16.1302 -15.6157
   -15.5672 -11.1442  -5.8412  -5.3100  -5.1445  -5.1286  -4.9938  -4.9575
    -4.9292  -4.9079  -4.8222  -4.6984  -4.6775  -4.6362  -4.5341  -4.4985
    -4.4399  -4.4021  -4.3137  -4.2945  -4.2445  -4.2044  -4.1825  -4.1559
    -4.1274  -4.0956  -4.0326  -3.9960  -3.9539  -3.9412  -3.8986  -3.8207
    -3.7903  -3.7250  -3.7176  -3.6875  -3.6281  -3.5969  -3.5227  -3.3998
    -3.3440  -3.3226  -3.3110  -3.2675  -3.2355  -3.1916  -3.1179  -3.0968
    -2.9304  -2.8939  -2.8404  -2.7797  -2.7510  -2.7104  -2.6787  -2.6398
    -2.6106  -2.5237  -2.5010  -2.4715  -2.4515  -2.3839  -2.3308  -2.3058
    -2.2292  -2.1895  -2.1302  -2.0660  -2.0163  -1.9549  -1.9377  -1.9102
[...]
    -1.7306  -1.5085  -1.4654  -1.4549  -1.4368  -1.3993  -1.3201  -1.1561
    -1.1453  -1.0889  -1.0713  -1.0549  -0.9726  -0.9121  -0.8733  -0.7885
    -0.7350  -0.7281  -0.6992  -0.6717  -0.5969  -0.5749  -0.5613   0.2917
     1.6003   1.6038   1.6164   1.6217   1.9642   1.9650   2.0939   2.0949
     2.2776   2.2984   2.3116   2.3933   2.4165   2.4864   2.5731   2.6324
     2.6543   2.6989   2.7824   2.8158   2.8726   2.9245   2.9465   2.9745
     2.9891   2.9977   3.0387   3.0966   3.1110   3.2081   3.2338   3.2427
     3.2584   3.2824   3.3397   3.3859   3.3995   3.4047   3.4613   3.4723
     3.4825   3.5103   3.5248   3.5784   3.6358   3.6533   3.7756   3.8769
     3.9128   3.9229   4.1391   4.1396   4.5899   4.6186   4.6410   4.7265
     4.8819   4.8977   4.9305   5.0805   5.1596   5.1646   5.1838   5.4444
     5.6725   5.6814   5.6926   5.9252   5.9305   5.9642   6.0150   6.0182
     6.0930   6.1047   6.1741   6.2654   6.2695   6.2777   6.3819   6.4591
     6.4988   6.6053   7.0694   7.2343   7.3419   7.3939   7.5546   7.5893
     7.7172   7.7715   7.9235   8.1110   8.2968   8.3412   8.4521   8.8695
     8.9958   9.0701   9.2165

          k =-0.0253 0.0280 0.0000 ( 34687 PWs)   bands (ev):

   -58.3051 -58.2747 -57.3872 -57.3822 -57.3528 -57.3140 -57.2619 -57.0962
   -57.0671 -57.0602 -57.0252 -56.9230 -56.9217 -56.8912 -56.8032 -56.7698
   -34.7275 -34.5740 -34.5491 -34.5069 -34.4254 -34.3892 -33.8590 -33.8485
   -33.7339 -33.6669 -33.6326 -33.5937 -33.5677 -33.5536 -33.5502 -33.5411
   -33.5332 -33.5206 -33.5189 -33.4989 -33.4925 -33.4694 -33.4683 -33.4496
   -33.3380 -33.3287 -33.3210 -33.3184 -33.3120 -33.3073 -33.2831 -33.2640
   -33.2535 -33.2404 -33.2402 -33.2315 -33.2149 -33.2047 -33.1676 -33.1366
   -33.1342 -33.0800 -33.0589 -33.0398 -33.0208 -32.9991 -32.9784 -32.9146
   -18.3703 -17.9411 -17.7757 -17.7336 -17.5228 -17.5164 -17.3750 -17.3683
   -17.3449 -17.3152 -17.1115 -17.0686 -16.9839 -16.9388 -16.8728 -16.8300
   -16.7919 -16.7498 -16.7325 -16.6691 -16.6625 -16.5823 -16.5435 -16.4851
   -16.4610 -16.4051 -16.3656 -16.3477 -16.1554 -16.1207 -15.8829 -15.6120
   -15.5633 -10.7458  -5.8411  -5.3097  -5.1436  -5.1254  -4.9936  -4.9526
    -4.9137  -4.8245  -4.6984  -4.6775  -4.6364  -4.5362  -4.4982  -4.4417
    -4.4082  -4.3135  -4.2900  -4.2500  -4.1978  -4.1814  -4.1413  -4.1269
    -4.0936  -4.0473  -4.0106  -3.9914  -3.9534  -3.9132  -3.8798  -3.7990
    -3.7830  -3.7241  -3.6747  -3.6255  -3.5912  -3.5499  -3.4951  -3.3897
    -3.3427  -3.3203  -3.2776  -3.2613  -3.2231  -3.1810  -3.1124  -3.0962
    -2.9198  -2.8814  -2.8221  -2.7775  -2.7219  -2.6836  -2.6746  -2.6175
    -2.5862  -2.5089  -2.4997  -2.4421  -2.4077  -2.3585  -2.2881  -2.2656
    -2.2134  -2.1923  -2.1045  -2.0427  -1.9598  -1.9406  -1.9165  -1.8501
    -1.8395  -1.7914  -1.7454  -1.6854  -1.6361  -1.5954  -1.5626  -1.5109
    -1.4767  -1.4359  -1.4069  -1.3808  -1.3612  -1.3459  -1.3148  -1.2910
    -1.2054  -1.1246  -1.0646  -1.0109  -0.9874  -0.9541  -0.9297  -0.8851
    -0.8433  -0.8203  -0.6319  -0.6102  -0.5858  -0.5226  -0.2656   0.3152
     1.1522   1.2458   1.4298   1.8191   1.8585   1.9257   1.9621   2.0296
     2.0406   2.1898   2.3006   2.3463   2.3878   2.4309   2.4543   2.5043
     2.5244   2.5487   2.5895   2.6500   2.6981   2.7221   2.7781   2.8321
     2.8770   2.9141   2.9306   2.9739   2.9910   3.0149   3.0410   3.0937
     3.1708   3.1914   3.2338   3.2592   3.2947   3.3369   3.4301   3.4651
     3.4952   3.5588   3.6121   3.6429   3.6639   3.7444   3.8214   3.8658
     4.0129   4.2093   4.2854   4.4362   4.6250   4.7232   4.8440   4.8612
     5.0019   5.0258   5.1128   5.1983   5.2414   5.3562   5.4608   5.5487
     5.6618   5.6951   5.7154   5.8033   5.8501   5.8833   5.9095   5.9317
     5.9669   5.9899   6.0652   6.1257   6.1754   6.2825   6.3984   6.4488
     6.4623   6.5822   6.7535   6.8091   7.3784   7.4843   7.7960   7.8933
     8.0920   8.2332   8.4890   8.5348   8.7832   8.8944   9.0661   9.3087
     9.3762   9.5168   9.6141

          k =-0.0253 0.0560 0.0000 ( 34699 PWs)   bands (ev):

   -58.2987 -58.2811 -57.3840 -57.3769 -57.3592 -57.3162 -57.2611 -57.0957
   -57.0676 -57.0555 -57.0302 -56.9235 -56.9153 -56.8976 -56.7965 -56.7766
   -34.6576 -34.5688 -34.5543 -34.4899 -34.4624 -34.4428 -33.7892 -33.7793
   -33.6832 -33.6516 -33.6158 -33.5922 -33.5882 -33.5872 -33.5758 -33.5691
   -33.5427 -33.5328 -33.5194 -33.4974 -33.4845 -33.4670 -33.4565 -33.4155
   -33.3729 -33.3259 -33.3224 -33.3135 -33.2850 -33.2755 -33.2591 -33.2590
   -33.2580 -33.2487 -33.2453 -33.2321 -33.2218 -33.2165 -33.1830 -33.1635
   -33.1204 -33.0770 -33.0755 -33.0523 -33.0368 -33.0232 -33.0112 -32.9852
   -18.2126 -17.8026 -17.7809 -17.6121 -17.6009 -17.4567 -17.3942 -17.3704
   -17.2493 -17.2420 -17.2044 -17.0586 -16.9489 -16.9200 -16.8818 -16.8409
   -16.7982 -16.7444 -16.7336 -16.7183 -16.6840 -16.5982 -16.5486 -16.5319
   -16.5007 -16.4419 -16.4117 -16.4071 -16.2172 -16.2018 -15.8817 -15.6407
   -15.6171 -10.7477  -5.6059  -5.0824  -5.0248  -4.9567  -4.9244  -4.8179
    -4.7959  -4.7586  -4.6884  -4.6737  -4.5266  -4.5098  -4.4468  -4.3961
    -4.3783  -4.3699  -4.3213  -4.2776  -4.2508  -4.2408  -4.2056  -4.1739
    -4.1316  -4.1218  -4.0551  -4.0215  -3.9913  -3.9567  -3.9288  -3.8903
    -3.8290  -3.7930  -3.6718  -3.6062  -3.5474  -3.5277  -3.4540  -3.3850
    -3.3622  -3.2874  -3.1881  -3.1600  -3.1162  -3.1095  -3.0585  -3.0246
    -2.9819  -2.9272  -2.8430  -2.7933  -2.7628  -2.7045  -2.6092  -2.5892
    -2.5243  -2.5106  -2.4558  -2.3913  -2.3760  -2.3184  -2.3007  -2.2593
    -2.1882  -2.1360  -2.1216  -2.0892  -2.0492  -2.0071  -1.9858  -1.9490
    -1.9314  -1.9063  -1.8936  -1.8463  -1.7682  -1.7030  -1.6902  -1.5943
    -1.5730  -1.5448  -1.5188  -1.4852  -1.4428  -1.4138  -1.3846  -1.3257
    -1.2901  -1.2229  -1.1554  -1.0344  -1.0052  -0.9706  -0.9380  -0.8579
    -0.7639  -0.7361  -0.7054  -0.6406  -0.6098  -0.5561  -0.3629   0.2962
     1.2865   1.4685   1.5638   1.7577   1.7731   1.9115   1.9782   2.0577
     2.2649   2.2754   2.3421   2.3783   2.4148   2.4870   2.5222   2.5477
     2.5724   2.5959   2.6534   2.7059   2.7207   2.7643   2.8069   2.8567
     2.8822   2.9172   2.9615   3.0068   3.0325   3.0460   3.0559   3.1094
     3.1589   3.1987   3.2179   3.2886   3.3175   3.3459   3.3777   3.4576
     3.5094   3.5344   3.6124   3.6339   3.6682   3.7271   3.7460   3.7997
     3.8956   4.0996   4.3926   4.5006   4.7157   4.8587   4.9098   4.9608
     4.9952   5.0896   5.1868   5.2076   5.3355   5.3874   5.4337   5.5282
     5.5642   5.5993   5.6518   5.7093   5.7387   5.8036   5.8199   5.8604
     5.9271   5.9432   5.9973   6.0899   6.1327   6.2119   6.3287   6.4317
     6.4586   6.4754   6.7190   6.7689   7.0752   7.2967   7.6726   7.8307
     8.1021   8.2371   8.3179   8.4908   8.7676   8.8981   9.0050   9.1752
     9.3692   9.5525   9.6510

          k =-0.0506 0.0280 0.0000 ( 34685 PWs)   bands (ev):

   -58.3050 -58.2747 -57.3863 -57.3831 -57.3528 -57.3140 -57.2619 -57.0962
   -57.0667 -57.0605 -57.0253 -56.9229 -56.9217 -56.8912 -56.8032 -56.7698
   -34.7282 -34.5740 -34.5491 -34.5054 -34.4254 -34.3893 -33.8595 -33.8525
   -33.7342 -33.6473 -33.6324 -33.5938 -33.5728 -33.5554 -33.5541 -33.5465
   -33.5334 -33.5280 -33.5178 -33.4988 -33.4926 -33.4695 -33.4571 -33.4507
   -33.3382 -33.3218 -33.3204 -33.3182 -33.3079 -33.3069 -33.2833 -33.2660
   -33.2634 -33.2403 -33.2394 -33.2343 -33.2151 -33.2042 -33.1636 -33.1366
   -33.1345 -33.0801 -33.0589 -33.0468 -33.0192 -32.9991 -32.9784 -32.9147
   -18.2620 -17.8639 -17.8515 -17.7009 -17.5875 -17.4554 -17.4378 -17.3443
   -17.3169 -17.2503 -17.1802 -17.0861 -16.9965 -16.9514 -16.9225 -16.8950
   -16.8099 -16.7673 -16.7561 -16.6962 -16.6330 -16.5494 -16.5224 -16.4892
   -16.4610 -16.4060 -16.3894 -16.3527 -16.1519 -16.1211 -15.8837 -15.6102
   -15.5634 -10.7455  -5.5398  -5.1872  -5.1539  -5.1208  -4.9492  -4.8695
    -4.7676  -4.7096  -4.6825  -4.6522  -4.6012  -4.5870  -4.5328  -4.4073
    -4.3630  -4.3226  -4.2411  -4.2154  -4.1788  -4.1643  -4.1481  -4.0561
    -4.0324  -4.0120  -3.9743  -3.9285  -3.8851  -3.8386  -3.8123  -3.7771
    -3.7199  -3.6692  -3.6257  -3.5864  -3.5598  -3.5247  -3.4856  -3.4557
    -3.3788  -3.3660  -3.2870  -3.2649  -3.2038  -3.1448  -3.1178  -3.0581
    -3.0095  -2.9803  -2.9017  -2.8352  -2.7567  -2.6986  -2.6892  -2.6650
    -2.6169  -2.5937  -2.5796  -2.5255  -2.5164  -2.3928  -2.3409  -2.3325
    -2.2697  -2.2010  -2.1857  -2.1592  -2.0809  -2.0107  -2.0044  -1.9431
    -1.9241  -1.8942  -1.8102  -1.7223  -1.7090  -1.6848  -1.6152  -1.5863
    -1.5240  -1.4766  -1.4537  -1.3934  -1.3791  -1.3271  -1.3114  -1.2606
    -1.2446  -1.1210  -1.0580  -1.0350  -1.0109  -0.9566  -0.9251  -0.8768
    -0.8283  -0.7968  -0.7210  -0.6818  -0.6605  -0.5364  -0.3916   0.2999
     1.1391   1.3391   1.4642   1.5650   1.9329   1.9430   1.9655   2.0573
     2.1234   2.1982   2.2531   2.3290   2.4052   2.4390   2.5276   2.5452
     2.5916   2.6501   2.6867   2.7003   2.7541   2.8276   2.8506   2.8809
     2.9396   2.9456   2.9791   2.9838   2.9904   3.1012   3.1083   3.1369
     3.1846   3.2137   3.2892   3.3094   3.3547   3.3817   3.4058   3.4542
     3.4686   3.5470   3.6013   3.6664   3.7418   3.7784   3.7982   3.8998
     3.9576   4.0609   4.1084   4.4067   4.5094   4.6553   4.7469   4.8084
     4.8409   4.9130   4.9654   5.2878   5.3285   5.4108   5.5261   5.5585
     5.6397   5.7659   5.7858   5.8528   5.8982   5.9123   5.9661   6.0554
     6.0930   6.1649   6.2493   6.3337   6.3860   6.4009   6.4424   6.4892
     6.5405   6.5511   6.7113   6.9181   7.0757   7.2207   7.5499   7.6120
     7.7271   8.2126   8.4141   8.4897   8.8665   8.9332   9.0657   9.2136
     9.4221   9.6024   9.6788

          k =-0.0506 0.0560 0.0000 ( 34596 PWs)   bands (ev):

   -58.2987 -58.2811 -57.3836 -57.3772 -57.3592 -57.3163 -57.2611 -57.0957
   -57.0674 -57.0557 -57.0302 -56.9235 -56.9153 -56.8976 -56.7965 -56.7766
   -34.6582 -34.5687 -34.5543 -34.4886 -34.4626 -34.4424 -33.7895 -33.7838
   -33.6834 -33.6358 -33.6157 -33.5914 -33.5898 -33.5870 -33.5702 -33.5691
   -33.5460 -33.5330 -33.5315 -33.4976 -33.4937 -33.4671 -33.4448 -33.4172
   -33.3732 -33.3257 -33.3112 -33.3087 -33.2875 -33.2776 -33.2603 -33.2588
   -33.2576 -33.2485 -33.2449 -33.2421 -33.2225 -33.2167 -33.1823 -33.1592
   -33.1204 -33.0771 -33.0755 -33.0522 -33.0410 -33.0238 -33.0111 -32.9851
   -18.1094 -17.8204 -17.7029 -17.6150 -17.5988 -17.5589 -17.3819 -17.3705
   -17.2203 -17.2078 -17.1187 -17.0965 -16.9791 -16.9136 -16.8690 -16.8438
   -16.8251 -16.8088 -16.7630 -16.7372 -16.7223 -16.6288 -16.5982 -16.5079
   -16.4976 -16.4394 -16.4222 -16.4122 -16.2166 -16.1982 -15.8816 -15.6395
   -15.6176 -10.7475  -5.3033  -4.9933  -4.9427  -4.9347  -4.7847  -4.7770
    -4.7181  -4.6411  -4.5280  -4.5079  -4.5022  -4.4194  -4.4048  -4.3822
    -4.3626  -4.3289  -4.3106  -4.2494  -4.2017  -4.1776  -4.1679  -4.1138
    -4.1032  -4.0596  -4.0450  -3.9943  -3.9807  -3.9051  -3.8867  -3.8275
    -3.7817  -3.7020  -3.6524  -3.6106  -3.5973  -3.5378  -3.4997  -3.4326
    -3.3943  -3.3196  -3.2607  -3.2324  -3.1350  -3.1246  -3.0800  -3.0514
    -2.9964  -2.9791  -2.9592  -2.9013  -2.8011  -2.7646  -2.7501  -2.7070
    -2.6307  -2.5883  -2.5464  -2.5019  -2.4797  -2.4155  -2.3906  -2.3707
    -2.3522  -2.2913  -2.1958  -2.1731  -2.1481  -2.1299  -2.1041  -2.0493
    -2.0143  -1.9725  -1.9452  -1.8721  -1.8494  -1.7831  -1.7322  -1.6581
    -1.5674  -1.5501  -1.5396  -1.4976  -1.4438  -1.3863  -1.3543  -1.3073
    -1.2452  -1.1767  -1.0783  -1.0229  -0.9895  -0.9045  -0.8537  -0.8464
    -0.7947  -0.7078  -0.6936  -0.6723  -0.6570  -0.5543  -0.4768   0.2988
     1.3071   1.4968   1.6455   1.6672   1.8519   2.0030   2.0315   2.0667
     2.2426   2.2553   2.3597   2.3758   2.4320   2.4608   2.5474   2.5845
     2.6497   2.6950   2.7289   2.7435   2.8107   2.8418   2.8703   2.9026
     2.9333   2.9503   3.0059   3.0410   3.0716   3.1127   3.1443   3.1899
     3.1950   3.2500   3.2840   3.3239   3.3331   3.3762   3.4156   3.4663
     3.4808   3.5484   3.5776   3.6404   3.6670   3.7442   3.8039   3.8397
     3.8825   3.9596   4.1518   4.5033   4.5957   4.6154   4.7538   4.8213
     4.8878   4.9643   5.0095   5.1858   5.3011   5.3753   5.4106   5.4427
     5.5940   5.6157   5.6672   5.7162   5.8787   5.8960   5.9866   6.0054
     6.0676   6.1079   6.1695   6.2065   6.3134   6.3361   6.4122   6.4228
     6.5402   6.6143   6.7630   6.8073   7.1856   7.3586   7.5099   7.6207
     7.9384   8.0147   8.1051   8.3728   8.6080   8.7174   8.8031   9.0408
     9.1827   9.3290   9.4322

     the Fermi energy is    -0.2921 ev

!    total energy              =   -3021.14946806 Ry
     Harris-Foulkes estimate   =   -3021.14946817 Ry
     estimated scf accuracy    <       0.00000040 Ry

     The total energy is the sum of the following terms:

     one-electron contribution =  -40438.29423434 Ry
     hartree contribution      =   20290.48958477 Ry
     xc contribution           =    -553.19591118 Ry
     ewald contribution        =   17679.87090725 Ry
     smearing contrib. (-TS)   =      -0.01981456 Ry

     total magnetization       =     1.06 Bohr mag/cell
     absolute magnetization    =     1.23 Bohr mag/cell

     convergence has been achieved in  10 iterations

     Forces acting on atoms (Ry/au):


     negative rho (up, down):  1.189E-02 1.195E-02
     atom    1 type  1   force =     0.00018421   -0.00089976   -0.10468855
     atom    2 type  2   force =     0.00014394    0.00068177    0.04003353
     atom    3 type  1   force =     0.00074837   -0.00175324   -0.02054057
     atom    4 type  2   force =    -0.00326765    0.00312218   -0.00323769
     atom    5 type  1   force =     0.00034587    0.00007028    0.00033967
     atom    6 type  2   force =    -0.00013442   -0.00010330    0.00023674
     atom    7 type  1   force =    -0.00019731    0.00008683   -0.00054446
     atom    8 type  2   force =    -0.00013192   -0.00010181   -0.00017639
     atom    9 type  1   force =    -0.00003360    0.00056416   -0.10482512
     atom   10 type  2   force =     0.00035031   -0.00021594    0.03600232
     atom   11 type  1   force =     0.00067762    0.00183707    0.00261523
     atom   12 type  2   force =    -0.00519625   -0.00267185   -0.00520071
     atom   13 type  1   force =     0.00041437    0.00008192   -0.00023259
     atom   14 type  2   force =     0.00012698   -0.00007881   -0.00005635
     atom   15 type  1   force =    -0.00002538   -0.00016651    0.00002186
     atom   16 type  2   force =    -0.00019685    0.00000721   -0.00037302
     atom   17 type  2   force =     0.00000727   -0.00001652    0.06659199
     atom   18 type  1   force =     0.00005771    0.00003047    0.13147206
     atom   19 type  2   force =     0.00017742   -0.00052954   -0.08521751
     atom   20 type  2   force =    -0.05792667    0.00014203   -0.03607293
     atom   21 type  2   force =     0.05781776   -0.00005062   -0.03603754
     atom   22 type  1   force =    -0.00042875    0.00074937    0.08017411
     atom   23 type  2   force =     0.00019763   -0.00005000    0.00003671
     atom   24 type  2   force =     0.00064221    0.00185609   -0.03467437
     atom   25 type  2   force =     0.00413994    0.00332328   -0.00510997
     atom   26 type  1   force =     0.00040700   -0.00005121    0.00011331
     atom   27 type  2   force =    -0.00009651   -0.00012964    0.00001945
     atom   28 type  2   force =     0.00005402   -0.00019748   -0.00001651
     atom   29 type  2   force =    -0.00000286   -0.00007796    0.00007523
     atom   30 type  1   force =    -0.00023572   -0.00015999    0.00002293
     atom   31 type  2   force =     0.00011710   -0.00013367   -0.00006619
     atom   32 type  2   force =    -0.00012589    0.00000494    0.00007444
     atom   33 type  2   force =    -0.00016582    0.00004711    0.06632429
     atom   34 type  1   force =     0.00007753   -0.00003587    0.13125388
     atom   35 type  2   force =     0.00018948   -0.00013246   -0.08482402
     atom   36 type  2   force =    -0.05782079    0.00006124   -0.03568691
     atom   37 type  2   force =     0.05799111   -0.00017754   -0.03608753
     atom   38 type  1   force =    -0.00037435   -0.00020415    0.07984209
     atom   39 type  2   force =     0.00007288   -0.00026354   -0.00008912
     atom   40 type  2   force =     0.00048958    0.00123832   -0.03527727
     atom   41 type  2   force =     0.00588676   -0.00243613   -0.00723099
     atom   42 type  1   force =     0.00024105   -0.00007074    0.00004554
     atom   43 type  2   force =    -0.00019481   -0.00009535    0.00003232
     atom   44 type  2   force =     0.00000874   -0.00016303   -0.00002834
     atom   45 type  2   force =     0.00000161   -0.00017025    0.00005402
     atom   46 type  1   force =    -0.00026024   -0.00007113    0.00016465
     atom   47 type  2   force =     0.00009417   -0.00004541   -0.00009681
     atom   48 type  2   force =    -0.00017037   -0.00006749    0.00026508
     atom   49 type  2   force =    -0.00056672   -0.00069444   -0.00028605
     atom   50 type  3   force =     0.00816893    0.01523107   -0.01135476
     atom   51 type  4   force =    -0.01102456   -0.01685637    0.01179505
     atom   52 type  4   force =     0.00027066    0.00048468   -0.00035244
     atom   53 type  4   force =     0.00027806    0.00075677   -0.00030608
     atom   54 type  4   force =    -0.00180283   -0.00150504    0.00108430

     Total force =     0.343726     Total SCF correction =     0.001301
 !ASE

     Writing output data file calc.save
 
     init_run     :     67.27s CPU     78.77s WALL (       1 calls)
     electrons    :   2811.65s CPU   3164.68s WALL (       1 calls)
     forces       :     48.84s CPU     50.98s WALL (       1 calls)

     Called by init_run:
     wfcinit      :     58.90s CPU     69.76s WALL (       1 calls)
     potinit      :      1.46s CPU      1.70s WALL (       1 calls)

     Called by electrons:
     c_bands      :   2469.36s CPU   2762.88s WALL (      11 calls)
     sum_band     :    297.80s CPU    351.87s WALL (      11 calls)
     v_of_rho     :     11.31s CPU     13.67s WALL (      11 calls)
     newd         :     36.76s CPU     40.01s WALL (      11 calls)
     mix_rho      :      0.43s CPU      0.59s WALL (      11 calls)
     vdW_energy   :      2.52s CPU      2.84s WALL (      12 calls)
     vdW_ffts     :      3.01s CPU      3.80s WALL (      24 calls)
     vdW_v        :      1.21s CPU      1.35s WALL (      12 calls)

     Called by c_bands:
     init_us_2    :      6.75s CPU      7.36s WALL (     960 calls)
     cegterg      :   2428.73s CPU   2719.91s WALL (     440 calls)

     Called by *egterg:
     h_psi        :    942.48s CPU   1152.45s WALL (    2104 calls)
     s_psi        :    163.54s CPU    169.10s WALL (    2104 calls)
     g_psi        :      4.80s CPU      4.89s WALL (    1624 calls)
     cdiaghg      :    777.67s CPU    796.02s WALL (    2024 calls)

     Called by h_psi:
     add_vuspsi   :    165.23s CPU    170.94s WALL (    2104 calls)

     General routines
     calbec       :    244.10s CPU    249.94s WALL (    2584 calls)
     fft          :      6.34s CPU      7.98s WALL (     956 calls)
     ffts         :      0.05s CPU      0.07s WALL (      44 calls)
     fftw         :    529.51s CPU    773.54s WALL (  780232 calls)
     interpolate  :      0.34s CPU      0.50s WALL (      44 calls)
     davcio       :      0.00s CPU      0.74s WALL (      40 calls)
 
     Parallel routines
     fft_scatter  :    262.67s CPU    412.29s WALL (  781232 calls)
 
     PWSCF        : 48m50.47s CPU    54m58.64s WALL

 
   This run was terminated on:  10:13:16  26Feb2018            

=------------------------------------------------------------------------------=
   JOB DONE.
=------------------------------------------------------------------------------=
