  python dir          : /home/vossj/suncat/lib/python2.7/site-packages/espresso
  espresso dir        : /home/vossj/suncat/esdld/espresso-dynpy-beef/bin
  pseudo dir          : /home/alatimer/bin/psp/esp_psp_w_gbrvRu/
  ase-espresso py git : ffa2778-git



     Program PWSCF v.5.1rc2 (svn rev. ) starts on 27Feb2018 at  1:26:11 

     This program is part of the open-source Quantum ESPRESSO suite
     for quantum simulation of materials; please cite
         "P. Giannozzi et al., J. Phys.:Condens. Matter 21 395502 (2009);
          URL http://www.quantum-espresso.org", 
     in publications or presentations arising from this work. More details at
     http://www.quantum-espresso.org/quote

     Parallel version (MPI), running on    16 processors
     R & G space division:  proc/nbgrp/npool/nimage =      16
     Reading input from pw.inp
     Message from routine read_cards :
     DEPRECATED: no units specified in CELL_PARAMETERS card

     Current dimensions of program PWSCF are:
     Max number of different atomic species (ntypx) = 10
     Max number of k-points (npk) =  40000
     Max angular momentum in pseudopotentials (lmaxx) =  3

     **************************************************************************
     Initializing libbeef V0.1.1 with the BEEF-vdW functional.
     Citation: Wellendorff et al., PRB 85, 235149 (2012).
     **************************************************************************


     IMPORTANT: XC functional enforced from input :
     Exchange-correlation      = BEEF ( 1  4 27 13 2)
     Any further DFT definition will be discarded
     Please, verify this is what you really want


     Subspace diagonalization in iterative solution of the eigenvalue problem:
     a serial algorithm will be used

 
     Parallelization info
     --------------------
     sticks:   dense  smooth     PW     G-vecs:    dense   smooth      PW
     Min         281     112     31                68535    17318    2565
     Max         282     113     32                68545    17369    2582
     Sum        4501    1795    503              1096637   277353   41113
 
     Generating pointlists ...
     new r_m :   0.4125 (alat units)  0.7795 (a.u.) for type    1
     new r_m :   0.4125 (alat units)  0.7795 (a.u.) for type    2
     new r_m :   0.4125 (alat units)  0.7795 (a.u.) for type    3
     new r_m :   0.4125 (alat units)  0.7795 (a.u.) for type    4


     bravais-lattice index     =            0
     lattice parameter (alat)  =       1.8897  a.u.
     unit-cell volume          =    7990.9933 (a.u.)^3
     number of atoms/cell      =           54
     number of atomic types    =            4
     number of electrons       =       398.00
     number of Kohn-Sham states=          299
     kinetic-energy cutoff     =      40.4243  Ry
     charge density cutoff     =     404.2426  Ry
     convergence threshold     =      7.3E-07
     mixing beta               =       0.1000
     number of iterations used =           10  plain     mixing
     Exchange-correlation      = BEEF ( 1  4 27 13 2)
     nstep                     =           50


     celldm(1)=   1.889726  celldm(2)=   0.000000  celldm(3)=   0.000000
     celldm(4)=   0.000000  celldm(5)=   0.000000  celldm(6)=   0.000000

     crystal axes: (cart. coord. in units of alat)
               a(1) = (   6.590708   0.000000   0.000000 )  
               a(2) = (   0.000000   5.950229   0.000000 )  
               a(3) = (   0.000000   0.000000  30.195235 )  

     reciprocal axes: (cart. coord. in units 2 pi/alat)
               b(1) = (  0.151729  0.000000  0.000000 )  
               b(2) = (  0.000000  0.168061  0.000000 )  
               b(3) = (  0.000000  0.000000  0.033118 )  


     PseudoPot. # 1 for Ti read from file:
     /home/alatimer/bin/psp/esp_psp_w_gbrvRu/Ti.UPF
     MD5 check sum: 8e4df49b7f0d34bbd5052bf3f5ea0213
     Pseudo is Ultrasoft, Zval = 12.0
     Generated by new atomic code, or converted to UPF format
     Using radial grid of  851 points,  6 beta functions with: 
                l(1) =   0
                l(2) =   0
                l(3) =   1
                l(4) =   1
                l(5) =   2
                l(6) =   2
     Q(r) pseudized with  8 coefficients,  rinner =    1.000   1.000   1.000
                                                       1.000   1.000

     PseudoPot. # 2 for  O read from file:
     /home/alatimer/bin/psp/esp_psp_w_gbrvRu/O.UPF
     MD5 check sum: e057bbcf3229fb5d8c36c0c92f9568b4
     Pseudo is Ultrasoft + core correction, Zval =  6.0
     Generated using "atomic" code by A. Dal Corso  v.5.0.2 svn rev. 9415
     Using radial grid of 1095 points,  4 beta functions with: 
                l(1) =   0
                l(2) =   0
                l(3) =   1
                l(4) =   1
     Q(r) pseudized with 0 coefficients 


     PseudoPot. # 3 for  C read from file:
     /home/alatimer/bin/psp/esp_psp_w_gbrvRu/C.UPF
     MD5 check sum: ab446d787031eba755f1d5ee46644bb0
     Pseudo is Ultrasoft + core correction, Zval =  4.0
     Generated using "atomic" code by A. Dal Corso  v.5.0.2 svn rev. 9415
     Using radial grid of 1073 points,  4 beta functions with: 
                l(1) =   0
                l(2) =   0
                l(3) =   1
                l(4) =   1
     Q(r) pseudized with 0 coefficients 


     PseudoPot. # 4 for  H read from file:
     /home/alatimer/bin/psp/esp_psp_w_gbrvRu/H.UPF
     MD5 check sum: bd57da0722753ddfd9833a65b40bb853
     Pseudo is Ultrasoft, Zval =  1.0
     Generated using "atomic" code by A. Dal Corso  v.5.0.2 svn rev. 9415
     Using radial grid of  929 points,  2 beta functions with: 
                l(1) =   0
                l(2) =   0
     Q(r) pseudized with 0 coefficients 


     vdW kernel table read from file vdW_kernel_table
     MD5 check sum: 095c7af220d748ca6e76c0b4c6cfb241

     atomic species   valence    mass     pseudopotential
        Ti1           12.00    47.88000     Ti( 1.00)
        O1             6.00    15.99940      O( 1.00)
        C1             4.00    12.01100      C( 1.00)
        H1             1.00     1.00794      H( 1.00)

     Starting magnetic structure 
     atomic species   magnetization
        Ti1          0.250
        O1           0.500
        C1           0.750
        H1           0.000

     No symmetry found



   Cartesian axes

     site n.     atom                  positions (alat units)
         1           Ti1 tau(   1) = (   1.6476770   0.7437786   2.6545865  )
         2           O1  tau(   2) = (   1.6476770   2.2313359   3.9361215  )
         3           Ti1 tau(   3) = (   1.6476770   2.2313359   5.9499405  )
         4           O1  tau(   4) = (   0.3661420   0.7437786   5.9499405  )
         5           Ti1 tau(   5) = (   1.6407309   0.9134410   9.3139491  )
         6           O1  tau(   6) = (   1.6648823   2.2608486  10.4895904  )
         7           Ti1 tau(   7) = (   1.7578240   2.2899216  13.0472362  )
         8           O1  tau(   8) = (   0.4801583   0.7600008  12.7739736  )
         9           Ti1 tau(   9) = (   1.6476770   3.7188931   2.6545865  )
        10           O1  tau(  10) = (   1.6476770   5.2064503   3.9361215  )
        11           Ti1 tau(  11) = (   1.6476770   5.2064503   5.9499405  )
        12           O1  tau(  12) = (   0.3661420   3.7188931   5.9499405  )
        13           Ti1 tau(  13) = (   1.6336050   3.7786827   9.1566831  )
        14           O1  tau(  14) = (   1.6678212   5.2513959  10.5409436  )
        15           Ti1 tau(  15) = (   1.7144009   5.2558216  12.3462911  )
        16           O1  tau(  16) = (   0.4635505   3.7986228  12.7318280  )
        17           O1  tau(  17) = (   1.6476770   2.2313359   1.3730516  )
        18           Ti1 tau(  18) = (   4.9430310   2.2313359   2.6545865  )
        19           O1  tau(  19) = (   4.9430310   2.2313359   4.6684056  )
        20           O1  tau(  20) = (   6.2245660   0.7437786   2.6545865  )
        21           O1  tau(  21) = (   3.6614961   0.7437786   2.6545865  )
        22           Ti1 tau(  22) = (   4.9430310   0.7437786   5.9499405  )
        23           O1  tau(  23) = (   1.6683653   2.2752577   7.9427336  )
        24           O1  tau(  24) = (   4.9430310   2.2313359   7.2314755  )
        25           O1  tau(  25) = (   2.9292120   0.7437786   5.9499405  )
        26           Ti1 tau(  26) = (   4.9404121   2.2664794   9.4552217  )
        27           O1  tau(  27) = (   5.0099888   2.2616732  11.2946145  )
        28           O1  tau(  28) = (   6.2612001   0.7714827   9.2659748  )
        29           O1  tau(  29) = (   3.6791272   0.7744986   9.2965846  )
        30           Ti1 tau(  30) = (   5.0117873   0.7976728  12.8161605  )
        31           O1  tau(  31) = (   4.9963122   2.2836652  13.8750618  )
        32           O1  tau(  32) = (   2.9819382   0.7448324  12.7109220  )
        33           O1  tau(  33) = (   1.6476770   5.2064503   1.3730516  )
        34           Ti1 tau(  34) = (   4.9430310   5.2064503   2.6545865  )
        35           O1  tau(  35) = (   4.9430310   5.2064503   4.6684056  )
        36           O1  tau(  36) = (   6.2245660   3.7188931   2.6545865  )
        37           O1  tau(  37) = (   3.6614961   3.7188931   2.6545865  )
        38           Ti1 tau(  38) = (   4.9430310   3.7188931   5.9499405  )
        39           O1  tau(  39) = (   1.6664207   5.2035600   7.9365221  )
        40           O1  tau(  40) = (   4.9430310   5.2064503   7.2314755  )
        41           O1  tau(  41) = (   2.9292120   3.7188931   5.9499405  )
        42           Ti1 tau(  42) = (   4.9524353   5.2460635   9.4426343  )
        43           O1  tau(  43) = (   5.0107556   5.2394944  11.2927493  )
        44           O1  tau(  44) = (   6.2663940   3.7551737   9.2646230  )
        45           O1  tau(  45) = (   3.6780957   3.7542261   9.2971476  )
        46           Ti1 tau(  46) = (   5.0587989   3.7766986  12.8010349  )
        47           O1  tau(  47) = (   5.0196089   5.2502198  13.8813978  )
        48           O1  tau(  48) = (   2.9624133   3.7943242  12.7299881  )
        49           O1  tau(  49) = (   1.7427453   2.2533568  14.8370015  )
        50           C1  tau(  50) = (   2.7196098   4.2826273  16.2318421  )
        51           H1  tau(  51) = (   3.3037454   4.9255546  15.5827400  )
        52           H1  tau(  52) = (   3.3286606   3.7870117  16.9822022  )
        53           H1  tau(  53) = (   2.3125587   3.4026405  15.5729816  )
        54           H1  tau(  54) = (   1.8391288   4.7350601  16.6448379  )

     number of k points=    40  Fermi-Dirac smearing, width (Ry)=  0.0073
                       cart. coord. in units 2pi/alat
        k(    1) = (   0.0000000   0.0000000   0.0000000), wk =   0.0277778
        k(    2) = (   0.0000000   0.0280101   0.0000000), wk =   0.0555556
        k(    3) = (   0.0000000   0.0560203   0.0000000), wk =   0.0555556
        k(    4) = (   0.0000000  -0.0840304   0.0000000), wk =   0.0277778
        k(    5) = (   0.0252881   0.0000000   0.0000000), wk =   0.0555556
        k(    6) = (   0.0252881   0.0280101   0.0000000), wk =   0.0555556
        k(    7) = (   0.0252881   0.0560203   0.0000000), wk =   0.0555556
        k(    8) = (   0.0252881  -0.0840304   0.0000000), wk =   0.0555556
        k(    9) = (   0.0505763   0.0000000   0.0000000), wk =   0.0555556
        k(   10) = (   0.0505763   0.0280101   0.0000000), wk =   0.0555556
        k(   11) = (   0.0505763   0.0560203   0.0000000), wk =   0.0555556
        k(   12) = (   0.0505763  -0.0840304   0.0000000), wk =   0.0555556
        k(   13) = (  -0.0758644   0.0000000   0.0000000), wk =   0.0277778
        k(   14) = (  -0.0758644   0.0280101   0.0000000), wk =   0.0555556
        k(   15) = (  -0.0758644   0.0560203   0.0000000), wk =   0.0555556
        k(   16) = (  -0.0758644  -0.0840304   0.0000000), wk =   0.0277778
        k(   17) = (  -0.0252881   0.0280101   0.0000000), wk =   0.0555556
        k(   18) = (  -0.0252881   0.0560203   0.0000000), wk =   0.0555556
        k(   19) = (  -0.0505763   0.0280101   0.0000000), wk =   0.0555556
        k(   20) = (  -0.0505763   0.0560203   0.0000000), wk =   0.0555556
        k(   21) = (   0.0000000   0.0000000   0.0000000), wk =   0.0277778
        k(   22) = (   0.0000000   0.0280101   0.0000000), wk =   0.0555556
        k(   23) = (   0.0000000   0.0560203   0.0000000), wk =   0.0555556
        k(   24) = (   0.0000000  -0.0840304   0.0000000), wk =   0.0277778
        k(   25) = (   0.0252881   0.0000000   0.0000000), wk =   0.0555556
        k(   26) = (   0.0252881   0.0280101   0.0000000), wk =   0.0555556
        k(   27) = (   0.0252881   0.0560203   0.0000000), wk =   0.0555556
        k(   28) = (   0.0252881  -0.0840304   0.0000000), wk =   0.0555556
        k(   29) = (   0.0505763   0.0000000   0.0000000), wk =   0.0555556
        k(   30) = (   0.0505763   0.0280101   0.0000000), wk =   0.0555556
        k(   31) = (   0.0505763   0.0560203   0.0000000), wk =   0.0555556
        k(   32) = (   0.0505763  -0.0840304   0.0000000), wk =   0.0555556
        k(   33) = (  -0.0758644   0.0000000   0.0000000), wk =   0.0277778
        k(   34) = (  -0.0758644   0.0280101   0.0000000), wk =   0.0555556
        k(   35) = (  -0.0758644   0.0560203   0.0000000), wk =   0.0555556
        k(   36) = (  -0.0758644  -0.0840304   0.0000000), wk =   0.0277778
        k(   37) = (  -0.0252881   0.0280101   0.0000000), wk =   0.0555556
        k(   38) = (  -0.0252881   0.0560203   0.0000000), wk =   0.0555556
        k(   39) = (  -0.0505763   0.0280101   0.0000000), wk =   0.0555556
        k(   40) = (  -0.0505763   0.0560203   0.0000000), wk =   0.0555556

     Dense  grid:  1096637 G-vectors     FFT dimensions: (  80,  72, 375)

     Smooth grid:   277353 G-vectors     FFT dimensions: (  54,  45, 240)

     Largest allocated arrays     est. size (Mb)     dimensions
        Kohn-Sham Wavefunctions         9.95 Mb     (    2180,  299)
        NL pseudopotentials            18.89 Mb     (    2180,  568)
        Each V/rho on FFT grid          4.22 Mb     (  138240,   2)
        Each G-vector array             0.52 Mb     (   68538)
        G-vector shells                 0.25 Mb     (   33046)
     Largest temporary arrays     est. size (Mb)     dimensions
        Auxiliary wavefunctions        39.78 Mb     (    2180, 1196)
        Each subspace H/S matrix       21.83 Mb     (    1196, 1196)
        Each <psi_i|beta_j> matrix      2.59 Mb     (     568,  299)
        Arrays for rho mixing          21.09 Mb     (  138240,   10)

     Check: negative/imaginary core charge=   -0.000049    0.000000

     The initial density is read from file :
     ./calc.save/charge-density.dat


     negative rho (up, down):  1.189E-02 1.196E-02


     ************************************************************************
     *
     * You are using vdW-DF for exchange-correlation in this calculation.
     * Please cite the following three references that made this development
     * possible:
     *
     *   M. Dion, H. Rydberg, E. Schroder, D. C. Langreth, and
     *   B. I. Lundqvist, Phys. Rev. Lett. 92, 246401 (2004).
     *
     *   T. Thonhauser, V. R. Cooper, S. Li, A. Puzder, P. Hyldgaard, and
     *   D. C. Langreth, Phys. Rev. B 76, 125112 (2007).
     *
     *   G. Roman-Perez and J. M. Soler, Phys. Rev. Lett. 103, 096102 (2009).
     *
     *
     * If you are using vdW-DF2, please also cite:
     *
     *   K. Lee, E. D. Murray, L. Kong, B. I. Lundqvist, and
     *   D. C. Langreth, Phys. Rev. B 82, 081101(R) (2010).
     *
     *
     * If you are calculating the stress with vdW-DF, please also cite:
     *
     *   R. Sabatini, E. Kucukbenli, B. Kolb, T. Thonhauser, and
     *   S. de Gironcoli, J. Phys.: Condens. Matter 24, 424209 (2012).
     *
     ************************************************************************

     Carrying out vdW-DF run using the following parameters:

     Nqs =      20    Nr_points =    1024   r_max =   100.000
     q_mesh =
               0.00001000     0.04494208     0.09755937     0.15916263
               0.23128650     0.31572767     0.41458969     0.53033537
               0.66584808     0.82450364     1.01025438     1.22772762
               1.48234092     1.78043706     2.12944203     2.53805004
               3.01644009     3.57652955     4.23227104     5.00000000

     Gradients computed in reciprocal space

     ************************************************************************


     Starting wfc are  300 randomized atomic wfcs

     total cpu time spent up to now is       77.4 secs

     Self-consistent Calculation

     iteration #  1     ecut=    40.42 Ry     beta=0.10
     Davidson diagonalization with overlap
     ethr =  1.00E-05,  avg # of iterations = 15.0

     Threshold (ethr) on eigenvalues was too large:
     Diagonalizing with lowered threshold

     Davidson diagonalization with overlap
     ethr =  4.32E-07,  avg # of iterations =  1.0

     negative rho (up, down):  1.189E-02 1.196E-02
 
     Magnetic moment per site:
     atom:    1    charge:    3.1244    magn:   -0.0003    constr:    0.0000
     atom:    2    charge:    2.0897    magn:    0.0003    constr:    0.0000
     atom:    3    charge:    3.1198    magn:   -0.0000    constr:    0.0000
     atom:    4    charge:    2.0867    magn:   -0.0001    constr:    0.0000
     atom:    5    charge:    3.1161    magn:   -0.0002    constr:    0.0000
     atom:    6    charge:    2.0795    magn:    0.0021    constr:    0.0000
     atom:    7    charge:    3.1167    magn:   -0.0053    constr:    0.0000
     atom:    8    charge:    2.0792    magn:    0.0250    constr:    0.0000
     atom:    9    charge:    3.1244    magn:   -0.0003    constr:    0.0000
     atom:   10    charge:    2.0898    magn:    0.0003    constr:    0.0000
     atom:   11    charge:    3.1198    magn:   -0.0000    constr:    0.0000
     atom:   12    charge:    2.0870    magn:   -0.0000    constr:    0.0000
     atom:   13    charge:    3.1150    magn:   -0.0002    constr:    0.0000
     atom:   14    charge:    2.0939    magn:    0.0023    constr:    0.0000
     atom:   15    charge:    3.1184    magn:   -0.0008    constr:    0.0000
     atom:   16    charge:    2.0829    magn:    0.0046    constr:    0.0000
     atom:   17    charge:    2.0624    magn:    0.0018    constr:    0.0000
     atom:   18    charge:    3.1239    magn:   -0.0001    constr:    0.0000
     atom:   19    charge:    2.0875    magn:    0.0001    constr:    0.0000
     atom:   20    charge:    2.0847    magn:    0.0002    constr:    0.0000
     atom:   21    charge:    2.0847    magn:    0.0002    constr:    0.0000
     atom:   22    charge:    3.1199    magn:    0.0000    constr:    0.0000
     atom:   23    charge:    2.0908    magn:    0.0002    constr:    0.0000
     atom:   24    charge:    2.0754    magn:   -0.0002    constr:    0.0000
     atom:   25    charge:    2.0867    magn:    0.0000    constr:    0.0000
     atom:   26    charge:    3.1127    magn:   -0.0002    constr:    0.0000
     atom:   27    charge:    2.0803    magn:    0.0025    constr:    0.0000
     atom:   28    charge:    2.0839    magn:    0.0006    constr:    0.0000
     atom:   29    charge:    2.0860    magn:    0.0008    constr:    0.0000
     atom:   30    charge:    3.1171    magn:   -0.0008    constr:    0.0000
     atom:   31    charge:    2.0825    magn:    0.0006    constr:    0.0000
     atom:   32    charge:    2.0829    magn:    0.0064    constr:    0.0000
     atom:   33    charge:    2.0623    magn:    0.0018    constr:    0.0000
     atom:   34    charge:    3.1239    magn:   -0.0001    constr:    0.0000
     atom:   35    charge:    2.0875    magn:    0.0001    constr:    0.0000
     atom:   36    charge:    2.0847    magn:    0.0002    constr:    0.0000
     atom:   37    charge:    2.0847    magn:    0.0002    constr:    0.0000
     atom:   38    charge:    3.1200    magn:    0.0000    constr:    0.0000
     atom:   39    charge:    2.0839    magn:    0.0002    constr:    0.0000
     atom:   40    charge:    2.0756    magn:   -0.0003    constr:    0.0000
     atom:   41    charge:    2.0870    magn:   -0.0000    constr:    0.0000
     atom:   42    charge:    3.1151    magn:   -0.0002    constr:    0.0000
     atom:   43    charge:    2.0803    magn:    0.0030    constr:    0.0000
     atom:   44    charge:    2.0851    magn:    0.0008    constr:    0.0000
     atom:   45    charge:    2.0858    magn:    0.0004    constr:    0.0000
     atom:   46    charge:    3.1148    magn:   -0.0007    constr:    0.0000
     atom:   47    charge:    2.0806    magn:    0.0046    constr:    0.0000
     atom:   48    charge:    2.0837    magn:    0.0137    constr:    0.0000
     atom:   49    charge:    2.0518    magn:    0.2398    constr:    0.0000
     atom:   50    charge:    0.6720    magn:    0.0547    constr:    0.0000
     atom:   51    charge:    0.4218    magn:    0.0009    constr:    0.0000
     atom:   52    charge:    0.4227    magn:    0.0008    constr:    0.0000
     atom:   53    charge:    0.3676    magn:    0.0231    constr:    0.0000
     atom:   54    charge:    0.4296    magn:    0.0005    constr:    0.0000

     total cpu time spent up to now is     1239.4 secs

     total energy              =   -3021.14984917 Ry
     Harris-Foulkes estimate   =   -3021.15001611 Ry
     estimated scf accuracy    <       0.00171959 Ry

     total magnetization       =     1.06 Bohr mag/cell
     absolute magnetization    =     1.23 Bohr mag/cell

     iteration #  2     ecut=    40.42 Ry     beta=0.10
     Davidson diagonalization with overlap
     ethr =  4.32E-07,  avg # of iterations =  1.2

     negative rho (up, down):  1.189E-02 1.196E-02
 
     Magnetic moment per site:
     atom:    1    charge:    3.1244    magn:   -0.0003    constr:    0.0000
     atom:    2    charge:    2.0897    magn:    0.0003    constr:    0.0000
     atom:    3    charge:    3.1198    magn:   -0.0000    constr:    0.0000
     atom:    4    charge:    2.0867    magn:   -0.0001    constr:    0.0000
     atom:    5    charge:    3.1161    magn:   -0.0002    constr:    0.0000
     atom:    6    charge:    2.0795    magn:    0.0021    constr:    0.0000
     atom:    7    charge:    3.1167    magn:   -0.0053    constr:    0.0000
     atom:    8    charge:    2.0792    magn:    0.0250    constr:    0.0000
     atom:    9    charge:    3.1244    magn:   -0.0003    constr:    0.0000
     atom:   10    charge:    2.0898    magn:    0.0003    constr:    0.0000
     atom:   11    charge:    3.1198    magn:   -0.0000    constr:    0.0000
     atom:   12    charge:    2.0870    magn:   -0.0000    constr:    0.0000
     atom:   13    charge:    3.1150    magn:   -0.0002    constr:    0.0000
     atom:   14    charge:    2.0939    magn:    0.0023    constr:    0.0000
     atom:   15    charge:    3.1184    magn:   -0.0008    constr:    0.0000
     atom:   16    charge:    2.0828    magn:    0.0046    constr:    0.0000
     atom:   17    charge:    2.0625    magn:    0.0017    constr:    0.0000
     atom:   18    charge:    3.1239    magn:   -0.0001    constr:    0.0000
     atom:   19    charge:    2.0875    magn:    0.0001    constr:    0.0000
     atom:   20    charge:    2.0847    magn:    0.0002    constr:    0.0000
     atom:   21    charge:    2.0847    magn:    0.0002    constr:    0.0000
     atom:   22    charge:    3.1199    magn:    0.0000    constr:    0.0000
     atom:   23    charge:    2.0908    magn:    0.0002    constr:    0.0000
     atom:   24    charge:    2.0754    magn:   -0.0002    constr:    0.0000
     atom:   25    charge:    2.0867    magn:    0.0000    constr:    0.0000
     atom:   26    charge:    3.1127    magn:   -0.0002    constr:    0.0000
     atom:   27    charge:    2.0802    magn:    0.0025    constr:    0.0000
     atom:   28    charge:    2.0839    magn:    0.0006    constr:    0.0000
     atom:   29    charge:    2.0860    magn:    0.0008    constr:    0.0000
     atom:   30    charge:    3.1171    magn:   -0.0008    constr:    0.0000
     atom:   31    charge:    2.0825    magn:    0.0006    constr:    0.0000
     atom:   32    charge:    2.0829    magn:    0.0064    constr:    0.0000
     atom:   33    charge:    2.0625    magn:    0.0018    constr:    0.0000
     atom:   34    charge:    3.1239    magn:   -0.0001    constr:    0.0000
     atom:   35    charge:    2.0876    magn:    0.0001    constr:    0.0000
     atom:   36    charge:    2.0847    magn:    0.0002    constr:    0.0000
     atom:   37    charge:    2.0847    magn:    0.0002    constr:    0.0000
     atom:   38    charge:    3.1200    magn:    0.0000    constr:    0.0000
     atom:   39    charge:    2.0839    magn:    0.0002    constr:    0.0000
     atom:   40    charge:    2.0756    magn:   -0.0003    constr:    0.0000
     atom:   41    charge:    2.0870    magn:   -0.0000    constr:    0.0000
     atom:   42    charge:    3.1151    magn:   -0.0002    constr:    0.0000
     atom:   43    charge:    2.0802    magn:    0.0030    constr:    0.0000
     atom:   44    charge:    2.0851    magn:    0.0008    constr:    0.0000
     atom:   45    charge:    2.0858    magn:    0.0004    constr:    0.0000
     atom:   46    charge:    3.1148    magn:   -0.0007    constr:    0.0000
     atom:   47    charge:    2.0806    magn:    0.0047    constr:    0.0000
     atom:   48    charge:    2.0837    magn:    0.0137    constr:    0.0000
     atom:   49    charge:    2.0517    magn:    0.2398    constr:    0.0000
     atom:   50    charge:    0.6723    magn:    0.0547    constr:    0.0000
     atom:   51    charge:    0.4217    magn:    0.0009    constr:    0.0000
     atom:   52    charge:    0.4227    magn:    0.0007    constr:    0.0000
     atom:   53    charge:    0.3677    magn:    0.0231    constr:    0.0000
     atom:   54    charge:    0.4297    magn:    0.0005    constr:    0.0000

     total cpu time spent up to now is     1443.4 secs

     total energy              =   -3021.14978838 Ry
     Harris-Foulkes estimate   =   -3021.14989204 Ry
     estimated scf accuracy    <       0.00167189 Ry

     total magnetization       =     1.06 Bohr mag/cell
     absolute magnetization    =     1.23 Bohr mag/cell

     iteration #  3     ecut=    40.42 Ry     beta=0.10
     Davidson diagonalization with overlap
     ethr =  4.20E-07,  avg # of iterations =  1.0

     negative rho (up, down):  1.190E-02 1.197E-02
 
     Magnetic moment per site:
     atom:    1    charge:    3.1244    magn:   -0.0003    constr:    0.0000
     atom:    2    charge:    2.0897    magn:    0.0003    constr:    0.0000
     atom:    3    charge:    3.1198    magn:   -0.0000    constr:    0.0000
     atom:    4    charge:    2.0867    magn:   -0.0001    constr:    0.0000
     atom:    5    charge:    3.1161    magn:   -0.0002    constr:    0.0000
     atom:    6    charge:    2.0795    magn:    0.0021    constr:    0.0000
     atom:    7    charge:    3.1167    magn:   -0.0053    constr:    0.0000
     atom:    8    charge:    2.0792    magn:    0.0250    constr:    0.0000
     atom:    9    charge:    3.1244    magn:   -0.0003    constr:    0.0000
     atom:   10    charge:    2.0898    magn:    0.0003    constr:    0.0000
     atom:   11    charge:    3.1198    magn:   -0.0000    constr:    0.0000
     atom:   12    charge:    2.0871    magn:   -0.0000    constr:    0.0000
     atom:   13    charge:    3.1150    magn:   -0.0002    constr:    0.0000
     atom:   14    charge:    2.0939    magn:    0.0023    constr:    0.0000
     atom:   15    charge:    3.1184    magn:   -0.0008    constr:    0.0000
     atom:   16    charge:    2.0828    magn:    0.0046    constr:    0.0000
     atom:   17    charge:    2.0624    magn:    0.0016    constr:    0.0000
     atom:   18    charge:    3.1239    magn:   -0.0001    constr:    0.0000
     atom:   19    charge:    2.0875    magn:    0.0001    constr:    0.0000
     atom:   20    charge:    2.0847    magn:    0.0001    constr:    0.0000
     atom:   21    charge:    2.0847    magn:    0.0001    constr:    0.0000
     atom:   22    charge:    3.1199    magn:    0.0000    constr:    0.0000
     atom:   23    charge:    2.0908    magn:    0.0002    constr:    0.0000
     atom:   24    charge:    2.0754    magn:   -0.0001    constr:    0.0000
     atom:   25    charge:    2.0868    magn:    0.0000    constr:    0.0000
     atom:   26    charge:    3.1127    magn:   -0.0002    constr:    0.0000
     atom:   27    charge:    2.0802    magn:    0.0025    constr:    0.0000
     atom:   28    charge:    2.0839    magn:    0.0006    constr:    0.0000
     atom:   29    charge:    2.0860    magn:    0.0008    constr:    0.0000
     atom:   30    charge:    3.1171    magn:   -0.0008    constr:    0.0000
     atom:   31    charge:    2.0825    magn:    0.0006    constr:    0.0000
     atom:   32    charge:    2.0828    magn:    0.0065    constr:    0.0000
     atom:   33    charge:    2.0624    magn:    0.0016    constr:    0.0000
     atom:   34    charge:    3.1239    magn:   -0.0001    constr:    0.0000
     atom:   35    charge:    2.0876    magn:    0.0001    constr:    0.0000
     atom:   36    charge:    2.0847    magn:    0.0001    constr:    0.0000
     atom:   37    charge:    2.0847    magn:    0.0001    constr:    0.0000
     atom:   38    charge:    3.1200    magn:    0.0000    constr:    0.0000
     atom:   39    charge:    2.0839    magn:    0.0002    constr:    0.0000
     atom:   40    charge:    2.0757    magn:   -0.0002    constr:    0.0000
     atom:   41    charge:    2.0870    magn:   -0.0000    constr:    0.0000
     atom:   42    charge:    3.1151    magn:   -0.0002    constr:    0.0000
     atom:   43    charge:    2.0803    magn:    0.0030    constr:    0.0000
     atom:   44    charge:    2.0851    magn:    0.0009    constr:    0.0000
     atom:   45    charge:    2.0858    magn:    0.0004    constr:    0.0000
     atom:   46    charge:    3.1148    magn:   -0.0007    constr:    0.0000
     atom:   47    charge:    2.0805    magn:    0.0047    constr:    0.0000
     atom:   48    charge:    2.0837    magn:    0.0137    constr:    0.0000
     atom:   49    charge:    2.0517    magn:    0.2399    constr:    0.0000
     atom:   50    charge:    0.6740    magn:    0.0547    constr:    0.0000
     atom:   51    charge:    0.4213    magn:    0.0009    constr:    0.0000
     atom:   52    charge:    0.4228    magn:    0.0007    constr:    0.0000
     atom:   53    charge:    0.3679    magn:    0.0230    constr:    0.0000
     atom:   54    charge:    0.4300    magn:    0.0006    constr:    0.0000

     total cpu time spent up to now is     1643.3 secs

     total energy              =   -3021.14960121 Ry
     Harris-Foulkes estimate   =   -3021.14984543 Ry
     estimated scf accuracy    <       0.00137492 Ry

     total magnetization       =     1.06 Bohr mag/cell
     absolute magnetization    =     1.23 Bohr mag/cell

     iteration #  4     ecut=    40.42 Ry     beta=0.10
     Davidson diagonalization with overlap
     ethr =  3.45E-07,  avg # of iterations =  3.0

     negative rho (up, down):  1.190E-02 1.197E-02
 
     Magnetic moment per site:
     atom:    1    charge:    3.1244    magn:   -0.0003    constr:    0.0000
     atom:    2    charge:    2.0897    magn:    0.0003    constr:    0.0000
     atom:    3    charge:    3.1198    magn:   -0.0000    constr:    0.0000
     atom:    4    charge:    2.0867    magn:   -0.0001    constr:    0.0000
     atom:    5    charge:    3.1161    magn:   -0.0002    constr:    0.0000
     atom:    6    charge:    2.0795    magn:    0.0021    constr:    0.0000
     atom:    7    charge:    3.1167    magn:   -0.0053    constr:    0.0000
     atom:    8    charge:    2.0793    magn:    0.0250    constr:    0.0000
     atom:    9    charge:    3.1244    magn:   -0.0003    constr:    0.0000
     atom:   10    charge:    2.0898    magn:    0.0003    constr:    0.0000
     atom:   11    charge:    3.1198    magn:   -0.0000    constr:    0.0000
     atom:   12    charge:    2.0870    magn:   -0.0000    constr:    0.0000
     atom:   13    charge:    3.1150    magn:   -0.0002    constr:    0.0000
     atom:   14    charge:    2.0939    magn:    0.0023    constr:    0.0000
     atom:   15    charge:    3.1184    magn:   -0.0008    constr:    0.0000
     atom:   16    charge:    2.0828    magn:    0.0046    constr:    0.0000
     atom:   17    charge:    2.0625    magn:    0.0015    constr:    0.0000
     atom:   18    charge:    3.1239    magn:   -0.0001    constr:    0.0000
     atom:   19    charge:    2.0875    magn:    0.0001    constr:    0.0000
     atom:   20    charge:    2.0847    magn:    0.0001    constr:    0.0000
     atom:   21    charge:    2.0847    magn:    0.0001    constr:    0.0000
     atom:   22    charge:    3.1199    magn:    0.0000    constr:    0.0000
     atom:   23    charge:    2.0908    magn:    0.0002    constr:    0.0000
     atom:   24    charge:    2.0754    magn:   -0.0001    constr:    0.0000
     atom:   25    charge:    2.0867    magn:    0.0000    constr:    0.0000
     atom:   26    charge:    3.1127    magn:   -0.0002    constr:    0.0000
     atom:   27    charge:    2.0803    magn:    0.0025    constr:    0.0000
     atom:   28    charge:    2.0839    magn:    0.0006    constr:    0.0000
     atom:   29    charge:    2.0860    magn:    0.0008    constr:    0.0000
     atom:   30    charge:    3.1171    magn:   -0.0008    constr:    0.0000
     atom:   31    charge:    2.0825    magn:    0.0006    constr:    0.0000
     atom:   32    charge:    2.0829    magn:    0.0064    constr:    0.0000
     atom:   33    charge:    2.0624    magn:    0.0015    constr:    0.0000
     atom:   34    charge:    3.1239    magn:   -0.0001    constr:    0.0000
     atom:   35    charge:    2.0876    magn:    0.0001    constr:    0.0000
     atom:   36    charge:    2.0847    magn:    0.0001    constr:    0.0000
     atom:   37    charge:    2.0847    magn:    0.0001    constr:    0.0000
     atom:   38    charge:    3.1200    magn:    0.0000    constr:    0.0000
     atom:   39    charge:    2.0839    magn:    0.0002    constr:    0.0000
     atom:   40    charge:    2.0756    magn:   -0.0002    constr:    0.0000
     atom:   41    charge:    2.0870    magn:   -0.0000    constr:    0.0000
     atom:   42    charge:    3.1151    magn:   -0.0002    constr:    0.0000
     atom:   43    charge:    2.0803    magn:    0.0031    constr:    0.0000
     atom:   44    charge:    2.0851    magn:    0.0009    constr:    0.0000
     atom:   45    charge:    2.0858    magn:    0.0004    constr:    0.0000
     atom:   46    charge:    3.1148    magn:   -0.0007    constr:    0.0000
     atom:   47    charge:    2.0806    magn:    0.0047    constr:    0.0000
     atom:   48    charge:    2.0837    magn:    0.0137    constr:    0.0000
     atom:   49    charge:    2.0517    magn:    0.2398    constr:    0.0000
     atom:   50    charge:    0.6741    magn:    0.0547    constr:    0.0000
     atom:   51    charge:    0.4212    magn:    0.0009    constr:    0.0000
     atom:   52    charge:    0.4228    magn:    0.0007    constr:    0.0000
     atom:   53    charge:    0.3678    magn:    0.0230    constr:    0.0000
     atom:   54    charge:    0.4301    magn:    0.0006    constr:    0.0000

     total cpu time spent up to now is     1880.4 secs

     total energy              =   -3021.14966831 Ry
     Harris-Foulkes estimate   =   -3021.14968583 Ry
     estimated scf accuracy    <       0.00027233 Ry

     total magnetization       =     1.06 Bohr mag/cell
     absolute magnetization    =     1.23 Bohr mag/cell

     iteration #  5     ecut=    40.42 Ry     beta=0.10
     Davidson diagonalization with overlap
     ethr =  6.84E-08,  avg # of iterations =  2.0

     negative rho (up, down):  1.190E-02 1.197E-02
 
     Magnetic moment per site:
     atom:    1    charge:    3.1244    magn:   -0.0002    constr:    0.0000
     atom:    2    charge:    2.0897    magn:    0.0002    constr:    0.0000
     atom:    3    charge:    3.1198    magn:   -0.0000    constr:    0.0000
     atom:    4    charge:    2.0867    magn:   -0.0001    constr:    0.0000
     atom:    5    charge:    3.1161    magn:   -0.0002    constr:    0.0000
     atom:    6    charge:    2.0795    magn:    0.0021    constr:    0.0000
     atom:    7    charge:    3.1167    magn:   -0.0053    constr:    0.0000
     atom:    8    charge:    2.0794    magn:    0.0249    constr:    0.0000
     atom:    9    charge:    3.1244    magn:   -0.0002    constr:    0.0000
     atom:   10    charge:    2.0898    magn:    0.0002    constr:    0.0000
     atom:   11    charge:    3.1198    magn:   -0.0000    constr:    0.0000
     atom:   12    charge:    2.0870    magn:   -0.0000    constr:    0.0000
     atom:   13    charge:    3.1150    magn:   -0.0002    constr:    0.0000
     atom:   14    charge:    2.0939    magn:    0.0022    constr:    0.0000
     atom:   15    charge:    3.1184    magn:   -0.0008    constr:    0.0000
     atom:   16    charge:    2.0828    magn:    0.0047    constr:    0.0000
     atom:   17    charge:    2.0625    magn:    0.0014    constr:    0.0000
     atom:   18    charge:    3.1240    magn:   -0.0001    constr:    0.0000
     atom:   19    charge:    2.0875    magn:    0.0001    constr:    0.0000
     atom:   20    charge:    2.0847    magn:    0.0001    constr:    0.0000
     atom:   21    charge:    2.0847    magn:    0.0001    constr:    0.0000
     atom:   22    charge:    3.1199    magn:    0.0000    constr:    0.0000
     atom:   23    charge:    2.0908    magn:    0.0002    constr:    0.0000
     atom:   24    charge:    2.0754    magn:   -0.0001    constr:    0.0000
     atom:   25    charge:    2.0867    magn:    0.0000    constr:    0.0000
     atom:   26    charge:    3.1127    magn:   -0.0002    constr:    0.0000
     atom:   27    charge:    2.0803    magn:    0.0026    constr:    0.0000
     atom:   28    charge:    2.0839    magn:    0.0007    constr:    0.0000
     atom:   29    charge:    2.0860    magn:    0.0008    constr:    0.0000
     atom:   30    charge:    3.1171    magn:   -0.0008    constr:    0.0000
     atom:   31    charge:    2.0825    magn:    0.0006    constr:    0.0000
     atom:   32    charge:    2.0830    magn:    0.0064    constr:    0.0000
     atom:   33    charge:    2.0625    magn:    0.0014    constr:    0.0000
     atom:   34    charge:    3.1239    magn:   -0.0001    constr:    0.0000
     atom:   35    charge:    2.0876    magn:    0.0001    constr:    0.0000
     atom:   36    charge:    2.0847    magn:    0.0001    constr:    0.0000
     atom:   37    charge:    2.0847    magn:    0.0001    constr:    0.0000
     atom:   38    charge:    3.1200    magn:    0.0000    constr:    0.0000
     atom:   39    charge:    2.0839    magn:    0.0002    constr:    0.0000
     atom:   40    charge:    2.0756    magn:   -0.0002    constr:    0.0000
     atom:   41    charge:    2.0870    magn:   -0.0000    constr:    0.0000
     atom:   42    charge:    3.1151    magn:   -0.0002    constr:    0.0000
     atom:   43    charge:    2.0803    magn:    0.0031    constr:    0.0000
     atom:   44    charge:    2.0851    magn:    0.0009    constr:    0.0000
     atom:   45    charge:    2.0858    magn:    0.0005    constr:    0.0000
     atom:   46    charge:    3.1147    magn:   -0.0007    constr:    0.0000
     atom:   47    charge:    2.0808    magn:    0.0047    constr:    0.0000
     atom:   48    charge:    2.0838    magn:    0.0136    constr:    0.0000
     atom:   49    charge:    2.0519    magn:    0.2396    constr:    0.0000
     atom:   50    charge:    0.6737    magn:    0.0549    constr:    0.0000
     atom:   51    charge:    0.4213    magn:    0.0009    constr:    0.0000
     atom:   52    charge:    0.4228    magn:    0.0007    constr:    0.0000
     atom:   53    charge:    0.3676    magn:    0.0233    constr:    0.0000
     atom:   54    charge:    0.4304    magn:    0.0007    constr:    0.0000

     total cpu time spent up to now is     2097.4 secs

     total energy              =   -3021.14965276 Ry
     Harris-Foulkes estimate   =   -3021.14967238 Ry
     estimated scf accuracy    <       0.00016336 Ry

     total magnetization       =     1.06 Bohr mag/cell
     absolute magnetization    =     1.23 Bohr mag/cell

     iteration #  6     ecut=    40.42 Ry     beta=0.10
     Davidson diagonalization with overlap
     ethr =  4.10E-08,  avg # of iterations =  3.0

     negative rho (up, down):  1.190E-02 1.197E-02
 
     Magnetic moment per site:
     atom:    1    charge:    3.1244    magn:   -0.0002    constr:    0.0000
     atom:    2    charge:    2.0897    magn:    0.0002    constr:    0.0000
     atom:    3    charge:    3.1198    magn:   -0.0000    constr:    0.0000
     atom:    4    charge:    2.0867    magn:   -0.0001    constr:    0.0000
     atom:    5    charge:    3.1161    magn:   -0.0003    constr:    0.0000
     atom:    6    charge:    2.0795    magn:    0.0021    constr:    0.0000
     atom:    7    charge:    3.1167    magn:   -0.0053    constr:    0.0000
     atom:    8    charge:    2.0794    magn:    0.0248    constr:    0.0000
     atom:    9    charge:    3.1244    magn:   -0.0002    constr:    0.0000
     atom:   10    charge:    2.0898    magn:    0.0002    constr:    0.0000
     atom:   11    charge:    3.1198    magn:   -0.0000    constr:    0.0000
     atom:   12    charge:    2.0870    magn:   -0.0000    constr:    0.0000
     atom:   13    charge:    3.1150    magn:   -0.0002    constr:    0.0000
     atom:   14    charge:    2.0939    magn:    0.0022    constr:    0.0000
     atom:   15    charge:    3.1184    magn:   -0.0008    constr:    0.0000
     atom:   16    charge:    2.0829    magn:    0.0047    constr:    0.0000
     atom:   17    charge:    2.0625    magn:    0.0013    constr:    0.0000
     atom:   18    charge:    3.1240    magn:   -0.0001    constr:    0.0000
     atom:   19    charge:    2.0875    magn:    0.0000    constr:    0.0000
     atom:   20    charge:    2.0847    magn:    0.0001    constr:    0.0000
     atom:   21    charge:    2.0847    magn:    0.0001    constr:    0.0000
     atom:   22    charge:    3.1199    magn:    0.0000    constr:    0.0000
     atom:   23    charge:    2.0908    magn:    0.0002    constr:    0.0000
     atom:   24    charge:    2.0754    magn:   -0.0001    constr:    0.0000
     atom:   25    charge:    2.0867    magn:    0.0000    constr:    0.0000
     atom:   26    charge:    3.1127    magn:   -0.0002    constr:    0.0000
     atom:   27    charge:    2.0802    magn:    0.0026    constr:    0.0000
     atom:   28    charge:    2.0839    magn:    0.0007    constr:    0.0000
     atom:   29    charge:    2.0860    magn:    0.0008    constr:    0.0000
     atom:   30    charge:    3.1171    magn:   -0.0008    constr:    0.0000
     atom:   31    charge:    2.0826    magn:    0.0006    constr:    0.0000
     atom:   32    charge:    2.0830    magn:    0.0064    constr:    0.0000
     atom:   33    charge:    2.0624    magn:    0.0013    constr:    0.0000
     atom:   34    charge:    3.1239    magn:   -0.0001    constr:    0.0000
     atom:   35    charge:    2.0876    magn:    0.0000    constr:    0.0000
     atom:   36    charge:    2.0847    magn:    0.0001    constr:    0.0000
     atom:   37    charge:    2.0847    magn:    0.0001    constr:    0.0000
     atom:   38    charge:    3.1200    magn:    0.0000    constr:    0.0000
     atom:   39    charge:    2.0839    magn:    0.0002    constr:    0.0000
     atom:   40    charge:    2.0756    magn:   -0.0002    constr:    0.0000
     atom:   41    charge:    2.0870    magn:   -0.0000    constr:    0.0000
     atom:   42    charge:    3.1151    magn:   -0.0002    constr:    0.0000
     atom:   43    charge:    2.0803    magn:    0.0031    constr:    0.0000
     atom:   44    charge:    2.0851    magn:    0.0009    constr:    0.0000
     atom:   45    charge:    2.0858    magn:    0.0005    constr:    0.0000
     atom:   46    charge:    3.1147    magn:   -0.0007    constr:    0.0000
     atom:   47    charge:    2.0808    magn:    0.0046    constr:    0.0000
     atom:   48    charge:    2.0838    magn:    0.0136    constr:    0.0000
     atom:   49    charge:    2.0519    magn:    0.2395    constr:    0.0000
     atom:   50    charge:    0.6735    magn:    0.0549    constr:    0.0000
     atom:   51    charge:    0.4214    magn:    0.0009    constr:    0.0000
     atom:   52    charge:    0.4229    magn:    0.0006    constr:    0.0000
     atom:   53    charge:    0.3675    magn:    0.0234    constr:    0.0000
     atom:   54    charge:    0.4306    magn:    0.0008    constr:    0.0000

     total cpu time spent up to now is     2333.9 secs

     total energy              =   -3021.14966039 Ry
     Harris-Foulkes estimate   =   -3021.14965984 Ry
     estimated scf accuracy    <       0.00003375 Ry

     total magnetization       =     1.06 Bohr mag/cell
     absolute magnetization    =     1.23 Bohr mag/cell

     iteration #  7     ecut=    40.42 Ry     beta=0.10
     Davidson diagonalization with overlap
     ethr =  8.48E-09,  avg # of iterations =  3.0

     negative rho (up, down):  1.190E-02 1.197E-02
 
     Magnetic moment per site:
     atom:    1    charge:    3.1244    magn:   -0.0002    constr:    0.0000
     atom:    2    charge:    2.0897    magn:    0.0002    constr:    0.0000
     atom:    3    charge:    3.1198    magn:   -0.0000    constr:    0.0000
     atom:    4    charge:    2.0867    magn:   -0.0001    constr:    0.0000
     atom:    5    charge:    3.1161    magn:   -0.0003    constr:    0.0000
     atom:    6    charge:    2.0795    magn:    0.0021    constr:    0.0000
     atom:    7    charge:    3.1167    magn:   -0.0052    constr:    0.0000
     atom:    8    charge:    2.0792    magn:    0.0248    constr:    0.0000
     atom:    9    charge:    3.1244    magn:   -0.0002    constr:    0.0000
     atom:   10    charge:    2.0898    magn:    0.0002    constr:    0.0000
     atom:   11    charge:    3.1198    magn:   -0.0000    constr:    0.0000
     atom:   12    charge:    2.0870    magn:   -0.0000    constr:    0.0000
     atom:   13    charge:    3.1150    magn:   -0.0002    constr:    0.0000
     atom:   14    charge:    2.0939    magn:    0.0022    constr:    0.0000
     atom:   15    charge:    3.1184    magn:   -0.0008    constr:    0.0000
     atom:   16    charge:    2.0829    magn:    0.0047    constr:    0.0000
     atom:   17    charge:    2.0624    magn:    0.0012    constr:    0.0000
     atom:   18    charge:    3.1240    magn:   -0.0000    constr:    0.0000
     atom:   19    charge:    2.0875    magn:    0.0000    constr:    0.0000
     atom:   20    charge:    2.0847    magn:    0.0001    constr:    0.0000
     atom:   21    charge:    2.0847    magn:    0.0001    constr:    0.0000
     atom:   22    charge:    3.1199    magn:    0.0000    constr:    0.0000
     atom:   23    charge:    2.0908    magn:    0.0003    constr:    0.0000
     atom:   24    charge:    2.0754    magn:   -0.0001    constr:    0.0000
     atom:   25    charge:    2.0867    magn:    0.0000    constr:    0.0000
     atom:   26    charge:    3.1127    magn:   -0.0003    constr:    0.0000
     atom:   27    charge:    2.0802    magn:    0.0026    constr:    0.0000
     atom:   28    charge:    2.0839    magn:    0.0007    constr:    0.0000
     atom:   29    charge:    2.0860    magn:    0.0009    constr:    0.0000
     atom:   30    charge:    3.1171    magn:   -0.0008    constr:    0.0000
     atom:   31    charge:    2.0826    magn:    0.0006    constr:    0.0000
     atom:   32    charge:    2.0829    magn:    0.0065    constr:    0.0000
     atom:   33    charge:    2.0624    magn:    0.0012    constr:    0.0000
     atom:   34    charge:    3.1239    magn:   -0.0000    constr:    0.0000
     atom:   35    charge:    2.0875    magn:    0.0000    constr:    0.0000
     atom:   36    charge:    2.0847    magn:    0.0001    constr:    0.0000
     atom:   37    charge:    2.0847    magn:    0.0001    constr:    0.0000
     atom:   38    charge:    3.1200    magn:    0.0000    constr:    0.0000
     atom:   39    charge:    2.0839    magn:    0.0002    constr:    0.0000
     atom:   40    charge:    2.0756    magn:   -0.0001    constr:    0.0000
     atom:   41    charge:    2.0870    magn:   -0.0000    constr:    0.0000
     atom:   42    charge:    3.1151    magn:   -0.0002    constr:    0.0000
     atom:   43    charge:    2.0803    magn:    0.0031    constr:    0.0000
     atom:   44    charge:    2.0851    magn:    0.0010    constr:    0.0000
     atom:   45    charge:    2.0858    magn:    0.0005    constr:    0.0000
     atom:   46    charge:    3.1148    magn:   -0.0007    constr:    0.0000
     atom:   47    charge:    2.0807    magn:    0.0046    constr:    0.0000
     atom:   48    charge:    2.0837    magn:    0.0136    constr:    0.0000
     atom:   49    charge:    2.0518    magn:    0.2394    constr:    0.0000
     atom:   50    charge:    0.6733    magn:    0.0549    constr:    0.0000
     atom:   51    charge:    0.4216    magn:    0.0009    constr:    0.0000
     atom:   52    charge:    0.4229    magn:    0.0006    constr:    0.0000
     atom:   53    charge:    0.3674    magn:    0.0235    constr:    0.0000
     atom:   54    charge:    0.4308    magn:    0.0008    constr:    0.0000

     total cpu time spent up to now is     2570.3 secs

     total energy              =   -3021.14966092 Ry
     Harris-Foulkes estimate   =   -3021.14966170 Ry
     estimated scf accuracy    <       0.00000912 Ry

     total magnetization       =     1.06 Bohr mag/cell
     absolute magnetization    =     1.23 Bohr mag/cell

     iteration #  8     ecut=    40.42 Ry     beta=0.10
     Davidson diagonalization with overlap
     ethr =  2.29E-09,  avg # of iterations =  3.0

     negative rho (up, down):  1.190E-02 1.197E-02
 
     Magnetic moment per site:
     atom:    1    charge:    3.1244    magn:   -0.0002    constr:    0.0000
     atom:    2    charge:    2.0897    magn:    0.0002    constr:    0.0000
     atom:    3    charge:    3.1198    magn:   -0.0000    constr:    0.0000
     atom:    4    charge:    2.0867    magn:   -0.0001    constr:    0.0000
     atom:    5    charge:    3.1161    magn:   -0.0003    constr:    0.0000
     atom:    6    charge:    2.0795    magn:    0.0021    constr:    0.0000
     atom:    7    charge:    3.1167    magn:   -0.0052    constr:    0.0000
     atom:    8    charge:    2.0793    magn:    0.0248    constr:    0.0000
     atom:    9    charge:    3.1244    magn:   -0.0002    constr:    0.0000
     atom:   10    charge:    2.0898    magn:    0.0002    constr:    0.0000
     atom:   11    charge:    3.1198    magn:   -0.0000    constr:    0.0000
     atom:   12    charge:    2.0870    magn:   -0.0000    constr:    0.0000
     atom:   13    charge:    3.1150    magn:   -0.0002    constr:    0.0000
     atom:   14    charge:    2.0939    magn:    0.0022    constr:    0.0000
     atom:   15    charge:    3.1184    magn:   -0.0008    constr:    0.0000
     atom:   16    charge:    2.0828    magn:    0.0047    constr:    0.0000
     atom:   17    charge:    2.0624    magn:    0.0011    constr:    0.0000
     atom:   18    charge:    3.1239    magn:   -0.0000    constr:    0.0000
     atom:   19    charge:    2.0875    magn:    0.0000    constr:    0.0000
     atom:   20    charge:    2.0847    magn:    0.0001    constr:    0.0000
     atom:   21    charge:    2.0847    magn:    0.0001    constr:    0.0000
     atom:   22    charge:    3.1199    magn:    0.0000    constr:    0.0000
     atom:   23    charge:    2.0908    magn:    0.0003    constr:    0.0000
     atom:   24    charge:    2.0754    magn:   -0.0000    constr:    0.0000
     atom:   25    charge:    2.0867    magn:    0.0000    constr:    0.0000
     atom:   26    charge:    3.1127    magn:   -0.0003    constr:    0.0000
     atom:   27    charge:    2.0803    magn:    0.0026    constr:    0.0000
     atom:   28    charge:    2.0839    magn:    0.0007    constr:    0.0000
     atom:   29    charge:    2.0860    magn:    0.0009    constr:    0.0000
     atom:   30    charge:    3.1171    magn:   -0.0008    constr:    0.0000
     atom:   31    charge:    2.0825    magn:    0.0006    constr:    0.0000
     atom:   32    charge:    2.0829    magn:    0.0065    constr:    0.0000
     atom:   33    charge:    2.0624    magn:    0.0011    constr:    0.0000
     atom:   34    charge:    3.1239    magn:   -0.0000    constr:    0.0000
     atom:   35    charge:    2.0876    magn:    0.0000    constr:    0.0000
     atom:   36    charge:    2.0847    magn:    0.0001    constr:    0.0000
     atom:   37    charge:    2.0847    magn:    0.0001    constr:    0.0000
     atom:   38    charge:    3.1200    magn:    0.0000    constr:    0.0000
     atom:   39    charge:    2.0839    magn:    0.0002    constr:    0.0000
     atom:   40    charge:    2.0756    magn:   -0.0001    constr:    0.0000
     atom:   41    charge:    2.0870    magn:   -0.0000    constr:    0.0000
     atom:   42    charge:    3.1151    magn:   -0.0002    constr:    0.0000
     atom:   43    charge:    2.0803    magn:    0.0032    constr:    0.0000
     atom:   44    charge:    2.0851    magn:    0.0010    constr:    0.0000
     atom:   45    charge:    2.0858    magn:    0.0005    constr:    0.0000
     atom:   46    charge:    3.1148    magn:   -0.0007    constr:    0.0000
     atom:   47    charge:    2.0807    magn:    0.0046    constr:    0.0000
     atom:   48    charge:    2.0837    magn:    0.0136    constr:    0.0000
     atom:   49    charge:    2.0517    magn:    0.2394    constr:    0.0000
     atom:   50    charge:    0.6733    magn:    0.0549    constr:    0.0000
     atom:   51    charge:    0.4216    magn:    0.0009    constr:    0.0000
     atom:   52    charge:    0.4229    magn:    0.0006    constr:    0.0000
     atom:   53    charge:    0.3674    magn:    0.0235    constr:    0.0000
     atom:   54    charge:    0.4308    magn:    0.0008    constr:    0.0000

     total cpu time spent up to now is     2808.5 secs

     total energy              =   -3021.14966134 Ry
     Harris-Foulkes estimate   =   -3021.14966162 Ry
     estimated scf accuracy    <       0.00000295 Ry

     total magnetization       =     1.06 Bohr mag/cell
     absolute magnetization    =     1.23 Bohr mag/cell

     iteration #  9     ecut=    40.42 Ry     beta=0.10
     Davidson diagonalization with overlap
     ethr =  7.42E-10,  avg # of iterations =  3.0

     negative rho (up, down):  1.190E-02 1.197E-02
 
     Magnetic moment per site:
     atom:    1    charge:    3.1244    magn:   -0.0002    constr:    0.0000
     atom:    2    charge:    2.0897    magn:    0.0001    constr:    0.0000
     atom:    3    charge:    3.1198    magn:   -0.0000    constr:    0.0000
     atom:    4    charge:    2.0867    magn:   -0.0001    constr:    0.0000
     atom:    5    charge:    3.1161    magn:   -0.0003    constr:    0.0000
     atom:    6    charge:    2.0795    magn:    0.0021    constr:    0.0000
     atom:    7    charge:    3.1167    magn:   -0.0052    constr:    0.0000
     atom:    8    charge:    2.0793    magn:    0.0248    constr:    0.0000
     atom:    9    charge:    3.1244    magn:   -0.0002    constr:    0.0000
     atom:   10    charge:    2.0898    magn:    0.0002    constr:    0.0000
     atom:   11    charge:    3.1198    magn:   -0.0000    constr:    0.0000
     atom:   12    charge:    2.0870    magn:   -0.0000    constr:    0.0000
     atom:   13    charge:    3.1150    magn:   -0.0002    constr:    0.0000
     atom:   14    charge:    2.0939    magn:    0.0022    constr:    0.0000
     atom:   15    charge:    3.1184    magn:   -0.0008    constr:    0.0000
     atom:   16    charge:    2.0828    magn:    0.0047    constr:    0.0000
     atom:   17    charge:    2.0624    magn:    0.0010    constr:    0.0000
     atom:   18    charge:    3.1239    magn:   -0.0000    constr:    0.0000
     atom:   19    charge:    2.0875    magn:    0.0000    constr:    0.0000
     atom:   20    charge:    2.0847    magn:    0.0001    constr:    0.0000
     atom:   21    charge:    2.0847    magn:    0.0001    constr:    0.0000
     atom:   22    charge:    3.1199    magn:    0.0000    constr:    0.0000
     atom:   23    charge:    2.0908    magn:    0.0003    constr:    0.0000
     atom:   24    charge:    2.0754    magn:   -0.0000    constr:    0.0000
     atom:   25    charge:    2.0867    magn:    0.0000    constr:    0.0000
     atom:   26    charge:    3.1127    magn:   -0.0003    constr:    0.0000
     atom:   27    charge:    2.0803    magn:    0.0027    constr:    0.0000
     atom:   28    charge:    2.0839    magn:    0.0008    constr:    0.0000
     atom:   29    charge:    2.0860    magn:    0.0009    constr:    0.0000
     atom:   30    charge:    3.1171    magn:   -0.0008    constr:    0.0000
     atom:   31    charge:    2.0825    magn:    0.0006    constr:    0.0000
     atom:   32    charge:    2.0829    magn:    0.0065    constr:    0.0000
     atom:   33    charge:    2.0624    magn:    0.0010    constr:    0.0000
     atom:   34    charge:    3.1239    magn:   -0.0000    constr:    0.0000
     atom:   35    charge:    2.0876    magn:    0.0000    constr:    0.0000
     atom:   36    charge:    2.0847    magn:    0.0001    constr:    0.0000
     atom:   37    charge:    2.0847    magn:    0.0001    constr:    0.0000
     atom:   38    charge:    3.1200    magn:    0.0000    constr:    0.0000
     atom:   39    charge:    2.0839    magn:    0.0002    constr:    0.0000
     atom:   40    charge:    2.0756    magn:   -0.0001    constr:    0.0000
     atom:   41    charge:    2.0870    magn:   -0.0000    constr:    0.0000
     atom:   42    charge:    3.1151    magn:   -0.0002    constr:    0.0000
     atom:   43    charge:    2.0803    magn:    0.0032    constr:    0.0000
     atom:   44    charge:    2.0851    magn:    0.0010    constr:    0.0000
     atom:   45    charge:    2.0858    magn:    0.0005    constr:    0.0000
     atom:   46    charge:    3.1147    magn:   -0.0007    constr:    0.0000
     atom:   47    charge:    2.0806    magn:    0.0046    constr:    0.0000
     atom:   48    charge:    2.0837    magn:    0.0135    constr:    0.0000
     atom:   49    charge:    2.0517    magn:    0.2394    constr:    0.0000
     atom:   50    charge:    0.6732    magn:    0.0549    constr:    0.0000
     atom:   51    charge:    0.4217    magn:    0.0009    constr:    0.0000
     atom:   52    charge:    0.4229    magn:    0.0006    constr:    0.0000
     atom:   53    charge:    0.3674    magn:    0.0235    constr:    0.0000
     atom:   54    charge:    0.4308    magn:    0.0008    constr:    0.0000

     total cpu time spent up to now is     3046.6 secs

     total energy              =   -3021.14966159 Ry
     Harris-Foulkes estimate   =   -3021.14966161 Ry
     estimated scf accuracy    <       0.00000097 Ry

     total magnetization       =     1.06 Bohr mag/cell
     absolute magnetization    =     1.23 Bohr mag/cell

     iteration # 10     ecut=    40.42 Ry     beta=0.10
     Davidson diagonalization with overlap
     ethr =  2.45E-10,  avg # of iterations =  3.0

     negative rho (up, down):  1.190E-02 1.197E-02
 
     Magnetic moment per site:
     atom:    1    charge:    3.1244    magn:   -0.0001    constr:    0.0000
     atom:    2    charge:    2.0897    magn:    0.0001    constr:    0.0000
     atom:    3    charge:    3.1198    magn:   -0.0000    constr:    0.0000
     atom:    4    charge:    2.0867    magn:   -0.0001    constr:    0.0000
     atom:    5    charge:    3.1161    magn:   -0.0003    constr:    0.0000
     atom:    6    charge:    2.0795    magn:    0.0022    constr:    0.0000
     atom:    7    charge:    3.1167    magn:   -0.0052    constr:    0.0000
     atom:    8    charge:    2.0793    magn:    0.0248    constr:    0.0000
     atom:    9    charge:    3.1244    magn:   -0.0001    constr:    0.0000
     atom:   10    charge:    2.0898    magn:    0.0001    constr:    0.0000
     atom:   11    charge:    3.1198    magn:   -0.0000    constr:    0.0000
     atom:   12    charge:    2.0871    magn:   -0.0000    constr:    0.0000
     atom:   13    charge:    3.1150    magn:   -0.0002    constr:    0.0000
     atom:   14    charge:    2.0939    magn:    0.0022    constr:    0.0000
     atom:   15    charge:    3.1184    magn:   -0.0008    constr:    0.0000
     atom:   16    charge:    2.0828    magn:    0.0047    constr:    0.0000
     atom:   17    charge:    2.0624    magn:    0.0007    constr:    0.0000
     atom:   18    charge:    3.1239    magn:   -0.0000    constr:    0.0000
     atom:   19    charge:    2.0875    magn:    0.0000    constr:    0.0000
     atom:   20    charge:    2.0847    magn:    0.0001    constr:    0.0000
     atom:   21    charge:    2.0847    magn:    0.0001    constr:    0.0000
     atom:   22    charge:    3.1199    magn:    0.0000    constr:    0.0000
     atom:   23    charge:    2.0908    magn:    0.0003    constr:    0.0000
     atom:   24    charge:    2.0754    magn:   -0.0000    constr:    0.0000
     atom:   25    charge:    2.0867    magn:    0.0000    constr:    0.0000
     atom:   26    charge:    3.1127    magn:   -0.0003    constr:    0.0000
     atom:   27    charge:    2.0803    magn:    0.0027    constr:    0.0000
     atom:   28    charge:    2.0839    magn:    0.0008    constr:    0.0000
     atom:   29    charge:    2.0860    magn:    0.0009    constr:    0.0000
     atom:   30    charge:    3.1171    magn:   -0.0008    constr:    0.0000
     atom:   31    charge:    2.0825    magn:    0.0006    constr:    0.0000
     atom:   32    charge:    2.0829    magn:    0.0065    constr:    0.0000
     atom:   33    charge:    2.0624    magn:    0.0008    constr:    0.0000
     atom:   34    charge:    3.1239    magn:   -0.0000    constr:    0.0000
     atom:   35    charge:    2.0875    magn:    0.0000    constr:    0.0000
     atom:   36    charge:    2.0847    magn:    0.0001    constr:    0.0000
     atom:   37    charge:    2.0847    magn:    0.0001    constr:    0.0000
     atom:   38    charge:    3.1200    magn:    0.0000    constr:    0.0000
     atom:   39    charge:    2.0839    magn:    0.0002    constr:    0.0000
     atom:   40    charge:    2.0756    magn:   -0.0001    constr:    0.0000
     atom:   41    charge:    2.0870    magn:   -0.0000    constr:    0.0000
     atom:   42    charge:    3.1151    magn:   -0.0003    constr:    0.0000
     atom:   43    charge:    2.0803    magn:    0.0032    constr:    0.0000
     atom:   44    charge:    2.0851    magn:    0.0010    constr:    0.0000
     atom:   45    charge:    2.0858    magn:    0.0006    constr:    0.0000
     atom:   46    charge:    3.1148    magn:   -0.0007    constr:    0.0000
     atom:   47    charge:    2.0807    magn:    0.0046    constr:    0.0000
     atom:   48    charge:    2.0837    magn:    0.0135    constr:    0.0000
     atom:   49    charge:    2.0518    magn:    0.2393    constr:    0.0000
     atom:   50    charge:    0.6732    magn:    0.0549    constr:    0.0000
     atom:   51    charge:    0.4216    magn:    0.0009    constr:    0.0000
     atom:   52    charge:    0.4229    magn:    0.0006    constr:    0.0000
     atom:   53    charge:    0.3675    magn:    0.0235    constr:    0.0000
     atom:   54    charge:    0.4309    magn:    0.0007    constr:    0.0000

     total cpu time spent up to now is     3286.6 secs

     End of self-consistent calculation

 ------ SPIN UP ------------


          k = 0.0000 0.0000 0.0000 ( 34665 PWs)   bands (ev):

   -58.3027 -58.2677 -57.3847 -57.3790 -57.3460 -57.3083 -57.2569 -57.0877
   -57.0614 -57.0559 -57.0174 -56.9189 -56.8937 -56.8836 -56.7985 -56.7600
   -34.7479 -34.5713 -34.5425 -34.5093 -34.4143 -34.3575 -33.8797 -33.8673
   -33.7492 -33.6762 -33.6343 -33.5914 -33.5591 -33.5522 -33.5463 -33.5397
   -33.5281 -33.5133 -33.4879 -33.4864 -33.4720 -33.4699 -33.4676 -33.4484
   -33.3382 -33.3334 -33.3286 -33.3260 -33.3129 -33.2850 -33.2796 -33.2596
   -33.2392 -33.2340 -33.2336 -33.2242 -33.1950 -33.1736 -33.1386 -33.1374
   -33.0989 -33.0764 -33.0475 -33.0262 -33.0128 -32.9873 -32.9458 -32.8798
   -18.4680 -18.0352 -17.8108 -17.7104 -17.5498 -17.5284 -17.4843 -17.3827
   -17.3560 -17.2560 -17.0438 -17.0232 -17.0153 -16.9827 -16.9221 -16.8532
   -16.8340 -16.7967 -16.7387 -16.7063 -16.6877 -16.6552 -16.5916 -16.5873
   -16.4646 -16.4168 -16.3979 -16.3599 -16.3242 -16.1452 -16.0844 -15.5981
   -15.5372 -11.2337  -6.0465  -5.4954  -5.2812  -5.2013  -5.0924  -4.9901
    -4.9804  -4.9146  -4.8772  -4.7311  -4.6486  -4.5982  -4.5842  -4.5088
    -4.4275  -4.4124  -4.3510  -4.3150  -4.2351  -4.2177  -4.1997  -4.1407
    -4.0296  -4.0230  -3.9793  -3.9070  -3.8909  -3.8847  -3.8821  -3.8361
    -3.7752  -3.7583  -3.7504  -3.6515  -3.6305  -3.5810  -3.5408  -3.5264
    -3.5213  -3.4175  -3.4064  -3.3588  -3.2713  -3.2314  -3.1866  -3.0855
    -2.9214  -2.8953  -2.8494  -2.8023  -2.7442  -2.6922  -2.6708  -2.6607
    -2.6318  -2.5351  -2.4854  -2.4372  -2.3762  -2.3309  -2.2460  -2.2276
    -2.2232  -2.1584  -2.0680  -2.0395  -1.9968  -1.9576  -1.9281  -1.8971
    -1.8518  -1.7355  -1.6915  -1.6660  -1.6387  -1.6286  -1.5840  -1.5017
    -1.4190  -1.3652  -1.3509  -1.3358  -1.3124  -1.2670  -1.2215  -1.1688
    -1.1581  -1.1088  -1.1061  -1.0899  -1.0611  -0.9779  -0.8715  -0.8295
    -0.8066  -0.6914  -0.6852  -0.6223  -0.5504  -0.5090  -0.4813  -0.1847
     1.0281   1.1249   1.4197   1.6981   1.8063   1.9243   1.9717   2.0183
     2.0485   2.1358   2.2125   2.2331   2.2794   2.3981   2.4734   2.4871
     2.4943   2.5214   2.6240   2.6693   2.6742   2.6905   2.7130   2.8298
     2.8447   2.8892   2.9036   2.9562   2.9712   3.0242   3.0330   3.0544
     3.1084   3.1633   3.2018   3.2028   3.2504   3.2585   3.4141   3.4484
     3.4810   3.5233   3.6004   3.6291   3.6734   3.7171   3.8315   3.9588
     4.1066   4.1380   4.3292   4.4753   4.5970   4.7093   4.7872   4.8375
     5.0879   5.1356   5.2121   5.3561   5.4001   5.4061   5.4266   5.4357
     5.4481   5.5253   5.5573   5.6649   5.7214   5.7368   5.9089   5.9197
     5.9582   6.0777   6.0968   6.1391   6.2195   6.2986   6.4249   6.4924
     6.5453   6.5653   6.7849   6.8164   7.2134   7.9173   8.1545   8.1790
     8.3448   8.3915   8.6426   8.7136   8.7547   8.9668   9.1450   9.2474
     9.2913   9.4469   9.6187

          k = 0.0000 0.0280 0.0000 ( 34717 PWs)   bands (ev):

   -58.3004 -58.2701 -57.3830 -57.3773 -57.3483 -57.3093 -57.2565 -57.0875
   -57.0614 -57.0542 -57.0195 -56.9165 -56.8939 -56.8860 -56.7960 -56.7625
   -34.7225 -34.5693 -34.5445 -34.5031 -34.4209 -34.3845 -33.8543 -33.8419
   -33.7284 -33.6699 -33.6281 -33.5888 -33.5660 -33.5486 -33.5406 -33.5324
   -33.5273 -33.5151 -33.5119 -33.4948 -33.4869 -33.4703 -33.4618 -33.4420
   -33.3324 -33.3266 -33.3133 -33.3108 -33.3071 -33.3016 -33.2771 -33.2579
   -33.2439 -33.2358 -33.2343 -33.2236 -33.1999 -33.1969 -33.1447 -33.1315
   -33.1108 -33.0730 -33.0537 -33.0262 -33.0125 -32.9921 -32.9732 -32.9085
   -18.4097 -17.9755 -17.7608 -17.6802 -17.6048 -17.5052 -17.4353 -17.3707
   -17.3248 -17.2866 -17.0948 -17.0020 -16.9940 -16.9718 -16.9251 -16.8744
   -16.7948 -16.7722 -16.7595 -16.7343 -16.7057 -16.6801 -16.6166 -16.5651
   -16.4787 -16.4421 -16.4047 -16.3832 -16.3563 -16.1640 -16.1260 -15.6121
   -15.5627 -11.2346  -5.9611  -5.4112  -5.2019  -5.1307  -5.0223  -4.9534
    -4.9237  -4.8942  -4.8062  -4.7279  -4.6670  -4.6522  -4.5252  -4.5142
    -4.4151  -4.3754  -4.3615  -4.3217  -4.2563  -4.2152  -4.1989  -4.1769
    -4.0982  -4.0668  -4.0178  -4.0030  -3.9769  -3.9696  -3.9206  -3.8582
    -3.8143  -3.7993  -3.7523  -3.7139  -3.6919  -3.6589  -3.5546  -3.4371
    -3.4015  -3.3201  -3.3064  -3.2989  -3.2663  -3.1227  -3.1028  -2.9432
    -2.9023  -2.8808  -2.8016  -2.7468  -2.7427  -2.7195  -2.6876  -2.6499
    -2.5965  -2.5159  -2.4563  -2.4416  -2.4144  -2.2778  -2.2537  -2.2213
    -2.2105  -2.1513  -2.1428  -2.0263  -1.9827  -1.9557  -1.9239  -1.9116
    -1.8715  -1.7656  -1.7562  -1.7171  -1.6780  -1.6083  -1.5806  -1.5701
    -1.4998  -1.4586  -1.3890  -1.3765  -1.3732  -1.3565  -1.2829  -1.2695
    -1.2332  -1.1731  -1.1418  -1.0680  -0.9915  -0.9514  -0.9253  -0.8951
    -0.8746  -0.8370  -0.7277  -0.5975  -0.5711  -0.5574  -0.5373  -0.2258
     1.1607   1.1659   1.4210   1.8344   1.8787   1.8962   1.9288   2.0052
     2.0637   2.0817   2.3028   2.3109   2.3438   2.4608   2.4968   2.5173
     2.5251   2.5469   2.5518   2.6003   2.7173   2.7350   2.8051   2.8165
     2.8384   2.9030   2.9393   2.9677   2.9842   2.9970   3.0181   3.0690
     3.0893   3.1255   3.1792   3.2377   3.2501   3.3304   3.4389   3.4797
     3.5156   3.5463   3.5679   3.5914   3.6466   3.6700   3.7898   3.9109
     4.0609   4.2052   4.2855   4.5287   4.7077   4.7106   4.8173   4.9125
     5.1147   5.1760   5.2585   5.3056   5.3756   5.4149   5.4376   5.4810
     5.5098   5.5342   5.5519   5.6642   5.7071   5.7166   5.8254   5.8867
     5.9482   5.9945   6.0373   6.0539   6.1835   6.2536   6.3913   6.4364
     6.4539   6.5554   6.7266   6.8192   7.3194   7.4555   7.9937   8.0672
     8.3446   8.4998   8.5257   8.7021   8.7788   8.9888   9.1091   9.3076
     9.3691   9.4451   9.5229

          k = 0.0000 0.0560 0.0000 ( 34721 PWs)   bands (ev):

   -58.2940 -58.2765 -57.3796 -57.3722 -57.3547 -57.3116 -57.2557 -57.0871
   -57.0619 -57.0496 -57.0244 -56.9101 -56.8944 -56.8924 -56.7893 -56.7693
   -34.6526 -34.5641 -34.5496 -34.4859 -34.4576 -34.4384 -33.7845 -33.7725
   -33.6778 -33.6530 -33.6114 -33.5892 -33.5884 -33.5825 -33.5679 -33.5645
   -33.5365 -33.5273 -33.5102 -33.4916 -33.4683 -33.4636 -33.4601 -33.4078
   -33.3670 -33.3224 -33.3199 -33.3048 -33.2785 -33.2686 -33.2533 -33.2532
   -33.2521 -33.2436 -33.2405 -33.2222 -33.2152 -33.2064 -33.1620 -33.1303
   -33.1152 -33.0703 -33.0701 -33.0471 -33.0257 -33.0124 -33.0042 -32.9789
   -18.2485 -17.8108 -17.7885 -17.6310 -17.5975 -17.4075 -17.3884 -17.3702
   -17.3045 -17.2624 -17.2280 -17.0415 -16.9841 -16.9180 -16.9144 -16.8970
   -16.8379 -16.8137 -16.7253 -16.7019 -16.6964 -16.6707 -16.6200 -16.5579
   -16.5113 -16.5059 -16.4498 -16.4380 -16.4115 -16.2298 -16.2064 -15.6406
   -15.6164 -11.2363  -5.7217  -5.1784  -5.0425  -4.9858  -4.9498  -4.9125
    -4.8453  -4.8293  -4.8120  -4.7677  -4.7300  -4.5506  -4.5050  -4.4623
    -4.3906  -4.3895  -4.3479  -4.3169  -4.3026  -4.2844  -4.2463  -4.2101
    -4.2056  -4.1890  -4.1279  -4.0575  -4.0145  -3.9802  -3.9627  -3.9075
    -3.8862  -3.8127  -3.7812  -3.7036  -3.6491  -3.5417  -3.4094  -3.4020
    -3.3619  -3.2838  -3.2442  -3.1342  -3.0867  -3.0682  -3.0364  -3.0080
    -2.9648  -2.9544  -2.8235  -2.7936  -2.7367  -2.6925  -2.6473  -2.5550
    -2.4800  -2.4718  -2.4377  -2.3515  -2.2988  -2.2933  -2.2183  -2.1848
    -2.1500  -2.1357  -2.1161  -2.0834  -2.0507  -2.0068  -1.9919  -1.9661
    -1.9301  -1.8882  -1.8777  -1.8575  -1.8088  -1.7484  -1.6533  -1.6040
    -1.5921  -1.5746  -1.5089  -1.4701  -1.4483  -1.4427  -1.4279  -1.3733
    -1.2885  -1.2677  -1.2113  -1.1896  -1.0861  -0.9985  -0.9744  -0.9409
    -0.8563  -0.8328  -0.7343  -0.7125  -0.6173  -0.5788  -0.5611  -0.3291
     1.2897   1.4314   1.5040   1.7253   1.8020   1.8950   1.9656   2.0634
     2.1439   2.2797   2.2847   2.3365   2.4206   2.4898   2.5091   2.5351
     2.5761   2.6154   2.6658   2.7126   2.7563   2.7736   2.8047   2.8531
     2.8686   2.8874   2.8972   2.9669   3.0134   3.0315   3.0405   3.0672
     3.1284   3.1616   3.1850   3.2635   3.3117   3.3430   3.3899   3.4379
     3.4754   3.4912   3.5668   3.6150   3.6779   3.6895   3.7290   3.8051
     3.9277   4.1628   4.3277   4.6560   4.7463   4.8466   4.9383   5.0761
     5.0822   5.1793   5.2859   5.3373   5.4056   5.4410   5.4743   5.5032
     5.5037   5.5654   5.5850   5.6514   5.6565   5.7570   5.7757   5.8150
     5.8476   5.8710   5.8919   5.9347   6.1210   6.1607   6.2994   6.3707
     6.4270   6.4454   6.7227   6.7512   6.9982   7.2087   7.6123   7.7441
     8.2029   8.3792   8.7074   8.8239   8.8375   8.8863   9.1798   9.3447
     9.4189   9.6044   9.7089

          k = 0.0000-0.0840 0.0000 ( 34678 PWs)   bands (ev):

   -58.2859 -58.2846 -57.3780 -57.3658 -57.3615 -57.3128 -57.2553 -57.0869
   -57.0622 -57.0463 -57.0278 -56.9016 -56.9009 -56.8946 -56.7825 -56.7761
   -34.5577 -34.5568 -34.5558 -34.5552 -34.4628 -34.4617 -33.7007 -33.6875
   -33.6839 -33.6451 -33.6438 -33.6380 -33.6064 -33.5902 -33.5862 -33.5754
   -33.5349 -33.5292 -33.5096 -33.5008 -33.4654 -33.4588 -33.3970 -33.3819
   -33.3772 -33.3613 -33.3238 -33.3192 -33.3016 -33.2708 -33.2577 -33.2488
   -33.2471 -33.2466 -33.2221 -33.2196 -33.1711 -33.1468 -33.1459 -33.1381
   -33.1244 -33.1221 -33.0932 -33.0925 -33.0260 -33.0178 -33.0149 -33.0090
   -18.0235 -18.0227 -17.5909 -17.5817 -17.5079 -17.4842 -17.4839 -17.3936
   -17.2566 -17.2156 -17.1280 -17.1026 -17.0709 -17.0357 -16.8894 -16.8433
   -16.8063 -16.8060 -16.8046 -16.6732 -16.6113 -16.6080 -16.6016 -16.5776
   -16.5460 -16.5230 -16.5056 -16.4735 -16.4644 -16.2722 -16.2478 -15.6499
   -15.6499 -11.2372  -5.3822  -5.3819  -4.9085  -4.8859  -4.8849  -4.8722
    -4.8501  -4.7684  -4.7568  -4.7176  -4.6570  -4.6026  -4.5653  -4.5586
    -4.4896  -4.4676  -4.4444  -4.3902  -4.3743  -4.2641  -4.2520  -4.2442
    -4.1569  -4.1153  -4.0650  -4.0345  -3.9926  -3.9117  -3.8853  -3.8808
    -3.7792  -3.7542  -3.7134  -3.6716  -3.6617  -3.6471  -3.6215  -3.4108
    -3.3586  -3.3469  -3.1489  -3.0755  -3.0697  -3.0319  -2.9275  -2.9250
    -2.9161  -2.8480  -2.8250  -2.7901  -2.7718  -2.6918  -2.6677  -2.6421
    -2.5207  -2.5012  -2.4184  -2.4020  -2.3939  -2.3720  -2.3089  -2.2411
    -2.2251  -2.1636  -2.1170  -2.0548  -2.0035  -1.9779  -1.9738  -1.9685
    -1.9641  -1.9400  -1.8352  -1.7965  -1.7763  -1.7263  -1.6902  -1.6545
    -1.6386  -1.6080  -1.5892  -1.5148  -1.5056  -1.4632  -1.4437  -1.4202
    -1.3799  -1.3291  -1.2754  -1.1760  -1.1357  -1.1142  -1.0883  -1.0569
    -0.8359  -0.8126  -0.6152  -0.6062  -0.6011  -0.5930  -0.5441  -0.4955
     1.4859   1.4886   1.6382   1.6388   1.7178   1.7187   2.0888   2.0896
     2.1528   2.2077   2.3784   2.4131   2.4497   2.4958   2.5435   2.5510
     2.6581   2.6700   2.6794   2.6931   2.7450   2.7556   2.8130   2.8159
     2.9158   2.9509   2.9945   3.0222   3.0272   3.0301   3.0366   3.0400
     3.0473   3.2285   3.2380   3.2687   3.3011   3.3432   3.3694   3.3995
     3.4369   3.4517   3.5066   3.6288   3.6991   3.7382   3.7527   3.7947
     3.8493   4.0398   4.3802   4.7603   4.8359   4.8695   4.8702   5.0559
     5.1478   5.2274   5.3181   5.3339   5.3686   5.4115   5.4720   5.5468
     5.5683   5.6001   5.6029   5.6903   5.7030   5.7222   5.7327   5.7463
     5.7715   5.8123   5.8455   5.9461   6.0283   6.1612   6.2829   6.3860
     6.4634   6.4791   6.5881   6.6088   6.9325   6.9821   7.4519   7.6121
     8.0352   8.2416   8.7162   8.9486   9.1305   9.2182   9.3491   9.3506
     9.4438   9.6172   9.7040

          k = 0.0253 0.0000 0.0000 ( 34707 PWs)   bands (ev):

   -58.3027 -58.2677 -57.3843 -57.3794 -57.3460 -57.3083 -57.2569 -57.0877
   -57.0611 -57.0561 -57.0175 -56.9189 -56.8937 -56.8836 -56.7985 -56.7600
   -34.7483 -34.5713 -34.5426 -34.5085 -34.4144 -34.3576 -33.8799 -33.8693
   -33.7494 -33.6684 -33.6342 -33.5915 -33.5625 -33.5525 -33.5485 -33.5400
   -33.5282 -33.5166 -33.4875 -33.4864 -33.4709 -33.4681 -33.4660 -33.4486
   -33.3382 -33.3344 -33.3265 -33.3252 -33.3098 -33.2850 -33.2796 -33.2608
   -33.2446 -33.2336 -33.2334 -33.2241 -33.1951 -33.1738 -33.1374 -33.1370
   -33.0984 -33.0765 -33.0476 -33.0303 -33.0118 -32.9873 -32.9459 -32.8799
   -18.4234 -17.9973 -17.7890 -17.7830 -17.5596 -17.4552 -17.4475 -17.3820
   -17.3605 -17.3197 -17.1051 -17.0367 -17.0114 -16.9775 -16.9249 -16.8906
   -16.8559 -16.7928 -16.7630 -16.7409 -16.6370 -16.5949 -16.5853 -16.5775
   -16.4628 -16.4419 -16.3985 -16.3818 -16.3217 -16.1435 -16.0845 -15.5970
   -15.5371 -11.2336  -5.9216  -5.3889  -5.2131  -5.1978  -5.0725  -5.0227
    -4.9685  -4.9183  -4.8780  -4.7331  -4.6965  -4.5820  -4.5783  -4.5107
    -4.4830  -4.4073  -4.3261  -4.2634  -4.2567  -4.2015  -4.1942  -4.1041
    -4.0281  -3.9955  -3.9884  -3.9138  -3.8981  -3.8564  -3.8478  -3.8138
    -3.7643  -3.7229  -3.6695  -3.6004  -3.5635  -3.5521  -3.5219  -3.5013
    -3.4448  -3.4136  -3.3171  -3.3142  -3.2720  -3.2562  -3.2360  -3.1497
    -3.0111  -2.9007  -2.8366  -2.8164  -2.7707  -2.7415  -2.6991  -2.6686
    -2.6101  -2.5564  -2.5384  -2.4973  -2.4331  -2.3799  -2.3309  -2.2643
    -2.2456  -2.1967  -2.0885  -2.0438  -2.0026  -1.9539  -1.8813  -1.8487
    -1.8254  -1.7959  -1.7105  -1.6226  -1.5766  -1.5690  -1.5429  -1.5068
    -1.4754  -1.4309  -1.4266  -1.3907  -1.3319  -1.3014  -1.2897  -1.2190
    -1.1842  -1.1535  -1.1038  -1.0786  -1.0395  -1.0200  -0.9542  -0.9093
    -0.8324  -0.8240  -0.6686  -0.6417  -0.6046  -0.5869  -0.5554  -0.2442
     1.1107   1.1253   1.4188   1.7857   1.8219   1.9070   1.9334   2.0525
     2.0885   2.1203   2.2068   2.2476   2.3409   2.3865   2.4446   2.5085
     2.5308   2.5994   2.6315   2.6508   2.6811   2.7061   2.8151   2.8292
     2.8493   2.8527   2.8942   2.9033   2.9484   3.0301   3.0784   3.1371
     3.1937   3.2055   3.2187   3.2204   3.2449   3.3122   3.4099   3.4454
     3.4916   3.5471   3.5956   3.6376   3.7025   3.7674   3.7885   3.9121
     4.0551   4.1940   4.2673   4.4286   4.5842   4.6267   4.8126   4.8311
     4.9625   4.9871   5.0902   5.1740   5.3061   5.3197   5.4308   5.5281
     5.5609   5.7125   5.7440   5.9082   5.9163   5.9414   5.9638   5.9883
     6.0267   6.0358   6.0728   6.1723   6.2311   6.2640   6.4431   6.4989
     6.5461   6.6174   6.7429   6.8131   7.2592   7.6702   7.7590   8.0213
     8.2290   8.3022   8.3782   8.6905   8.7610   8.9685   9.1120   9.2188
     9.3977   9.4999   9.7787

          k = 0.0253 0.0280 0.0000 ( 34687 PWs)   bands (ev):

   -58.3004 -58.2701 -57.3826 -57.3777 -57.3483 -57.3093 -57.2565 -57.0875
   -57.0612 -57.0544 -57.0195 -56.9165 -56.8939 -56.8860 -56.7960 -56.7625
   -34.7229 -34.5694 -34.5445 -34.5023 -34.4208 -34.3846 -33.8545 -33.8439
   -33.7285 -33.6623 -33.6280 -33.5890 -33.5632 -33.5490 -33.5456 -33.5358
   -33.5278 -33.5161 -33.5144 -33.4943 -33.4870 -33.4643 -33.4621 -33.4426
   -33.3326 -33.3225 -33.3132 -33.3126 -33.3032 -33.3014 -33.2772 -33.2589
   -33.2482 -33.2352 -33.2343 -33.2252 -33.1995 -33.1969 -33.1429 -33.1315
   -33.1111 -33.0730 -33.0537 -33.0283 -33.0128 -32.9921 -32.9732 -32.9085
   -18.3660 -17.9389 -17.7715 -17.7354 -17.5190 -17.5167 -17.4086 -17.3639
   -17.3470 -17.3153 -17.1094 -17.0663 -16.9947 -16.9637 -16.9144 -16.8732
   -16.8263 -16.8008 -16.7915 -16.7293 -16.6664 -16.6626 -16.6095 -16.5459
   -16.4842 -16.4617 -16.4066 -16.4016 -16.3533 -16.1622 -16.1267 -15.6112
   -15.5628 -11.2345  -5.8367  -5.3055  -5.1400  -5.1240  -4.9893  -4.9523
    -4.9223  -4.9022  -4.8173  -4.6938  -4.6729  -4.6317  -4.5295  -4.4940
    -4.4353  -4.3975  -4.3092  -4.2903  -4.2401  -4.2090  -4.1801  -4.1515
    -4.1229  -4.0911  -4.0288  -3.9962  -3.9515  -3.9385  -3.8967  -3.8290
    -3.7925  -3.7826  -3.7204  -3.6891  -3.6484  -3.6111  -3.5232  -3.3996
    -3.3437  -3.3220  -3.3120  -3.2630  -3.2332  -3.1880  -3.1134  -3.0924
    -2.9261  -2.8910  -2.8366  -2.7757  -2.7461  -2.7075  -2.6757  -2.6359
    -2.6068  -2.5199  -2.4967  -2.4670  -2.4482  -2.3793  -2.3260  -2.3014
    -2.2248  -2.1852  -2.1253  -2.0609  -2.0109  -1.9503  -1.9336  -1.9055
[...]
    -1.7264  -1.5037  -1.4621  -1.4509  -1.4322  -1.3948  -1.3159  -1.1516
    -1.1413  -1.0845  -1.0670  -1.0512  -0.9676  -0.9078  -0.8684  -0.7841
    -0.7305  -0.7236  -0.6946  -0.6672  -0.5920  -0.5704  -0.5565   0.3048
     1.6048   1.6083   1.6209   1.6262   1.9686   1.9695   2.0984   2.0994
     2.2821   2.3028   2.3161   2.3978   2.4209   2.4909   2.5773   2.6369
     2.6588   2.7035   2.7869   2.8202   2.8772   2.9290   2.9511   2.9790
     2.9937   3.0021   3.0431   3.1011   3.1156   3.2125   3.2382   3.2472
     3.2629   3.2867   3.3441   3.3903   3.4038   3.4092   3.4655   3.4767
     3.4869   3.5147   3.5292   3.5834   3.6406   3.6573   3.7799   3.8809
     3.9167   3.9270   4.1436   4.1440   4.5943   4.6232   4.6456   4.7310
     4.8862   4.9023   4.9350   5.0851   5.1640   5.1690   5.1883   5.4497
     5.6768   5.6858   5.6970   5.9296   5.9349   5.9688   6.0193   6.0220
     6.0969   6.1091   6.1782   6.2693   6.2739   6.2816   6.3864   6.4637
     6.5027   6.6094   7.0724   7.2282   7.3382   7.3914   7.5547   7.5893
     7.7163   7.7684   7.9225   8.1106   8.2970   8.3440   8.4498   8.8691
     9.0071   9.0719   9.2123

          k =-0.0253 0.0280 0.0000 ( 34687 PWs)   bands (ev):

   -58.3006 -58.2703 -57.3827 -57.3777 -57.3483 -57.3094 -57.2573 -57.0916
   -57.0625 -57.0556 -57.0207 -56.9179 -56.9173 -56.8867 -56.7996 -56.7662
   -34.7230 -34.5696 -34.5447 -34.5025 -34.4209 -34.3847 -33.8545 -33.8439
   -33.7294 -33.6623 -33.6280 -33.5891 -33.5632 -33.5490 -33.5456 -33.5366
   -33.5286 -33.5161 -33.5144 -33.4944 -33.4879 -33.4648 -33.4637 -33.4449
   -33.3334 -33.3242 -33.3166 -33.3139 -33.3082 -33.3027 -33.2786 -33.2596
   -33.2489 -33.2359 -33.2358 -33.2269 -33.2096 -33.2001 -33.1627 -33.1322
   -33.1294 -33.0763 -33.0544 -33.0359 -33.0169 -32.9954 -32.9740 -32.9112
   -18.3658 -17.9366 -17.7712 -17.7291 -17.5183 -17.5118 -17.3706 -17.3637
   -17.3404 -17.3106 -17.1070 -17.0641 -16.9794 -16.9343 -16.8683 -16.8257
   -16.7875 -16.7454 -16.7280 -16.6646 -16.6580 -16.5779 -16.5391 -16.4806
   -16.4565 -16.4008 -16.3611 -16.3432 -16.1517 -16.1174 -15.8778 -15.6075
   -15.5589 -10.8329  -5.8366  -5.3052  -5.1391  -5.1209  -4.9891  -4.9481
    -4.9092  -4.8200  -4.6938  -4.6730  -4.6319  -4.5316  -4.4937  -4.4371
    -4.4036  -4.3089  -4.2856  -4.2456  -4.1988  -4.1783  -4.1371  -4.1225
    -4.0886  -4.0418  -4.0038  -3.9873  -3.9511  -3.9087  -3.8768  -3.7954
    -3.7816  -3.7234  -3.7189  -3.6254  -3.6189  -3.5800  -3.4987  -3.3890
    -3.3417  -3.3160  -3.2933  -3.2593  -3.2203  -3.1781  -3.1084  -3.0919
    -2.9159  -2.8785  -2.8183  -2.7737  -2.7173  -2.6825  -2.6700  -2.6130
    -2.5837  -2.5048  -2.4953  -2.4382  -2.4060  -2.3541  -2.2836  -2.2613
    -2.2093  -2.1882  -2.1000  -2.0383  -1.9552  -1.9366  -1.9120  -1.8463
    -1.8351  -1.7869  -1.7413  -1.6808  -1.6313  -1.5908  -1.5579  -1.5064
    -1.4724  -1.4315  -1.4026  -1.3765  -1.3577  -1.3419  -1.3102  -1.2863
    -1.2011  -1.1207  -1.0591  -1.0064  -0.9830  -0.9494  -0.9252  -0.8807
    -0.8388  -0.8161  -0.6276  -0.6057  -0.5815  -0.5181  -0.2611   0.3289
     1.1567   1.2503   1.4343   1.8236   1.8630   1.9302   1.9666   2.0341
     2.0451   2.1943   2.3051   2.3509   2.3923   2.4355   2.4588   2.5087
     2.5289   2.5531   2.5940   2.6544   2.7024   2.7266   2.7823   2.8366
     2.8814   2.9186   2.9351   2.9784   2.9955   3.0194   3.0454   3.0983
     3.1752   3.1959   3.2383   3.2635   3.2992   3.3414   3.4345   3.4697
     3.4997   3.5626   3.6163   3.6472   3.6685   3.7488   3.8260   3.8701
     4.0171   4.2134   4.2895   4.4406   4.6293   4.7274   4.8486   4.8657
     5.0062   5.0300   5.1174   5.2028   5.2457   5.3607   5.4650   5.5529
     5.6609   5.6994   5.7179   5.8076   5.8544   5.8878   5.9138   5.9362
     5.9712   5.9942   6.0689   6.1263   6.1797   6.2863   6.4028   6.4531
     6.4666   6.5846   6.7554   6.8114   7.3774   7.4880   7.7927   7.8903
     8.0918   8.2345   8.4898   8.5376   8.7856   8.8945   9.0858   9.3109
     9.3783   9.5293   9.6140

          k =-0.0253 0.0560 0.0000 ( 34699 PWs)   bands (ev):

   -58.2942 -58.2767 -57.3794 -57.3723 -57.3547 -57.3117 -57.2566 -57.0911
   -57.0630 -57.0510 -57.0256 -56.9185 -56.9109 -56.8932 -56.7929 -56.7729
   -34.6531 -34.5643 -34.5499 -34.4855 -34.4579 -34.4384 -33.7847 -33.7747
   -33.6786 -33.6470 -33.6113 -33.5877 -33.5837 -33.5827 -33.5713 -33.5645
   -33.5382 -33.5282 -33.5148 -33.4928 -33.4799 -33.4624 -33.4519 -33.4109
   -33.3683 -33.3214 -33.3178 -33.3089 -33.2805 -33.2710 -33.2546 -33.2545
   -33.2536 -33.2443 -33.2409 -33.2275 -33.2180 -33.2113 -33.1780 -33.1587
   -33.1160 -33.0734 -33.0711 -33.0479 -33.0329 -33.0192 -33.0075 -32.9817
   -18.2080 -17.7981 -17.7763 -17.6076 -17.5963 -17.4522 -17.3897 -17.3658
   -17.2448 -17.2375 -17.1999 -17.0541 -16.9444 -16.9155 -16.8773 -16.8364
   -16.7937 -16.7399 -16.7292 -16.7139 -16.6798 -16.5938 -16.5442 -16.5274
   -16.4962 -16.4374 -16.4073 -16.4026 -16.2140 -16.1982 -15.8766 -15.6362
   -15.6127 -10.8348  -5.6014  -5.0778  -5.0203  -4.9521  -4.9198  -4.8134
    -4.7914  -4.7541  -4.6839  -4.6692  -4.5221  -4.5053  -4.4422  -4.3916
    -4.3737  -4.3654  -4.3171  -4.2731  -4.2463  -4.2362  -4.2007  -4.1692
    -4.1283  -4.1177  -4.0521  -4.0158  -3.9900  -3.9507  -3.9241  -3.8864
    -3.8289  -3.8023  -3.7267  -3.6092  -3.5908  -3.5314  -3.4554  -3.3806
    -3.3621  -3.2885  -3.1840  -3.1568  -3.1208  -3.1081  -3.0557  -3.0206
    -2.9792  -2.9232  -2.8398  -2.7896  -2.7584  -2.7006  -2.6057  -2.5860
    -2.5211  -2.5064  -2.4537  -2.3878  -2.3723  -2.3141  -2.2963  -2.2549
    -2.1842  -2.1318  -2.1174  -2.0851  -2.0448  -2.0027  -1.9814  -1.9445
    -1.9273  -1.9020  -1.8891  -1.8424  -1.7639  -1.6985  -1.6860  -1.5897
    -1.5686  -1.5403  -1.5145  -1.4808  -1.4400  -1.4090  -1.3799  -1.3207
    -1.2854  -1.2184  -1.1513  -1.0299  -1.0003  -0.9659  -0.9336  -0.8534
    -0.7592  -0.7321  -0.7009  -0.6361  -0.6053  -0.5517  -0.3583   0.3097
     1.2910   1.4730   1.5683   1.7622   1.7776   1.9159   1.9827   2.0623
     2.2693   2.2800   2.3465   2.3828   2.4194   2.4915   2.5267   2.5523
     2.5769   2.6004   2.6580   2.7102   2.7252   2.7688   2.8114   2.8612
     2.8867   2.9217   2.9660   3.0112   3.0370   3.0504   3.0603   3.1139
     3.1633   3.2031   3.2223   3.2931   3.3219   3.3504   3.3821   3.4620
     3.5137   3.5388   3.6170   3.6386   3.6726   3.7312   3.7502   3.8037
     3.8997   4.1037   4.3968   4.5051   4.7202   4.8632   4.9143   4.9653
     4.9997   5.0941   5.1913   5.2120   5.3401   5.3920   5.4381   5.5326
     5.5684   5.6035   5.6561   5.7137   5.7431   5.8080   5.8244   5.8647
     5.9313   5.9469   5.9955   6.0943   6.1370   6.2152   6.3322   6.4350
     6.4603   6.4781   6.7220   6.7726   7.0754   7.2939   7.6716   7.8292
     8.0964   8.2362   8.3231   8.4953   8.7834   8.8964   9.0090   9.1810
     9.3798   9.5536   9.6470

          k =-0.0506 0.0280 0.0000 ( 34685 PWs)   bands (ev):

   -58.3006 -58.2703 -57.3818 -57.3785 -57.3483 -57.3094 -57.2573 -57.0916
   -57.0622 -57.0560 -57.0207 -56.9179 -56.9173 -56.8867 -56.7996 -56.7662
   -34.7238 -34.5696 -34.5447 -34.5009 -34.4209 -34.3848 -33.8549 -33.8480
   -33.7296 -33.6428 -33.6278 -33.5892 -33.5683 -33.5509 -33.5496 -33.5419
   -33.5288 -33.5235 -33.5133 -33.4942 -33.4880 -33.4649 -33.4526 -33.4460
   -33.3336 -33.3175 -33.3160 -33.3138 -33.3038 -33.3023 -33.2788 -33.2616
   -33.2588 -33.2359 -33.2350 -33.2298 -33.2097 -33.1996 -33.1587 -33.1322
   -33.1297 -33.0764 -33.0544 -33.0429 -33.0153 -32.9954 -32.9740 -32.9112
   -18.2574 -17.8593 -17.8469 -17.6963 -17.5830 -17.4509 -17.4333 -17.3397
   -17.3125 -17.2459 -17.1756 -17.0816 -16.9920 -16.9469 -16.9180 -16.8908
   -16.8055 -16.7627 -16.7516 -16.6916 -16.6286 -16.5449 -16.5179 -16.4847
   -16.4565 -16.4017 -16.3850 -16.3481 -16.1482 -16.1178 -15.8786 -15.6057
   -15.5590 -10.8327  -5.5353  -5.1826  -5.1493  -5.1162  -4.9446  -4.8650
    -4.7631  -4.7051  -4.6780  -4.6477  -4.5967  -4.5826  -4.5284  -4.4028
    -4.3585  -4.3184  -4.2377  -4.2113  -4.1775  -4.1613  -4.1441  -4.0519
    -4.0245  -4.0066  -3.9696  -3.9230  -3.8838  -3.8348  -3.8130  -3.7876
    -3.7214  -3.6810  -3.6601  -3.5987  -3.5789  -3.5314  -3.4827  -3.4522
    -3.3771  -3.3650  -3.3056  -3.2607  -3.1998  -3.1463  -3.1140  -3.0536
    -3.0051  -2.9760  -2.8981  -2.8317  -2.7540  -2.6942  -2.6848  -2.6627
    -2.6123  -2.5898  -2.5770  -2.5211  -2.5125  -2.3890  -2.3367  -2.3284
    -2.2658  -2.1972  -2.1814  -2.1547  -2.0764  -2.0061  -1.9998  -1.9388
    -1.9196  -1.8897  -1.8065  -1.7177  -1.7047  -1.6804  -1.6108  -1.5816
    -1.5196  -1.4716  -1.4495  -1.3900  -1.3746  -1.3232  -1.3075  -1.2564
    -1.2400  -1.1166  -1.0536  -1.0305  -1.0065  -0.9526  -0.9199  -0.8723
    -0.8239  -0.7925  -0.7165  -0.6773  -0.6560  -0.5318  -0.3871   0.3137
     1.1436   1.3436   1.4687   1.5695   1.9374   1.9475   1.9700   2.0618
     2.1280   2.2028   2.2577   2.3335   2.4094   2.4435   2.5321   2.5497
     2.5961   2.6546   2.6912   2.7048   2.7585   2.8321   2.8550   2.8855
     2.9440   2.9500   2.9837   2.9883   2.9950   3.1057   3.1128   3.1414
     3.1891   3.2182   3.2931   3.3138   3.3593   3.3863   3.4103   3.4587
     3.4732   3.5511   3.6056   3.6707   3.7463   3.7828   3.8026   3.9040
     3.9620   4.0651   4.1129   4.4108   4.5139   4.6597   4.7515   4.8127
     4.8453   4.9175   4.9699   5.2922   5.3327   5.4154   5.5305   5.5628
     5.6438   5.7703   5.7903   5.8573   5.9018   5.9166   5.9649   6.0586
     6.0974   6.1686   6.2537   6.3375   6.3899   6.4018   6.4464   6.4935
     6.5449   6.5551   6.7144   6.9181   7.0706   7.2211   7.5536   7.6096
     7.7251   8.2166   8.4128   8.4950   8.8727   8.9395   9.0654   9.2322
     9.4258   9.6057   9.6791

          k =-0.0506 0.0560 0.0000 ( 34596 PWs)   bands (ev):

   -58.2942 -58.2767 -57.3790 -57.3727 -57.3547 -57.3117 -57.2566 -57.0911
   -57.0628 -57.0511 -57.0257 -56.9184 -56.9109 -56.8932 -56.7929 -56.7729
   -34.6537 -34.5643 -34.5498 -34.4842 -34.4581 -34.4379 -33.7850 -33.7793
   -33.6788 -33.6313 -33.6111 -33.5869 -33.5853 -33.5825 -33.5657 -33.5645
   -33.5415 -33.5284 -33.5269 -33.4931 -33.4892 -33.4625 -33.4403 -33.4125
   -33.3686 -33.3212 -33.3066 -33.3041 -33.2830 -33.2732 -33.2559 -33.2543
   -33.2532 -33.2441 -33.2404 -33.2375 -33.2187 -33.2116 -33.1774 -33.1544
   -33.1159 -33.0735 -33.0710 -33.0478 -33.0371 -33.0199 -33.0074 -32.9815
   -18.1049 -17.8159 -17.6984 -17.6105 -17.5943 -17.5544 -17.3773 -17.3659
   -17.2158 -17.2033 -17.1143 -17.0920 -16.9745 -16.9090 -16.8645 -16.8394
   -16.8206 -16.8045 -16.7587 -16.7327 -16.7178 -16.6243 -16.5937 -16.5034
   -16.4931 -16.4349 -16.4178 -16.4078 -16.2134 -16.1947 -15.8765 -15.6350
   -15.6131 -10.8345  -5.2988  -4.9888  -4.9381  -4.9301  -4.7802  -4.7725
    -4.7135  -4.6366  -4.5235  -4.5034  -4.4977  -4.4148  -4.4005  -4.3778
    -4.3581  -4.3244  -4.3064  -4.2448  -4.1972  -4.1731  -4.1629  -4.1112
    -4.1001  -4.0533  -4.0417  -3.9900  -3.9762  -3.9007  -3.8813  -3.8303
    -3.7768  -3.7457  -3.6882  -3.6167  -3.5989  -3.5610  -3.4985  -3.4314
    -3.3943  -3.3176  -3.2586  -3.2279  -3.1332  -3.1296  -3.0776  -3.0499
    -2.9927  -2.9746  -2.9551  -2.9012  -2.7976  -2.7608  -2.7461  -2.7030
    -2.6267  -2.5843  -2.5428  -2.5010  -2.4752  -2.4113  -2.3863  -2.3666
    -2.3479  -2.2867  -2.1919  -2.1693  -2.1441  -2.1255  -2.0995  -2.0448
    -2.0099  -1.9683  -1.9413  -1.8675  -1.8452  -1.7786  -1.7277  -1.6532
    -1.5629  -1.5458  -1.5355  -1.4932  -1.4405  -1.3820  -1.3497  -1.3030
    -1.2410  -1.1720  -1.0738  -1.0185  -0.9853  -0.8997  -0.8492  -0.8419
    -0.7902  -0.7033  -0.6889  -0.6677  -0.6526  -0.5498  -0.4722   0.3121
     1.3116   1.5013   1.6500   1.6717   1.8564   2.0074   2.0360   2.0712
     2.2471   2.2598   2.3640   2.3803   2.4366   2.4652   2.5519   2.5889
     2.6542   2.6994   2.7334   2.7480   2.8152   2.8463   2.8748   2.9071
     2.9378   2.9547   3.0104   3.0454   3.0761   3.1172   3.1488   3.1944
     3.1994   3.2542   3.2884   3.3284   3.3375   3.3807   3.4199   3.4708
     3.4852   3.5528   3.5824   3.6449   3.6715   3.7483   3.8080   3.8439
     3.8867   3.9637   4.1563   4.5075   4.6003   4.6198   4.7583   4.8258
     4.8923   4.9687   5.0139   5.1904   5.3056   5.3797   5.4153   5.4476
     5.5982   5.6196   5.6717   5.7205   5.8830   5.9004   5.9910   6.0098
     6.0716   6.1122   6.1730   6.2093   6.3144   6.3399   6.4143   6.4270
     6.5440   6.6174   6.7627   6.8110   7.1862   7.3571   7.5065   7.6179
     7.9371   8.0152   8.1026   8.3863   8.6111   8.7186   8.8015   9.0399
     9.1883   9.3303   9.4341

     the Fermi energy is    -0.2875 ev

!    total energy              =   -3021.14966153 Ry
     Harris-Foulkes estimate   =   -3021.14966168 Ry
     estimated scf accuracy    <       0.00000030 Ry

     The total energy is the sum of the following terms:

     one-electron contribution =  -40438.69309454 Ry
     hartree contribution      =   20290.76867290 Ry
     xc contribution           =    -553.21900214 Ry
     ewald contribution        =   17680.01356186 Ry
     smearing contrib. (-TS)   =      -0.01979960 Ry

     total magnetization       =     1.06 Bohr mag/cell
     absolute magnetization    =     1.23 Bohr mag/cell

     convergence has been achieved in  10 iterations

     Forces acting on atoms (Ry/au):


     negative rho (up, down):  1.190E-02 1.197E-02
     atom    1 type  1   force =     0.00018471   -0.00089888   -0.10471063
     atom    2 type  2   force =     0.00014346    0.00068356    0.04002315
     atom    3 type  1   force =     0.00074927   -0.00175163   -0.02054615
     atom    4 type  2   force =    -0.00327004    0.00312513   -0.00324696
     atom    5 type  1   force =     0.00034749    0.00006513    0.00033533
     atom    6 type  2   force =    -0.00013354   -0.00009531    0.00023470
     atom    7 type  1   force =    -0.00023052   -0.00008916   -0.00007823
     atom    8 type  2   force =    -0.00017738   -0.00018460   -0.00020195
     atom    9 type  1   force =    -0.00003354    0.00056792   -0.10484410
     atom   10 type  2   force =     0.00034751   -0.00021239    0.03599433
     atom   11 type  1   force =     0.00067991    0.00183800    0.00261045
     atom   12 type  2   force =    -0.00519975   -0.00266863   -0.00520867
     atom   13 type  1   force =     0.00041853    0.00008752   -0.00023503
     atom   14 type  2   force =     0.00012938   -0.00008044   -0.00008845
     atom   15 type  1   force =    -0.00008267   -0.00001187    0.00005196
     atom   16 type  2   force =    -0.00023531    0.00004150   -0.00033264
     atom   17 type  2   force =     0.00000776   -0.00001450    0.06655602
     atom   18 type  1   force =     0.00005859    0.00003112    0.13145100
     atom   19 type  2   force =     0.00017711   -0.00052839   -0.08522321
     atom   20 type  2   force =    -0.05792586    0.00014314   -0.03609415
     atom   21 type  2   force =     0.05781678   -0.00004729   -0.03605719
     atom   22 type  1   force =    -0.00043006    0.00074918    0.08016563
     atom   23 type  2   force =     0.00020015   -0.00004926    0.00002216
     atom   24 type  2   force =     0.00064086    0.00185844   -0.03466783
     atom   25 type  2   force =     0.00414396    0.00332765   -0.00511506
     atom   26 type  1   force =     0.00040703   -0.00004906    0.00008212
     atom   27 type  2   force =    -0.00009988   -0.00012772    0.00006348
     atom   28 type  2   force =     0.00005244   -0.00019707   -0.00002526
     atom   29 type  2   force =    -0.00000145   -0.00007610    0.00007289
     atom   30 type  1   force =    -0.00022854   -0.00012066    0.00007321
     atom   31 type  2   force =     0.00011743   -0.00006717   -0.00001741
     atom   32 type  2   force =    -0.00007998   -0.00005296    0.00007937
     atom   33 type  2   force =    -0.00016671    0.00004947    0.06629162
     atom   34 type  1   force =     0.00007756   -0.00003339    0.13123081
     atom   35 type  2   force =     0.00018812   -0.00013020   -0.08483547
     atom   36 type  2   force =    -0.05781957    0.00006475   -0.03570896
     atom   37 type  2   force =     0.05799193   -0.00017373   -0.03610661
     atom   38 type  1   force =    -0.00037670   -0.00020333    0.07983604
     atom   39 type  2   force =     0.00007900   -0.00025586   -0.00009938
     atom   40 type  2   force =     0.00048997    0.00124082   -0.03527437
     atom   41 type  2   force =     0.00589225   -0.00243311   -0.00723920
     atom   42 type  1   force =     0.00024312   -0.00006675    0.00002538
     atom   43 type  2   force =    -0.00019288   -0.00009734    0.00006142
     atom   44 type  2   force =     0.00000308   -0.00015941   -0.00003282
     atom   45 type  2   force =     0.00000260   -0.00016901    0.00005524
     atom   46 type  1   force =    -0.00018226   -0.00012325    0.00001066
     atom   47 type  2   force =    -0.00011659   -0.00018969    0.00022398
     atom   48 type  2   force =    -0.00009902    0.00002782    0.00034290
     atom   49 type  2   force =    -0.00034437   -0.00024616   -0.00013255
     atom   50 type  3   force =     0.01169413   -0.01107576   -0.00449412
     atom   51 type  4   force =    -0.00262590    0.00065391    0.00053052
     atom   52 type  4   force =     0.00035417   -0.00038031   -0.00053291
     atom   53 type  4   force =     0.00029794   -0.00209799   -0.00078678
     atom   54 type  4   force =    -0.01388374    0.01060329    0.00551171

     Total force =     0.343202     Total SCF correction =     0.001969
 !ASE

     Writing output data file calc.save
 
     init_run     :     66.32s CPU     76.86s WALL (       1 calls)
     electrons    :   2774.75s CPU   3209.52s WALL (       1 calls)
     forces       :     48.90s CPU     50.77s WALL (       1 calls)

     Called by init_run:
     wfcinit      :     57.94s CPU     67.87s WALL (       1 calls)
     potinit      :      1.49s CPU      1.70s WALL (       1 calls)

     Called by electrons:
     c_bands      :   2435.21s CPU   2807.71s WALL (      11 calls)
     sum_band     :    295.09s CPU    351.91s WALL (      11 calls)
     v_of_rho     :     11.46s CPU     13.68s WALL (      11 calls)
     newd         :     36.82s CPU     40.24s WALL (      11 calls)
     mix_rho      :      0.44s CPU      0.57s WALL (      11 calls)
     vdW_energy   :      2.43s CPU      2.74s WALL (      12 calls)
     vdW_ffts     :      2.99s CPU      3.65s WALL (      24 calls)
     vdW_v        :      1.24s CPU      1.37s WALL (      12 calls)

     Called by c_bands:
     init_us_2    :      6.79s CPU      7.45s WALL (     960 calls)
     cegterg      :   2393.66s CPU   2763.49s WALL (     440 calls)

     Called by *egterg:
     h_psi        :    950.52s CPU   1230.54s WALL (    2007 calls)
     s_psi        :    162.96s CPU    169.47s WALL (    2007 calls)
     g_psi        :      4.74s CPU      4.90s WALL (    1527 calls)
     cdiaghg      :    741.67s CPU    763.50s WALL (    1927 calls)

     Called by h_psi:
     add_vuspsi   :    164.88s CPU    170.58s WALL (    2007 calls)

     General routines
     calbec       :    241.46s CPU    249.58s WALL (    2487 calls)
     fft          :      6.23s CPU      7.61s WALL (     956 calls)
     ffts         :      0.04s CPU      0.06s WALL (      44 calls)
     fftw         :    535.58s CPU    849.45s WALL (  778342 calls)
     interpolate  :      0.35s CPU      0.51s WALL (      44 calls)
     davcio       :      0.14s CPU      2.68s WALL (      40 calls)
 
     Parallel routines
     fft_scatter  :    270.87s CPU    445.30s WALL (  779342 calls)
 
     PWSCF        : 48m11.16s CPU    55m41.70s WALL

 
   This run was terminated on:   2:21:53  27Feb2018            

=------------------------------------------------------------------------------=
   JOB DONE.
=------------------------------------------------------------------------------=
