  python dir          : /home/vossj/suncat/lib/python2.7/site-packages/espresso
  espresso dir        : /home/vossj/suncat/esdld/espresso-dynpy-beef/bin
  pseudo dir          : /home/alatimer/bin/psp/esp_psp_w_gbrvRu/
  ase-espresso py git : ffa2778-git



     Program PWSCF v.5.1rc2 (svn rev. ) starts on 26Feb2018 at  2:19:37 

     This program is part of the open-source Quantum ESPRESSO suite
     for quantum simulation of materials; please cite
         "P. Giannozzi et al., J. Phys.:Condens. Matter 21 395502 (2009);
          URL http://www.quantum-espresso.org", 
     in publications or presentations arising from this work. More details at
     http://www.quantum-espresso.org/quote

     Parallel version (MPI), running on    16 processors
     R & G space division:  proc/nbgrp/npool/nimage =      16
     Reading input from pw.inp
     Message from routine read_cards :
     DEPRECATED: no units specified in CELL_PARAMETERS card

     Current dimensions of program PWSCF are:
     Max number of different atomic species (ntypx) = 10
     Max number of k-points (npk) =  40000
     Max angular momentum in pseudopotentials (lmaxx) =  3

     **************************************************************************
     Initializing libbeef V0.1.1 with the BEEF-vdW functional.
     Citation: Wellendorff et al., PRB 85, 235149 (2012).
     **************************************************************************


     IMPORTANT: XC functional enforced from input :
     Exchange-correlation      = BEEF ( 1  4 27 13 2)
     Any further DFT definition will be discarded
     Please, verify this is what you really want


     Subspace diagonalization in iterative solution of the eigenvalue problem:
     a serial algorithm will be used

 
     Parallelization info
     --------------------
     sticks:   dense  smooth     PW     G-vecs:    dense   smooth      PW
     Min         281     112     31                68535    17318    2565
     Max         282     113     32                68545    17369    2582
     Sum        4501    1795    503              1096637   277353   41113
 
     Generating pointlists ...
     new r_m :   0.4125 (alat units)  0.7795 (a.u.) for type    1
     new r_m :   0.4125 (alat units)  0.7795 (a.u.) for type    2
     new r_m :   0.4125 (alat units)  0.7795 (a.u.) for type    3
     new r_m :   0.4125 (alat units)  0.7795 (a.u.) for type    4


     bravais-lattice index     =            0
     lattice parameter (alat)  =       1.8897  a.u.
     unit-cell volume          =    7990.9933 (a.u.)^3
     number of atoms/cell      =           54
     number of atomic types    =            4
     number of electrons       =       398.00
     number of Kohn-Sham states=          299
     kinetic-energy cutoff     =      40.4243  Ry
     charge density cutoff     =     404.2426  Ry
     convergence threshold     =      7.3E-07
     mixing beta               =       0.1000
     number of iterations used =           10  plain     mixing
     Exchange-correlation      = BEEF ( 1  4 27 13 2)
     nstep                     =           50


     celldm(1)=   1.889726  celldm(2)=   0.000000  celldm(3)=   0.000000
     celldm(4)=   0.000000  celldm(5)=   0.000000  celldm(6)=   0.000000

     crystal axes: (cart. coord. in units of alat)
               a(1) = (   6.590708   0.000000   0.000000 )  
               a(2) = (   0.000000   5.950229   0.000000 )  
               a(3) = (   0.000000   0.000000  30.195235 )  

     reciprocal axes: (cart. coord. in units 2 pi/alat)
               b(1) = (  0.151729  0.000000  0.000000 )  
               b(2) = (  0.000000  0.168061  0.000000 )  
               b(3) = (  0.000000  0.000000  0.033118 )  


     PseudoPot. # 1 for Ti read from file:
     /home/alatimer/bin/psp/esp_psp_w_gbrvRu/Ti.UPF
     MD5 check sum: 8e4df49b7f0d34bbd5052bf3f5ea0213
     Pseudo is Ultrasoft, Zval = 12.0
     Generated by new atomic code, or converted to UPF format
     Using radial grid of  851 points,  6 beta functions with: 
                l(1) =   0
                l(2) =   0
                l(3) =   1
                l(4) =   1
                l(5) =   2
                l(6) =   2
     Q(r) pseudized with  8 coefficients,  rinner =    1.000   1.000   1.000
                                                       1.000   1.000

     PseudoPot. # 2 for  O read from file:
     /home/alatimer/bin/psp/esp_psp_w_gbrvRu/O.UPF
     MD5 check sum: e057bbcf3229fb5d8c36c0c92f9568b4
     Pseudo is Ultrasoft + core correction, Zval =  6.0
     Generated using "atomic" code by A. Dal Corso  v.5.0.2 svn rev. 9415
     Using radial grid of 1095 points,  4 beta functions with: 
                l(1) =   0
                l(2) =   0
                l(3) =   1
                l(4) =   1
     Q(r) pseudized with 0 coefficients 


     PseudoPot. # 3 for  C read from file:
     /home/alatimer/bin/psp/esp_psp_w_gbrvRu/C.UPF
     MD5 check sum: ab446d787031eba755f1d5ee46644bb0
     Pseudo is Ultrasoft + core correction, Zval =  4.0
     Generated using "atomic" code by A. Dal Corso  v.5.0.2 svn rev. 9415
     Using radial grid of 1073 points,  4 beta functions with: 
                l(1) =   0
                l(2) =   0
                l(3) =   1
                l(4) =   1
     Q(r) pseudized with 0 coefficients 


     PseudoPot. # 4 for  H read from file:
     /home/alatimer/bin/psp/esp_psp_w_gbrvRu/H.UPF
     MD5 check sum: bd57da0722753ddfd9833a65b40bb853
     Pseudo is Ultrasoft, Zval =  1.0
     Generated using "atomic" code by A. Dal Corso  v.5.0.2 svn rev. 9415
     Using radial grid of  929 points,  2 beta functions with: 
                l(1) =   0
                l(2) =   0
     Q(r) pseudized with 0 coefficients 


     vdW kernel table read from file vdW_kernel_table
     MD5 check sum: 095c7af220d748ca6e76c0b4c6cfb241

     atomic species   valence    mass     pseudopotential
        Ti1           12.00    47.88000     Ti( 1.00)
        O1             6.00    15.99940      O( 1.00)
        C1             4.00    12.01100      C( 1.00)
        H1             1.00     1.00794      H( 1.00)

     Starting magnetic structure 
     atomic species   magnetization
        Ti1          0.250
        O1           0.500
        C1           0.750
        H1           0.000

     No symmetry found



   Cartesian axes

     site n.     atom                  positions (alat units)
         1           Ti1 tau(   1) = (   1.6476770   0.7437786   2.6545865  )
         2           O1  tau(   2) = (   1.6476770   2.2313359   3.9361215  )
         3           Ti1 tau(   3) = (   1.6476770   2.2313359   5.9499405  )
         4           O1  tau(   4) = (   0.3661420   0.7437786   5.9499405  )
         5           Ti1 tau(   5) = (   1.6407309   0.9134410   9.3139491  )
         6           O1  tau(   6) = (   1.6648823   2.2608486  10.4895904  )
         7           Ti1 tau(   7) = (   1.7578240   2.2899216  13.0472362  )
         8           O1  tau(   8) = (   0.4801583   0.7600008  12.7739736  )
         9           Ti1 tau(   9) = (   1.6476770   3.7188931   2.6545865  )
        10           O1  tau(  10) = (   1.6476770   5.2064503   3.9361215  )
        11           Ti1 tau(  11) = (   1.6476770   5.2064503   5.9499405  )
        12           O1  tau(  12) = (   0.3661420   3.7188931   5.9499405  )
        13           Ti1 tau(  13) = (   1.6336050   3.7786827   9.1566831  )
        14           O1  tau(  14) = (   1.6678212   5.2513959  10.5409436  )
        15           Ti1 tau(  15) = (   1.7144009   5.2558216  12.3462911  )
        16           O1  tau(  16) = (   0.4635505   3.7986228  12.7318280  )
        17           O1  tau(  17) = (   1.6476770   2.2313359   1.3730516  )
        18           Ti1 tau(  18) = (   4.9430310   2.2313359   2.6545865  )
        19           O1  tau(  19) = (   4.9430310   2.2313359   4.6684056  )
        20           O1  tau(  20) = (   6.2245660   0.7437786   2.6545865  )
        21           O1  tau(  21) = (   3.6614961   0.7437786   2.6545865  )
        22           Ti1 tau(  22) = (   4.9430310   0.7437786   5.9499405  )
        23           O1  tau(  23) = (   1.6683653   2.2752577   7.9427336  )
        24           O1  tau(  24) = (   4.9430310   2.2313359   7.2314755  )
        25           O1  tau(  25) = (   2.9292120   0.7437786   5.9499405  )
        26           Ti1 tau(  26) = (   4.9404121   2.2664794   9.4552217  )
        27           O1  tau(  27) = (   5.0099888   2.2616732  11.2946145  )
        28           O1  tau(  28) = (   6.2612001   0.7714827   9.2659748  )
        29           O1  tau(  29) = (   3.6791272   0.7744986   9.2965846  )
        30           Ti1 tau(  30) = (   5.0117873   0.7976728  12.8161605  )
        31           O1  tau(  31) = (   4.9963122   2.2836652  13.8750618  )
        32           O1  tau(  32) = (   2.9819382   0.7448324  12.7109220  )
        33           O1  tau(  33) = (   1.6476770   5.2064503   1.3730516  )
        34           Ti1 tau(  34) = (   4.9430310   5.2064503   2.6545865  )
        35           O1  tau(  35) = (   4.9430310   5.2064503   4.6684056  )
        36           O1  tau(  36) = (   6.2245660   3.7188931   2.6545865  )
        37           O1  tau(  37) = (   3.6614961   3.7188931   2.6545865  )
        38           Ti1 tau(  38) = (   4.9430310   3.7188931   5.9499405  )
        39           O1  tau(  39) = (   1.6664207   5.2035600   7.9365221  )
        40           O1  tau(  40) = (   4.9430310   5.2064503   7.2314755  )
        41           O1  tau(  41) = (   2.9292120   3.7188931   5.9499405  )
        42           Ti1 tau(  42) = (   4.9524353   5.2460635   9.4426343  )
        43           O1  tau(  43) = (   5.0107556   5.2394944  11.2927493  )
        44           O1  tau(  44) = (   6.2663940   3.7551737   9.2646230  )
        45           O1  tau(  45) = (   3.6780957   3.7542261   9.2971476  )
        46           Ti1 tau(  46) = (   5.0587989   3.7766986  12.8010349  )
        47           O1  tau(  47) = (   5.0196089   5.2502198  13.8813978  )
        48           O1  tau(  48) = (   2.9624133   3.7943242  12.7299881  )
        49           O1  tau(  49) = (   1.7427453   2.2533568  14.8370015  )
        50           C1  tau(  50) = (   2.7196098   4.2526273  16.2318421  )
        51           H1  tau(  51) = (   3.3037454   4.9255546  15.5827400  )
        52           H1  tau(  52) = (   3.3286606   3.7870117  16.9822022  )
        53           H1  tau(  53) = (   2.3125587   3.4026405  15.5729816  )
        54           H1  tau(  54) = (   1.8391288   4.7650601  16.6448379  )

     number of k points=    40  Fermi-Dirac smearing, width (Ry)=  0.0073
                       cart. coord. in units 2pi/alat
        k(    1) = (   0.0000000   0.0000000   0.0000000), wk =   0.0277778
        k(    2) = (   0.0000000   0.0280101   0.0000000), wk =   0.0555556
        k(    3) = (   0.0000000   0.0560203   0.0000000), wk =   0.0555556
        k(    4) = (   0.0000000  -0.0840304   0.0000000), wk =   0.0277778
        k(    5) = (   0.0252881   0.0000000   0.0000000), wk =   0.0555556
        k(    6) = (   0.0252881   0.0280101   0.0000000), wk =   0.0555556
        k(    7) = (   0.0252881   0.0560203   0.0000000), wk =   0.0555556
        k(    8) = (   0.0252881  -0.0840304   0.0000000), wk =   0.0555556
        k(    9) = (   0.0505763   0.0000000   0.0000000), wk =   0.0555556
        k(   10) = (   0.0505763   0.0280101   0.0000000), wk =   0.0555556
        k(   11) = (   0.0505763   0.0560203   0.0000000), wk =   0.0555556
        k(   12) = (   0.0505763  -0.0840304   0.0000000), wk =   0.0555556
        k(   13) = (  -0.0758644   0.0000000   0.0000000), wk =   0.0277778
        k(   14) = (  -0.0758644   0.0280101   0.0000000), wk =   0.0555556
        k(   15) = (  -0.0758644   0.0560203   0.0000000), wk =   0.0555556
        k(   16) = (  -0.0758644  -0.0840304   0.0000000), wk =   0.0277778
        k(   17) = (  -0.0252881   0.0280101   0.0000000), wk =   0.0555556
        k(   18) = (  -0.0252881   0.0560203   0.0000000), wk =   0.0555556
        k(   19) = (  -0.0505763   0.0280101   0.0000000), wk =   0.0555556
        k(   20) = (  -0.0505763   0.0560203   0.0000000), wk =   0.0555556
        k(   21) = (   0.0000000   0.0000000   0.0000000), wk =   0.0277778
        k(   22) = (   0.0000000   0.0280101   0.0000000), wk =   0.0555556
        k(   23) = (   0.0000000   0.0560203   0.0000000), wk =   0.0555556
        k(   24) = (   0.0000000  -0.0840304   0.0000000), wk =   0.0277778
        k(   25) = (   0.0252881   0.0000000   0.0000000), wk =   0.0555556
        k(   26) = (   0.0252881   0.0280101   0.0000000), wk =   0.0555556
        k(   27) = (   0.0252881   0.0560203   0.0000000), wk =   0.0555556
        k(   28) = (   0.0252881  -0.0840304   0.0000000), wk =   0.0555556
        k(   29) = (   0.0505763   0.0000000   0.0000000), wk =   0.0555556
        k(   30) = (   0.0505763   0.0280101   0.0000000), wk =   0.0555556
        k(   31) = (   0.0505763   0.0560203   0.0000000), wk =   0.0555556
        k(   32) = (   0.0505763  -0.0840304   0.0000000), wk =   0.0555556
        k(   33) = (  -0.0758644   0.0000000   0.0000000), wk =   0.0277778
        k(   34) = (  -0.0758644   0.0280101   0.0000000), wk =   0.0555556
        k(   35) = (  -0.0758644   0.0560203   0.0000000), wk =   0.0555556
        k(   36) = (  -0.0758644  -0.0840304   0.0000000), wk =   0.0277778
        k(   37) = (  -0.0252881   0.0280101   0.0000000), wk =   0.0555556
        k(   38) = (  -0.0252881   0.0560203   0.0000000), wk =   0.0555556
        k(   39) = (  -0.0505763   0.0280101   0.0000000), wk =   0.0555556
        k(   40) = (  -0.0505763   0.0560203   0.0000000), wk =   0.0555556

     Dense  grid:  1096637 G-vectors     FFT dimensions: (  80,  72, 375)

     Smooth grid:   277353 G-vectors     FFT dimensions: (  54,  45, 240)

     Largest allocated arrays     est. size (Mb)     dimensions
        Kohn-Sham Wavefunctions         9.95 Mb     (    2180,  299)
        NL pseudopotentials            18.89 Mb     (    2180,  568)
        Each V/rho on FFT grid          4.22 Mb     (  138240,   2)
        Each G-vector array             0.52 Mb     (   68538)
        G-vector shells                 0.25 Mb     (   33046)
     Largest temporary arrays     est. size (Mb)     dimensions
        Auxiliary wavefunctions        39.78 Mb     (    2180, 1196)
        Each subspace H/S matrix       21.83 Mb     (    1196, 1196)
        Each <psi_i|beta_j> matrix      2.59 Mb     (     568,  299)
        Arrays for rho mixing          21.09 Mb     (  138240,   10)

     Check: negative/imaginary core charge=   -0.000049    0.000000

     The initial density is read from file :
     ./calc.save/charge-density.dat


     negative rho (up, down):  1.189E-02 1.196E-02


     ************************************************************************
     *
     * You are using vdW-DF for exchange-correlation in this calculation.
     * Please cite the following three references that made this development
     * possible:
     *
     *   M. Dion, H. Rydberg, E. Schroder, D. C. Langreth, and
     *   B. I. Lundqvist, Phys. Rev. Lett. 92, 246401 (2004).
     *
     *   T. Thonhauser, V. R. Cooper, S. Li, A. Puzder, P. Hyldgaard, and
     *   D. C. Langreth, Phys. Rev. B 76, 125112 (2007).
     *
     *   G. Roman-Perez and J. M. Soler, Phys. Rev. Lett. 103, 096102 (2009).
     *
     *
     * If you are using vdW-DF2, please also cite:
     *
     *   K. Lee, E. D. Murray, L. Kong, B. I. Lundqvist, and
     *   D. C. Langreth, Phys. Rev. B 82, 081101(R) (2010).
     *
     *
     * If you are calculating the stress with vdW-DF, please also cite:
     *
     *   R. Sabatini, E. Kucukbenli, B. Kolb, T. Thonhauser, and
     *   S. de Gironcoli, J. Phys.: Condens. Matter 24, 424209 (2012).
     *
     ************************************************************************

     Carrying out vdW-DF run using the following parameters:

     Nqs =      20    Nr_points =    1024   r_max =   100.000
     q_mesh =
               0.00001000     0.04494208     0.09755937     0.15916263
               0.23128650     0.31572767     0.41458969     0.53033537
               0.66584808     0.82450364     1.01025438     1.22772762
               1.48234092     1.78043706     2.12944203     2.53805004
               3.01644009     3.57652955     4.23227104     5.00000000

     Gradients computed in reciprocal space

     ************************************************************************


     Starting wfc are  300 randomized atomic wfcs

     total cpu time spent up to now is       79.8 secs

     Self-consistent Calculation

     iteration #  1     ecut=    40.42 Ry     beta=0.10
     Davidson diagonalization with overlap
     ethr =  1.00E-05,  avg # of iterations = 15.0

     negative rho (up, down):  1.189E-02 1.196E-02
 
     Magnetic moment per site:
     atom:    1    charge:    3.1244    magn:   -0.0003    constr:    0.0000
     atom:    2    charge:    2.0896    magn:    0.0003    constr:    0.0000
     atom:    3    charge:    3.1198    magn:   -0.0000    constr:    0.0000
     atom:    4    charge:    2.0867    magn:   -0.0001    constr:    0.0000
     atom:    5    charge:    3.1161    magn:   -0.0002    constr:    0.0000
     atom:    6    charge:    2.0795    magn:    0.0021    constr:    0.0000
     atom:    7    charge:    3.1166    magn:   -0.0054    constr:    0.0000
     atom:    8    charge:    2.0789    magn:    0.0252    constr:    0.0000
     atom:    9    charge:    3.1244    magn:   -0.0003    constr:    0.0000
     atom:   10    charge:    2.0898    magn:    0.0003    constr:    0.0000
     atom:   11    charge:    3.1198    magn:   -0.0000    constr:    0.0000
     atom:   12    charge:    2.0870    magn:   -0.0000    constr:    0.0000
     atom:   13    charge:    3.1150    magn:   -0.0002    constr:    0.0000
     atom:   14    charge:    2.0939    magn:    0.0023    constr:    0.0000
     atom:   15    charge:    3.1183    magn:   -0.0008    constr:    0.0000
     atom:   16    charge:    2.0829    magn:    0.0046    constr:    0.0000
     atom:   17    charge:    2.0623    magn:    0.0018    constr:    0.0000
     atom:   18    charge:    3.1239    magn:   -0.0001    constr:    0.0000
     atom:   19    charge:    2.0875    magn:    0.0001    constr:    0.0000
     atom:   20    charge:    2.0847    magn:    0.0002    constr:    0.0000
     atom:   21    charge:    2.0847    magn:    0.0002    constr:    0.0000
     atom:   22    charge:    3.1199    magn:    0.0000    constr:    0.0000
     atom:   23    charge:    2.0908    magn:    0.0002    constr:    0.0000
     atom:   24    charge:    2.0753    magn:   -0.0002    constr:    0.0000
     atom:   25    charge:    2.0867    magn:    0.0000    constr:    0.0000
     atom:   26    charge:    3.1127    magn:   -0.0002    constr:    0.0000
     atom:   27    charge:    2.0803    magn:    0.0025    constr:    0.0000
     atom:   28    charge:    2.0839    magn:    0.0006    constr:    0.0000
     atom:   29    charge:    2.0860    magn:    0.0008    constr:    0.0000
     atom:   30    charge:    3.1171    magn:   -0.0008    constr:    0.0000
     atom:   31    charge:    2.0827    magn:    0.0006    constr:    0.0000
     atom:   32    charge:    2.0829    magn:    0.0064    constr:    0.0000
     atom:   33    charge:    2.0623    magn:    0.0018    constr:    0.0000
     atom:   34    charge:    3.1239    magn:   -0.0001    constr:    0.0000
     atom:   35    charge:    2.0875    magn:    0.0001    constr:    0.0000
     atom:   36    charge:    2.0847    magn:    0.0002    constr:    0.0000
     atom:   37    charge:    2.0847    magn:    0.0002    constr:    0.0000
     atom:   38    charge:    3.1200    magn:    0.0000    constr:    0.0000
     atom:   39    charge:    2.0839    magn:    0.0002    constr:    0.0000
     atom:   40    charge:    2.0756    magn:   -0.0003    constr:    0.0000
     atom:   41    charge:    2.0870    magn:   -0.0000    constr:    0.0000
     atom:   42    charge:    3.1151    magn:   -0.0002    constr:    0.0000
     atom:   43    charge:    2.0802    magn:    0.0030    constr:    0.0000
     atom:   44    charge:    2.0851    magn:    0.0008    constr:    0.0000
     atom:   45    charge:    2.0858    magn:    0.0004    constr:    0.0000
     atom:   46    charge:    3.1148    magn:   -0.0007    constr:    0.0000
     atom:   47    charge:    2.0804    magn:    0.0047    constr:    0.0000
     atom:   48    charge:    2.0835    magn:    0.0138    constr:    0.0000
     atom:   49    charge:    2.0524    magn:    0.2400    constr:    0.0000
     atom:   50    charge:    0.6704    magn:    0.0557    constr:    0.0000
     atom:   51    charge:    0.4200    magn:    0.0009    constr:    0.0000
     atom:   52    charge:    0.4242    magn:    0.0008    constr:    0.0000
     atom:   53    charge:    0.3700    magn:    0.0229    constr:    0.0000
     atom:   54    charge:    0.4216    magn:    0.0006    constr:    0.0000

     total cpu time spent up to now is     1048.8 secs

     total energy              =   -3021.15402973 Ry
     Harris-Foulkes estimate   =   -3021.15738225 Ry
     estimated scf accuracy    <       0.02259101 Ry

     total magnetization       =     1.04 Bohr mag/cell
     absolute magnetization    =     1.22 Bohr mag/cell

     iteration #  2     ecut=    40.42 Ry     beta=0.10
     Davidson diagonalization with overlap
     ethr =  5.68E-06,  avg # of iterations =  2.0

     negative rho (up, down):  1.189E-02 1.196E-02
 
     Magnetic moment per site:
     atom:    1    charge:    3.1244    magn:   -0.0003    constr:    0.0000
     atom:    2    charge:    2.0898    magn:    0.0003    constr:    0.0000
     atom:    3    charge:    3.1198    magn:   -0.0000    constr:    0.0000
     atom:    4    charge:    2.0868    magn:   -0.0001    constr:    0.0000
     atom:    5    charge:    3.1161    magn:   -0.0002    constr:    0.0000
     atom:    6    charge:    2.0794    magn:    0.0021    constr:    0.0000
     atom:    7    charge:    3.1166    magn:   -0.0055    constr:    0.0000
     atom:    8    charge:    2.0788    magn:    0.0254    constr:    0.0000
     atom:    9    charge:    3.1244    magn:   -0.0003    constr:    0.0000
     atom:   10    charge:    2.0899    magn:    0.0003    constr:    0.0000
     atom:   11    charge:    3.1198    magn:   -0.0000    constr:    0.0000
     atom:   12    charge:    2.0871    magn:   -0.0000    constr:    0.0000
     atom:   13    charge:    3.1150    magn:   -0.0002    constr:    0.0000
     atom:   14    charge:    2.0939    magn:    0.0023    constr:    0.0000
     atom:   15    charge:    3.1182    magn:   -0.0008    constr:    0.0000
     atom:   16    charge:    2.0827    magn:    0.0047    constr:    0.0000
     atom:   17    charge:    2.0627    magn:    0.0017    constr:    0.0000
     atom:   18    charge:    3.1239    magn:   -0.0001    constr:    0.0000
     atom:   19    charge:    2.0876    magn:    0.0001    constr:    0.0000
     atom:   20    charge:    2.0847    magn:    0.0002    constr:    0.0000
     atom:   21    charge:    2.0847    magn:    0.0002    constr:    0.0000
     atom:   22    charge:    3.1199    magn:    0.0000    constr:    0.0000
     atom:   23    charge:    2.0908    magn:    0.0002    constr:    0.0000
     atom:   24    charge:    2.0754    magn:   -0.0002    constr:    0.0000
     atom:   25    charge:    2.0868    magn:    0.0000    constr:    0.0000
     atom:   26    charge:    3.1127    magn:   -0.0002    constr:    0.0000
     atom:   27    charge:    2.0801    magn:    0.0025    constr:    0.0000
     atom:   28    charge:    2.0838    magn:    0.0006    constr:    0.0000
     atom:   29    charge:    2.0860    magn:    0.0008    constr:    0.0000
     atom:   30    charge:    3.1171    magn:   -0.0008    constr:    0.0000
     atom:   31    charge:    2.0826    magn:    0.0006    constr:    0.0000
     atom:   32    charge:    2.0826    magn:    0.0065    constr:    0.0000
     atom:   33    charge:    2.0627    magn:    0.0017    constr:    0.0000
     atom:   34    charge:    3.1239    magn:   -0.0001    constr:    0.0000
     atom:   35    charge:    2.0876    magn:    0.0001    constr:    0.0000
     atom:   36    charge:    2.0847    magn:    0.0002    constr:    0.0000
     atom:   37    charge:    2.0847    magn:    0.0002    constr:    0.0000
     atom:   38    charge:    3.1200    magn:    0.0000    constr:    0.0000
     atom:   39    charge:    2.0839    magn:    0.0002    constr:    0.0000
     atom:   40    charge:    2.0756    magn:   -0.0003    constr:    0.0000
     atom:   41    charge:    2.0871    magn:   -0.0000    constr:    0.0000
     atom:   42    charge:    3.1152    magn:   -0.0002    constr:    0.0000
     atom:   43    charge:    2.0801    magn:    0.0030    constr:    0.0000
     atom:   44    charge:    2.0850    magn:    0.0008    constr:    0.0000
     atom:   45    charge:    2.0858    magn:    0.0004    constr:    0.0000
     atom:   46    charge:    3.1148    magn:   -0.0007    constr:    0.0000
     atom:   47    charge:    2.0800    magn:    0.0048    constr:    0.0000
     atom:   48    charge:    2.0833    magn:    0.0140    constr:    0.0000
     atom:   49    charge:    2.0520    magn:    0.2406    constr:    0.0000
     atom:   50    charge:    0.6708    magn:    0.0553    constr:    0.0000
     atom:   51    charge:    0.4182    magn:    0.0010    constr:    0.0000
     atom:   52    charge:    0.4255    magn:    0.0008    constr:    0.0000
     atom:   53    charge:    0.3721    magn:    0.0227    constr:    0.0000
     atom:   54    charge:    0.4202    magn:    0.0007    constr:    0.0000

     total cpu time spent up to now is     1267.9 secs

     total energy              =   -3021.15184971 Ry
     Harris-Foulkes estimate   =   -3021.15440626 Ry
     estimated scf accuracy    <       0.01600618 Ry

     total magnetization       =     1.06 Bohr mag/cell
     absolute magnetization    =     1.23 Bohr mag/cell

     iteration #  3     ecut=    40.42 Ry     beta=0.10
     Davidson diagonalization with overlap
     ethr =  4.02E-06,  avg # of iterations =  2.3

     negative rho (up, down):  1.190E-02 1.196E-02
 
     Magnetic moment per site:
     atom:    1    charge:    3.1244    magn:   -0.0003    constr:    0.0000
     atom:    2    charge:    2.0897    magn:    0.0003    constr:    0.0000
     atom:    3    charge:    3.1198    magn:   -0.0000    constr:    0.0000
     atom:    4    charge:    2.0868    magn:   -0.0001    constr:    0.0000
     atom:    5    charge:    3.1161    magn:   -0.0002    constr:    0.0000
     atom:    6    charge:    2.0795    magn:    0.0021    constr:    0.0000
     atom:    7    charge:    3.1167    magn:   -0.0056    constr:    0.0000
     atom:    8    charge:    2.0788    magn:    0.0257    constr:    0.0000
     atom:    9    charge:    3.1244    magn:   -0.0003    constr:    0.0000
     atom:   10    charge:    2.0898    magn:    0.0003    constr:    0.0000
     atom:   11    charge:    3.1198    magn:   -0.0000    constr:    0.0000
     atom:   12    charge:    2.0871    magn:   -0.0000    constr:    0.0000
     atom:   13    charge:    3.1150    magn:   -0.0002    constr:    0.0000
     atom:   14    charge:    2.0939    magn:    0.0023    constr:    0.0000
     atom:   15    charge:    3.1182    magn:   -0.0008    constr:    0.0000
     atom:   16    charge:    2.0826    magn:    0.0047    constr:    0.0000
     atom:   17    charge:    2.0621    magn:    0.0016    constr:    0.0000
     atom:   18    charge:    3.1239    magn:   -0.0001    constr:    0.0000
     atom:   19    charge:    2.0876    magn:    0.0001    constr:    0.0000
     atom:   20    charge:    2.0847    magn:    0.0002    constr:    0.0000
     atom:   21    charge:    2.0847    magn:    0.0002    constr:    0.0000
     atom:   22    charge:    3.1199    magn:    0.0000    constr:    0.0000
     atom:   23    charge:    2.0909    magn:    0.0002    constr:    0.0000
     atom:   24    charge:    2.0755    magn:   -0.0002    constr:    0.0000
     atom:   25    charge:    2.0868    magn:    0.0000    constr:    0.0000
     atom:   26    charge:    3.1127    magn:   -0.0002    constr:    0.0000
     atom:   27    charge:    2.0803    magn:    0.0025    constr:    0.0000
     atom:   28    charge:    2.0840    magn:    0.0006    constr:    0.0000
     atom:   29    charge:    2.0861    magn:    0.0008    constr:    0.0000
     atom:   30    charge:    3.1172    magn:   -0.0008    constr:    0.0000
     atom:   31    charge:    2.0824    magn:    0.0006    constr:    0.0000
     atom:   32    charge:    2.0826    magn:    0.0065    constr:    0.0000
     atom:   33    charge:    2.0621    magn:    0.0017    constr:    0.0000
     atom:   34    charge:    3.1239    magn:   -0.0001    constr:    0.0000
     atom:   35    charge:    2.0876    magn:    0.0001    constr:    0.0000
     atom:   36    charge:    2.0847    magn:    0.0002    constr:    0.0000
     atom:   37    charge:    2.0847    magn:    0.0002    constr:    0.0000
     atom:   38    charge:    3.1200    magn:    0.0000    constr:    0.0000
     atom:   39    charge:    2.0840    magn:    0.0002    constr:    0.0000
     atom:   40    charge:    2.0758    magn:   -0.0002    constr:    0.0000
     atom:   41    charge:    2.0871    magn:   -0.0000    constr:    0.0000
     atom:   42    charge:    3.1152    magn:   -0.0002    constr:    0.0000
     atom:   43    charge:    2.0803    magn:    0.0031    constr:    0.0000
     atom:   44    charge:    2.0852    magn:    0.0008    constr:    0.0000
     atom:   45    charge:    2.0859    magn:    0.0004    constr:    0.0000
     atom:   46    charge:    3.1149    magn:   -0.0007    constr:    0.0000
     atom:   47    charge:    2.0798    magn:    0.0048    constr:    0.0000
     atom:   48    charge:    2.0833    magn:    0.0143    constr:    0.0000
     atom:   49    charge:    2.0515    magn:    0.2415    constr:    0.0000
     atom:   50    charge:    0.6714    magn:    0.0544    constr:    0.0000
     atom:   51    charge:    0.4149    magn:    0.0011    constr:    0.0000
     atom:   52    charge:    0.4280    magn:    0.0009    constr:    0.0000
     atom:   53    charge:    0.3760    magn:    0.0224    constr:    0.0000
     atom:   54    charge:    0.4177    magn:    0.0007    constr:    0.0000

     total cpu time spent up to now is     1489.8 secs

     total energy              =   -3021.14872258 Ry
     Harris-Foulkes estimate   =   -3021.15276340 Ry
     estimated scf accuracy    <       0.02626976 Ry

     total magnetization       =     1.04 Bohr mag/cell
     absolute magnetization    =     1.22 Bohr mag/cell

     iteration #  4     ecut=    40.42 Ry     beta=0.10
     Davidson diagonalization with overlap
     ethr =  4.02E-06,  avg # of iterations =  4.0

     negative rho (up, down):  1.190E-02 1.196E-02
 
     Magnetic moment per site:
     atom:    1    charge:    3.1244    magn:   -0.0003    constr:    0.0000
     atom:    2    charge:    2.0897    magn:    0.0003    constr:    0.0000
     atom:    3    charge:    3.1198    magn:   -0.0000    constr:    0.0000
     atom:    4    charge:    2.0867    magn:   -0.0001    constr:    0.0000
     atom:    5    charge:    3.1161    magn:   -0.0002    constr:    0.0000
     atom:    6    charge:    2.0796    magn:    0.0021    constr:    0.0000
     atom:    7    charge:    3.1167    magn:   -0.0057    constr:    0.0000
     atom:    8    charge:    2.0791    magn:    0.0258    constr:    0.0000
     atom:    9    charge:    3.1244    magn:   -0.0003    constr:    0.0000
     atom:   10    charge:    2.0898    magn:    0.0003    constr:    0.0000
     atom:   11    charge:    3.1198    magn:   -0.0000    constr:    0.0000
     atom:   12    charge:    2.0870    magn:   -0.0000    constr:    0.0000
     atom:   13    charge:    3.1150    magn:   -0.0002    constr:    0.0000
     atom:   14    charge:    2.0939    magn:    0.0023    constr:    0.0000
     atom:   15    charge:    3.1183    magn:   -0.0008    constr:    0.0000
     atom:   16    charge:    2.0827    magn:    0.0047    constr:    0.0000
     atom:   17    charge:    2.0624    magn:    0.0015    constr:    0.0000
     atom:   18    charge:    3.1239    magn:   -0.0001    constr:    0.0000
     atom:   19    charge:    2.0875    magn:    0.0001    constr:    0.0000
     atom:   20    charge:    2.0847    magn:    0.0001    constr:    0.0000
     atom:   21    charge:    2.0847    magn:    0.0001    constr:    0.0000
     atom:   22    charge:    3.1199    magn:    0.0000    constr:    0.0000
     atom:   23    charge:    2.0908    magn:    0.0002    constr:    0.0000
     atom:   24    charge:    2.0753    magn:   -0.0001    constr:    0.0000
     atom:   25    charge:    2.0867    magn:    0.0000    constr:    0.0000
     atom:   26    charge:    3.1127    magn:   -0.0002    constr:    0.0000
     atom:   27    charge:    2.0803    magn:    0.0025    constr:    0.0000
     atom:   28    charge:    2.0839    magn:    0.0006    constr:    0.0000
     atom:   29    charge:    2.0860    magn:    0.0008    constr:    0.0000
     atom:   30    charge:    3.1172    magn:   -0.0008    constr:    0.0000
     atom:   31    charge:    2.0823    magn:    0.0006    constr:    0.0000
     atom:   32    charge:    2.0827    magn:    0.0065    constr:    0.0000
     atom:   33    charge:    2.0624    magn:    0.0016    constr:    0.0000
     atom:   34    charge:    3.1239    magn:   -0.0001    constr:    0.0000
     atom:   35    charge:    2.0875    magn:    0.0001    constr:    0.0000
     atom:   36    charge:    2.0847    magn:    0.0001    constr:    0.0000
     atom:   37    charge:    2.0847    magn:    0.0001    constr:    0.0000
     atom:   38    charge:    3.1200    magn:    0.0000    constr:    0.0000
     atom:   39    charge:    2.0839    magn:    0.0002    constr:    0.0000
     atom:   40    charge:    2.0756    magn:   -0.0002    constr:    0.0000
     atom:   41    charge:    2.0870    magn:   -0.0000    constr:    0.0000
     atom:   42    charge:    3.1151    magn:   -0.0002    constr:    0.0000
     atom:   43    charge:    2.0804    magn:    0.0031    constr:    0.0000
     atom:   44    charge:    2.0851    magn:    0.0009    constr:    0.0000
     atom:   45    charge:    2.0859    magn:    0.0004    constr:    0.0000
     atom:   46    charge:    3.1148    magn:   -0.0007    constr:    0.0000
     atom:   47    charge:    2.0800    magn:    0.0049    constr:    0.0000
     atom:   48    charge:    2.0834    magn:    0.0145    constr:    0.0000
     atom:   49    charge:    2.0512    magn:    0.2422    constr:    0.0000
     atom:   50    charge:    0.6716    magn:    0.0537    constr:    0.0000
     atom:   51    charge:    0.4125    magn:    0.0011    constr:    0.0000
     atom:   52    charge:    0.4300    magn:    0.0009    constr:    0.0000
     atom:   53    charge:    0.3787    magn:    0.0223    constr:    0.0000
     atom:   54    charge:    0.4159    magn:    0.0008    constr:    0.0000

     total cpu time spent up to now is     1745.7 secs

     total energy              =   -3021.14858301 Ry
     Harris-Foulkes estimate   =   -3021.14987987 Ry
     estimated scf accuracy    <       0.00455171 Ry

     total magnetization       =     1.06 Bohr mag/cell
     absolute magnetization    =     1.23 Bohr mag/cell

     iteration #  5     ecut=    40.42 Ry     beta=0.10
     Davidson diagonalization with overlap
     ethr =  1.14E-06,  avg # of iterations =  4.5

     negative rho (up, down):  1.190E-02 1.196E-02
 
     Magnetic moment per site:
     atom:    1    charge:    3.1244    magn:   -0.0003    constr:    0.0000
     atom:    2    charge:    2.0897    magn:    0.0002    constr:    0.0000
     atom:    3    charge:    3.1198    magn:   -0.0000    constr:    0.0000
     atom:    4    charge:    2.0867    magn:   -0.0001    constr:    0.0000
     atom:    5    charge:    3.1161    magn:   -0.0002    constr:    0.0000
     atom:    6    charge:    2.0796    magn:    0.0021    constr:    0.0000
     atom:    7    charge:    3.1168    magn:   -0.0056    constr:    0.0000
     atom:    8    charge:    2.0795    magn:    0.0258    constr:    0.0000
     atom:    9    charge:    3.1244    magn:   -0.0003    constr:    0.0000
     atom:   10    charge:    2.0898    magn:    0.0003    constr:    0.0000
     atom:   11    charge:    3.1198    magn:   -0.0000    constr:    0.0000
     atom:   12    charge:    2.0870    magn:   -0.0000    constr:    0.0000
     atom:   13    charge:    3.1150    magn:   -0.0002    constr:    0.0000
     atom:   14    charge:    2.0939    magn:    0.0023    constr:    0.0000
     atom:   15    charge:    3.1184    magn:   -0.0008    constr:    0.0000
     atom:   16    charge:    2.0828    magn:    0.0047    constr:    0.0000
     atom:   17    charge:    2.0625    magn:    0.0015    constr:    0.0000
     atom:   18    charge:    3.1239    magn:   -0.0001    constr:    0.0000
     atom:   19    charge:    2.0875    magn:    0.0001    constr:    0.0000
     atom:   20    charge:    2.0847    magn:    0.0001    constr:    0.0000
     atom:   21    charge:    2.0847    magn:    0.0001    constr:    0.0000
     atom:   22    charge:    3.1199    magn:    0.0000    constr:    0.0000
     atom:   23    charge:    2.0908    magn:    0.0002    constr:    0.0000
     atom:   24    charge:    2.0753    magn:   -0.0001    constr:    0.0000
     atom:   25    charge:    2.0867    magn:    0.0000    constr:    0.0000
     atom:   26    charge:    3.1127    magn:   -0.0002    constr:    0.0000
     atom:   27    charge:    2.0803    magn:    0.0026    constr:    0.0000
     atom:   28    charge:    2.0839    magn:    0.0007    constr:    0.0000
     atom:   29    charge:    2.0860    magn:    0.0008    constr:    0.0000
     atom:   30    charge:    3.1172    magn:   -0.0008    constr:    0.0000
     atom:   31    charge:    2.0822    magn:    0.0006    constr:    0.0000
     atom:   32    charge:    2.0829    magn:    0.0065    constr:    0.0000
     atom:   33    charge:    2.0625    magn:    0.0015    constr:    0.0000
     atom:   34    charge:    3.1239    magn:   -0.0001    constr:    0.0000
     atom:   35    charge:    2.0876    magn:    0.0001    constr:    0.0000
     atom:   36    charge:    2.0847    magn:    0.0001    constr:    0.0000
     atom:   37    charge:    2.0847    magn:    0.0001    constr:    0.0000
     atom:   38    charge:    3.1200    magn:    0.0000    constr:    0.0000
     atom:   39    charge:    2.0839    magn:    0.0002    constr:    0.0000
     atom:   40    charge:    2.0756    magn:   -0.0002    constr:    0.0000
     atom:   41    charge:    2.0870    magn:   -0.0000    constr:    0.0000
     atom:   42    charge:    3.1151    magn:   -0.0002    constr:    0.0000
     atom:   43    charge:    2.0804    magn:    0.0032    constr:    0.0000
     atom:   44    charge:    2.0851    magn:    0.0009    constr:    0.0000
     atom:   45    charge:    2.0858    magn:    0.0004    constr:    0.0000
     atom:   46    charge:    3.1147    magn:   -0.0007    constr:    0.0000
     atom:   47    charge:    2.0805    magn:    0.0049    constr:    0.0000
     atom:   48    charge:    2.0836    magn:    0.0146    constr:    0.0000
     atom:   49    charge:    2.0509    magn:    0.2427    constr:    0.0000
     atom:   50    charge:    0.6713    magn:    0.0534    constr:    0.0000
     atom:   51    charge:    0.4116    magn:    0.0012    constr:    0.0000
     atom:   52    charge:    0.4308    magn:    0.0009    constr:    0.0000
     atom:   53    charge:    0.3795    magn:    0.0226    constr:    0.0000
     atom:   54    charge:    0.4151    magn:    0.0008    constr:    0.0000

     total cpu time spent up to now is     2013.3 secs

     total energy              =   -3021.14860551 Ry
     Harris-Foulkes estimate   =   -3021.14886710 Ry
     estimated scf accuracy    <       0.00078524 Ry

     total magnetization       =     1.07 Bohr mag/cell
     absolute magnetization    =     1.23 Bohr mag/cell

     iteration #  6     ecut=    40.42 Ry     beta=0.10
     Davidson diagonalization with overlap
     ethr =  1.97E-07,  avg # of iterations =  3.0

     negative rho (up, down):  1.190E-02 1.196E-02
 
     Magnetic moment per site:
     atom:    1    charge:    3.1244    magn:   -0.0002    constr:    0.0000
     atom:    2    charge:    2.0897    magn:    0.0002    constr:    0.0000
     atom:    3    charge:    3.1198    magn:   -0.0000    constr:    0.0000
     atom:    4    charge:    2.0867    magn:   -0.0001    constr:    0.0000
     atom:    5    charge:    3.1161    magn:   -0.0002    constr:    0.0000
     atom:    6    charge:    2.0795    magn:    0.0021    constr:    0.0000
     atom:    7    charge:    3.1168    magn:   -0.0056    constr:    0.0000
     atom:    8    charge:    2.0795    magn:    0.0257    constr:    0.0000
     atom:    9    charge:    3.1244    magn:   -0.0002    constr:    0.0000
     atom:   10    charge:    2.0898    magn:    0.0002    constr:    0.0000
     atom:   11    charge:    3.1198    magn:   -0.0000    constr:    0.0000
     atom:   12    charge:    2.0870    magn:   -0.0000    constr:    0.0000
     atom:   13    charge:    3.1150    magn:   -0.0002    constr:    0.0000
     atom:   14    charge:    2.0939    magn:    0.0023    constr:    0.0000
     atom:   15    charge:    3.1185    magn:   -0.0008    constr:    0.0000
     atom:   16    charge:    2.0829    magn:    0.0047    constr:    0.0000
     atom:   17    charge:    2.0625    magn:    0.0014    constr:    0.0000
     atom:   18    charge:    3.1240    magn:   -0.0001    constr:    0.0000
     atom:   19    charge:    2.0875    magn:    0.0001    constr:    0.0000
     atom:   20    charge:    2.0847    magn:    0.0001    constr:    0.0000
     atom:   21    charge:    2.0847    magn:    0.0001    constr:    0.0000
     atom:   22    charge:    3.1199    magn:    0.0000    constr:    0.0000
     atom:   23    charge:    2.0908    magn:    0.0002    constr:    0.0000
     atom:   24    charge:    2.0754    magn:   -0.0001    constr:    0.0000
     atom:   25    charge:    2.0867    magn:    0.0000    constr:    0.0000
     atom:   26    charge:    3.1127    magn:   -0.0002    constr:    0.0000
     atom:   27    charge:    2.0802    magn:    0.0026    constr:    0.0000
     atom:   28    charge:    2.0839    magn:    0.0007    constr:    0.0000
     atom:   29    charge:    2.0860    magn:    0.0008    constr:    0.0000
     atom:   30    charge:    3.1172    magn:   -0.0008    constr:    0.0000
     atom:   31    charge:    2.0824    magn:    0.0006    constr:    0.0000
     atom:   32    charge:    2.0830    magn:    0.0065    constr:    0.0000
     atom:   33    charge:    2.0624    magn:    0.0014    constr:    0.0000
     atom:   34    charge:    3.1239    magn:   -0.0001    constr:    0.0000
     atom:   35    charge:    2.0876    magn:    0.0001    constr:    0.0000
     atom:   36    charge:    2.0847    magn:    0.0001    constr:    0.0000
     atom:   37    charge:    2.0847    magn:    0.0001    constr:    0.0000
     atom:   38    charge:    3.1200    magn:    0.0000    constr:    0.0000
     atom:   39    charge:    2.0839    magn:    0.0002    constr:    0.0000
     atom:   40    charge:    2.0756    magn:   -0.0002    constr:    0.0000
     atom:   41    charge:    2.0870    magn:   -0.0000    constr:    0.0000
     atom:   42    charge:    3.1151    magn:   -0.0002    constr:    0.0000
     atom:   43    charge:    2.0803    magn:    0.0032    constr:    0.0000
     atom:   44    charge:    2.0851    magn:    0.0009    constr:    0.0000
     atom:   45    charge:    2.0858    magn:    0.0005    constr:    0.0000
     atom:   46    charge:    3.1147    magn:   -0.0007    constr:    0.0000
     atom:   47    charge:    2.0808    magn:    0.0048    constr:    0.0000
     atom:   48    charge:    2.0838    magn:    0.0146    constr:    0.0000
     atom:   49    charge:    2.0513    magn:    0.2431    constr:    0.0000
     atom:   50    charge:    0.6707    magn:    0.0532    constr:    0.0000
     atom:   51    charge:    0.4115    magn:    0.0012    constr:    0.0000
     atom:   52    charge:    0.4311    magn:    0.0010    constr:    0.0000
     atom:   53    charge:    0.3794    magn:    0.0230    constr:    0.0000
     atom:   54    charge:    0.4150    magn:    0.0008    constr:    0.0000

     total cpu time spent up to now is     2253.7 secs

     total energy              =   -3021.14859209 Ry
     Harris-Foulkes estimate   =   -3021.14865683 Ry
     estimated scf accuracy    <       0.00019963 Ry

     total magnetization       =     1.06 Bohr mag/cell
     absolute magnetization    =     1.23 Bohr mag/cell

     iteration #  7     ecut=    40.42 Ry     beta=0.10
     Davidson diagonalization with overlap
     ethr =  5.02E-08,  avg # of iterations =  3.0

     negative rho (up, down):  1.190E-02 1.196E-02
 
     Magnetic moment per site:
     atom:    1    charge:    3.1244    magn:   -0.0002    constr:    0.0000
     atom:    2    charge:    2.0897    magn:    0.0002    constr:    0.0000
     atom:    3    charge:    3.1198    magn:   -0.0000    constr:    0.0000
     atom:    4    charge:    2.0867    magn:   -0.0001    constr:    0.0000
     atom:    5    charge:    3.1161    magn:   -0.0003    constr:    0.0000
     atom:    6    charge:    2.0795    magn:    0.0021    constr:    0.0000
     atom:    7    charge:    3.1167    magn:   -0.0056    constr:    0.0000
     atom:    8    charge:    2.0793    magn:    0.0257    constr:    0.0000
     atom:    9    charge:    3.1244    magn:   -0.0002    constr:    0.0000
     atom:   10    charge:    2.0898    magn:    0.0002    constr:    0.0000
     atom:   11    charge:    3.1198    magn:   -0.0000    constr:    0.0000
     atom:   12    charge:    2.0870    magn:   -0.0000    constr:    0.0000
     atom:   13    charge:    3.1150    magn:   -0.0002    constr:    0.0000
     atom:   14    charge:    2.0939    magn:    0.0023    constr:    0.0000
     atom:   15    charge:    3.1184    magn:   -0.0008    constr:    0.0000
     atom:   16    charge:    2.0829    magn:    0.0047    constr:    0.0000
     atom:   17    charge:    2.0625    magn:    0.0013    constr:    0.0000
     atom:   18    charge:    3.1240    magn:   -0.0001    constr:    0.0000
     atom:   19    charge:    2.0875    magn:    0.0000    constr:    0.0000
     atom:   20    charge:    2.0847    magn:    0.0001    constr:    0.0000
     atom:   21    charge:    2.0847    magn:    0.0001    constr:    0.0000
     atom:   22    charge:    3.1199    magn:    0.0000    constr:    0.0000
     atom:   23    charge:    2.0908    magn:    0.0003    constr:    0.0000
     atom:   24    charge:    2.0754    magn:   -0.0001    constr:    0.0000
     atom:   25    charge:    2.0867    magn:    0.0000    constr:    0.0000
     atom:   26    charge:    3.1127    magn:   -0.0002    constr:    0.0000
     atom:   27    charge:    2.0802    magn:    0.0026    constr:    0.0000
     atom:   28    charge:    2.0839    magn:    0.0007    constr:    0.0000
     atom:   29    charge:    2.0860    magn:    0.0008    constr:    0.0000
     atom:   30    charge:    3.1172    magn:   -0.0008    constr:    0.0000
     atom:   31    charge:    2.0825    magn:    0.0006    constr:    0.0000
     atom:   32    charge:    2.0830    magn:    0.0065    constr:    0.0000
     atom:   33    charge:    2.0625    magn:    0.0013    constr:    0.0000
     atom:   34    charge:    3.1239    magn:   -0.0001    constr:    0.0000
     atom:   35    charge:    2.0875    magn:    0.0000    constr:    0.0000
     atom:   36    charge:    2.0847    magn:    0.0001    constr:    0.0000
     atom:   37    charge:    2.0847    magn:    0.0001    constr:    0.0000
     atom:   38    charge:    3.1200    magn:    0.0000    constr:    0.0000
     atom:   39    charge:    2.0839    magn:    0.0002    constr:    0.0000
     atom:   40    charge:    2.0756    magn:   -0.0002    constr:    0.0000
     atom:   41    charge:    2.0870    magn:   -0.0000    constr:    0.0000
     atom:   42    charge:    3.1151    magn:   -0.0002    constr:    0.0000
     atom:   43    charge:    2.0802    magn:    0.0032    constr:    0.0000
     atom:   44    charge:    2.0851    magn:    0.0009    constr:    0.0000
     atom:   45    charge:    2.0858    magn:    0.0005    constr:    0.0000
     atom:   46    charge:    3.1148    magn:   -0.0007    constr:    0.0000
     atom:   47    charge:    2.0807    magn:    0.0048    constr:    0.0000
     atom:   48    charge:    2.0837    magn:    0.0146    constr:    0.0000
     atom:   49    charge:    2.0516    magn:    0.2433    constr:    0.0000
     atom:   50    charge:    0.6707    magn:    0.0531    constr:    0.0000
     atom:   51    charge:    0.4117    magn:    0.0012    constr:    0.0000
     atom:   52    charge:    0.4310    magn:    0.0010    constr:    0.0000
     atom:   53    charge:    0.3789    magn:    0.0232    constr:    0.0000
     atom:   54    charge:    0.4152    magn:    0.0008    constr:    0.0000

     total cpu time spent up to now is     2494.5 secs

     total energy              =   -3021.14860433 Ry
     Harris-Foulkes estimate   =   -3021.14861176 Ry
     estimated scf accuracy    <       0.00004357 Ry

     total magnetization       =     1.06 Bohr mag/cell
     absolute magnetization    =     1.23 Bohr mag/cell

     iteration #  8     ecut=    40.42 Ry     beta=0.10
     Davidson diagonalization with overlap
     ethr =  1.09E-08,  avg # of iterations =  2.6

     negative rho (up, down):  1.190E-02 1.196E-02
 
     Magnetic moment per site:
     atom:    1    charge:    3.1244    magn:   -0.0002    constr:    0.0000
     atom:    2    charge:    2.0897    magn:    0.0002    constr:    0.0000
     atom:    3    charge:    3.1198    magn:   -0.0000    constr:    0.0000
     atom:    4    charge:    2.0867    magn:   -0.0001    constr:    0.0000
     atom:    5    charge:    3.1161    magn:   -0.0003    constr:    0.0000
     atom:    6    charge:    2.0795    magn:    0.0022    constr:    0.0000
     atom:    7    charge:    3.1167    magn:   -0.0056    constr:    0.0000
     atom:    8    charge:    2.0792    magn:    0.0257    constr:    0.0000
     atom:    9    charge:    3.1244    magn:   -0.0002    constr:    0.0000
     atom:   10    charge:    2.0898    magn:    0.0002    constr:    0.0000
     atom:   11    charge:    3.1198    magn:   -0.0000    constr:    0.0000
     atom:   12    charge:    2.0870    magn:   -0.0000    constr:    0.0000
     atom:   13    charge:    3.1150    magn:   -0.0002    constr:    0.0000
     atom:   14    charge:    2.0939    magn:    0.0023    constr:    0.0000
     atom:   15    charge:    3.1184    magn:   -0.0008    constr:    0.0000
     atom:   16    charge:    2.0828    magn:    0.0047    constr:    0.0000
     atom:   17    charge:    2.0624    magn:    0.0011    constr:    0.0000
     atom:   18    charge:    3.1239    magn:   -0.0000    constr:    0.0000
     atom:   19    charge:    2.0875    magn:    0.0000    constr:    0.0000
     atom:   20    charge:    2.0847    magn:    0.0001    constr:    0.0000
     atom:   21    charge:    2.0847    magn:    0.0001    constr:    0.0000
     atom:   22    charge:    3.1199    magn:    0.0000    constr:    0.0000
     atom:   23    charge:    2.0908    magn:    0.0003    constr:    0.0000
     atom:   24    charge:    2.0754    magn:   -0.0001    constr:    0.0000
     atom:   25    charge:    2.0867    magn:    0.0000    constr:    0.0000
     atom:   26    charge:    3.1127    magn:   -0.0003    constr:    0.0000
     atom:   27    charge:    2.0803    magn:    0.0027    constr:    0.0000
     atom:   28    charge:    2.0839    magn:    0.0007    constr:    0.0000
     atom:   29    charge:    2.0860    magn:    0.0009    constr:    0.0000
     atom:   30    charge:    3.1171    magn:   -0.0008    constr:    0.0000
     atom:   31    charge:    2.0825    magn:    0.0006    constr:    0.0000
     atom:   32    charge:    2.0829    magn:    0.0065    constr:    0.0000
     atom:   33    charge:    2.0624    magn:    0.0012    constr:    0.0000
     atom:   34    charge:    3.1239    magn:   -0.0000    constr:    0.0000
     atom:   35    charge:    2.0876    magn:    0.0000    constr:    0.0000
     atom:   36    charge:    2.0847    magn:    0.0001    constr:    0.0000
     atom:   37    charge:    2.0847    magn:    0.0001    constr:    0.0000
     atom:   38    charge:    3.1200    magn:    0.0000    constr:    0.0000
     atom:   39    charge:    2.0839    magn:    0.0002    constr:    0.0000
     atom:   40    charge:    2.0756    magn:   -0.0001    constr:    0.0000
     atom:   41    charge:    2.0870    magn:   -0.0000    constr:    0.0000
     atom:   42    charge:    3.1151    magn:   -0.0002    constr:    0.0000
     atom:   43    charge:    2.0803    magn:    0.0032    constr:    0.0000
     atom:   44    charge:    2.0851    magn:    0.0010    constr:    0.0000
     atom:   45    charge:    2.0858    magn:    0.0005    constr:    0.0000
     atom:   46    charge:    3.1148    magn:   -0.0007    constr:    0.0000
     atom:   47    charge:    2.0806    magn:    0.0048    constr:    0.0000
     atom:   48    charge:    2.0837    magn:    0.0146    constr:    0.0000
     atom:   49    charge:    2.0517    magn:    0.2437    constr:    0.0000
     atom:   50    charge:    0.6708    magn:    0.0529    constr:    0.0000
     atom:   51    charge:    0.4120    magn:    0.0012    constr:    0.0000
     atom:   52    charge:    0.4309    magn:    0.0009    constr:    0.0000
     atom:   53    charge:    0.3786    magn:    0.0234    constr:    0.0000
     atom:   54    charge:    0.4155    magn:    0.0008    constr:    0.0000

     total cpu time spent up to now is     2723.8 secs

     total energy              =   -3021.14860577 Ry
     Harris-Foulkes estimate   =   -3021.14860710 Ry
     estimated scf accuracy    <       0.00001655 Ry

     total magnetization       =     1.06 Bohr mag/cell
     absolute magnetization    =     1.23 Bohr mag/cell

     iteration #  9     ecut=    40.42 Ry     beta=0.10
     Davidson diagonalization with overlap
     ethr =  4.16E-09,  avg # of iterations =  3.0

     negative rho (up, down):  1.190E-02 1.196E-02
 
     Magnetic moment per site:
     atom:    1    charge:    3.1244    magn:   -0.0002    constr:    0.0000
     atom:    2    charge:    2.0897    magn:    0.0002    constr:    0.0000
     atom:    3    charge:    3.1198    magn:   -0.0000    constr:    0.0000
     atom:    4    charge:    2.0867    magn:   -0.0001    constr:    0.0000
     atom:    5    charge:    3.1161    magn:   -0.0003    constr:    0.0000
     atom:    6    charge:    2.0795    magn:    0.0022    constr:    0.0000
     atom:    7    charge:    3.1167    magn:   -0.0056    constr:    0.0000
     atom:    8    charge:    2.0792    magn:    0.0257    constr:    0.0000
     atom:    9    charge:    3.1244    magn:   -0.0002    constr:    0.0000
     atom:   10    charge:    2.0898    magn:    0.0002    constr:    0.0000
     atom:   11    charge:    3.1198    magn:   -0.0000    constr:    0.0000
     atom:   12    charge:    2.0870    magn:   -0.0000    constr:    0.0000
     atom:   13    charge:    3.1150    magn:   -0.0002    constr:    0.0000
     atom:   14    charge:    2.0939    magn:    0.0023    constr:    0.0000
     atom:   15    charge:    3.1184    magn:   -0.0008    constr:    0.0000
     atom:   16    charge:    2.0828    magn:    0.0047    constr:    0.0000
     atom:   17    charge:    2.0624    magn:    0.0011    constr:    0.0000
     atom:   18    charge:    3.1239    magn:   -0.0000    constr:    0.0000
     atom:   19    charge:    2.0875    magn:    0.0000    constr:    0.0000
     atom:   20    charge:    2.0847    magn:    0.0001    constr:    0.0000
     atom:   21    charge:    2.0847    magn:    0.0001    constr:    0.0000
     atom:   22    charge:    3.1199    magn:    0.0000    constr:    0.0000
     atom:   23    charge:    2.0908    magn:    0.0003    constr:    0.0000
     atom:   24    charge:    2.0754    magn:   -0.0000    constr:    0.0000
     atom:   25    charge:    2.0867    magn:    0.0000    constr:    0.0000
     atom:   26    charge:    3.1127    magn:   -0.0003    constr:    0.0000
     atom:   27    charge:    2.0803    magn:    0.0027    constr:    0.0000
     atom:   28    charge:    2.0839    magn:    0.0007    constr:    0.0000
     atom:   29    charge:    2.0860    magn:    0.0009    constr:    0.0000
     atom:   30    charge:    3.1171    magn:   -0.0008    constr:    0.0000
     atom:   31    charge:    2.0825    magn:    0.0006    constr:    0.0000
     atom:   32    charge:    2.0829    magn:    0.0065    constr:    0.0000
     atom:   33    charge:    2.0624    magn:    0.0011    constr:    0.0000
     atom:   34    charge:    3.1239    magn:   -0.0000    constr:    0.0000
     atom:   35    charge:    2.0876    magn:    0.0000    constr:    0.0000
     atom:   36    charge:    2.0847    magn:    0.0001    constr:    0.0000
     atom:   37    charge:    2.0847    magn:    0.0001    constr:    0.0000
     atom:   38    charge:    3.1200    magn:    0.0000    constr:    0.0000
     atom:   39    charge:    2.0839    magn:    0.0002    constr:    0.0000
     atom:   40    charge:    2.0756    magn:   -0.0001    constr:    0.0000
     atom:   41    charge:    2.0870    magn:   -0.0000    constr:    0.0000
     atom:   42    charge:    3.1151    magn:   -0.0002    constr:    0.0000
     atom:   43    charge:    2.0803    magn:    0.0033    constr:    0.0000
     atom:   44    charge:    2.0851    magn:    0.0010    constr:    0.0000
     atom:   45    charge:    2.0858    magn:    0.0005    constr:    0.0000
     atom:   46    charge:    3.1148    magn:   -0.0007    constr:    0.0000
     atom:   47    charge:    2.0805    magn:    0.0049    constr:    0.0000
     atom:   48    charge:    2.0836    magn:    0.0146    constr:    0.0000
     atom:   49    charge:    2.0517    magn:    0.2440    constr:    0.0000
     atom:   50    charge:    0.6709    magn:    0.0528    constr:    0.0000
     atom:   51    charge:    0.4122    magn:    0.0012    constr:    0.0000
     atom:   52    charge:    0.4307    magn:    0.0009    constr:    0.0000
     atom:   53    charge:    0.3784    magn:    0.0235    constr:    0.0000
     atom:   54    charge:    0.4156    magn:    0.0008    constr:    0.0000

     total cpu time spent up to now is     2963.0 secs

     total energy              =   -3021.14860674 Ry
     Harris-Foulkes estimate   =   -3021.14860708 Ry
     estimated scf accuracy    <       0.00000712 Ry

     total magnetization       =     1.06 Bohr mag/cell
     absolute magnetization    =     1.23 Bohr mag/cell

     iteration # 10     ecut=    40.42 Ry     beta=0.10
     Davidson diagonalization with overlap
     ethr =  1.79E-09,  avg # of iterations =  3.0

     negative rho (up, down):  1.190E-02 1.196E-02
 
     Magnetic moment per site:
     atom:    1    charge:    3.1244    magn:   -0.0002    constr:    0.0000
     atom:    2    charge:    2.0897    magn:    0.0001    constr:    0.0000
     atom:    3    charge:    3.1198    magn:   -0.0000    constr:    0.0000
     atom:    4    charge:    2.0867    magn:   -0.0001    constr:    0.0000
     atom:    5    charge:    3.1161    magn:   -0.0003    constr:    0.0000
     atom:    6    charge:    2.0795    magn:    0.0022    constr:    0.0000
     atom:    7    charge:    3.1167    magn:   -0.0057    constr:    0.0000
     atom:    8    charge:    2.0792    magn:    0.0258    constr:    0.0000
     atom:    9    charge:    3.1244    magn:   -0.0002    constr:    0.0000
     atom:   10    charge:    2.0898    magn:    0.0002    constr:    0.0000
     atom:   11    charge:    3.1198    magn:   -0.0000    constr:    0.0000
     atom:   12    charge:    2.0870    magn:   -0.0000    constr:    0.0000
     atom:   13    charge:    3.1150    magn:   -0.0002    constr:    0.0000
     atom:   14    charge:    2.0939    magn:    0.0023    constr:    0.0000
     atom:   15    charge:    3.1184    magn:   -0.0008    constr:    0.0000
     atom:   16    charge:    2.0828    magn:    0.0047    constr:    0.0000
     atom:   17    charge:    2.0624    magn:    0.0010    constr:    0.0000
     atom:   18    charge:    3.1239    magn:   -0.0000    constr:    0.0000
     atom:   19    charge:    2.0875    magn:    0.0000    constr:    0.0000
     atom:   20    charge:    2.0847    magn:    0.0001    constr:    0.0000
     atom:   21    charge:    2.0847    magn:    0.0001    constr:    0.0000
     atom:   22    charge:    3.1199    magn:    0.0000    constr:    0.0000
     atom:   23    charge:    2.0908    magn:    0.0003    constr:    0.0000
     atom:   24    charge:    2.0754    magn:   -0.0000    constr:    0.0000
     atom:   25    charge:    2.0867    magn:    0.0000    constr:    0.0000
     atom:   26    charge:    3.1127    magn:   -0.0003    constr:    0.0000
     atom:   27    charge:    2.0803    magn:    0.0027    constr:    0.0000
     atom:   28    charge:    2.0839    magn:    0.0008    constr:    0.0000
     atom:   29    charge:    2.0860    magn:    0.0009    constr:    0.0000
     atom:   30    charge:    3.1171    magn:   -0.0008    constr:    0.0000
     atom:   31    charge:    2.0825    magn:    0.0006    constr:    0.0000
     atom:   32    charge:    2.0829    magn:    0.0065    constr:    0.0000
     atom:   33    charge:    2.0624    magn:    0.0010    constr:    0.0000
     atom:   34    charge:    3.1239    magn:   -0.0000    constr:    0.0000
     atom:   35    charge:    2.0876    magn:    0.0000    constr:    0.0000
     atom:   36    charge:    2.0847    magn:    0.0001    constr:    0.0000
     atom:   37    charge:    2.0847    magn:    0.0001    constr:    0.0000
     atom:   38    charge:    3.1200    magn:    0.0000    constr:    0.0000
     atom:   39    charge:    2.0839    magn:    0.0002    constr:    0.0000
     atom:   40    charge:    2.0756    magn:   -0.0001    constr:    0.0000
     atom:   41    charge:    2.0870    magn:   -0.0000    constr:    0.0000
     atom:   42    charge:    3.1151    magn:   -0.0003    constr:    0.0000
     atom:   43    charge:    2.0803    magn:    0.0033    constr:    0.0000
     atom:   44    charge:    2.0851    magn:    0.0010    constr:    0.0000
     atom:   45    charge:    2.0858    magn:    0.0005    constr:    0.0000
     atom:   46    charge:    3.1148    magn:   -0.0007    constr:    0.0000
     atom:   47    charge:    2.0805    magn:    0.0049    constr:    0.0000
     atom:   48    charge:    2.0836    magn:    0.0146    constr:    0.0000
     atom:   49    charge:    2.0518    magn:    0.2441    constr:    0.0000
     atom:   50    charge:    0.6710    magn:    0.0527    constr:    0.0000
     atom:   51    charge:    0.4123    magn:    0.0012    constr:    0.0000
     atom:   52    charge:    0.4307    magn:    0.0009    constr:    0.0000
     atom:   53    charge:    0.3783    magn:    0.0235    constr:    0.0000
     atom:   54    charge:    0.4157    magn:    0.0008    constr:    0.0000

     total cpu time spent up to now is     3200.2 secs

     total energy              =   -3021.14860742 Ry
     Harris-Foulkes estimate   =   -3021.14860713 Ry
     estimated scf accuracy    <       0.00000117 Ry

     total magnetization       =     1.06 Bohr mag/cell
     absolute magnetization    =     1.23 Bohr mag/cell

     iteration # 11     ecut=    40.42 Ry     beta=0.10
     Davidson diagonalization with overlap
     ethr =  2.94E-10,  avg # of iterations =  3.0

     negative rho (up, down):  1.190E-02 1.196E-02
 
     Magnetic moment per site:
     atom:    1    charge:    3.1244    magn:   -0.0001    constr:    0.0000
     atom:    2    charge:    2.0897    magn:    0.0001    constr:    0.0000
     atom:    3    charge:    3.1198    magn:   -0.0000    constr:    0.0000
     atom:    4    charge:    2.0867    magn:   -0.0001    constr:    0.0000
     atom:    5    charge:    3.1161    magn:   -0.0003    constr:    0.0000
     atom:    6    charge:    2.0795    magn:    0.0022    constr:    0.0000
     atom:    7    charge:    3.1167    magn:   -0.0057    constr:    0.0000
     atom:    8    charge:    2.0793    magn:    0.0258    constr:    0.0000
     atom:    9    charge:    3.1244    magn:   -0.0001    constr:    0.0000
     atom:   10    charge:    2.0898    magn:    0.0001    constr:    0.0000
     atom:   11    charge:    3.1198    magn:   -0.0000    constr:    0.0000
     atom:   12    charge:    2.0870    magn:   -0.0000    constr:    0.0000
     atom:   13    charge:    3.1150    magn:   -0.0002    constr:    0.0000
     atom:   14    charge:    2.0939    magn:    0.0023    constr:    0.0000
     atom:   15    charge:    3.1184    magn:   -0.0008    constr:    0.0000
     atom:   16    charge:    2.0828    magn:    0.0048    constr:    0.0000
     atom:   17    charge:    2.0624    magn:    0.0008    constr:    0.0000
     atom:   18    charge:    3.1239    magn:   -0.0000    constr:    0.0000
     atom:   19    charge:    2.0875    magn:    0.0000    constr:    0.0000
     atom:   20    charge:    2.0847    magn:    0.0001    constr:    0.0000
     atom:   21    charge:    2.0847    magn:    0.0001    constr:    0.0000
     atom:   22    charge:    3.1199    magn:    0.0000    constr:    0.0000
     atom:   23    charge:    2.0908    magn:    0.0003    constr:    0.0000
     atom:   24    charge:    2.0754    magn:   -0.0000    constr:    0.0000
     atom:   25    charge:    2.0867    magn:    0.0000    constr:    0.0000
     atom:   26    charge:    3.1127    magn:   -0.0003    constr:    0.0000
     atom:   27    charge:    2.0803    magn:    0.0028    constr:    0.0000
     atom:   28    charge:    2.0839    magn:    0.0008    constr:    0.0000
     atom:   29    charge:    2.0860    magn:    0.0009    constr:    0.0000
     atom:   30    charge:    3.1171    magn:   -0.0008    constr:    0.0000
     atom:   31    charge:    2.0825    magn:    0.0007    constr:    0.0000
     atom:   32    charge:    2.0829    magn:    0.0065    constr:    0.0000
     atom:   33    charge:    2.0624    magn:    0.0008    constr:    0.0000
     atom:   34    charge:    3.1239    magn:   -0.0000    constr:    0.0000
     atom:   35    charge:    2.0875    magn:    0.0000    constr:    0.0000
     atom:   36    charge:    2.0847    magn:    0.0001    constr:    0.0000
     atom:   37    charge:    2.0847    magn:    0.0001    constr:    0.0000
     atom:   38    charge:    3.1200    magn:    0.0000    constr:    0.0000
     atom:   39    charge:    2.0839    magn:    0.0002    constr:    0.0000
     atom:   40    charge:    2.0756    magn:   -0.0001    constr:    0.0000
     atom:   41    charge:    2.0870    magn:   -0.0000    constr:    0.0000
     atom:   42    charge:    3.1151    magn:   -0.0003    constr:    0.0000
     atom:   43    charge:    2.0803    magn:    0.0033    constr:    0.0000
     atom:   44    charge:    2.0851    magn:    0.0010    constr:    0.0000
     atom:   45    charge:    2.0858    magn:    0.0006    constr:    0.0000
     atom:   46    charge:    3.1148    magn:   -0.0008    constr:    0.0000
     atom:   47    charge:    2.0805    magn:    0.0049    constr:    0.0000
     atom:   48    charge:    2.0837    magn:    0.0147    constr:    0.0000
     atom:   49    charge:    2.0518    magn:    0.2446    constr:    0.0000
     atom:   50    charge:    0.6709    magn:    0.0525    constr:    0.0000
     atom:   51    charge:    0.4124    magn:    0.0012    constr:    0.0000
     atom:   52    charge:    0.4306    magn:    0.0009    constr:    0.0000
     atom:   53    charge:    0.3783    magn:    0.0237    constr:    0.0000
     atom:   54    charge:    0.4158    magn:    0.0008    constr:    0.0000

     total cpu time spent up to now is     3439.7 secs

     End of self-consistent calculation

 ------ SPIN UP ------------


          k = 0.0000 0.0000 0.0000 ( 34665 PWs)   bands (ev):

   -58.3233 -58.2883 -57.4056 -57.3999 -57.3667 -57.3292 -57.2780 -57.1104
   -57.0823 -57.0763 -57.0377 -56.9396 -56.9155 -56.9043 -56.8150 -56.7765
   -34.7685 -34.5919 -34.5631 -34.5299 -34.4349 -34.3780 -33.9005 -33.8883
   -33.7704 -33.6971 -33.6550 -33.6123 -33.5795 -33.5730 -33.5671 -33.5605
   -33.5493 -33.5342 -33.5087 -33.5076 -33.4930 -33.4923 -33.4885 -33.4705
   -33.3590 -33.3499 -33.3493 -33.3472 -33.3352 -33.3061 -33.2997 -33.2803
   -33.2600 -33.2547 -33.2536 -33.2446 -33.2174 -33.1940 -33.1606 -33.1582
   -33.1206 -33.0930 -33.0683 -33.0441 -33.0300 -33.0038 -32.9666 -32.8959
   -18.4885 -18.0562 -17.8322 -17.7308 -17.5716 -17.5489 -17.5067 -17.4034
   -17.3771 -17.2764 -17.0654 -17.0441 -17.0371 -17.0160 -16.9522 -16.8741
   -16.8547 -16.8175 -16.7598 -16.7300 -16.7097 -16.6779 -16.6112 -16.6082
   -16.4852 -16.4379 -16.4177 -16.3834 -16.3454 -16.1618 -16.0999 -15.6189
   -15.5581 -11.1260  -6.0670  -5.5163  -5.3021  -5.2223  -5.1139  -5.0154
    -5.0017  -4.9665  -4.8977  -4.7531  -4.6693  -4.6187  -4.6049  -4.5300
    -4.4488  -4.4332  -4.3720  -4.3357  -4.2482  -4.2377  -4.2039  -4.1607
    -4.0504  -4.0426  -3.9965  -3.9279  -3.9114  -3.9056  -3.9028  -3.8347
    -3.7961  -3.7711  -3.6571  -3.6493  -3.6024  -3.5886  -3.5584  -3.5469
    -3.4497  -3.4349  -3.4243  -3.3786  -3.2922  -3.2493  -3.2081  -3.1051
    -2.9327  -2.9162  -2.8706  -2.8148  -2.7649  -2.7128  -2.6900  -2.6753
    -2.6529  -2.5555  -2.5087  -2.4580  -2.3967  -2.3537  -2.2693  -2.2482
    -2.2444  -2.1795  -2.0840  -2.0601  -2.0224  -1.9785  -1.9486  -1.9183
    -1.8738  -1.7568  -1.7151  -1.6887  -1.6601  -1.6496  -1.6068  -1.5261
    -1.4404  -1.3868  -1.3721  -1.3575  -1.3326  -1.2835  -1.2449  -1.1889
    -1.1783  -1.1296  -1.1292  -1.1188  -1.0834  -0.9996  -0.8924  -0.8566
    -0.8273  -0.7122  -0.7061  -0.6431  -0.5711  -0.5298  -0.5021  -0.2060
     1.0076   1.1044   1.3993   1.6773   1.7858   1.9038   1.9511   1.9978
     2.0280   2.1148   2.1913   2.2123   2.2582   2.3773   2.4527   2.4664
     2.4734   2.5004   2.6038   2.6491   2.6541   2.6721   2.6924   2.8093
     2.8241   2.8685   2.8827   2.9378   2.9505   3.0034   3.0110   3.0340
     3.0872   3.1437   3.1814   3.1821   3.2300   3.2378   3.3934   3.4321
     3.4615   3.5027   3.5796   3.6088   3.6520   3.6962   3.8114   3.9391
     4.0871   4.1185   4.3093   4.4555   4.5780   4.6888   4.7670   4.8194
     5.0685   5.1150   5.1982   5.3362   5.3811   5.3856   5.4149   5.4167
     5.4568   5.5044   5.5378   5.6457   5.7013   5.7238   5.8883   5.9213
     5.9390   6.0584   6.0759   6.1186   6.2042   6.2764   6.4059   6.4721
     6.5250   6.5677   6.7674   6.7997   7.2152   7.9133   8.1467   8.1618
     8.3645   8.3802   8.6750   8.7195   8.7399   8.9755   9.1536   9.2578
     9.3307   9.4591   9.6291

          k = 0.0000 0.0280 0.0000 ( 34717 PWs)   bands (ev):

   -58.3210 -58.2906 -57.4039 -57.3982 -57.3691 -57.3303 -57.2776 -57.1102
   -57.0824 -57.0745 -57.0397 -56.9373 -56.9157 -56.9067 -56.8125 -56.7790
   -34.7431 -34.5899 -34.5650 -34.5236 -34.4414 -34.4051 -33.8751 -33.8628
   -33.7496 -33.6908 -33.6489 -33.6098 -33.5869 -33.5693 -33.5614 -33.5529
   -33.5484 -33.5359 -33.5328 -33.5157 -33.5083 -33.4913 -33.4838 -33.4643
   -33.3536 -33.3472 -33.3341 -33.3329 -33.3241 -33.3226 -33.2971 -33.2787
   -33.2646 -33.2565 -33.2541 -33.2441 -33.2202 -33.2193 -33.1668 -33.1522
   -33.1325 -33.0895 -33.0744 -33.0439 -33.0299 -33.0086 -32.9940 -32.9246
   -18.4301 -17.9965 -17.7823 -17.7006 -17.6252 -17.5268 -17.4580 -17.3914
   -17.3459 -17.3070 -17.1164 -17.0272 -17.0150 -17.0043 -16.9512 -16.8968
   -16.8147 -16.7931 -16.7808 -16.7561 -16.7286 -16.7037 -16.6376 -16.5850
   -16.4992 -16.4631 -16.4246 -16.4067 -16.3776 -16.1805 -16.1415 -15.6330
   -15.5836 -11.1270  -5.9816  -5.4321  -5.2228  -5.1518  -5.0446  -4.9891
    -4.9474  -4.9333  -4.8269  -4.7484  -4.6877  -4.6731  -4.5458  -4.5356
    -4.4364  -4.3963  -4.3824  -4.3426  -4.2774  -4.2278  -4.2148  -4.1936
    -4.1190  -4.0859  -4.0346  -4.0140  -3.9977  -3.9899  -3.9410  -3.8703
    -3.8340  -3.7731  -3.7462  -3.7324  -3.6595  -3.5834  -3.5259  -3.4507
    -3.4181  -3.3375  -3.3197  -3.2918  -3.2829  -3.1418  -3.1234  -2.9634
    -2.9216  -2.9012  -2.8140  -2.7690  -2.7634  -2.7405  -2.7026  -2.6706
    -2.6185  -2.5361  -2.4772  -2.4634  -2.4334  -2.3001  -2.2746  -2.2436
    -2.2320  -2.1719  -2.1643  -2.0493  -2.0004  -1.9776  -1.9448  -1.9318
    -1.8947  -1.7865  -1.7782  -1.7394  -1.7015  -1.6304  -1.6016  -1.5915
    -1.5211  -1.4782  -1.4121  -1.3961  -1.3923  -1.3744  -1.3041  -1.2919
    -1.2551  -1.1941  -1.1787  -1.0876  -1.0123  -0.9728  -0.9510  -0.9159
    -0.8955  -0.8600  -0.7485  -0.6182  -0.5918  -0.5781  -0.5583  -0.2471
     1.1402   1.1454   1.4005   1.8139   1.8580   1.8757   1.9082   1.9847
     2.0429   2.0609   2.2815   2.2901   2.3226   2.4399   2.4760   2.4965
     2.5046   2.5265   2.5312   2.5801   2.6971   2.7157   2.7855   2.7957
     2.8180   2.8818   2.9189   2.9466   2.9636   2.9764   2.9979   3.0483
     3.0687   3.1055   3.1581   3.2171   3.2297   3.3104   3.4181   3.4589
     3.4954   3.5255   3.5504   3.5717   3.6266   3.6492   3.7696   3.8913
     4.0414   4.1854   4.2656   4.5086   4.6885   4.6901   4.7970   4.8943
     5.0953   5.1557   5.2410   5.2850   5.3543   5.3945   5.4171   5.4643
     5.4888   5.5308   5.5565   5.6443   5.6894   5.6972   5.8069   5.8669
     5.9324   5.9736   6.0319   6.0402   6.1616   6.2361   6.3711   6.4174
     6.4342   6.5487   6.7201   6.8035   7.3219   7.4396   8.0102   8.0805
     8.3370   8.4877   8.5427   8.7283   8.7952   8.9893   9.1137   9.3051
     9.3742   9.4421   9.5275

          k = 0.0000 0.0560 0.0000 ( 34721 PWs)   bands (ev):

   -58.3146 -58.2970 -57.4005 -57.3930 -57.3755 -57.3325 -57.2768 -57.1098
   -57.0829 -57.0699 -57.0447 -56.9308 -56.9162 -56.9132 -56.8058 -56.7858
   -34.6732 -34.5846 -34.5702 -34.5065 -34.4782 -34.4590 -33.8053 -33.7934
   -33.6989 -33.6739 -33.6322 -33.6101 -33.6092 -33.6035 -33.5888 -33.5853
   -33.5573 -33.5486 -33.5310 -33.5130 -33.4892 -33.4844 -33.4815 -33.4304
   -33.3882 -33.3430 -33.3410 -33.3272 -33.2987 -33.2888 -33.2740 -33.2735
   -33.2717 -33.2643 -33.2612 -33.2429 -33.2323 -33.2283 -33.1843 -33.1519
   -33.1360 -33.0911 -33.0866 -33.0679 -33.0432 -33.0299 -33.0208 -32.9951
   -18.2690 -17.8318 -17.8089 -17.6525 -17.6179 -17.4286 -17.4094 -17.3907
   -17.3284 -17.2838 -17.2491 -17.0651 -17.0179 -16.9403 -16.9354 -16.9194
   -16.8652 -16.8349 -16.7460 -16.7226 -16.7173 -16.6910 -16.6436 -16.5784
   -16.5322 -16.5265 -16.4729 -16.4596 -16.4317 -16.2444 -16.2227 -15.6615
   -15.6372 -11.1287  -5.7422  -5.1993  -5.0630  -5.0075  -4.9800  -4.9581
    -4.8658  -4.8508  -4.8326  -4.7917  -4.7509  -4.5715  -4.5264  -4.4832
    -4.4114  -4.4106  -4.3687  -4.3377  -4.3228  -4.3052  -4.2681  -4.2308
    -4.2265  -4.2084  -4.1471  -4.0749  -4.0299  -3.9874  -3.9807  -3.9245
    -3.8779  -3.8324  -3.7259  -3.6732  -3.5729  -3.5199  -3.4271  -3.4179
    -3.3782  -3.2984  -3.2599  -3.1424  -3.1035  -3.0826  -3.0526  -3.0274
    -2.9838  -2.9735  -2.8452  -2.8141  -2.7595  -2.7136  -2.6690  -2.5701
    -2.5005  -2.4908  -2.4567  -2.3727  -2.3197  -2.3141  -2.2413  -2.2063
    -2.1704  -2.1572  -2.1352  -2.1037  -2.0714  -2.0284  -2.0135  -1.9867
    -1.9515  -1.9097  -1.8998  -1.8783  -1.8320  -1.7711  -1.6768  -1.6236
    -1.6103  -1.5954  -1.5303  -1.4916  -1.4671  -1.4614  -1.4494  -1.3944
    -1.3108  -1.2902  -1.2336  -1.2231  -1.1076  -1.0290  -0.9966  -0.9619
    -0.8772  -0.8541  -0.7546  -0.7332  -0.6380  -0.5999  -0.5818  -0.3504
     1.2692   1.4109   1.4836   1.7047   1.7816   1.8745   1.9453   2.0425
     2.1231   2.2591   2.2644   2.3160   2.4000   2.4686   2.4879   2.5145
     2.5558   2.5944   2.6450   2.6930   2.7358   2.7526   2.7842   2.8330
     2.8481   2.8669   2.8763   2.9470   2.9930   3.0109   3.0198   3.0468
     3.1079   3.1410   3.1643   3.2421   3.2912   3.3227   3.3692   3.4168
     3.4551   3.4705   3.5462   3.5940   3.6578   3.6712   3.7116   3.7864
     3.9083   4.1431   4.3075   4.6355   4.7258   4.8262   4.9183   5.0568
     5.0616   5.1598   5.2658   5.3170   5.3850   5.4199   5.4528   5.4826
     5.4829   5.5462   5.5662   5.6319   5.6367   5.7378   5.7547   5.8002
     5.8489   5.8683   5.8729   5.9134   6.1007   6.1459   6.2852   6.3704
     6.4104   6.4298   6.7086   6.7351   7.0025   7.2425   7.6180   7.7537
     8.2056   8.3820   8.7069   8.8117   8.8417   8.9054   9.1849   9.3504
     9.4152   9.6037   9.7136

          k = 0.0000-0.0840 0.0000 ( 34678 PWs)   bands (ev):

   -58.3065 -58.3051 -57.3989 -57.3866 -57.3823 -57.3337 -57.2765 -57.1096
   -57.0832 -57.0666 -57.0481 -56.9224 -56.9217 -56.9164 -56.7992 -56.7925
   -34.5782 -34.5773 -34.5763 -34.5758 -34.4834 -34.4822 -33.7216 -33.7083
   -33.7046 -33.6661 -33.6648 -33.6589 -33.6272 -33.6110 -33.6069 -33.5964
   -33.5558 -33.5505 -33.5305 -33.5222 -33.4864 -33.4804 -33.4183 -33.4046
   -33.3976 -33.3816 -33.3449 -33.3399 -33.3241 -33.2909 -33.2781 -33.2690
   -33.2678 -33.2673 -33.2428 -33.2414 -33.1935 -33.1676 -33.1667 -33.1594
   -33.1408 -33.1384 -33.1140 -33.1133 -33.0434 -33.0346 -33.0318 -33.0261
   -18.0439 -18.0432 -17.6120 -17.6029 -17.5293 -17.5046 -17.5044 -17.4145
   -17.2776 -17.2401 -17.1536 -17.1258 -17.0918 -17.0582 -16.9271 -16.8643
   -16.8272 -16.8269 -16.8255 -16.6942 -16.6321 -16.6286 -16.6224 -16.5983
   -16.5697 -16.5468 -16.5265 -16.4935 -16.4845 -16.2868 -16.2636 -15.6708
   -15.6708 -11.1296  -5.4026  -5.4024  -4.9662  -4.9065  -4.9055  -4.8934
    -4.8710  -4.7892  -4.7775  -4.7390  -4.6781  -4.6235  -4.5874  -4.5798
    -4.5121  -4.4884  -4.4652  -4.4107  -4.3952  -4.2851  -4.2731  -4.2650
    -4.1777  -4.1345  -4.0857  -4.0481  -4.0113  -3.9169  -3.9014  -3.8549
    -3.7990  -3.7222  -3.6912  -3.6726  -3.6679  -3.6421  -3.5482  -3.4177
    -3.3787  -3.3554  -3.1671  -3.0961  -3.0904  -3.0388  -2.9457  -2.9421
    -2.9327  -2.8687  -2.8454  -2.8090  -2.7911  -2.7144  -2.6878  -2.6654
    -2.5402  -2.5182  -2.4387  -2.4221  -2.4146  -2.3927  -2.3306  -2.2546
    -2.2466  -2.1844  -2.1388  -2.0785  -2.0262  -1.9987  -1.9945  -1.9880
    -1.9839  -1.9593  -1.8615  -1.8177  -1.7972  -1.7474  -1.7112  -1.6775
    -1.6609  -1.6291  -1.6092  -1.5366  -1.5268  -1.4844  -1.4647  -1.4427
    -1.3989  -1.3489  -1.3017  -1.1961  -1.1558  -1.1361  -1.1122  -1.0957
    -0.8577  -0.8331  -0.6358  -0.6269  -0.6217  -0.6139  -0.5649  -0.5168
     1.4653   1.4681   1.6178   1.6184   1.6973   1.6981   2.0685   2.0693
     2.1319   2.1870   2.3581   2.3923   2.4288   2.4752   2.5230   2.5313
     2.6372   2.6488   2.6581   2.6721   2.7248   2.7341   2.7933   2.7952
     2.8953   2.9306   2.9738   3.0017   3.0067   3.0095   3.0163   3.0195
     3.0271   3.2080   3.2174   3.2475   3.2804   3.3226   3.3487   3.3787
     3.4156   3.4308   3.4861   3.6073   3.6816   3.7196   3.7341   3.7774
     3.8285   4.0207   4.3597   4.7396   4.8153   4.8489   4.8496   5.0353
     5.1277   5.2073   5.2979   5.3137   5.3477   5.3909   5.4516   5.5253
     5.5474   5.5798   5.5820   5.6702   5.6832   5.7022   5.7119   5.7251
     5.7534   5.7945   5.8263   5.9284   6.0120   6.1420   6.2931   6.3839
     6.4474   6.4656   6.5927   6.6150   6.9402   6.9945   7.4580   7.6221
     8.0373   8.2410   8.7303   8.9247   9.1598   9.2429   9.3358   9.3373
     9.4635   9.6000   9.6921

[...]
    -1.7461  -1.5244  -1.4788  -1.4687  -1.4532  -1.4155  -1.3358  -1.1717
    -1.1606  -1.1051  -1.0867  -1.0704  -0.9908  -0.9273  -0.8893  -0.8048
    -0.7511  -0.7443  -0.7165  -0.6876  -0.6130  -0.5911  -0.5772   0.2671
     1.5843   1.5878   1.6003   1.6057   1.9483   1.9491   2.0780   2.0790
     2.2614   2.2824   2.2955   2.3772   2.4006   2.4700   2.5585   2.6161
     2.6381   2.6829   2.7660   2.7998   2.8553   2.9077   2.9302   2.9581
     2.9724   2.9817   3.0229   3.0805   3.0943   3.1920   3.2180   3.2264
     3.2421   3.2669   3.3237   3.3697   3.3840   3.3886   3.4462   3.4565
     3.4670   3.4944   3.5091   3.5628   3.6202   3.6399   3.7595   3.8624
     3.8976   3.9083   4.1230   4.1235   4.5744   4.6023   4.6247   4.7104
     4.8656   4.8816   4.9136   5.0641   5.1440   5.1490   5.1675   5.4297
     5.6571   5.6661   5.6764   5.9092   5.9146   5.9482   6.0008   6.0039
     6.0787   6.0887   6.1609   6.2516   6.2541   6.2643   6.3656   6.4430
     6.4848   6.5908   7.0881   7.2728   7.3591   7.4163   7.5553   7.5943
     7.7275   7.7801   7.9294   8.1208   8.3034   8.3463   8.4638   8.8766
     9.0073   9.0723   9.2261

          k =-0.0253 0.0280 0.0000 ( 34687 PWs)   bands (ev):

   -58.3212 -58.2908 -57.4035 -57.3985 -57.3691 -57.3304 -57.2785 -57.1144
   -57.0836 -57.0759 -57.0410 -56.9418 -56.9380 -56.9075 -56.8162 -56.7828
   -34.7436 -34.5901 -34.5652 -34.5230 -34.4415 -34.4053 -33.8753 -33.8649
   -33.7506 -33.6832 -33.6488 -33.6101 -33.5840 -33.5698 -33.5665 -33.5570
   -33.5498 -33.5370 -33.5352 -33.5153 -33.5093 -33.4864 -33.4855 -33.4675
   -33.3547 -33.3448 -33.3383 -33.3347 -33.3258 -33.3238 -33.2986 -33.2803
   -33.2696 -33.2567 -33.2556 -33.2473 -33.2343 -33.2205 -33.1861 -33.1530
   -33.1526 -33.0930 -33.0752 -33.0536 -33.0343 -33.0120 -32.9948 -32.9274
   -18.3862 -17.9575 -17.7916 -17.7502 -17.5388 -17.5326 -17.3913 -17.3844
   -17.3611 -17.3316 -17.1280 -17.0852 -17.0003 -16.9552 -16.8890 -16.8453
   -16.8077 -16.7671 -16.7489 -16.6855 -16.6786 -16.5994 -16.5590 -16.5012
   -16.4772 -16.4204 -16.3826 -16.3645 -16.1679 -16.1322 -15.8986 -15.6283
   -15.5797 -10.7407  -5.8571  -5.3261  -5.1598  -5.1420  -5.0096  -4.9689
    -4.9298  -4.8416  -4.7144  -4.6938  -4.6527  -4.5526  -4.5144  -4.4581
    -4.4248  -4.3297  -4.3063  -4.2669  -4.2115  -4.1951  -4.1569  -4.1435
    -4.1111  -4.0728  -4.0374  -4.0080  -3.9698  -3.9300  -3.8991  -3.8147
    -3.8007  -3.7402  -3.6834  -3.6379  -3.5804  -3.5239  -3.4732  -3.4019
    -3.3553  -3.3364  -3.2828  -3.2576  -3.2322  -3.1942  -3.1290  -3.1118
    -2.9345  -2.8958  -2.8379  -2.7927  -2.7382  -2.6969  -2.6909  -2.6336
    -2.6016  -2.5246  -2.5156  -2.4578  -2.4227  -2.3746  -2.3043  -2.2819
    -2.2299  -2.2075  -2.1204  -2.0591  -1.9754  -1.9561  -1.9326  -1.8657
    -1.8554  -1.8078  -1.7615  -1.7014  -1.6527  -1.6117  -1.5789  -1.5261
    -1.4928  -1.4517  -1.4228  -1.3964  -1.3752  -1.3619  -1.3304  -1.3077
    -1.2214  -1.1387  -1.0802  -1.0271  -1.0039  -0.9702  -0.9457  -0.9008
    -0.8593  -0.8364  -0.6476  -0.6264  -0.6017  -0.5389  -0.2825   0.2911
     1.1362   1.2298   1.4139   1.8031   1.8427   1.9097   1.9460   2.0133
     2.0242   2.1736   2.2841   2.3300   2.3715   2.4139   2.4379   2.4882
     2.5083   2.5327   2.5736   2.6340   2.6825   2.7064   2.7632   2.8158
     2.8613   2.8976   2.9143   2.9569   2.9748   2.9987   3.0254   3.0775
     3.1550   3.1756   3.2178   3.2435   3.2787   3.3222   3.4138   3.4490
     3.4792   3.5449   3.5970   3.6281   3.6481   3.7285   3.8064   3.8504
     3.9980   4.1937   4.2699   4.4201   4.6092   4.7083   4.8281   4.8451
     4.9866   5.0104   5.0966   5.1829   5.2274   5.3443   5.4456   5.5335
     5.6648   5.6799   5.7161   5.7878   5.8351   5.8671   5.8937   5.9154
     5.9520   5.9743   6.0514   6.1265   6.1598   6.2694   6.3825   6.4336
     6.4471   6.5729   6.7459   6.8042   7.3806   7.4720   7.8091   7.9040
     8.1092   8.2428   8.4842   8.5368   8.7932   8.8974   9.0749   9.3088
     9.3760   9.5254   9.6208

          k =-0.0253 0.0560 0.0000 ( 34699 PWs)   bands (ev):

   -58.3148 -58.2972 -57.4003 -57.3931 -57.3754 -57.3326 -57.2777 -57.1139
   -57.0841 -57.0712 -57.0459 -56.9423 -56.9316 -56.9140 -56.8095 -56.7895
   -34.6736 -34.5848 -34.5704 -34.5060 -34.4784 -34.4589 -33.8055 -33.7957
   -33.6998 -33.6679 -33.6321 -33.6085 -33.6045 -33.6036 -33.5922 -33.5853
   -33.5590 -33.5495 -33.5357 -33.5144 -33.5006 -33.4841 -33.4726 -33.4338
   -33.3896 -33.3425 -33.3386 -33.3315 -33.3007 -33.2911 -33.2754 -33.2747
   -33.2733 -33.2650 -33.2616 -33.2481 -33.2364 -33.2345 -33.2019 -33.1815
   -33.1367 -33.0918 -33.0899 -33.0687 -33.0505 -33.0367 -33.0241 -32.9980
   -18.2285 -17.8186 -17.7973 -17.6287 -17.6168 -17.4728 -17.4103 -17.3866
   -17.2658 -17.2584 -17.2209 -17.0751 -16.9653 -16.9363 -16.8982 -16.8574
   -16.8147 -16.7607 -16.7498 -16.7344 -16.6994 -16.6155 -16.5647 -16.5478
   -16.5169 -16.4586 -16.4275 -16.4237 -16.2282 -16.2140 -15.8975 -15.6571
   -15.6335 -10.7426  -5.6219  -5.0987  -5.0408  -4.9729  -4.9409  -4.8339
    -4.8120  -4.7749  -4.7046  -4.6907  -4.5430  -4.5265  -4.4632  -4.4126
    -4.3946  -4.3863  -4.3372  -4.2941  -4.2669  -4.2572  -4.2239  -4.1919
    -4.1486  -4.1381  -4.0736  -4.0450  -4.0063  -3.9837  -3.9471  -3.9065
    -3.8465  -3.8078  -3.6705  -3.5921  -3.5528  -3.4905  -3.4462  -3.4011
    -3.3721  -3.2963  -3.2039  -3.1754  -3.1298  -3.1098  -3.0722  -3.0396
    -2.9958  -2.9424  -2.8580  -2.8088  -2.7788  -2.7211  -2.6251  -2.6060
    -2.5392  -2.5257  -2.4701  -2.4063  -2.3911  -2.3346  -2.3169  -2.2755
    -2.2056  -2.1514  -2.1375  -2.1048  -2.0654  -2.0230  -2.0018  -1.9652
    -1.9473  -1.9221  -1.9098  -1.8624  -1.7847  -1.7193  -1.7058  -1.6105
    -1.5890  -1.5609  -1.5340  -1.5014  -1.4553  -1.4303  -1.4009  -1.3426
    -1.3070  -1.2390  -1.1699  -1.0509  -1.0210  -0.9868  -0.9538  -0.8741
    -0.7801  -0.7507  -0.7215  -0.6567  -0.6261  -0.5724  -0.3796   0.2721
     1.2705   1.4525   1.5478   1.7417   1.7572   1.8954   1.9624   2.0414
     2.2490   2.2591   2.3260   2.3622   2.3987   2.4707   2.5063   2.5311
     2.5563   2.5797   2.6367   2.6904   2.7045   2.7485   2.7907   2.8400
     2.8664   2.9012   2.9452   2.9911   3.0163   3.0299   3.0398   3.0932
     3.1431   3.1826   3.2020   3.2722   3.3015   3.3297   3.3621   3.4413
     3.4936   3.5186   3.5970   3.6191   3.6536   3.7124   3.7311   3.7853
     3.8807   4.0842   4.3769   4.4845   4.6997   4.8427   4.8938   4.9453
     4.9793   5.0737   5.1707   5.1920   5.3212   5.3724   5.4177   5.5127
     5.5490   5.5839   5.6363   5.6935   5.7227   5.7878   5.8039   5.8449
     5.9122   5.9295   6.0136   6.0747   6.1172   6.2001   6.3158   6.4201
     6.4511   6.4712   6.7089   6.7564   7.0815   7.3246   7.6774   7.8372
     8.1199   8.2405   8.3262   8.4932   8.7728   8.9078   8.9982   9.1857
     9.3698   9.5574   9.6606

          k =-0.0506 0.0280 0.0000 ( 34685 PWs)   bands (ev):

   -58.3212 -58.2908 -57.4027 -57.3993 -57.3691 -57.3304 -57.2785 -57.1144
   -57.0832 -57.0763 -57.0410 -56.9418 -56.9380 -56.9075 -56.8162 -56.7828
   -34.7443 -34.5901 -34.5652 -34.5215 -34.4415 -34.4053 -33.8757 -33.8689
   -33.7508 -33.6637 -33.6486 -33.6102 -33.5891 -33.5715 -33.5704 -33.5625
   -33.5501 -33.5444 -33.5340 -33.5152 -33.5094 -33.4872 -33.4736 -33.4686
   -33.3548 -33.3379 -33.3363 -33.3346 -33.3236 -33.3229 -33.2988 -33.2823
   -33.2797 -33.2557 -33.2557 -33.2501 -33.2345 -33.2199 -33.1823 -33.1530
   -33.1528 -33.0930 -33.0752 -33.0604 -33.0327 -33.0120 -32.9948 -32.9274
   -18.2779 -17.8798 -17.8680 -17.7173 -17.6038 -17.4714 -17.4540 -17.3603
   -17.3330 -17.2670 -17.1965 -17.1026 -17.0128 -16.9677 -16.9388 -16.9102
   -16.8273 -16.7836 -16.7725 -16.7126 -16.6488 -16.5655 -16.5392 -16.5049
   -16.4773 -16.4214 -16.4066 -16.3692 -16.1644 -16.1325 -15.8994 -15.6265
   -15.5798 -10.7405  -5.5557  -5.2033  -5.1698  -5.1375  -4.9656  -4.8856
    -4.7839  -4.7258  -4.6989  -4.6682  -4.6175  -4.6034  -4.5494  -4.4236
    -4.3797  -4.3384  -4.2563  -4.2323  -4.1929  -4.1795  -4.1634  -4.0773
    -4.0643  -4.0302  -3.9925  -3.9490  -3.8999  -3.8549  -3.8274  -3.7878
    -3.7355  -3.6847  -3.6279  -3.5861  -3.5540  -3.5049  -3.4795  -3.4712
    -3.3937  -3.3787  -3.2824  -3.2679  -3.2188  -3.1523  -3.1339  -3.0745
    -3.0256  -2.9962  -2.9153  -2.8518  -2.7710  -2.7150  -2.7053  -2.6795
    -2.6327  -2.6092  -2.5945  -2.5416  -2.5320  -2.4089  -2.3578  -2.3480
    -2.2857  -2.2154  -2.2014  -2.1755  -2.0972  -2.0269  -2.0206  -1.9586
    -1.9405  -1.9105  -1.8261  -1.7385  -1.7246  -1.7007  -1.6308  -1.6032
    -1.5392  -1.4935  -1.4698  -1.4074  -1.3949  -1.3414  -1.3259  -1.2767
    -1.2597  -1.1372  -1.0740  -1.0509  -1.0273  -0.9720  -0.9410  -0.8922
    -0.8443  -0.8124  -0.7375  -0.6980  -0.6766  -0.5530  -0.4082   0.2754
     1.1231   1.3232   1.4482   1.5490   1.9169   1.9268   1.9495   2.0412
     2.1072   2.1818   2.2368   2.3126   2.3897   2.4230   2.5117   2.5291
     2.5754   2.6332   2.6705   2.6844   2.7381   2.8116   2.8346   2.8647
     2.9237   2.9294   2.9623   2.9676   2.9740   3.0851   3.0925   3.1209
     3.1688   3.1977   3.2754   3.2947   3.3388   3.3651   3.3895   3.4379
     3.4529   3.5321   3.5861   3.6511   3.7260   3.7628   3.7827   3.8851
     3.9425   4.0456   4.0923   4.3909   4.4931   4.6393   4.7307   4.7931
     4.8250   4.8971   4.9494   5.2733   5.3139   5.3980   5.5115   5.5434
     5.6249   5.7498   5.7697   5.8367   5.8841   5.8962   5.9780   6.0472
     6.0769   6.1510   6.2336   6.3196   6.3711   6.4009   6.4296   6.4744
     6.5250   6.5366   6.6999   6.9220   7.0973   7.2228   7.5373   7.6192
     7.7350   8.2310   8.4181   8.4954   8.8588   8.9442   9.0697   9.2156
     9.4332   9.6144   9.6750

          k =-0.0506 0.0560 0.0000 ( 34596 PWs)   bands (ev):

   -58.3148 -58.2972 -57.3999 -57.3935 -57.3754 -57.3327 -57.2777 -57.1139
   -57.0839 -57.0714 -57.0459 -56.9423 -56.9316 -56.9140 -56.8095 -56.7895
   -34.6742 -34.5848 -34.5704 -34.5047 -34.4786 -34.4585 -33.8057 -33.8002
   -33.7000 -33.6522 -33.6319 -33.6077 -33.6061 -33.6035 -33.5865 -33.5853
   -33.5623 -33.5497 -33.5479 -33.5146 -33.5098 -33.4842 -33.4610 -33.4354
   -33.3899 -33.3423 -33.3289 -33.3250 -33.3033 -33.2933 -33.2766 -33.2745
   -33.2731 -33.2649 -33.2612 -33.2581 -33.2374 -33.2346 -33.2012 -33.1774
   -33.1367 -33.0918 -33.0900 -33.0686 -33.0547 -33.0373 -33.0241 -32.9978
   -18.1253 -17.8363 -17.7195 -17.6311 -17.6147 -17.5753 -17.3983 -17.3866
   -17.2368 -17.2239 -17.1352 -17.1130 -16.9954 -16.9298 -16.8854 -16.8597
   -16.8414 -16.8256 -16.7789 -16.7536 -16.7386 -16.6458 -16.6145 -16.5239
   -16.5139 -16.4562 -16.4386 -16.4277 -16.2277 -16.2103 -15.8974 -15.6558
   -15.6339 -10.7424  -5.3192  -5.0095  -4.9589  -4.9511  -4.8009  -4.7931
    -4.7344  -4.6572  -4.5445  -4.5245  -4.5185  -4.4359  -4.4214  -4.3985
    -4.3788  -4.3452  -4.3267  -4.2665  -4.2183  -4.1938  -4.1857  -4.1308
    -4.1180  -4.0867  -4.0611  -4.0158  -3.9988  -3.9260  -3.9083  -3.8415
    -3.7976  -3.7158  -3.6446  -3.6203  -3.5840  -3.5202  -3.4849  -3.4417
    -3.4012  -3.3322  -3.2743  -3.2485  -3.1510  -3.1259  -3.0923  -3.0650
    -3.0106  -2.9950  -2.9749  -2.9145  -2.8177  -2.7805  -2.7661  -2.7224
    -2.6466  -2.6038  -2.5628  -2.5136  -2.4957  -2.4312  -2.4071  -2.3869
    -2.3685  -2.3075  -2.2120  -2.1888  -2.1639  -2.1465  -2.1200  -2.0652
    -2.0301  -1.9881  -1.9610  -1.8878  -1.8648  -1.7992  -1.7490  -1.6747
    -1.5836  -1.5662  -1.5543  -1.5126  -1.4570  -1.4021  -1.3704  -1.3235
    -1.2619  -1.1919  -1.0946  -1.0384  -1.0050  -0.9207  -0.8693  -0.8622
    -0.8111  -0.7240  -0.7094  -0.6886  -0.6732  -0.5706  -0.4936   0.2744
     1.2911   1.4808   1.6295   1.6512   1.8359   1.9870   2.0156   2.0505
     2.2265   2.2392   2.3440   2.3596   2.4157   2.4446   2.5314   2.5685
     2.6338   2.6792   2.7127   2.7272   2.7943   2.8251   2.8540   2.8865
     2.9165   2.9339   2.9896   3.0251   3.0556   3.0965   3.1282   3.1738
     3.1788   3.2350   3.2680   3.3080   3.3174   3.3602   3.4002   3.4501
     3.4660   3.5324   3.5622   3.6243   3.6515   3.7303   3.7892   3.8247
     3.8675   3.9444   4.1357   4.4876   4.5794   4.5993   4.7376   4.8049
     4.8717   4.9484   4.9939   5.1697   5.2853   5.3593   5.3952   5.4274
     5.5791   5.6022   5.6512   5.7006   5.8632   5.8801   5.9705   5.9902
     6.0529   6.0922   6.1563   6.1980   6.3091   6.3262   6.4050   6.4120
     6.5271   6.6030   6.7681   6.7947   7.1991   7.3781   7.5262   7.6292
     7.9445   8.0244   8.1085   8.3878   8.6127   8.7213   8.8158   9.0465
     9.1942   9.3253   9.4334

     the Fermi energy is    -0.3084 ev

!    total energy              =   -3021.14860771 Ry
     Harris-Foulkes estimate   =   -3021.14860750 Ry
     estimated scf accuracy    <       0.00000044 Ry

     The total energy is the sum of the following terms:

     one-electron contribution =  -40438.13995807 Ry
     hartree contribution      =   20290.20541568 Ry
     xc contribution           =    -553.21044856 Ry
     ewald contribution        =   17680.01622072 Ry
     smearing contrib. (-TS)   =      -0.01983748 Ry

     total magnetization       =     1.06 Bohr mag/cell
     absolute magnetization    =     1.23 Bohr mag/cell

     convergence has been achieved in  11 iterations

     Forces acting on atoms (Ry/au):


     negative rho (up, down):  1.190E-02 1.196E-02
     atom    1 type  1   force =     0.00018651   -0.00089838   -0.10473742
     atom    2 type  2   force =     0.00014439    0.00068139    0.04004541
     atom    3 type  1   force =     0.00074995   -0.00175193   -0.02055477
     atom    4 type  2   force =    -0.00326134    0.00312229   -0.00323063
     atom    5 type  1   force =     0.00034622    0.00008466    0.00028207
     atom    6 type  2   force =    -0.00013376   -0.00010757    0.00024991
     atom    7 type  1   force =    -0.00010391    0.00005825   -0.00130023
     atom    8 type  2   force =     0.00005132    0.00007483    0.00002041
     atom    9 type  1   force =    -0.00003263    0.00056742   -0.10487066
     atom   10 type  2   force =     0.00034924   -0.00021100    0.03601561
     atom   11 type  1   force =     0.00068068    0.00183817    0.00260572
     atom   12 type  2   force =    -0.00518739   -0.00266929   -0.00519000
     atom   13 type  1   force =     0.00041525    0.00006653   -0.00029195
     atom   14 type  2   force =     0.00013669   -0.00008283    0.00003713
     atom   15 type  1   force =    -0.00001905   -0.00001749    0.00031166
     atom   16 type  2   force =    -0.00005926    0.00001031   -0.00038689
     atom   17 type  2   force =     0.00001067   -0.00001471    0.06656840
     atom   18 type  1   force =     0.00005904    0.00003145    0.13137774
     atom   19 type  2   force =     0.00017725   -0.00052974   -0.08520041
     atom   20 type  2   force =    -0.05790883    0.00014318   -0.03607753
     atom   21 type  2   force =     0.05780329   -0.00004843   -0.03603026
     atom   22 type  1   force =    -0.00042718    0.00074782    0.08016142
     atom   23 type  2   force =     0.00020185   -0.00004733    0.00005174
     atom   24 type  2   force =     0.00064393    0.00186047   -0.03467509
     atom   25 type  2   force =     0.00413691    0.00332374   -0.00510160
     atom   26 type  1   force =     0.00041076   -0.00004696    0.00016350
     atom   27 type  2   force =    -0.00009869   -0.00011715   -0.00011862
     atom   28 type  2   force =     0.00008367   -0.00019909   -0.00002376
     atom   29 type  2   force =    -0.00002488   -0.00007863    0.00007176
     atom   30 type  1   force =    -0.00049704   -0.00027749    0.00056659
     atom   31 type  2   force =     0.00016895   -0.00012838   -0.00033067
     atom   32 type  2   force =    -0.00025310    0.00001205    0.00001788
     atom   33 type  2   force =    -0.00016711    0.00004957    0.06630575
     atom   34 type  1   force =     0.00007787   -0.00003486    0.13116010
     atom   35 type  2   force =     0.00018824   -0.00012980   -0.08480989
     atom   36 type  2   force =    -0.05780603    0.00006545   -0.03568921
     atom   37 type  2   force =     0.05797778   -0.00017416   -0.03608255
     atom   38 type  1   force =    -0.00037495   -0.00020578    0.07983237
     atom   39 type  2   force =     0.00007648   -0.00026390   -0.00007767
     atom   40 type  2   force =     0.00049077    0.00123537   -0.03528032
     atom   41 type  2   force =     0.00588524   -0.00243250   -0.00722296
     atom   42 type  1   force =     0.00024193   -0.00006698    0.00007277
     atom   43 type  2   force =    -0.00020536   -0.00009761   -0.00010205
     atom   44 type  2   force =     0.00003813   -0.00015605   -0.00004007
     atom   45 type  2   force =    -0.00002106   -0.00016404    0.00004904
     atom   46 type  1   force =    -0.00006245    0.00001304    0.00058647
     atom   47 type  2   force =     0.00014667   -0.00002186   -0.00048371
     atom   48 type  2   force =    -0.00035312   -0.00033538    0.00048321
     atom   49 type  2   force =    -0.00287319   -0.00521991   -0.00280490
     atom   50 type  3   force =    -0.00723570    0.04814103   -0.01032809
     atom   51 type  4   force =    -0.00997217   -0.01615209    0.01067888
     atom   52 type  4   force =     0.00808410   -0.00998824    0.01132610
     atom   53 type  4   force =    -0.00310620   -0.00827641   -0.00367161
     atom   54 type  4   force =     0.01022060   -0.01118105   -0.00432811

     Total force =     0.347487     Total SCF correction =     0.002174
 !ASE

     Writing output data file calc.save
 
     init_run     :     67.66s CPU     79.22s WALL (       1 calls)
     electrons    :   2944.09s CPU   3360.16s WALL (       1 calls)
     forces       :     49.19s CPU     50.56s WALL (       1 calls)

     Called by init_run:
     wfcinit      :     59.57s CPU     70.60s WALL (       1 calls)
     potinit      :      1.36s CPU      1.62s WALL (       1 calls)

     Called by electrons:
     c_bands      :   2595.94s CPU   2955.41s WALL (      11 calls)
     sum_band     :    299.02s CPU    350.30s WALL (      11 calls)
     v_of_rho     :     12.20s CPU     14.53s WALL (      12 calls)
     newd         :     40.56s CPU     43.60s WALL (      12 calls)
     mix_rho      :      0.45s CPU      0.69s WALL (      11 calls)
     vdW_energy   :      2.71s CPU      3.12s WALL (      13 calls)
     vdW_ffts     :      3.11s CPU      3.87s WALL (      26 calls)
     vdW_v        :      1.28s CPU      1.42s WALL (      13 calls)

     Called by c_bands:
     init_us_2    :      6.88s CPU      7.33s WALL (     960 calls)
     cegterg      :   2551.72s CPU   2908.97s WALL (     440 calls)

     Called by *egterg:
     h_psi        :    971.02s CPU   1252.44s WALL (    2299 calls)
     s_psi        :    165.36s CPU    169.74s WALL (    2299 calls)
     g_psi        :      4.81s CPU      4.89s WALL (    1819 calls)
     cdiaghg      :    853.92s CPU    868.66s WALL (    2259 calls)

     Called by h_psi:
     add_vuspsi   :    167.27s CPU    171.87s WALL (    2299 calls)

     General routines
     calbec       :    248.10s CPU    251.90s WALL (    2779 calls)
     fft          :      6.52s CPU      8.08s WALL (    1029 calls)
     ffts         :      0.05s CPU      0.07s WALL (      46 calls)
     fftw         :    548.92s CPU    868.41s WALL (  782022 calls)
     interpolate  :      0.37s CPU      0.52s WALL (      46 calls)
     davcio       :      0.13s CPU      3.01s WALL (      40 calls)
 
     Parallel routines
     fft_scatter  :    282.33s CPU    455.36s WALL (  783097 calls)
 
     PWSCF        : 51m 2.18s CPU    58m14.76s WALL

 
   This run was terminated on:   3:17:52  26Feb2018            

=------------------------------------------------------------------------------=
   JOB DONE.
=------------------------------------------------------------------------------=
