  python dir          : /home/vossj/suncat/lib/python2.7/site-packages/espresso
  espresso dir        : /home/vossj/suncat/esdld/espresso-dynpy-beef/bin
  pseudo dir          : /home/alatimer/bin/psp/esp_psp_w_gbrvRu/
  ase-espresso py git : ffa2778-git



     Program PWSCF v.5.1rc2 (svn rev. ) starts on 10Mar2018 at  3:57:27 

     This program is part of the open-source Quantum ESPRESSO suite
     for quantum simulation of materials; please cite
         "P. Giannozzi et al., J. Phys.:Condens. Matter 21 395502 (2009);
          URL http://www.quantum-espresso.org", 
     in publications or presentations arising from this work. More details at
     http://www.quantum-espresso.org/quote

     Parallel version (MPI), running on    16 processors
     R & G space division:  proc/nbgrp/npool/nimage =      16
     Reading input from pw.inp
     Message from routine read_cards :
     DEPRECATED: no units specified in CELL_PARAMETERS card

     Current dimensions of program PWSCF are:
     Max number of different atomic species (ntypx) = 10
     Max number of k-points (npk) =  40000
     Max angular momentum in pseudopotentials (lmaxx) =  3

     **************************************************************************
     Initializing libbeef V0.1.1 with the BEEF-vdW functional.
     Citation: Wellendorff et al., PRB 85, 235149 (2012).
     **************************************************************************


     IMPORTANT: XC functional enforced from input :
     Exchange-correlation      = BEEF ( 1  4 27 13 2)
     Any further DFT definition will be discarded
     Please, verify this is what you really want


     Subspace diagonalization in iterative solution of the eigenvalue problem:
     a serial algorithm will be used

 
     Parallelization info
     --------------------
     sticks:   dense  smooth     PW     G-vecs:    dense   smooth      PW
     Min         281     112     31                68535    17318    2565
     Max         282     113     32                68545    17369    2582
     Sum        4501    1795    503              1096637   277353   41113
 
     Generating pointlists ...
     new r_m :   0.4125 (alat units)  0.7795 (a.u.) for type    1
     new r_m :   0.4125 (alat units)  0.7795 (a.u.) for type    2
     new r_m :   0.4125 (alat units)  0.7795 (a.u.) for type    3


     bravais-lattice index     =            0
     lattice parameter (alat)  =       1.8897  a.u.
     unit-cell volume          =    7990.9933 (a.u.)^3
     number of atoms/cell      =           51
     number of atomic types    =            3
     number of electrons       =       400.00
     number of Kohn-Sham states=          300
     kinetic-energy cutoff     =      40.4243  Ry
     charge density cutoff     =     404.2426  Ry
     convergence threshold     =      7.3E-07
     mixing beta               =       0.1000
     number of iterations used =           10  plain     mixing
     Exchange-correlation      = BEEF ( 1  4 27 13 2)
     nstep                     =           50


     celldm(1)=   1.889726  celldm(2)=   0.000000  celldm(3)=   0.000000
     celldm(4)=   0.000000  celldm(5)=   0.000000  celldm(6)=   0.000000

     crystal axes: (cart. coord. in units of alat)
               a(1) = (   6.590708   0.000000   0.000000 )  
               a(2) = (   0.000000   5.950229   0.000000 )  
               a(3) = (   0.000000   0.000000  30.195235 )  

     reciprocal axes: (cart. coord. in units 2 pi/alat)
               b(1) = (  0.151729  0.000000  0.000000 )  
               b(2) = (  0.000000  0.168061  0.000000 )  
               b(3) = (  0.000000  0.000000  0.033118 )  


     PseudoPot. # 1 for Ti read from file:
     /home/alatimer/bin/psp/esp_psp_w_gbrvRu/Ti.UPF
     MD5 check sum: 8e4df49b7f0d34bbd5052bf3f5ea0213
     Pseudo is Ultrasoft, Zval = 12.0
     Generated by new atomic code, or converted to UPF format
     Using radial grid of  851 points,  6 beta functions with: 
                l(1) =   0
                l(2) =   0
                l(3) =   1
                l(4) =   1
                l(5) =   2
                l(6) =   2
     Q(r) pseudized with  8 coefficients,  rinner =    1.000   1.000   1.000
                                                       1.000   1.000

     PseudoPot. # 2 for  O read from file:
     /home/alatimer/bin/psp/esp_psp_w_gbrvRu/O.UPF
     MD5 check sum: e057bbcf3229fb5d8c36c0c92f9568b4
     Pseudo is Ultrasoft + core correction, Zval =  6.0
     Generated using "atomic" code by A. Dal Corso  v.5.0.2 svn rev. 9415
     Using radial grid of 1095 points,  4 beta functions with: 
                l(1) =   0
                l(2) =   0
                l(3) =   1
                l(4) =   1
     Q(r) pseudized with 0 coefficients 


     PseudoPot. # 3 for  N read from file:
     /home/alatimer/bin/psp/esp_psp_w_gbrvRu/N.UPF
     MD5 check sum: ed8b6a90f28a53b7d71920e7015d2dd6
     Pseudo is Ultrasoft + core correction, Zval =  5.0
     Generated using "atomic" code by A. Dal Corso  v.5.0.2 svn rev. 9415
     Using radial grid of 1085 points,  4 beta functions with: 
                l(1) =   0
                l(2) =   0
                l(3) =   1
                l(4) =   1
     Q(r) pseudized with 0 coefficients 


     vdW kernel table read from file vdW_kernel_table
     MD5 check sum: 095c7af220d748ca6e76c0b4c6cfb241

     atomic species   valence    mass     pseudopotential
        Ti1           12.00    47.88000     Ti( 1.00)
        O1             6.00    15.99940      O( 1.00)
        N1             5.00    14.00670      N( 1.00)

     Starting magnetic structure 
     atomic species   magnetization
        Ti1          0.250
        O1           0.500
        N1           0.600

     No symmetry found



   Cartesian axes

     site n.     atom                  positions (alat units)
         1           Ti1 tau(   1) = (   1.6476770   0.7437786   2.6545865  )
         2           O1  tau(   2) = (   1.6476770   2.2313359   3.9361215  )
         3           Ti1 tau(   3) = (   1.6476770   2.2313359   5.9499405  )
         4           O1  tau(   4) = (   0.3661420   0.7437786   5.9499405  )
         5           Ti1 tau(   5) = (   1.5280591   0.7315068   9.1973351  )
         6           O1  tau(   6) = (   1.6613943   2.1836906  10.6091769  )
         7           Ti1 tau(   7) = (   1.6665780   2.2096385  12.4157880  )
         8           O1  tau(   8) = (   0.4439715   0.7264440  12.7601561  )
         9           Ti1 tau(   9) = (   1.6476770   3.7188931   2.6545865  )
        10           O1  tau(  10) = (   1.6476770   5.2064503   3.9361215  )
        11           Ti1 tau(  11) = (   1.6476770   5.2064503   5.9499405  )
        12           O1  tau(  12) = (   0.3661420   3.7188931   5.9499405  )
        13           Ti1 tau(  13) = (   1.5319291   3.7072436   9.2118370  )
        14           O1  tau(  14) = (   1.6575607   5.2126413  10.6087893  )
        15           Ti1 tau(  15) = (   1.6606453   5.1916961  12.4165775  )
        16           O1  tau(  16) = (   0.4123725   3.7022030  12.5882193  )
        17           O1  tau(  17) = (   1.6476770   2.2313359   1.3730516  )
        18           Ti1 tau(  18) = (   4.9430310   2.2313359   2.6545865  )
        19           O1  tau(  19) = (   4.9430310   2.2313359   4.6684056  )
        20           O1  tau(  20) = (   6.2245660   0.7437786   2.6545865  )
        21           O1  tau(  21) = (   3.6614961   0.7437786   2.6545865  )
        22           Ti1 tau(  22) = (   4.9430310   0.7437786   5.9499405  )
        23           O1  tau(  23) = (   1.6517842   2.2287041   8.0298356  )
        24           O1  tau(  24) = (   4.9430310   2.2313359   7.2314755  )
        25           O1  tau(  25) = (   2.9292120   0.7437786   5.9499405  )
        26           Ti1 tau(  26) = (   4.8605205   2.2076595   9.4238065  )
        27           O1  tau(  27) = (   4.9553550   2.1639423  11.2756624  )
        28           O1  tau(  28) = (   6.2690671   0.7288246   9.2688367  )
        29           O1  tau(  29) = (   3.6660957   0.7249325   9.2867299  )
        30           Ti1 tau(  30) = (   4.9284588   0.7282168  12.7798302  )
        31           O1  tau(  31) = (   4.9953437   2.2216212  13.8477397  )
        32           O1  tau(  32) = (   2.9112183   0.7266397  12.7651274  )
        33           O1  tau(  33) = (   1.6476770   5.2064503   1.3730516  )
        34           Ti1 tau(  34) = (   4.9430310   5.2064503   2.6545865  )
        35           O1  tau(  35) = (   4.9430310   5.2064503   4.6684056  )
        36           O1  tau(  36) = (   6.2245660   3.7188931   2.6545865  )
        37           O1  tau(  37) = (   3.6614961   3.7188931   2.6545865  )
        38           Ti1 tau(  38) = (   4.9430310   3.7188931   5.9499405  )
        39           O1  tau(  39) = (   1.6524867   5.1852222   8.0294571  )
        40           O1  tau(  40) = (   4.9430310   5.2064503   7.2314755  )
        41           O1  tau(  41) = (   2.9292120   3.7188931   5.9499405  )
        42           Ti1 tau(  42) = (   4.8610151   5.1886528   9.4241876  )
        43           O1  tau(  43) = (   4.9550983   5.2107439  11.2753448  )
        44           O1  tau(  44) = (   6.2713562   3.7024388   9.3047907  )
        45           O1  tau(  45) = (   3.6650622   3.7005085   9.3135888  )
        46           Ti1 tau(  46) = (   5.0160509   3.7038162  12.7585864  )
        47           O1  tau(  47) = (   4.9984032   5.1727849  13.8485277  )
        48           O1  tau(  48) = (   2.9655234   3.7049164  12.5317472  )
        49           O1  tau(  49) = (   2.2548149   3.7063572  14.5693114  )
        50           N1  tau(  50) = (   2.4020298   3.6667063  16.9651815  )
        51           N1  tau(  51) = (   2.1425646   3.6919273  15.8611024  )

     number of k points=    40  Fermi-Dirac smearing, width (Ry)=  0.0073
                       cart. coord. in units 2pi/alat
        k(    1) = (   0.0000000   0.0000000   0.0000000), wk =   0.0277778
        k(    2) = (   0.0000000   0.0280101   0.0000000), wk =   0.0555556
        k(    3) = (   0.0000000   0.0560203   0.0000000), wk =   0.0555556
        k(    4) = (   0.0000000  -0.0840304   0.0000000), wk =   0.0277778
        k(    5) = (   0.0252881   0.0000000   0.0000000), wk =   0.0555556
        k(    6) = (   0.0252881   0.0280101   0.0000000), wk =   0.0555556
        k(    7) = (   0.0252881   0.0560203   0.0000000), wk =   0.0555556
        k(    8) = (   0.0252881  -0.0840304   0.0000000), wk =   0.0555556
        k(    9) = (   0.0505763   0.0000000   0.0000000), wk =   0.0555556
        k(   10) = (   0.0505763   0.0280101   0.0000000), wk =   0.0555556
        k(   11) = (   0.0505763   0.0560203   0.0000000), wk =   0.0555556
        k(   12) = (   0.0505763  -0.0840304   0.0000000), wk =   0.0555556
        k(   13) = (  -0.0758644   0.0000000   0.0000000), wk =   0.0277778
        k(   14) = (  -0.0758644   0.0280101   0.0000000), wk =   0.0555556
        k(   15) = (  -0.0758644   0.0560203   0.0000000), wk =   0.0555556
        k(   16) = (  -0.0758644  -0.0840304   0.0000000), wk =   0.0277778
        k(   17) = (  -0.0252881   0.0280101   0.0000000), wk =   0.0555556
        k(   18) = (  -0.0252881   0.0560203   0.0000000), wk =   0.0555556
        k(   19) = (  -0.0505763   0.0280101   0.0000000), wk =   0.0555556
        k(   20) = (  -0.0505763   0.0560203   0.0000000), wk =   0.0555556
        k(   21) = (   0.0000000   0.0000000   0.0000000), wk =   0.0277778
        k(   22) = (   0.0000000   0.0280101   0.0000000), wk =   0.0555556
        k(   23) = (   0.0000000   0.0560203   0.0000000), wk =   0.0555556
        k(   24) = (   0.0000000  -0.0840304   0.0000000), wk =   0.0277778
        k(   25) = (   0.0252881   0.0000000   0.0000000), wk =   0.0555556
        k(   26) = (   0.0252881   0.0280101   0.0000000), wk =   0.0555556
        k(   27) = (   0.0252881   0.0560203   0.0000000), wk =   0.0555556
        k(   28) = (   0.0252881  -0.0840304   0.0000000), wk =   0.0555556
        k(   29) = (   0.0505763   0.0000000   0.0000000), wk =   0.0555556
        k(   30) = (   0.0505763   0.0280101   0.0000000), wk =   0.0555556
        k(   31) = (   0.0505763   0.0560203   0.0000000), wk =   0.0555556
        k(   32) = (   0.0505763  -0.0840304   0.0000000), wk =   0.0555556
        k(   33) = (  -0.0758644   0.0000000   0.0000000), wk =   0.0277778
        k(   34) = (  -0.0758644   0.0280101   0.0000000), wk =   0.0555556
        k(   35) = (  -0.0758644   0.0560203   0.0000000), wk =   0.0555556
        k(   36) = (  -0.0758644  -0.0840304   0.0000000), wk =   0.0277778
        k(   37) = (  -0.0252881   0.0280101   0.0000000), wk =   0.0555556
        k(   38) = (  -0.0252881   0.0560203   0.0000000), wk =   0.0555556
        k(   39) = (  -0.0505763   0.0280101   0.0000000), wk =   0.0555556
        k(   40) = (  -0.0505763   0.0560203   0.0000000), wk =   0.0555556

     Dense  grid:  1096637 G-vectors     FFT dimensions: (  80,  72, 375)

     Smooth grid:   277353 G-vectors     FFT dimensions: (  54,  45, 240)

     Largest allocated arrays     est. size (Mb)     dimensions
        Kohn-Sham Wavefunctions         9.98 Mb     (    2180,  300)
        NL pseudopotentials            18.89 Mb     (    2180,  568)
        Each V/rho on FFT grid          4.22 Mb     (  138240,   2)
        Each G-vector array             0.52 Mb     (   68538)
        G-vector shells                 0.25 Mb     (   33046)
     Largest temporary arrays     est. size (Mb)     dimensions
        Auxiliary wavefunctions        39.92 Mb     (    2180, 1200)
        Each subspace H/S matrix       21.97 Mb     (    1200, 1200)
        Each <psi_i|beta_j> matrix      2.60 Mb     (     568,  300)
        Arrays for rho mixing          21.09 Mb     (  138240,   10)

     Check: negative/imaginary core charge=   -0.000049    0.000000

     Initial potential from superposition of free atoms
     Check: negative starting charge=(component1):   -0.014165
     Check: negative starting charge=(component2):   -0.009000

     starting charge  383.99923, renormalised to  400.00000

     negative rho (up, down):  1.476E-02 9.374E-03


     ************************************************************************
     *
     * You are using vdW-DF for exchange-correlation in this calculation.
     * Please cite the following three references that made this development
     * possible:
     *
     *   M. Dion, H. Rydberg, E. Schroder, D. C. Langreth, and
     *   B. I. Lundqvist, Phys. Rev. Lett. 92, 246401 (2004).
     *
     *   T. Thonhauser, V. R. Cooper, S. Li, A. Puzder, P. Hyldgaard, and
     *   D. C. Langreth, Phys. Rev. B 76, 125112 (2007).
     *
     *   G. Roman-Perez and J. M. Soler, Phys. Rev. Lett. 103, 096102 (2009).
     *
     *
     * If you are using vdW-DF2, please also cite:
     *
     *   K. Lee, E. D. Murray, L. Kong, B. I. Lundqvist, and
     *   D. C. Langreth, Phys. Rev. B 82, 081101(R) (2010).
     *
     *
     * If you are calculating the stress with vdW-DF, please also cite:
     *
     *   R. Sabatini, E. Kucukbenli, B. Kolb, T. Thonhauser, and
     *   S. de Gironcoli, J. Phys.: Condens. Matter 24, 424209 (2012).
     *
     ************************************************************************

     Carrying out vdW-DF run using the following parameters:

     Nqs =      20    Nr_points =    1024   r_max =   100.000
     q_mesh =
               0.00001000     0.04494208     0.09755937     0.15916263
               0.23128650     0.31572767     0.41458969     0.53033537
               0.66584808     0.82450364     1.01025438     1.22772762
               1.48234092     1.78043706     2.12944203     2.53805004
               3.01644009     3.57652955     4.23227104     5.00000000

     Gradients computed in reciprocal space

     ************************************************************************


     Starting wfc are  300 randomized atomic wfcs

     total cpu time spent up to now is       64.9 secs

     Self-consistent Calculation

     iteration #  1     ecut=    40.42 Ry     beta=0.10
     Davidson diagonalization with overlap
     ethr =  1.00E-02,  avg # of iterations =  8.4

     negative rho (up, down):  1.444E-02 9.551E-03
 
     Magnetic moment per site:
     atom:    1    charge:    3.2636    magn:    0.7925    constr:    0.0000
     atom:    2    charge:    2.1175    magn:    0.9552    constr:    0.0000
     atom:    3    charge:    3.2669    magn:    0.7998    constr:    0.0000
     atom:    4    charge:    2.1140    magn:    0.9552    constr:    0.0000
     atom:    5    charge:    3.1997    magn:    0.7372    constr:    0.0000
     atom:    6    charge:    2.1064    magn:    0.9542    constr:    0.0000
     atom:    7    charge:    3.1753    magn:    0.7331    constr:    0.0000
     atom:    8    charge:    2.0340    magn:    1.0170    constr:    0.0000
     atom:    9    charge:    3.2636    magn:    0.7925    constr:    0.0000
     atom:   10    charge:    2.1175    magn:    0.9551    constr:    0.0000
     atom:   11    charge:    3.2669    magn:    0.7998    constr:    0.0000
     atom:   12    charge:    2.1140    magn:    0.9552    constr:    0.0000
     atom:   13    charge:    3.1969    magn:    0.7364    constr:    0.0000
     atom:   14    charge:    2.1058    magn:    0.9539    constr:    0.0000
     atom:   15    charge:    3.1763    magn:    0.7334    constr:    0.0000
     atom:   16    charge:    2.0404    magn:    1.0135    constr:    0.0000
     atom:   17    charge:    2.1027    magn:    0.9583    constr:    0.0000
     atom:   18    charge:    3.2797    magn:    0.8142    constr:    0.0000
     atom:   19    charge:    2.1190    magn:    0.9581    constr:    0.0000
     atom:   20    charge:    2.1136    magn:    0.9560    constr:    0.0000
     atom:   21    charge:    2.1136    magn:    0.9560    constr:    0.0000
     atom:   22    charge:    3.2637    magn:    0.7959    constr:    0.0000
     atom:   23    charge:    2.1119    magn:    0.9508    constr:    0.0000
     atom:   24    charge:    2.1080    magn:    0.9548    constr:    0.0000
     atom:   25    charge:    2.1139    magn:    0.9552    constr:    0.0000
     atom:   26    charge:    3.1938    magn:    0.7294    constr:    0.0000
     atom:   27    charge:    2.0893    magn:    0.9626    constr:    0.0000
     atom:   28    charge:    2.1085    magn:    0.9507    constr:    0.0000
     atom:   29    charge:    2.1083    magn:    0.9505    constr:    0.0000
     atom:   30    charge:    3.1763    magn:    0.7359    constr:    0.0000
     atom:   31    charge:    2.0146    magn:    1.0093    constr:    0.0000
     atom:   32    charge:    2.0356    magn:    1.0169    constr:    0.0000
     atom:   33    charge:    2.1027    magn:    0.9583    constr:    0.0000
     atom:   34    charge:    3.2797    magn:    0.8142    constr:    0.0000
     atom:   35    charge:    2.1190    magn:    0.9581    constr:    0.0000
     atom:   36    charge:    2.1136    magn:    0.9560    constr:    0.0000
     atom:   37    charge:    2.1136    magn:    0.9560    constr:    0.0000
     atom:   38    charge:    3.2638    magn:    0.7959    constr:    0.0000
     atom:   39    charge:    2.1122    magn:    0.9509    constr:    0.0000
     atom:   40    charge:    2.1080    magn:    0.9549    constr:    0.0000
     atom:   41    charge:    2.1139    magn:    0.9552    constr:    0.0000
     atom:   42    charge:    3.1954    magn:    0.7298    constr:    0.0000
     atom:   43    charge:    2.0906    magn:    0.9632    constr:    0.0000
     atom:   44    charge:    2.1073    magn:    0.9503    constr:    0.0000
     atom:   45    charge:    2.1077    magn:    0.9505    constr:    0.0000
     atom:   46    charge:    3.1760    magn:    0.7360    constr:    0.0000
     atom:   47    charge:    2.0127    magn:    1.0084    constr:    0.0000
     atom:   48    charge:    2.0324    magn:    1.0171    constr:    0.0000
     atom:   49    charge:    1.9596    magn:    0.9680    constr:    0.0000
     atom:   50    charge:    1.1709    magn:    0.6863    constr:    0.0000
     atom:   51    charge:    1.2094    magn:    0.7053    constr:    0.0000

     total cpu time spent up to now is      468.2 secs

     total energy              =   -2914.40338347 Ry
     Harris-Foulkes estimate   =   -3046.69899049 Ry
     estimated scf accuracy    <     714.18226432 Ry

     total magnetization       =    45.56 Bohr mag/cell
     absolute magnetization    =    49.87 Bohr mag/cell

     iteration #  2     ecut=    40.42 Ry     beta=0.10
     Davidson diagonalization with overlap
     ethr =  1.00E-02,  avg # of iterations =  7.3

     negative rho (up, down):  1.068E-02 6.911E-03
 
     Magnetic moment per site:
     atom:    1    charge:    3.2247    magn:    0.7804    constr:    0.0000
     atom:    2    charge:    2.0849    magn:    0.9405    constr:    0.0000
     atom:    3    charge:    3.2558    magn:    0.7879    constr:    0.0000
     atom:    4    charge:    2.0817    magn:    0.9405    constr:    0.0000
     atom:    5    charge:    3.1934    magn:    0.7262    constr:    0.0000
     atom:    6    charge:    2.1146    magn:    0.9415    constr:    0.0000
     atom:    7    charge:    3.2185    magn:    0.7238    constr:    0.0000
     atom:    8    charge:    2.0533    magn:    1.0032    constr:    0.0000
     atom:    9    charge:    3.2246    magn:    0.7804    constr:    0.0000
     atom:   10    charge:    2.0849    magn:    0.9405    constr:    0.0000
     atom:   11    charge:    3.2558    magn:    0.7879    constr:    0.0000
     atom:   12    charge:    2.0817    magn:    0.9405    constr:    0.0000
     atom:   13    charge:    3.1908    magn:    0.7254    constr:    0.0000
     atom:   14    charge:    2.1140    magn:    0.9413    constr:    0.0000
     atom:   15    charge:    3.2195    magn:    0.7241    constr:    0.0000
     atom:   16    charge:    2.0593    magn:    0.9997    constr:    0.0000
     atom:   17    charge:    2.0703    magn:    0.9436    constr:    0.0000
     atom:   18    charge:    3.2405    magn:    0.8018    constr:    0.0000
     atom:   19    charge:    2.0865    magn:    0.9434    constr:    0.0000
     atom:   20    charge:    2.0811    magn:    0.9413    constr:    0.0000
     atom:   21    charge:    2.0810    magn:    0.9413    constr:    0.0000
     atom:   22    charge:    3.2526    magn:    0.7845    constr:    0.0000
     atom:   23    charge:    2.0882    magn:    0.9366    constr:    0.0000
     atom:   24    charge:    2.0805    magn:    0.9444    constr:    0.0000
     atom:   25    charge:    2.0816    magn:    0.9405    constr:    0.0000
     atom:   26    charge:    3.1896    magn:    0.7184    constr:    0.0000
     atom:   27    charge:    2.1009    magn:    0.9497    constr:    0.0000
     atom:   28    charge:    2.1044    magn:    0.9420    constr:    0.0000
     atom:   29    charge:    2.1043    magn:    0.9414    constr:    0.0000
     atom:   30    charge:    3.2201    magn:    0.7268    constr:    0.0000
     atom:   31    charge:    2.0358    magn:    0.9955    constr:    0.0000
     atom:   32    charge:    2.0551    magn:    1.0032    constr:    0.0000
     atom:   33    charge:    2.0703    magn:    0.9436    constr:    0.0000
     atom:   34    charge:    3.2405    magn:    0.8018    constr:    0.0000
     atom:   35    charge:    2.0865    magn:    0.9434    constr:    0.0000
     atom:   36    charge:    2.0811    magn:    0.9413    constr:    0.0000
     atom:   37    charge:    2.0810    magn:    0.9413    constr:    0.0000
     atom:   38    charge:    3.2526    magn:    0.7845    constr:    0.0000
     atom:   39    charge:    2.0885    magn:    0.9367    constr:    0.0000
     atom:   40    charge:    2.0805    magn:    0.9444    constr:    0.0000
     atom:   41    charge:    2.0816    magn:    0.9405    constr:    0.0000
     atom:   42    charge:    3.1912    magn:    0.7188    constr:    0.0000
     atom:   43    charge:    2.1023    magn:    0.9503    constr:    0.0000
     atom:   44    charge:    2.1040    magn:    0.9412    constr:    0.0000
     atom:   45    charge:    2.1045    magn:    0.9412    constr:    0.0000
     atom:   46    charge:    3.2198    magn:    0.7270    constr:    0.0000
     atom:   47    charge:    2.0340    magn:    0.9945    constr:    0.0000
     atom:   48    charge:    2.0513    magn:    1.0034    constr:    0.0000
     atom:   49    charge:    1.9839    magn:    0.9552    constr:    0.0000
     atom:   50    charge:    1.1932    magn:    0.6782    constr:    0.0000
     atom:   51    charge:    1.2341    magn:    0.6970    constr:    0.0000

     total cpu time spent up to now is     1004.5 secs

     total energy              =   -2748.00367380 Ry
     Harris-Foulkes estimate   =   -3377.82170581 Ry
     estimated scf accuracy    <   20772.14512150 Ry

     total magnetization       =    11.64 Bohr mag/cell
     absolute magnetization    =    14.54 Bohr mag/cell

     iteration #  3     ecut=    40.42 Ry     beta=0.10
     Davidson diagonalization with overlap
     ethr =  1.00E-02,  avg # of iterations =  8.1

     negative rho (up, down):  1.046E-02 7.051E-03
 
     Magnetic moment per site:
     atom:    1    charge:    3.2073    magn:    0.7373    constr:    0.0000
     atom:    2    charge:    2.0971    magn:    0.8984    constr:    0.0000
     atom:    3    charge:    3.2321    magn:    0.7448    constr:    0.0000
     atom:    4    charge:    2.0955    magn:    0.8974    constr:    0.0000
     atom:    5    charge:    3.1870    magn:    0.6920    constr:    0.0000
     atom:    6    charge:    2.1196    magn:    0.8988    constr:    0.0000
     atom:    7    charge:    3.2005    magn:    0.6842    constr:    0.0000
     atom:    8    charge:    2.0703    magn:    0.9574    constr:    0.0000
     atom:    9    charge:    3.2073    magn:    0.7372    constr:    0.0000
     atom:   10    charge:    2.0971    magn:    0.8984    constr:    0.0000
     atom:   11    charge:    3.2321    magn:    0.7448    constr:    0.0000
     atom:   12    charge:    2.0955    magn:    0.8974    constr:    0.0000
     atom:   13    charge:    3.1860    magn:    0.6928    constr:    0.0000
     atom:   14    charge:    2.1190    magn:    0.8986    constr:    0.0000
     atom:   15    charge:    3.2015    magn:    0.6845    constr:    0.0000
     atom:   16    charge:    2.0763    magn:    0.9538    constr:    0.0000
     atom:   17    charge:    2.0722    magn:    0.9130    constr:    0.0000
     atom:   18    charge:    3.2188    magn:    0.7577    constr:    0.0000
     atom:   19    charge:    2.0988    magn:    0.9008    constr:    0.0000
     atom:   20    charge:    2.0927    magn:    0.8998    constr:    0.0000
     atom:   21    charge:    2.0927    magn:    0.8998    constr:    0.0000
     atom:   22    charge:    3.2296    magn:    0.7414    constr:    0.0000
     atom:   23    charge:    2.0999    magn:    0.8943    constr:    0.0000
     atom:   24    charge:    2.0938    magn:    0.9012    constr:    0.0000
     atom:   25    charge:    2.0954    magn:    0.8974    constr:    0.0000
     atom:   26    charge:    3.1833    magn:    0.6836    constr:    0.0000
     atom:   27    charge:    2.1078    magn:    0.9066    constr:    0.0000
     atom:   28    charge:    2.1115    magn:    0.8992    constr:    0.0000
     atom:   29    charge:    2.1114    magn:    0.8989    constr:    0.0000
     atom:   30    charge:    3.2011    magn:    0.6861    constr:    0.0000
     atom:   31    charge:    2.0558    magn:    0.9503    constr:    0.0000
     atom:   32    charge:    2.0722    magn:    0.9572    constr:    0.0000
     atom:   33    charge:    2.0722    magn:    0.9130    constr:    0.0000
     atom:   34    charge:    3.2188    magn:    0.7577    constr:    0.0000
     atom:   35    charge:    2.0988    magn:    0.9007    constr:    0.0000
     atom:   36    charge:    2.0927    magn:    0.8998    constr:    0.0000
     atom:   37    charge:    2.0927    magn:    0.8998    constr:    0.0000
     atom:   38    charge:    3.2296    magn:    0.7414    constr:    0.0000
     atom:   39    charge:    2.1002    magn:    0.8944    constr:    0.0000
     atom:   40    charge:    2.0938    magn:    0.9012    constr:    0.0000
     atom:   41    charge:    2.0954    magn:    0.8974    constr:    0.0000
     atom:   42    charge:    3.1850    magn:    0.6840    constr:    0.0000
     atom:   43    charge:    2.1091    magn:    0.9072    constr:    0.0000
     atom:   44    charge:    2.1108    magn:    0.8985    constr:    0.0000
     atom:   45    charge:    2.1114    magn:    0.8988    constr:    0.0000
     atom:   46    charge:    3.2012    magn:    0.6862    constr:    0.0000
     atom:   47    charge:    2.0539    magn:    0.9494    constr:    0.0000
     atom:   48    charge:    2.0703    magn:    0.9570    constr:    0.0000
     atom:   49    charge:    1.9999    magn:    0.9113    constr:    0.0000
     atom:   50    charge:    1.1960    magn:    0.6450    constr:    0.0000
     atom:   51    charge:    1.2327    magn:    0.6618    constr:    0.0000

     total cpu time spent up to now is     1575.6 secs

     total energy              =   -3037.65160469 Ry
     Harris-Foulkes estimate   =   -3038.09859741 Ry
     estimated scf accuracy    <      22.34968451 Ry

     total magnetization       =     5.03 Bohr mag/cell
     absolute magnetization    =    18.03 Bohr mag/cell

     iteration #  4     ecut=    40.42 Ry     beta=0.10
     Davidson diagonalization with overlap
     ethr =  5.59E-03,  avg # of iterations =  1.2

     negative rho (up, down):  1.027E-02 7.189E-03
 
     Magnetic moment per site:
     atom:    1    charge:    3.1954    magn:    0.7011    constr:    0.0000
     atom:    2    charge:    2.1051    magn:    0.8615    constr:    0.0000
     atom:    3    charge:    3.2152    magn:    0.7088    constr:    0.0000
     atom:    4    charge:    2.1028    magn:    0.8614    constr:    0.0000
     atom:    5    charge:    3.1729    magn:    0.6545    constr:    0.0000
     atom:    6    charge:    2.1206    magn:    0.8631    constr:    0.0000
     atom:    7    charge:    3.1904    magn:    0.6514    constr:    0.0000
     atom:    8    charge:    2.0809    magn:    0.9194    constr:    0.0000
     atom:    9    charge:    3.1954    magn:    0.7010    constr:    0.0000
     atom:   10    charge:    2.1051    magn:    0.8615    constr:    0.0000
     atom:   11    charge:    3.2152    magn:    0.7088    constr:    0.0000
     atom:   12    charge:    2.1028    magn:    0.8614    constr:    0.0000
     atom:   13    charge:    3.1707    magn:    0.6545    constr:    0.0000
     atom:   14    charge:    2.1201    magn:    0.8629    constr:    0.0000
     atom:   15    charge:    3.1914    magn:    0.6516    constr:    0.0000
     atom:   16    charge:    2.0868    magn:    0.9156    constr:    0.0000
     atom:   17    charge:    2.0894    magn:    0.8710    constr:    0.0000
     atom:   18    charge:    3.2039    magn:    0.7211    constr:    0.0000
     atom:   19    charge:    2.1061    magn:    0.8643    constr:    0.0000
     atom:   20    charge:    2.1014    magn:    0.8629    constr:    0.0000
     atom:   21    charge:    2.1014    magn:    0.8629    constr:    0.0000
     atom:   22    charge:    3.2135    magn:    0.7056    constr:    0.0000
     atom:   23    charge:    2.1052    magn:    0.8582    constr:    0.0000
     atom:   24    charge:    2.0987    magn:    0.8664    constr:    0.0000
     atom:   25    charge:    2.1027    magn:    0.8614    constr:    0.0000
     atom:   26    charge:    3.1703    magn:    0.6467    constr:    0.0000
     atom:   27    charge:    2.1109    magn:    0.8708    constr:    0.0000
     atom:   28    charge:    2.1142    magn:    0.8637    constr:    0.0000
     atom:   29    charge:    2.1138    magn:    0.8633    constr:    0.0000
     atom:   30    charge:    3.1895    magn:    0.6521    constr:    0.0000
     atom:   31    charge:    2.0687    magn:    0.9126    constr:    0.0000
     atom:   32    charge:    2.0828    magn:    0.9191    constr:    0.0000
     atom:   33    charge:    2.0894    magn:    0.8710    constr:    0.0000
     atom:   34    charge:    3.2039    magn:    0.7211    constr:    0.0000
     atom:   35    charge:    2.1061    magn:    0.8643    constr:    0.0000
     atom:   36    charge:    2.1014    magn:    0.8629    constr:    0.0000
     atom:   37    charge:    2.1014    magn:    0.8629    constr:    0.0000
     atom:   38    charge:    3.2135    magn:    0.7056    constr:    0.0000
     atom:   39    charge:    2.1055    magn:    0.8583    constr:    0.0000
     atom:   40    charge:    2.0987    magn:    0.8664    constr:    0.0000
     atom:   41    charge:    2.1027    magn:    0.8614    constr:    0.0000
     atom:   42    charge:    3.1719    magn:    0.6470    constr:    0.0000
     atom:   43    charge:    2.1123    magn:    0.8713    constr:    0.0000
     atom:   44    charge:    2.1135    magn:    0.8630    constr:    0.0000
     atom:   45    charge:    2.1137    magn:    0.8632    constr:    0.0000
     atom:   46    charge:    3.1898    magn:    0.6521    constr:    0.0000
     atom:   47    charge:    2.0669    magn:    0.9118    constr:    0.0000
     atom:   48    charge:    2.0819    magn:    0.9185    constr:    0.0000
     atom:   49    charge:    2.0136    magn:    0.8703    constr:    0.0000
     atom:   50    charge:    1.2033    magn:    0.6148    constr:    0.0000
     atom:   51    charge:    1.2342    magn:    0.6313    constr:    0.0000

     total cpu time spent up to now is     1747.8 secs

     total energy              =   -3038.18804528 Ry
     Harris-Foulkes estimate   =   -3038.08145099 Ry
     estimated scf accuracy    <      15.26628609 Ry

     total magnetization       =     0.59 Bohr mag/cell
     absolute magnetization    =    16.41 Bohr mag/cell

     iteration #  5     ecut=    40.42 Ry     beta=0.10
     Davidson diagonalization with overlap
     ethr =  3.82E-03,  avg # of iterations =  1.0

     negative rho (up, down):  1.047E-02 7.485E-03
 
     Magnetic moment per site:
     atom:    1    charge:    3.1289    magn:    0.4691    constr:    0.0000
     atom:    2    charge:    2.1441    magn:    0.6299    constr:    0.0000
     atom:    3    charge:    3.1192    magn:    0.4776    constr:    0.0000
     atom:    4    charge:    2.1412    magn:    0.6300    constr:    0.0000
     atom:    5    charge:    3.1265    magn:    0.4420    constr:    0.0000
     atom:    6    charge:    2.1269    magn:    0.6332    constr:    0.0000
     atom:    7    charge:    3.1260    magn:    0.4376    constr:    0.0000
     atom:    8    charge:    2.1330    magn:    0.6747    constr:    0.0000
     atom:    9    charge:    3.1289    magn:    0.4691    constr:    0.0000
     atom:   10    charge:    2.1441    magn:    0.6298    constr:    0.0000
     atom:   11    charge:    3.1192    magn:    0.4775    constr:    0.0000
     atom:   12    charge:    2.1412    magn:    0.6300    constr:    0.0000
     atom:   13    charge:    3.1222    magn:    0.4410    constr:    0.0000
     atom:   14    charge:    2.1264    magn:    0.6329    constr:    0.0000
     atom:   15    charge:    3.1270    magn:    0.4377    constr:    0.0000
     atom:   16    charge:    2.1398    magn:    0.6696    constr:    0.0000
     atom:   17    charge:    2.1257    magn:    0.6477    constr:    0.0000
     atom:   18    charge:    3.1185    magn:    0.4850    constr:    0.0000
     atom:   19    charge:    2.1409    magn:    0.6327    constr:    0.0000
     atom:   20    charge:    2.1412    magn:    0.6308    constr:    0.0000
     atom:   21    charge:    2.1412    magn:    0.6308    constr:    0.0000
     atom:   22    charge:    3.1208    magn:    0.4747    constr:    0.0000
     atom:   23    charge:    2.1359    magn:    0.6283    constr:    0.0000
     atom:   24    charge:    2.1308    magn:    0.6380    constr:    0.0000
     atom:   25    charge:    2.1411    magn:    0.6300    constr:    0.0000
     atom:   26    charge:    3.1174    magn:    0.4244    constr:    0.0000
     atom:   27    charge:    2.1235    magn:    0.6400    constr:    0.0000
     atom:   28    charge:    2.1269    magn:    0.6341    constr:    0.0000
     atom:   29    charge:    2.1260    magn:    0.6337    constr:    0.0000
     atom:   30    charge:    3.1218    magn:    0.4322    constr:    0.0000
     atom:   31    charge:    2.1289    magn:    0.6722    constr:    0.0000
     atom:   32    charge:    2.1356    magn:    0.6739    constr:    0.0000
     atom:   33    charge:    2.1255    magn:    0.6479    constr:    0.0000
     atom:   34    charge:    3.1184    magn:    0.4850    constr:    0.0000
     atom:   35    charge:    2.1409    magn:    0.6327    constr:    0.0000
     atom:   36    charge:    2.1412    magn:    0.6307    constr:    0.0000
     atom:   37    charge:    2.1412    magn:    0.6308    constr:    0.0000
     atom:   38    charge:    3.1208    magn:    0.4747    constr:    0.0000
     atom:   39    charge:    2.1362    magn:    0.6285    constr:    0.0000
     atom:   40    charge:    2.1308    magn:    0.6380    constr:    0.0000
     atom:   41    charge:    2.1411    magn:    0.6300    constr:    0.0000
     atom:   42    charge:    3.1190    magn:    0.4246    constr:    0.0000
     atom:   43    charge:    2.1249    magn:    0.6403    constr:    0.0000
     atom:   44    charge:    2.1252    magn:    0.6337    constr:    0.0000
     atom:   45    charge:    2.1252    magn:    0.6338    constr:    0.0000
     atom:   46    charge:    3.1235    magn:    0.4319    constr:    0.0000
     atom:   47    charge:    2.1270    magn:    0.6716    constr:    0.0000
     atom:   48    charge:    2.1393    magn:    0.6715    constr:    0.0000
     atom:   49    charge:    2.0859    magn:    0.6092    constr:    0.0000
     atom:   50    charge:    1.2433    magn:    0.4212    constr:    0.0000
     atom:   51    charge:    1.2461    magn:    0.4360    constr:    0.0000

     total cpu time spent up to now is     1917.6 secs

     total energy              =   -3039.89323250 Ry
     Harris-Foulkes estimate   =   -3038.28536285 Ry
     estimated scf accuracy    <      12.64488060 Ry

     total magnetization       =     2.67 Bohr mag/cell
     absolute magnetization    =    16.40 Bohr mag/cell

     iteration #  6     ecut=    40.42 Ry     beta=0.10
     Davidson diagonalization with overlap
     ethr =  3.16E-03,  avg # of iterations =  3.0

     negative rho (up, down):  1.035E-02 7.589E-03
 
     Magnetic moment per site:
     atom:    1    charge:    3.1300    magn:    0.4715    constr:    0.0000
     atom:    2    charge:    2.1420    magn:    0.6321    constr:    0.0000
     atom:    3    charge:    3.1225    magn:    0.4805    constr:    0.0000
     atom:    4    charge:    2.1394    magn:    0.6319    constr:    0.0000
     atom:    5    charge:    3.1274    magn:    0.4438    constr:    0.0000
     atom:    6    charge:    2.1263    magn:    0.6351    constr:    0.0000
     atom:    7    charge:    3.1278    magn:    0.4393    constr:    0.0000
     atom:    8    charge:    2.1311    magn:    0.6771    constr:    0.0000
     atom:    9    charge:    3.1300    magn:    0.4714    constr:    0.0000
     atom:   10    charge:    2.1420    magn:    0.6321    constr:    0.0000
     atom:   11    charge:    3.1225    magn:    0.4805    constr:    0.0000
     atom:   12    charge:    2.1394    magn:    0.6319    constr:    0.0000
     atom:   13    charge:    3.1234    magn:    0.4428    constr:    0.0000
     atom:   14    charge:    2.1259    magn:    0.6349    constr:    0.0000
     atom:   15    charge:    3.1287    magn:    0.4394    constr:    0.0000
     atom:   16    charge:    2.1379    magn:    0.6720    constr:    0.0000
     atom:   17    charge:    2.1212    magn:    0.6519    constr:    0.0000
     atom:   18    charge:    3.1245    magn:    0.4909    constr:    0.0000
     atom:   19    charge:    2.1393    magn:    0.6346    constr:    0.0000
     atom:   20    charge:    2.1395    magn:    0.6331    constr:    0.0000
     atom:   21    charge:    2.1395    magn:    0.6330    constr:    0.0000
     atom:   22    charge:    3.1236    magn:    0.4772    constr:    0.0000
     atom:   23    charge:    2.1346    magn:    0.6302    constr:    0.0000
     atom:   24    charge:    2.1291    magn:    0.6400    constr:    0.0000
     atom:   25    charge:    2.1394    magn:    0.6319    constr:    0.0000
     atom:   26    charge:    3.1190    magn:    0.4264    constr:    0.0000
     atom:   27    charge:    2.1225    magn:    0.6422    constr:    0.0000
     atom:   28    charge:    2.1261    magn:    0.6361    constr:    0.0000
     atom:   29    charge:    2.1252    magn:    0.6357    constr:    0.0000
     atom:   30    charge:    3.1237    magn:    0.4340    constr:    0.0000
     atom:   31    charge:    2.1263    magn:    0.6750    constr:    0.0000
     atom:   32    charge:    2.1338    magn:    0.6762    constr:    0.0000
     atom:   33    charge:    2.1209    magn:    0.6521    constr:    0.0000
     atom:   34    charge:    3.1245    magn:    0.4909    constr:    0.0000
     atom:   35    charge:    2.1392    magn:    0.6346    constr:    0.0000
     atom:   36    charge:    2.1395    magn:    0.6330    constr:    0.0000
     atom:   37    charge:    2.1394    magn:    0.6330    constr:    0.0000
     atom:   38    charge:    3.1236    magn:    0.4772    constr:    0.0000
     atom:   39    charge:    2.1349    magn:    0.6303    constr:    0.0000
     atom:   40    charge:    2.1291    magn:    0.6400    constr:    0.0000
     atom:   41    charge:    2.1393    magn:    0.6319    constr:    0.0000
     atom:   42    charge:    3.1207    magn:    0.4266    constr:    0.0000
     atom:   43    charge:    2.1239    magn:    0.6425    constr:    0.0000
     atom:   44    charge:    2.1245    magn:    0.6356    constr:    0.0000
     atom:   45    charge:    2.1244    magn:    0.6357    constr:    0.0000
     atom:   46    charge:    3.1253    magn:    0.4338    constr:    0.0000
     atom:   47    charge:    2.1244    magn:    0.6744    constr:    0.0000
     atom:   48    charge:    2.1365    magn:    0.6745    constr:    0.0000
     atom:   49    charge:    2.0830    magn:    0.6126    constr:    0.0000
     atom:   50    charge:    1.2426    magn:    0.4233    constr:    0.0000
     atom:   51    charge:    1.2464    magn:    0.4378    constr:    0.0000

     total cpu time spent up to now is     2114.3 secs

     total energy              =   -3041.48143604 Ry
     Harris-Foulkes estimate   =   -3041.74068964 Ry
     estimated scf accuracy    <      25.25623541 Ry

     total magnetization       =    16.73 Bohr mag/cell
     absolute magnetization    =    23.18 Bohr mag/cell

     iteration #  7     ecut=    40.42 Ry     beta=0.10
     Davidson diagonalization with overlap
     ethr =  3.16E-03,  avg # of iterations =  1.1

     negative rho (up, down):  1.038E-02 7.772E-03
 
     Magnetic moment per site:
     atom:    1    charge:    3.1301    magn:    0.4349    constr:    0.0000
     atom:    2    charge:    2.1329    magn:    0.5964    constr:    0.0000
     atom:    3    charge:    3.1184    magn:    0.4429    constr:    0.0000
     atom:    4    charge:    2.1324    magn:    0.5933    constr:    0.0000
     atom:    5    charge:    3.1249    magn:    0.4085    constr:    0.0000
     atom:    6    charge:    2.1212    magn:    0.5963    constr:    0.0000
     atom:    7    charge:    3.1245    magn:    0.4020    constr:    0.0000
     atom:    8    charge:    2.1276    magn:    0.6343    constr:    0.0000
     atom:    9    charge:    3.1301    magn:    0.4349    constr:    0.0000
     atom:   10    charge:    2.1329    magn:    0.5965    constr:    0.0000
     atom:   11    charge:    3.1185    magn:    0.4429    constr:    0.0000
     atom:   12    charge:    2.1324    magn:    0.5935    constr:    0.0000
     atom:   13    charge:    3.1223    magn:    0.4087    constr:    0.0000
     atom:   14    charge:    2.1207    magn:    0.5961    constr:    0.0000
     atom:   15    charge:    3.1255    magn:    0.4021    constr:    0.0000
     atom:   16    charge:    2.1310    magn:    0.6325    constr:    0.0000
     atom:   17    charge:    2.0978    magn:    0.6336    constr:    0.0000
     atom:   18    charge:    3.1301    magn:    0.4647    constr:    0.0000
     atom:   19    charge:    2.1324    magn:    0.5956    constr:    0.0000
     atom:   20    charge:    2.1307    magn:    0.5946    constr:    0.0000
     atom:   21    charge:    2.1307    magn:    0.5946    constr:    0.0000
     atom:   22    charge:    3.1198    magn:    0.4392    constr:    0.0000
     atom:   23    charge:    2.1305    magn:    0.5907    constr:    0.0000
     atom:   24    charge:    2.1218    magn:    0.6015    constr:    0.0000
     atom:   25    charge:    2.1323    magn:    0.5933    constr:    0.0000
     atom:   26    charge:    3.1193    magn:    0.3909    constr:    0.0000
     atom:   27    charge:    2.1173    magn:    0.6027    constr:    0.0000
     atom:   28    charge:    2.1213    magn:    0.5972    constr:    0.0000
     atom:   29    charge:    2.1207    magn:    0.5966    constr:    0.0000
     atom:   30    charge:    3.1220    magn:    0.3954    constr:    0.0000
     atom:   31    charge:    2.1274    magn:    0.6280    constr:    0.0000
     atom:   32    charge:    2.1300    magn:    0.6335    constr:    0.0000
     atom:   33    charge:    2.0980    magn:    0.6335    constr:    0.0000
     atom:   34    charge:    3.1304    magn:    0.4649    constr:    0.0000
     atom:   35    charge:    2.1324    magn:    0.5956    constr:    0.0000
     atom:   36    charge:    2.1307    magn:    0.5945    constr:    0.0000
     atom:   37    charge:    2.1307    magn:    0.5945    constr:    0.0000
     atom:   38    charge:    3.1198    magn:    0.4391    constr:    0.0000
     atom:   39    charge:    2.1308    magn:    0.5909    constr:    0.0000
     atom:   40    charge:    2.1218    magn:    0.6015    constr:    0.0000
     atom:   41    charge:    2.1322    magn:    0.5934    constr:    0.0000
     atom:   42    charge:    3.1210    magn:    0.3911    constr:    0.0000
     atom:   43    charge:    2.1187    magn:    0.6031    constr:    0.0000
     atom:   44    charge:    2.1198    magn:    0.5965    constr:    0.0000
     atom:   45    charge:    2.1198    magn:    0.5967    constr:    0.0000
     atom:   46    charge:    3.1236    magn:    0.3950    constr:    0.0000
     atom:   47    charge:    2.1253    magn:    0.6276    constr:    0.0000
     atom:   48    charge:    2.1266    magn:    0.6377    constr:    0.0000
     atom:   49    charge:    2.0832    magn:    0.5676    constr:    0.0000
     atom:   50    charge:    1.2481    magn:    0.3916    constr:    0.0000
     atom:   51    charge:    1.2517    magn:    0.4053    constr:    0.0000

     total cpu time spent up to now is     2287.2 secs

     total energy              =   -3041.52599570 Ry
     Harris-Foulkes estimate   =   -3041.54455003 Ry
     estimated scf accuracy    <      16.67342736 Ry

     total magnetization       =    14.23 Bohr mag/cell
     absolute magnetization    =    21.32 Bohr mag/cell

     iteration #  8     ecut=    40.42 Ry     beta=0.10
     Davidson diagonalization with overlap
     ethr =  3.16E-03,  avg # of iterations =  2.6

     negative rho (up, down):  1.028E-02 7.841E-03
 
     Magnetic moment per site:
     atom:    1    charge:    3.1349    magn:    0.3921    constr:    0.0000
     atom:    2    charge:    2.1167    magn:    0.5520    constr:    0.0000
     atom:    3    charge:    3.1227    magn:    0.3978    constr:    0.0000
     atom:    4    charge:    2.1155    magn:    0.5477    constr:    0.0000
     atom:    5    charge:    3.1286    magn:    0.3693    constr:    0.0000
     atom:    6    charge:    2.1133    magn:    0.5518    constr:    0.0000
     atom:    7    charge:    3.1294    magn:    0.3583    constr:    0.0000
     atom:    8    charge:    2.1125    magn:    0.5885    constr:    0.0000
     atom:    9    charge:    3.1349    magn:    0.3921    constr:    0.0000
     atom:   10    charge:    2.1167    magn:    0.5520    constr:    0.0000
     atom:   11    charge:    3.1227    magn:    0.3978    constr:    0.0000
     atom:   12    charge:    2.1154    magn:    0.5479    constr:    0.0000
     atom:   13    charge:    3.1278    magn:    0.3707    constr:    0.0000
     atom:   14    charge:    2.1127    magn:    0.5516    constr:    0.0000
     atom:   15    charge:    3.1303    magn:    0.3584    constr:    0.0000
     atom:   16    charge:    2.1147    magn:    0.5893    constr:    0.0000
     atom:   17    charge:    2.0785    magn:    0.6000    constr:    0.0000
     atom:   18    charge:    3.1514    magn:    0.4429    constr:    0.0000
     atom:   19    charge:    2.1160    magn:    0.5499    constr:    0.0000
     atom:   20    charge:    2.1134    magn:    0.5493    constr:    0.0000
     atom:   21    charge:    2.1134    magn:    0.5493    constr:    0.0000
     atom:   22    charge:    3.1242    magn:    0.3944    constr:    0.0000
     atom:   23    charge:    2.1187    magn:    0.5448    constr:    0.0000
     atom:   24    charge:    2.1053    magn:    0.5566    constr:    0.0000
     atom:   25    charge:    2.1154    magn:    0.5476    constr:    0.0000
     atom:   26    charge:    3.1268    magn:    0.3517    constr:    0.0000
     atom:   27    charge:    2.1039    magn:    0.5613    constr:    0.0000
     atom:   28    charge:    2.1110    magn:    0.5532    constr:    0.0000
     atom:   29    charge:    2.1110    magn:    0.5524    constr:    0.0000
     atom:   30    charge:    3.1293    magn:    0.3524    constr:    0.0000
     atom:   31    charge:    2.1075    magn:    0.5848    constr:    0.0000
     atom:   32    charge:    2.1153    magn:    0.5873    constr:    0.0000
     atom:   33    charge:    2.0788    magn:    0.5996    constr:    0.0000
     atom:   34    charge:    3.1511    magn:    0.4427    constr:    0.0000
     atom:   35    charge:    2.1160    magn:    0.5499    constr:    0.0000
     atom:   36    charge:    2.1134    magn:    0.5493    constr:    0.0000
     atom:   37    charge:    2.1134    magn:    0.5492    constr:    0.0000
     atom:   38    charge:    3.1242    magn:    0.3944    constr:    0.0000
     atom:   39    charge:    2.1190    magn:    0.5450    constr:    0.0000
     atom:   40    charge:    2.1053    magn:    0.5567    constr:    0.0000
     atom:   41    charge:    2.1153    magn:    0.5478    constr:    0.0000
     atom:   42    charge:    3.1284    magn:    0.3519    constr:    0.0000
     atom:   43    charge:    2.1053    magn:    0.5616    constr:    0.0000
     atom:   44    charge:    2.1101    magn:    0.5520    constr:    0.0000
     atom:   45    charge:    2.1104    magn:    0.5524    constr:    0.0000
     atom:   46    charge:    3.1305    magn:    0.3519    constr:    0.0000
     atom:   47    charge:    2.1056    magn:    0.5844    constr:    0.0000
     atom:   48    charge:    2.1036    magn:    0.6003    constr:    0.0000
     atom:   49    charge:    2.0720    magn:    0.5193    constr:    0.0000
     atom:   50    charge:    1.2533    magn:    0.3567    constr:    0.0000
     atom:   51    charge:    1.2606    magn:    0.3687    constr:    0.0000

     total cpu time spent up to now is     2479.0 secs

     total energy              =   -3041.76396292 Ry
     Harris-Foulkes estimate   =   -3041.81755451 Ry
     estimated scf accuracy    <      15.38595509 Ry

     total magnetization       =     7.59 Bohr mag/cell
     absolute magnetization    =    16.93 Bohr mag/cell

     iteration #  9     ecut=    40.42 Ry     beta=0.10
     Davidson diagonalization with overlap
     ethr =  3.16E-03,  avg # of iterations =  1.3

     negative rho (up, down):  1.097E-02 8.278E-03
 
     Magnetic moment per site:
     atom:    1    charge:    3.1066    magn:    0.1409    constr:    0.0000
     atom:    2    charge:    2.0966    magn:    0.2951    constr:    0.0000
     atom:    3    charge:    3.0932    magn:    0.1480    constr:    0.0000
     atom:    4    charge:    2.0949    magn:    0.2861    constr:    0.0000
     atom:    5    charge:    3.1052    magn:    0.1325    constr:    0.0000
     atom:    6    charge:    2.0976    magn:    0.2921    constr:    0.0000
     atom:    7    charge:    3.1060    magn:    0.1152    constr:    0.0000
     atom:    8    charge:    2.1018    magn:    0.3158    constr:    0.0000
     atom:    9    charge:    3.1066    magn:    0.1409    constr:    0.0000
     atom:   10    charge:    2.0966    magn:    0.2952    constr:    0.0000
     atom:   11    charge:    3.0933    magn:    0.1479    constr:    0.0000
     atom:   12    charge:    2.0947    magn:    0.2864    constr:    0.0000
     atom:   13    charge:    3.1059    magn:    0.1358    constr:    0.0000
     atom:   14    charge:    2.0971    magn:    0.2920    constr:    0.0000
     atom:   15    charge:    3.1069    magn:    0.1152    constr:    0.0000
     atom:   16    charge:    2.1051    magn:    0.3204    constr:    0.0000
     atom:   17    charge:    2.0479    magn:    0.3789    constr:    0.0000
     atom:   18    charge:    3.1444    magn:    0.2345    constr:    0.0000
     atom:   19    charge:    2.0952    magn:    0.2877    constr:    0.0000
     atom:   20    charge:    2.0960    magn:    0.2889    constr:    0.0000
     atom:   21    charge:    2.0960    magn:    0.2889    constr:    0.0000
     atom:   22    charge:    3.0934    magn:    0.1420    constr:    0.0000
     atom:   23    charge:    2.1052    magn:    0.2826    constr:    0.0000
     atom:   24    charge:    2.0842    magn:    0.2980    constr:    0.0000
     atom:   25    charge:    2.0946    magn:    0.2860    constr:    0.0000
     atom:   26    charge:    3.1120    magn:    0.1130    constr:    0.0000
     atom:   27    charge:    2.0840    magn:    0.3058    constr:    0.0000
     atom:   28    charge:    2.0945    magn:    0.2948    constr:    0.0000
     atom:   29    charge:    2.0952    magn:    0.2937    constr:    0.0000
     atom:   30    charge:    3.1094    magn:    0.1079    constr:    0.0000
     atom:   31    charge:    2.0962    magn:    0.3174    constr:    0.0000
     atom:   32    charge:    2.1056    magn:    0.3135    constr:    0.0000
     atom:   33    charge:    2.0484    magn:    0.3782    constr:    0.0000
     atom:   34    charge:    3.1440    magn:    0.2340    constr:    0.0000
     atom:   35    charge:    2.0953    magn:    0.2877    constr:    0.0000
     atom:   36    charge:    2.0960    magn:    0.2889    constr:    0.0000
     atom:   37    charge:    2.0960    magn:    0.2888    constr:    0.0000
     atom:   38    charge:    3.0933    magn:    0.1419    constr:    0.0000
     atom:   39    charge:    2.1055    magn:    0.2828    constr:    0.0000
     atom:   40    charge:    2.0842    magn:    0.2980    constr:    0.0000
     atom:   41    charge:    2.0945    magn:    0.2863    constr:    0.0000
     atom:   42    charge:    3.1137    magn:    0.1130    constr:    0.0000
     atom:   43    charge:    2.0854    magn:    0.3060    constr:    0.0000
     atom:   44    charge:    2.0938    magn:    0.2931    constr:    0.0000
     atom:   45    charge:    2.0947    magn:    0.2936    constr:    0.0000
     atom:   46    charge:    3.1104    magn:    0.1071    constr:    0.0000
     atom:   47    charge:    2.0942    magn:    0.3175    constr:    0.0000
     atom:   48    charge:    2.0874    magn:    0.3421    constr:    0.0000
     atom:   49    charge:    2.0749    magn:    0.2391    constr:    0.0000
     atom:   50    charge:    1.2833    magn:    0.1500    constr:    0.0000
     atom:   51    charge:    1.2904    magn:    0.1556    constr:    0.0000

     total cpu time spent up to now is     2653.5 secs

     total energy              =   -3044.48798922 Ry
     Harris-Foulkes estimate   =   -3042.28205835 Ry
     estimated scf accuracy    <       2.74982902 Ry

     total magnetization       =     0.26 Bohr mag/cell
     absolute magnetization    =    12.66 Bohr mag/cell

     iteration # 10     ecut=    40.42 Ry     beta=0.10
     Davidson diagonalization with overlap
     ethr =  6.87E-04,  avg # of iterations =  7.0

     negative rho (up, down):  1.144E-02 8.598E-03
 
     Magnetic moment per site:
     atom:    1    charge:    3.0984    magn:    0.0184    constr:    0.0000
     atom:    2    charge:    2.0830    magn:    0.1624    constr:    0.0000
     atom:    3    charge:    3.0959    magn:    0.0298    constr:    0.0000
     atom:    4    charge:    2.0827    magn:    0.1503    constr:    0.0000
     atom:    5    charge:    3.1018    magn:    0.0164    constr:    0.0000
     atom:    6    charge:    2.0898    magn:    0.1571    constr:    0.0000
     atom:    7    charge:    3.1041    magn:   -0.0034    constr:    0.0000
     atom:    8    charge:    2.0876    magn:    0.1759    constr:    0.0000
     atom:    9    charge:    3.0983    magn:    0.0185    constr:    0.0000
     atom:   10    charge:    2.0829    magn:    0.1625    constr:    0.0000
     atom:   11    charge:    3.0960    magn:    0.0297    constr:    0.0000
     atom:   12    charge:    2.0826    magn:    0.1507    constr:    0.0000
     atom:   13    charge:    3.1020    magn:    0.0209    constr:    0.0000
     atom:   14    charge:    2.0894    magn:    0.1569    constr:    0.0000
     atom:   15    charge:    3.1051    magn:   -0.0033    constr:    0.0000
     atom:   16    charge:    2.0948    magn:    0.1808    constr:    0.0000
     atom:   17    charge:    2.0409    magn:    0.2656    constr:    0.0000
     atom:   18    charge:    3.1454    magn:    0.1419    constr:    0.0000
     atom:   19    charge:    2.0829    magn:    0.1518    constr:    0.0000
     atom:   20    charge:    2.0876    magn:    0.1547    constr:    0.0000
     atom:   21    charge:    2.0876    magn:    0.1547    constr:    0.0000
     atom:   22    charge:    3.0959    magn:    0.0210    constr:    0.0000
     atom:   23    charge:    2.0926    magn:    0.1467    constr:    0.0000
     atom:   24    charge:    2.0740    magn:    0.1636    constr:    0.0000
     atom:   25    charge:    2.0824    magn:    0.1502    constr:    0.0000
     atom:   26    charge:    3.1063    magn:   -0.0013    constr:    0.0000
     atom:   27    charge:    2.0781    magn:    0.1730    constr:    0.0000
     atom:   28    charge:    2.0862    magn:    0.1604    constr:    0.0000
     atom:   29    charge:    2.0879    magn:    0.1592    constr:    0.0000
     atom:   30    charge:    3.1032    magn:   -0.0094    constr:    0.0000
     atom:   31    charge:    2.0855    magn:    0.1832    constr:    0.0000
     atom:   32    charge:    2.0919    magn:    0.1728    constr:    0.0000
     atom:   33    charge:    2.0412    magn:    0.2648    constr:    0.0000
     atom:   34    charge:    3.1452    magn:    0.1415    constr:    0.0000
     atom:   35    charge:    2.0829    magn:    0.1518    constr:    0.0000
     atom:   36    charge:    2.0876    magn:    0.1547    constr:    0.0000
     atom:   37    charge:    2.0876    magn:    0.1546    constr:    0.0000
     atom:   38    charge:    3.0958    magn:    0.0208    constr:    0.0000
     atom:   39    charge:    2.0930    magn:    0.1469    constr:    0.0000
     atom:   40    charge:    2.0740    magn:    0.1637    constr:    0.0000
     atom:   41    charge:    2.0823    magn:    0.1505    constr:    0.0000
     atom:   42    charge:    3.1079    magn:   -0.0014    constr:    0.0000
     atom:   43    charge:    2.0796    magn:    0.1731    constr:    0.0000
     atom:   44    charge:    2.0853    magn:    0.1583    constr:    0.0000
     atom:   45    charge:    2.0876    magn:    0.1588    constr:    0.0000
     atom:   46    charge:    3.1038    magn:   -0.0101    constr:    0.0000
     atom:   47    charge:    2.0835    magn:    0.1834    constr:    0.0000
     atom:   48    charge:    2.0803    magn:    0.2083    constr:    0.0000
     atom:   49    charge:    2.0627    magn:    0.1048    constr:    0.0000
     atom:   50    charge:    1.2853    magn:    0.0490    constr:    0.0000
     atom:   51    charge:    1.3044    magn:    0.0499    constr:    0.0000

     total cpu time spent up to now is     2917.7 secs

     total energy              =   -3045.09191957 Ry
     Harris-Foulkes estimate   =   -3044.59579950 Ry
     estimated scf accuracy    <       1.62087784 Ry

     total magnetization       =     0.00 Bohr mag/cell
     absolute magnetization    =     8.64 Bohr mag/cell

     iteration # 11     ecut=    40.42 Ry     beta=0.10
     Davidson diagonalization with overlap
     ethr =  4.05E-04,  avg # of iterations =  6.4

     negative rho (up, down):  1.119E-02 8.649E-03
 
     Magnetic moment per site:
     atom:    1    charge:    3.1024    magn:   -0.0103    constr:    0.0000
     atom:    2    charge:    2.0828    magn:    0.1214    constr:    0.0000
     atom:    3    charge:    3.1068    magn:    0.0085    constr:    0.0000
     atom:    4    charge:    2.0847    magn:    0.1081    constr:    0.0000
     atom:    5    charge:    3.1064    magn:   -0.0106    constr:    0.0000
     atom:    6    charge:    2.0895    magn:    0.1151    constr:    0.0000
     atom:    7    charge:    3.1087    magn:   -0.0293    constr:    0.0000
     atom:    8    charge:    2.0832    magn:    0.1340    constr:    0.0000
     atom:    9    charge:    3.1024    magn:   -0.0103    constr:    0.0000
     atom:   10    charge:    2.0828    magn:    0.1215    constr:    0.0000
     atom:   11    charge:    3.1068    magn:    0.0085    constr:    0.0000
     atom:   12    charge:    2.0847    magn:    0.1084    constr:    0.0000
     atom:   13    charge:    3.1052    magn:   -0.0062    constr:    0.0000
     atom:   14    charge:    2.0891    magn:    0.1149    constr:    0.0000
     atom:   15    charge:    3.1097    magn:   -0.0293    constr:    0.0000
     atom:   16    charge:    2.0929    magn:    0.1363    constr:    0.0000
     atom:   17    charge:    2.0546    magn:    0.2278    constr:    0.0000
     atom:   18    charge:    3.1429    magn:    0.1251    constr:    0.0000
     atom:   19    charge:    2.0852    magn:    0.1098    constr:    0.0000
     atom:   20    charge:    2.0897    magn:    0.1139    constr:    0.0000
     atom:   21    charge:    2.0897    magn:    0.1139    constr:    0.0000
     atom:   22    charge:    3.1056    magn:   -0.0030    constr:    0.0000
     atom:   23    charge:    2.0885    magn:    0.1052    constr:    0.0000
     atom:   24    charge:    2.0778    magn:    0.1216    constr:    0.0000
     atom:   25    charge:    2.0845    magn:    0.1080    constr:    0.0000
     atom:   26    charge:    3.1052    magn:   -0.0262    constr:    0.0000
     atom:   27    charge:    2.0817    magn:    0.1315    constr:    0.0000
     atom:   28    charge:    2.0866    magn:    0.1183    constr:    0.0000
     atom:   29    charge:    2.0877    magn:    0.1173    constr:    0.0000
     atom:   30    charge:    3.1035    magn:   -0.0339    constr:    0.0000
     atom:   31    charge:    2.0836    magn:    0.1467    constr:    0.0000
     atom:   32    charge:    2.0869    magn:    0.1304    constr:    0.0000
     atom:   33    charge:    2.0545    magn:    0.2272    constr:    0.0000
     atom:   34    charge:    3.1429    magn:    0.1248    constr:    0.0000
     atom:   35    charge:    2.0853    magn:    0.1098    constr:    0.0000
     atom:   36    charge:    2.0897    magn:    0.1139    constr:    0.0000
     atom:   37    charge:    2.0896    magn:    0.1138    constr:    0.0000
     atom:   38    charge:    3.1056    magn:   -0.0032    constr:    0.0000
     atom:   39    charge:    2.0888    magn:    0.1053    constr:    0.0000
     atom:   40    charge:    2.0778    magn:    0.1217    constr:    0.0000
     atom:   41    charge:    2.0845    magn:    0.1084    constr:    0.0000
     atom:   42    charge:    3.1069    magn:   -0.0262    constr:    0.0000
     atom:   43    charge:    2.0831    magn:    0.1315    constr:    0.0000
     atom:   44    charge:    2.0854    magn:    0.1163    constr:    0.0000
     atom:   45    charge:    2.0873    magn:    0.1168    constr:    0.0000
     atom:   46    charge:    3.1038    magn:   -0.0345    constr:    0.0000
     atom:   47    charge:    2.0817    magn:    0.1469    constr:    0.0000
     atom:   48    charge:    2.0855    magn:    0.1646    constr:    0.0000
     atom:   49    charge:    2.0527    magn:    0.0754    constr:    0.0000
     atom:   50    charge:    1.2735    magn:    0.0249    constr:    0.0000
     atom:   51    charge:    1.3038    magn:    0.0229    constr:    0.0000

     total cpu time spent up to now is     3162.8 secs

     total energy              =   -3045.07884828 Ry
     Harris-Foulkes estimate   =   -3045.12926050 Ry
     estimated scf accuracy    <       1.61162108 Ry

     total magnetization       =     0.00 Bohr mag/cell
     absolute magnetization    =     6.17 Bohr mag/cell

     iteration # 12     ecut=    40.42 Ry     beta=0.10
     Davidson diagonalization with overlap
     ethr =  4.03E-04,  avg # of iterations =  2.7

     negative rho (up, down):  1.083E-02 8.658E-03
 
     Magnetic moment per site:
     atom:    1    charge:    3.1134    magn:   -0.0227    constr:    0.0000
     atom:    2    charge:    2.0850    magn:    0.0906    constr:    0.0000
     atom:    3    charge:    3.1235    magn:    0.0052    constr:    0.0000
     atom:    4    charge:    2.0865    magn:    0.0768    constr:    0.0000
     atom:    5    charge:    3.1140    magn:   -0.0218    constr:    0.0000
     atom:    6    charge:    2.0896    magn:    0.0839    constr:    0.0000
     atom:    7    charge:    3.1173    magn:   -0.0382    constr:    0.0000
     atom:    8    charge:    2.0786    magn:    0.1039    constr:    0.0000
     atom:    9    charge:    3.1135    magn:   -0.0227    constr:    0.0000
     atom:   10    charge:    2.0850    magn:    0.0907    constr:    0.0000
     atom:   11    charge:    3.1235    magn:    0.0052    constr:    0.0000
     atom:   12    charge:    2.0866    magn:    0.0770    constr:    0.0000
     atom:   13    charge:    3.1117    magn:   -0.0180    constr:    0.0000
     atom:   14    charge:    2.0892    magn:    0.0838    constr:    0.0000
     atom:   15    charge:    3.1183    magn:   -0.0381    constr:    0.0000
     atom:   16    charge:    2.0891    magn:    0.1021    constr:    0.0000
     atom:   17    charge:    2.0722    magn:    0.1925    constr:    0.0000
     atom:   18    charge:    3.1410    magn:    0.1176    constr:    0.0000
     atom:   19    charge:    2.0873    magn:    0.0784    constr:    0.0000
     atom:   20    charge:    2.0898    magn:    0.0836    constr:    0.0000
     atom:   21    charge:    2.0899    magn:    0.0835    constr:    0.0000
     atom:   22    charge:    3.1199    magn:   -0.0092    constr:    0.0000
     atom:   23    charge:    2.0845    magn:    0.0750    constr:    0.0000
     atom:   24    charge:    2.0802    magn:    0.0901    constr:    0.0000
     atom:   25    charge:    2.0864    magn:    0.0768    constr:    0.0000
     atom:   26    charge:    3.1105    magn:   -0.0341    constr:    0.0000
     atom:   27    charge:    2.0837    magn:    0.1003    constr:    0.0000
     atom:   28    charge:    2.0867    magn:    0.0869    constr:    0.0000
     atom:   29    charge:    2.0859    magn:    0.0864    constr:    0.0000
     atom:   30    charge:    3.1112    magn:   -0.0405    constr:    0.0000
     atom:   31    charge:    2.0786    magn:    0.1236    constr:    0.0000
     atom:   32    charge:    2.0814    magn:    0.0999    constr:    0.0000
     atom:   33    charge:    2.0719    magn:    0.1922    constr:    0.0000
     atom:   34    charge:    3.1412    magn:    0.1176    constr:    0.0000
     atom:   35    charge:    2.0873    magn:    0.0784    constr:    0.0000
     atom:   36    charge:    2.0899    magn:    0.0834    constr:    0.0000
     atom:   37    charge:    2.0898    magn:    0.0836    constr:    0.0000
     atom:   38    charge:    3.1199    magn:   -0.0093    constr:    0.0000
     atom:   39    charge:    2.0849    magn:    0.0752    constr:    0.0000
     atom:   40    charge:    2.0802    magn:    0.0901    constr:    0.0000
     atom:   41    charge:    2.0864    magn:    0.0770    constr:    0.0000
     atom:   42    charge:    3.1122    magn:   -0.0341    constr:    0.0000
     atom:   43    charge:    2.0852    magn:    0.1002    constr:    0.0000
     atom:   44    charge:    2.0850    magn:    0.0852    constr:    0.0000
     atom:   45    charge:    2.0855    magn:    0.0857    constr:    0.0000
     atom:   46    charge:    3.1109    magn:   -0.0407    constr:    0.0000
     atom:   47    charge:    2.0767    magn:    0.1237    constr:    0.0000
     atom:   48    charge:    2.0876    magn:    0.1296    constr:    0.0000
     atom:   49    charge:    2.0413    magn:    0.0636    constr:    0.0000
     atom:   50    charge:    1.2582    magn:    0.0141    constr:    0.0000
     atom:   51    charge:    1.2985    magn:    0.0088    constr:    0.0000

     total cpu time spent up to now is     3355.7 secs

     total energy              =   -3045.00634027 Ry
     Harris-Foulkes estimate   =   -3045.09732843 Ry
     estimated scf accuracy    <       1.18514744 Ry

     total magnetization       =     0.00 Bohr mag/cell
     absolute magnetization    =     5.22 Bohr mag/cell

     iteration # 13     ecut=    40.42 Ry     beta=0.10
     Davidson diagonalization with overlap
     ethr =  2.96E-04,  avg # of iterations =  7.4

     negative rho (up, down):  1.080E-02 8.831E-03
 
     Magnetic moment per site:
     atom:    1    charge:    3.1191    magn:   -0.0334    constr:    0.0000
     atom:    2    charge:    2.0892    magn:    0.0677    constr:    0.0000
     atom:    3    charge:    3.1236    magn:   -0.0028    constr:    0.0000
     atom:    4    charge:    2.0865    magn:    0.0550    constr:    0.0000
     atom:    5    charge:    3.1149    magn:   -0.0311    constr:    0.0000
     atom:    6    charge:    2.0894    magn:    0.0619    constr:    0.0000
     atom:    7    charge:    3.1189    magn:   -0.0462    constr:    0.0000
     atom:    8    charge:    2.0801    magn:    0.0810    constr:    0.0000
     atom:    9    charge:    3.1191    magn:   -0.0334    constr:    0.0000
     atom:   10    charge:    2.0893    magn:    0.0677    constr:    0.0000
     atom:   11    charge:    3.1236    magn:   -0.0028    constr:    0.0000
     atom:   12    charge:    2.0867    magn:    0.0552    constr:    0.0000
     atom:   13    charge:    3.1129    magn:   -0.0281    constr:    0.0000
     atom:   14    charge:    2.0889    magn:    0.0618    constr:    0.0000
     atom:   15    charge:    3.1198    magn:   -0.0461    constr:    0.0000
     atom:   16    charge:    2.0883    magn:    0.0774    constr:    0.0000
     atom:   17    charge:    2.0757    magn:    0.1604    constr:    0.0000
     atom:   18    charge:    3.1370    magn:    0.0982    constr:    0.0000
     atom:   19    charge:    2.0866    magn:    0.0565    constr:    0.0000
     atom:   20    charge:    2.0874    magn:    0.0609    constr:    0.0000
     atom:   21    charge:    2.0874    magn:    0.0607    constr:    0.0000
     atom:   22    charge:    3.1193    magn:   -0.0172    constr:    0.0000
     atom:   23    charge:    2.0856    magn:    0.0540    constr:    0.0000
     atom:   24    charge:    2.0782    magn:    0.0679    constr:    0.0000
     atom:   25    charge:    2.0864    magn:    0.0550    constr:    0.0000
     atom:   26    charge:    3.1143    magn:   -0.0417    constr:    0.0000
     atom:   27    charge:    2.0819    magn:    0.0778    constr:    0.0000
     atom:   28    charge:    2.0859    magn:    0.0648    constr:    0.0000
     atom:   29    charge:    2.0849    magn:    0.0646    constr:    0.0000
     atom:   30    charge:    3.1155    magn:   -0.0476    constr:    0.0000
     atom:   31    charge:    2.0796    magn:    0.1034    constr:    0.0000
     atom:   32    charge:    2.0826    magn:    0.0771    constr:    0.0000
     atom:   33    charge:    2.0755    magn:    0.1602    constr:    0.0000
     atom:   34    charge:    3.1370    magn:    0.0982    constr:    0.0000
     atom:   35    charge:    2.0866    magn:    0.0565    constr:    0.0000
     atom:   36    charge:    2.0874    magn:    0.0606    constr:    0.0000
     atom:   37    charge:    2.0874    magn:    0.0608    constr:    0.0000
     atom:   38    charge:    3.1193    magn:   -0.0173    constr:    0.0000
     atom:   39    charge:    2.0859    magn:    0.0541    constr:    0.0000
     atom:   40    charge:    2.0782    magn:    0.0680    constr:    0.0000
     atom:   41    charge:    2.0865    magn:    0.0552    constr:    0.0000
     atom:   42    charge:    3.1159    magn:   -0.0417    constr:    0.0000
     atom:   43    charge:    2.0834    magn:    0.0777    constr:    0.0000
     atom:   44    charge:    2.0842    magn:    0.0633    constr:    0.0000
     atom:   45    charge:    2.0843    magn:    0.0639    constr:    0.0000
     atom:   46    charge:    3.1153    magn:   -0.0477    constr:    0.0000
     atom:   47    charge:    2.0776    magn:    0.1035    constr:    0.0000
     atom:   48    charge:    2.0854    magn:    0.1029    constr:    0.0000
     atom:   49    charge:    2.0450    magn:    0.0491    constr:    0.0000
     atom:   50    charge:    1.2575    magn:    0.0043    constr:    0.0000
     atom:   51    charge:    1.2949    magn:   -0.0020    constr:    0.0000

     total cpu time spent up to now is     3614.8 secs

     total energy              =   -3044.97806924 Ry
     Harris-Foulkes estimate   =   -3045.03622923 Ry
     estimated scf accuracy    <       0.80521280 Ry

     total magnetization       =     0.04 Bohr mag/cell
     absolute magnetization    =     4.33 Bohr mag/cell

     iteration # 14     ecut=    40.42 Ry     beta=0.10
     Davidson diagonalization with overlap
     c_bands:  1 eigenvalues not converged
     ethr =  2.01E-04,  avg # of iterations =  4.6

     negative rho (up, down):  1.062E-02 8.867E-03
 
     Magnetic moment per site:
     atom:    1    charge:    3.1193    magn:   -0.0309    constr:    0.0000
     atom:    2    charge:    2.0880    magn:    0.0705    constr:    0.0000
     atom:    3    charge:    3.1247    magn:   -0.0011    constr:    0.0000
     atom:    4    charge:    2.0861    magn:    0.0578    constr:    0.0000
     atom:    5    charge:    3.1156    magn:   -0.0291    constr:    0.0000
     atom:    6    charge:    2.0893    magn:    0.0648    constr:    0.0000
     atom:    7    charge:    3.1207    magn:   -0.0449    constr:    0.0000
     atom:    8    charge:    2.0789    magn:    0.0839    constr:    0.0000
     atom:    9    charge:    3.1193    magn:   -0.0309    constr:    0.0000
     atom:   10    charge:    2.0880    magn:    0.0705    constr:    0.0000
     atom:   11    charge:    3.1247    magn:   -0.0012    constr:    0.0000
     atom:   12    charge:    2.0862    magn:    0.0579    constr:    0.0000
     atom:   13    charge:    3.1134    magn:   -0.0261    constr:    0.0000
     atom:   14    charge:    2.0888    magn:    0.0646    constr:    0.0000
     atom:   15    charge:    3.1216    magn:   -0.0448    constr:    0.0000
     atom:   16    charge:    2.0876    magn:    0.0805    constr:    0.0000
     atom:   17    charge:    2.0736    magn:    0.1648    constr:    0.0000
     atom:   18    charge:    3.1382    magn:    0.1007    constr:    0.0000
     atom:   19    charge:    2.0863    magn:    0.0593    constr:    0.0000
     atom:   20    charge:    2.0868    magn:    0.0640    constr:    0.0000
     atom:   21    charge:    2.0869    magn:    0.0638    constr:    0.0000
     atom:   22    charge:    3.1207    magn:   -0.0152    constr:    0.0000
     atom:   23    charge:    2.0851    magn:    0.0568    constr:    0.0000
     atom:   24    charge:    2.0783    magn:    0.0707    constr:    0.0000
     atom:   25    charge:    2.0860    magn:    0.0578    constr:    0.0000
     atom:   26    charge:    3.1138    magn:   -0.0394    constr:    0.0000
     atom:   27    charge:    2.0821    magn:    0.0808    constr:    0.0000
     atom:   28    charge:    2.0858    magn:    0.0676    constr:    0.0000
     atom:   29    charge:    2.0851    magn:    0.0674    constr:    0.0000
     atom:   30    charge:    3.1154    magn:   -0.0457    constr:    0.0000
     atom:   31    charge:    2.0788    magn:    0.1061    constr:    0.0000
     atom:   32    charge:    2.0815    magn:    0.0800    constr:    0.0000
     atom:   33    charge:    2.0734    magn:    0.1645    constr:    0.0000
     atom:   34    charge:    3.1382    magn:    0.1007    constr:    0.0000
     atom:   35    charge:    2.0863    magn:    0.0593    constr:    0.0000
     atom:   36    charge:    2.0869    magn:    0.0638    constr:    0.0000
     atom:   37    charge:    2.0868    magn:    0.0639    constr:    0.0000
     atom:   38    charge:    3.1207    magn:   -0.0153    constr:    0.0000
     atom:   39    charge:    2.0855    magn:    0.0569    constr:    0.0000
     atom:   40    charge:    2.0783    magn:    0.0707    constr:    0.0000
     atom:   41    charge:    2.0861    magn:    0.0580    constr:    0.0000
     atom:   42    charge:    3.1154    magn:   -0.0394    constr:    0.0000
     atom:   43    charge:    2.0836    magn:    0.0807    constr:    0.0000
     atom:   44    charge:    2.0842    magn:    0.0661    constr:    0.0000
     atom:   45    charge:    2.0846    magn:    0.0667    constr:    0.0000
     atom:   46    charge:    3.1152    magn:   -0.0458    constr:    0.0000
     atom:   47    charge:    2.0769    magn:    0.1062    constr:    0.0000
     atom:   48    charge:    2.0851    magn:    0.1063    constr:    0.0000
     atom:   49    charge:    2.0442    magn:    0.0514    constr:    0.0000
     atom:   50    charge:    1.2579    magn:    0.0063    constr:    0.0000
     atom:   51    charge:    1.2958    magn:    0.0002    constr:    0.0000

     total cpu time spent up to now is     3832.3 secs

     total energy              =   -3044.99740115 Ry
     Harris-Foulkes estimate   =   -3045.00166462 Ry
     estimated scf accuracy    <       1.06929468 Ry

     total magnetization       =     0.26 Bohr mag/cell
     absolute magnetization    =     4.21 Bohr mag/cell

     iteration # 15     ecut=    40.42 Ry     beta=0.10
     Davidson diagonalization with overlap
     ethr =  2.01E-04,  avg # of iterations =  1.0

     negative rho (up, down):  1.076E-02 9.151E-03
 
     Magnetic moment per site:
     atom:    1    charge:    3.1233    magn:   -0.0342    constr:    0.0000
     atom:    2    charge:    2.0896    magn:    0.0556    constr:    0.0000
     atom:    3    charge:    3.1247    magn:   -0.0048    constr:    0.0000
     atom:    4    charge:    2.0860    magn:    0.0443    constr:    0.0000
     atom:    5    charge:    3.1169    magn:   -0.0321    constr:    0.0000
     atom:    6    charge:    2.0897    magn:    0.0512    constr:    0.0000
     atom:    7    charge:    3.1224    magn:   -0.0474    constr:    0.0000
     atom:    8    charge:    2.0795    magn:    0.0691    constr:    0.0000
     atom:    9    charge:    3.1233    magn:   -0.0343    constr:    0.0000
[...]
    -2.6749  -2.6307  -2.6227  -2.6156  -2.5836  -2.5412  -2.5047  -2.4886
    -2.4880  -2.4246  -2.3844  -2.3714  -2.3340  -2.3032  -2.2586  -2.2579
    -2.2336  -2.1467  -2.1422  -2.1405  -2.0141  -1.9764  -1.8249  -1.7965
    -1.7357  -1.6875  -1.4335  -1.3879  -1.3241  -1.3229  -1.1664  -1.1528
    -1.1458  -1.1440  -1.1182  -1.0870  -1.0417  -0.9065  -0.8899  -0.7590
    -0.7477  -0.7325  -0.6654  -0.6646  -0.0634  -0.0633   0.0747   0.0750
     1.9871   2.0012   2.0434   2.0501   2.0729   2.0756   2.0874   2.0910
     2.3564   2.3685   2.3745   2.3882   2.4516   2.4575   2.5231   2.5383
     2.5583   2.5588   2.6163   2.7243   2.7322   2.8366   2.8492   2.8668
     2.8778   2.9551   3.0299   3.1036   3.1105   3.1631   3.1935   3.2577
     3.2817   3.2963   3.3339   3.3621   3.3954   3.3986   3.4417   3.4760
     3.5584   3.5827   3.6840   3.7282   3.7926   3.8146   3.8166   3.8175
     3.9482   3.9532   3.9728   3.9728   4.2914   4.5510   4.6592   4.6597
     4.7157   4.7379   4.7755   4.7830   4.7847   4.8083   5.0770   5.1061
     5.2294   5.2618   5.6207   5.6350   5.8105   5.8248   5.9409   6.0454
     6.1655   6.2085   6.2149   6.2452   6.4009   6.4132   6.4751   6.5306
     6.5321   6.5449   6.7081   6.7089   6.7650   6.7664   7.0334   7.0820
     7.6447   7.6740   7.8028   7.8141   8.0426   8.0934   8.3305   8.4017
     8.5442   8.6075   8.6869   9.1794

          k =-0.0253 0.0280 0.0000 ( 34687 PWs)   bands (ev):

   -57.8224 -57.7921 -57.5125 -57.4599 -57.3876 -57.3559 -57.2774 -57.2468
   -57.1796 -57.1490 -57.1162 -57.0855 -56.8845 -56.8148 -56.2841 -56.2536
   -34.2359 -34.1039 -34.0791 -34.0352 -34.0193 -33.9383 -33.8982 -33.8410
   -33.8220 -33.7503 -33.7369 -33.7280 -33.7180 -33.6899 -33.6774 -33.6738
   -33.6482 -33.6111 -33.6078 -33.5459 -33.5355 -33.4860 -33.4592 -33.4488
   -33.4355 -33.4248 -33.4079 -33.3834 -33.3654 -33.3632 -33.3557 -33.3437
   -33.3143 -33.3135 -33.3061 -33.2771 -33.2754 -33.1470 -33.1390 -33.0857
   -33.0451 -32.9687 -32.6797 -32.6367 -32.6127 -32.5031 -32.4237 -32.3369
   -24.2455 -21.0069 -18.0883 -17.8778 -17.6608 -17.5411 -17.4748 -17.4426
   -17.2554 -17.2326 -17.2060 -17.0851 -17.0608 -17.0416 -16.9905 -16.9547
   -16.9260 -16.8604 -16.8411 -16.8210 -16.7476 -16.6605 -16.6296 -16.5431
   -16.5092 -16.4979 -16.4822 -16.3080 -16.2854 -16.2633 -16.1333 -16.1212
   -14.8756 -14.8052  -9.7918  -7.4874  -7.4726  -5.9957  -5.4541  -5.3116
    -5.1719  -5.1600  -5.1104  -4.8754  -4.8626  -4.7295  -4.5692  -4.5228
    -4.4761  -4.4456  -4.4157  -4.3561  -4.3235  -4.2858  -4.2267  -4.1958
    -4.1559  -4.1231  -4.0916  -4.0736  -4.0324  -3.9736  -3.9613  -3.9304
    -3.9129  -3.8571  -3.8466  -3.7574  -3.7374  -3.6823  -3.6759  -3.4802
    -3.4526  -3.3867  -3.3377  -3.2820  -3.1638  -3.1060  -3.0691  -2.9370
    -2.8532  -2.8337  -2.8019  -2.7891  -2.7525  -2.6769  -2.6327  -2.6116
    -2.5935  -2.5749  -2.5487  -2.5174  -2.4585  -2.4003  -2.3507  -2.3279
    -2.2639  -2.2476  -2.1967  -2.1077  -2.0634  -2.0331  -1.9933  -1.9133
    -1.8751  -1.8540  -1.7924  -1.7624  -1.7404  -1.7176  -1.6631  -1.6244
    -1.5645  -1.5072  -1.4824  -1.4618  -1.4185  -1.3774  -1.3274  -1.2323
    -1.2091  -1.2015  -1.0555  -0.9945  -0.9738  -0.9110  -0.8874  -0.8662
    -0.7845  -0.5735  -0.4238  -0.2812  -0.2179   0.0070   0.0485   0.0576
     1.5963   1.7228   1.8914   1.9037   2.0191   2.0377   2.1365   2.1731
     2.2355   2.2764   2.3130   2.3245   2.3791   2.3925   2.4074   2.4307
     2.5070   2.5412   2.5773   2.6090   2.6296   2.6884   2.7731   2.8083
     2.8475   2.8894   2.9747   2.9843   2.9930   2.9981   3.0535   3.0888
     3.1687   3.2264   3.2620   3.2680   3.2993   3.3229   3.3749   3.4247
     3.4607   3.4912   3.5154   3.5315   3.5799   3.6287   3.7629   3.8860
     4.0181   4.0463   4.0934   4.1669   4.2208   4.3610   4.6836   4.7656
     4.8219   4.9377   4.9834   5.0282   5.0387   5.1158   5.2697   5.5238
     5.5615   5.5977   5.6451   5.7250   5.7386   5.8190   5.8853   5.9253
     5.9538   5.9961   6.0231   6.0338   6.0500   6.0863   6.2952   6.3135
     6.4739   6.5509   6.7359   6.7693   6.8138   7.0586   7.1209   7.3483
     7.5385   8.0146   8.1448   8.2239   8.3168   8.5244   8.5740   8.8353
     9.0225   9.2739   9.4042   9.4709

          k =-0.0253 0.0560 0.0000 ( 34699 PWs)   bands (ev):

   -57.8160 -57.7985 -57.5093 -57.4632 -57.3814 -57.3621 -57.2710 -57.2533
   -57.1732 -57.1554 -57.1098 -57.0920 -56.8819 -56.8174 -56.2777 -56.2600
   -34.1661 -34.0985 -34.0842 -34.0024 -33.9712 -33.9646 -33.9556 -33.8060
   -33.7754 -33.7656 -33.7522 -33.7159 -33.7064 -33.6935 -33.6772 -33.6740
   -33.5939 -33.5784 -33.5758 -33.5446 -33.5366 -33.5274 -33.4812 -33.4710
   -33.4539 -33.4403 -33.4084 -33.3824 -33.3777 -33.3620 -33.3614 -33.3556
   -33.3412 -33.3272 -33.3050 -33.3030 -33.2683 -33.1460 -33.1354 -33.0872
   -33.0587 -33.0361 -32.6316 -32.6177 -32.6089 -32.4866 -32.4407 -32.4111
   -24.2454 -21.0067 -17.9212 -17.7212 -17.5270 -17.4420 -17.4197 -17.3991
   -17.3105 -17.2960 -17.1846 -17.1229 -17.0847 -17.0324 -17.0079 -16.9909
   -16.9007 -16.8914 -16.8529 -16.8056 -16.7716 -16.7347 -16.6830 -16.5898
   -16.5760 -16.4674 -16.4329 -16.3247 -16.3196 -16.2827 -16.2467 -16.1829
   -14.8936 -14.8557  -9.7915  -7.4903  -7.4722  -5.9939  -5.2229  -5.0771
    -4.9622  -4.9340  -4.9042  -4.7313  -4.6646  -4.6483  -4.5317  -4.5261
    -4.5028  -4.4946  -4.3955  -4.3554  -4.3485  -4.3169  -4.2849  -4.2701
    -4.2260  -4.2120  -4.1905  -4.1565  -4.0881  -4.0751  -4.0629  -4.0086
    -3.9726  -3.9160  -3.8471  -3.8080  -3.7250  -3.6304  -3.5452  -3.4694
    -3.4316  -3.4123  -3.3749  -3.2060  -3.1739  -3.0399  -2.9921  -2.9721
    -2.9438  -2.8740  -2.8004  -2.7669  -2.7122  -2.6713  -2.6330  -2.5820
    -2.5581  -2.5157  -2.4714  -2.4559  -2.4128  -2.3988  -2.3174  -2.2739
    -2.2580  -2.2295  -2.1730  -2.1373  -2.0903  -2.0797  -2.0115  -1.9988
    -1.9503  -1.9280  -1.8761  -1.8375  -1.8182  -1.7782  -1.7222  -1.6948
    -1.6618  -1.5865  -1.5660  -1.4902  -1.4688  -1.4223  -1.3821  -1.3426
    -1.2587  -1.2299  -1.1583  -1.0946  -1.0687  -0.9693  -0.9440  -0.8748
    -0.8208  -0.7348  -0.6016  -0.4052  -0.0417  -0.0013   0.0239   0.0473
     1.7361   1.9122   1.9272   2.0499   2.0559   2.0817   2.1676   2.1767
     2.2508   2.2686   2.2917   2.3065   2.3502   2.3942   2.4243   2.5068
     2.5582   2.5781   2.6449   2.6571   2.6750   2.6884   2.7522   2.7845
     2.8047   2.8203   2.8707   2.8795   2.9887   3.0574   3.1223   3.1421
     3.1994   3.2105   3.2429   3.2739   3.3238   3.3642   3.4172   3.4380
     3.5111   3.5372   3.6356   3.6638   3.6976   3.7326   3.7540   3.8201
     3.9372   3.9755   4.0115   4.1368   4.2062   4.3676   4.7757   4.8463
     4.9895   5.0243   5.0987   5.1161   5.1397   5.2226   5.3263   5.4277
     5.4491   5.5067   5.5955   5.6269   5.7173   5.7302   5.7933   5.8238
     5.8791   5.9061   5.9507   6.0131   6.0499   6.2211   6.2475   6.3605
     6.4082   6.4458   6.6502   6.6548   6.7784   6.9061   7.0466   7.2883
     7.3750   7.7194   7.8377   8.0951   8.3672   8.5593   8.6336   8.9036
     9.0255   9.0629   9.2930   9.3900

          k =-0.0506 0.0280 0.0000 ( 34685 PWs)   bands (ev):

   -57.8224 -57.7921 -57.5125 -57.4599 -57.3876 -57.3559 -57.2774 -57.2468
   -57.1796 -57.1490 -57.1162 -57.0855 -56.8845 -56.8148 -56.2841 -56.2536
   -34.2366 -34.1038 -34.0791 -34.0354 -34.0179 -33.9383 -33.8982 -33.8423
   -33.8221 -33.7530 -33.7369 -33.7277 -33.7170 -33.6915 -33.6843 -33.6738
   -33.6489 -33.6076 -33.5943 -33.5359 -33.5338 -33.4862 -33.4590 -33.4464
   -33.4355 -33.4250 -33.4110 -33.3899 -33.3746 -33.3625 -33.3543 -33.3437
   -33.3143 -33.3137 -33.3061 -33.2771 -33.2753 -33.1490 -33.1391 -33.0858
   -33.0451 -32.9687 -32.6796 -32.6385 -32.6118 -32.5031 -32.4237 -32.3369
   -24.2454 -21.0067 -18.0296 -17.7792 -17.5676 -17.4780 -17.4733 -17.3997
   -17.3417 -17.2570 -17.2415 -17.1109 -17.0910 -17.0633 -17.0597 -17.0012
   -16.9826 -16.9679 -16.8711 -16.7611 -16.7184 -16.6708 -16.5868 -16.5700
   -16.5332 -16.4907 -16.4613 -16.3068 -16.2740 -16.2644 -16.1332 -16.1222
   -14.8736 -14.8053  -9.7903  -7.4877  -7.4723  -5.9948  -5.4377  -5.0181
    -4.9445  -4.9325  -4.8630  -4.8395  -4.8194  -4.7788  -4.6421  -4.5795
    -4.5632  -4.5096  -4.4517  -4.3596  -4.3123  -4.2269  -4.1754  -4.1559
    -4.1365  -4.1272  -4.0549  -4.0111  -3.9783  -3.9504  -3.9097  -3.8847
    -3.8635  -3.8296  -3.7826  -3.7239  -3.7065  -3.5885  -3.4528  -3.4188
    -3.3927  -3.3352  -3.3053  -3.2558  -3.1871  -3.1042  -3.0604  -3.0046
    -2.9402  -2.9160  -2.8707  -2.8621  -2.8079  -2.7564  -2.7379  -2.6865
    -2.6455  -2.6196  -2.5889  -2.5404  -2.5020  -2.4791  -2.4344  -2.4069
    -2.3431  -2.3127  -2.2324  -2.2044  -2.1374  -2.1067  -2.0934  -2.0495
    -1.9990  -1.9356  -1.9067  -1.8756  -1.8482  -1.7794  -1.6937  -1.6386
    -1.6029  -1.5715  -1.4979  -1.4699  -1.4293  -1.4082  -1.3235  -1.2699
    -1.1867  -1.1472  -1.0362  -1.0225  -0.9543  -0.9262  -0.8925  -0.8575
    -0.8182  -0.6540  -0.4553  -0.4012  -0.2048  -0.0224   0.0083   0.0220
     1.5808   1.7869   1.9201   1.9370   1.9567   2.0322   2.0662   2.1436
     2.2402   2.2555   2.2971   2.3573   2.4067   2.4487   2.4502   2.5179
     2.5334   2.5746   2.6043   2.6491   2.6991   2.7678   2.8219   2.8279
     2.8699   2.9218   2.9457   3.0090   3.0174   3.0635   3.1396   3.1630
     3.2287   3.2613   3.2946   3.3112   3.3754   3.3983   3.4394   3.4756
     3.4944   3.5284   3.5416   3.5927   3.6358   3.6851   3.7356   3.8206
     3.9267   4.0270   4.1362   4.1451   4.2803   4.3480   4.5243   4.6321
     4.6548   4.6808   4.8469   4.8966   4.9929   5.3099   5.3610   5.4703
     5.5133   5.5744   5.6536   5.7079   5.7336   5.7503   5.8819   5.9283
     5.9795   6.0207   6.2532   6.2703   6.3056   6.3703   6.4306   6.5129
     6.5407   6.6173   6.6846   6.7305   6.8241   6.9592   7.0263   7.3391
     7.4323   7.6910   7.8128   8.0805   8.3154   8.4020   8.5252   8.9209
     9.0851   9.1650   9.3707   9.4644

          k =-0.0506 0.0560 0.0000 ( 34596 PWs)   bands (ev):

   -57.8160 -57.7985 -57.5093 -57.4632 -57.3814 -57.3621 -57.2709 -57.2533
   -57.1733 -57.1554 -57.1098 -57.0920 -56.8819 -56.8174 -56.2777 -56.2600
   -34.1666 -34.0985 -34.0842 -34.0012 -33.9714 -33.9647 -33.9552 -33.8060
   -33.7761 -33.7660 -33.7522 -33.7147 -33.7064 -33.6940 -33.6795 -33.6763
   -33.5911 -33.5794 -33.5759 -33.5379 -33.5362 -33.5172 -33.4839 -33.4647
   -33.4537 -33.4402 -33.4085 -33.3825 -33.3813 -33.3694 -33.3614 -33.3577
   -33.3414 -33.3285 -33.3049 -33.3028 -33.2681 -33.1472 -33.1355 -33.0878
   -33.0587 -33.0359 -32.6327 -32.6173 -32.6088 -32.4866 -32.4406 -32.4110
   -24.2454 -21.0066 -17.8728 -17.6281 -17.4529 -17.4311 -17.4128 -17.3406
   -17.3018 -17.2689 -17.1969 -17.1644 -17.0928 -17.0734 -17.0074 -16.9864
   -16.9841 -16.9149 -16.9049 -16.8399 -16.8005 -16.7738 -16.7074 -16.6617
   -16.5587 -16.4569 -16.4139 -16.3152 -16.3138 -16.2855 -16.2484 -16.1824
   -14.8924 -14.8561  -9.7900  -7.4905  -7.4718  -5.9932  -5.2149  -4.7835
    -4.7324  -4.7226  -4.6847  -4.6485  -4.6381  -4.6013  -4.4963  -4.4782
    -4.4533  -4.4375  -4.3460  -4.2933  -4.2769  -4.2712  -4.2290  -4.2087
    -4.1841  -4.1718  -4.1580  -4.1309  -4.0780  -4.0410  -4.0299  -3.9999
    -3.9446  -3.8851  -3.8196  -3.7840  -3.6813  -3.6526  -3.5090  -3.4830
    -3.4653  -3.3977  -3.3794  -3.2028  -3.1155  -3.0767  -3.0281  -2.9857
    -2.9593  -2.9118  -2.8917  -2.8560  -2.8093  -2.7670  -2.7129  -2.7078
    -2.6351  -2.6193  -2.5910  -2.5146  -2.4854  -2.4672  -2.4498  -2.4276
    -2.3998  -2.3571  -2.2874  -2.2750  -2.2503  -2.2249  -2.1781  -2.1640
    -2.0924  -2.0530  -2.0221  -1.9809  -1.9353  -1.8542  -1.7859  -1.7702
    -1.7022  -1.6021  -1.5284  -1.4832  -1.4492  -1.3711  -1.3347  -1.2265
    -1.1742  -1.1358  -1.0919  -1.0302  -0.9865  -0.9227  -0.9098  -0.8322
    -0.7986  -0.7843  -0.6553  -0.4650  -0.0537  -0.0167  -0.0030   0.0531
     1.7391   1.9360   1.9562   2.0180   2.0738   2.1134   2.1231   2.1769
     2.2235   2.2705   2.3865   2.4230   2.4313   2.4573   2.4761   2.5015
     2.5959   2.6112   2.6448   2.6673   2.7053   2.7297   2.7934   2.8243
     2.8933   2.9064   2.9460   2.9768   3.0259   3.0651   3.1912   3.2192
     3.2368   3.2672   3.3146   3.3282   3.3718   3.3889   3.4070   3.4682
     3.5453   3.5834   3.6098   3.6901   3.7413   3.7710   3.7810   3.7971
     3.8394   3.9717   4.0237   4.1504   4.2108   4.4536   4.6482   4.6782
     4.7506   4.7534   4.8977   5.0026   5.0744   5.1418   5.2117   5.2373
     5.3083   5.4662   5.5688   5.6358   5.7002   5.7411   5.8321   5.9726
     6.0142   6.1170   6.1675   6.2107   6.2569   6.3051   6.4677   6.4862
     6.5514   6.5924   6.6490   6.6826   6.8384   6.8619   6.9761   7.3086
     7.3303   7.7364   7.7666   8.0205   8.0985   8.1777   8.5799   8.6727
     8.8408   8.9128   9.1456   9.3672

     the Fermi energy is     0.8657 ev

!    total energy              =   -3044.95676773 Ry
     Harris-Foulkes estimate   =   -3044.95673861 Ry
     estimated scf accuracy    <       0.00000051 Ry

     The total energy is the sum of the following terms:

     one-electron contribution =  -40855.54339568 Ry
     hartree contribution      =   20500.09789300 Ry
     xc contribution           =    -557.16387637 Ry
     ewald contribution        =   17867.65281706 Ry
     smearing contrib. (-TS)   =      -0.00020575 Ry

     total magnetization       =     0.00 Bohr mag/cell
     absolute magnetization    =     0.01 Bohr mag/cell

     convergence has been achieved in  31 iterations

     Forces acting on atoms (Ry/au):


     negative rho (up, down):  1.158E-02 1.158E-02
     atom    1 type  1   force =    -0.00008498    0.00030222   -0.13597517
     atom    2 type  2   force =     0.00010432   -0.00008123    0.07517652
     atom    3 type  1   force =     0.00126792    0.00108853   -0.05985493
     atom    4 type  2   force =     0.00661092   -0.00006852    0.00968268
     atom    5 type  1   force =    -0.00131540   -0.00013768   -0.00001821
     atom    6 type  2   force =    -0.00183500   -0.00352878   -0.00898111
     atom    7 type  1   force =     0.01101996    0.00800045   -0.01651844
     atom    8 type  2   force =     0.00047308   -0.00012235    0.00064642
     atom    9 type  1   force =     0.00013012    0.00035362   -0.13604601
     atom   10 type  2   force =     0.00016639   -0.00003341    0.07512124
     atom   11 type  1   force =     0.00126595   -0.00086627   -0.05998312
     atom   12 type  2   force =     0.00604807   -0.00011125    0.00854892
     atom   13 type  1   force =     0.00013745   -0.00015300   -0.00036427
     atom   14 type  2   force =    -0.00201791    0.00295061   -0.00905080
     atom   15 type  1   force =     0.01119313   -0.00779301   -0.01679276
     atom   16 type  2   force =     0.00705720    0.00009026    0.01070453
     atom   17 type  2   force =    -0.00002487   -0.00005737    0.07998885
     atom   18 type  1   force =    -0.00006015    0.00022386    0.11905121
     atom   19 type  2   force =     0.00039045    0.00018803   -0.06812672
     atom   20 type  2   force =    -0.06269147    0.00004954   -0.03209798
     atom   21 type  2   force =     0.06274040    0.00015064   -0.03256930
     atom   22 type  1   force =    -0.00049291   -0.00012931    0.06427687
     atom   23 type  2   force =     0.00015635    0.00061720   -0.00264469
     atom   24 type  2   force =     0.00049561    0.00003921   -0.02241904
     atom   25 type  2   force =    -0.00645228   -0.00025606    0.00823870
     atom   26 type  1   force =    -0.00012400   -0.00004531    0.00250714
     atom   27 type  2   force =     0.00251561   -0.00142865   -0.00239954
     atom   28 type  2   force =    -0.00004273   -0.00001759   -0.00148242
     atom   29 type  2   force =     0.00012357   -0.00005513   -0.00053769
     atom   30 type  1   force =     0.00576394    0.00035648   -0.00067485
     atom   31 type  2   force =    -0.00211666    0.00158765    0.00109677
     atom   32 type  2   force =     0.00159622   -0.00009953    0.00186506
     atom   33 type  2   force =    -0.00000098    0.00015201    0.08005862
     atom   34 type  1   force =    -0.00007284    0.00023351    0.11904889
     atom   35 type  2   force =     0.00035716    0.00032471   -0.06807768
     atom   36 type  2   force =    -0.06268668    0.00009829   -0.03230637
     atom   37 type  2   force =     0.06285299    0.00017244   -0.03205904
     atom   38 type  1   force =    -0.00069437    0.00000760    0.06411320
     atom   39 type  2   force =     0.00019266   -0.00082058   -0.00263083
     atom   40 type  2   force =     0.00060552   -0.00227659   -0.02257418
     atom   41 type  2   force =    -0.00619699   -0.00030920    0.00764156
     atom   42 type  1   force =    -0.00010663   -0.00008401    0.00250555
     atom   43 type  2   force =     0.00256869    0.00141715   -0.00243128
     atom   44 type  2   force =     0.00035705   -0.00012866   -0.00071905
     atom   45 type  2   force =    -0.00021940   -0.00006278   -0.00095109
     atom   46 type  1   force =    -0.01909484    0.00042965   -0.00503567
     atom   47 type  2   force =    -0.00212512   -0.00144159    0.00110932
     atom   48 type  2   force =    -0.00084212   -0.00044718   -0.02807736
     atom   49 type  2   force =    -0.04854753    0.00065880    0.17940311
     atom   50 type  3   force =    -0.03194572    0.00177443   -0.03246346
     atom   51 type  3   force =     0.06360084   -0.00071184   -0.07692211

     Total force =     0.429762     Total SCF correction =     0.001370
 !ASE

     Writing output data file calc.save
 
     init_run     :     50.56s CPU     64.42s WALL (       1 calls)
     electrons    :   5998.37s CPU   7281.97s WALL (       1 calls)
     forces       :     40.30s CPU     42.14s WALL (       1 calls)

     Called by init_run:
     wfcinit      :     42.30s CPU     55.26s WALL (       1 calls)
     potinit      :      1.84s CPU      2.19s WALL (       1 calls)

     Called by electrons:
     c_bands      :   5131.53s CPU   6198.34s WALL (      31 calls)
     sum_band     :    729.05s CPU    926.51s WALL (      31 calls)
     v_of_rho     :     31.06s CPU     39.46s WALL (      32 calls)
     newd         :    108.41s CPU    119.15s WALL (      32 calls)
     mix_rho      :      1.52s CPU      2.08s WALL (      31 calls)
     vdW_energy   :      5.46s CPU      6.76s WALL (      33 calls)
     vdW_ffts     :      7.63s CPU     10.35s WALL (      66 calls)
     vdW_v        :      3.07s CPU      3.59s WALL (      33 calls)

     Called by c_bands:
     init_us_2    :     17.27s CPU     18.89s WALL (    2560 calls)
     cegterg      :   5021.48s CPU   6082.03s WALL (    1240 calls)

     Called by *egterg:
     h_psi        :   2113.02s CPU   2916.79s WALL (    6044 calls)
     s_psi        :    267.67s CPU    279.83s WALL (    6044 calls)
     g_psi        :     13.98s CPU     14.27s WALL (    4764 calls)
     cdiaghg      :   1612.89s CPU   1649.41s WALL (    6004 calls)

     Called by h_psi:
     add_vuspsi   :    269.38s CPU    282.19s WALL (    6044 calls)

     General routines
     calbec       :    412.15s CPU    422.24s WALL (    7324 calls)
     fft          :     17.06s CPU     22.60s WALL (    2651 calls)
     ffts         :      0.15s CPU      0.21s WALL (     126 calls)
     fftw         :   1373.88s CPU   2331.30s WALL ( 2105686 calls)
     interpolate  :      0.98s CPU      1.56s WALL (     126 calls)
     davcio       :      0.11s CPU      2.26s WALL (      40 calls)
 
     Parallel routines
     fft_scatter  :    704.28s CPU   1276.44s WALL ( 2108463 calls)
 
     PWSCF        :     1h41m CPU        2h 3m WALL

 
   This run was terminated on:   6: 0:40  10Mar2018            

=------------------------------------------------------------------------------=
   JOB DONE.
=------------------------------------------------------------------------------=
