  python dir          : /home/vossj/suncat/lib/python2.7/site-packages/espresso
  espresso dir        : /home/vossj/suncat/esdld/espresso-dynpy-beef/bin
  pseudo dir          : /home/alatimer/bin/psp/esp_psp_w_gbrvRu/
  ase-espresso py git : ffa2778-git



     Program PWSCF v.5.1rc2 (svn rev. ) starts on 10Mar2018 at 16:32: 4 

     This program is part of the open-source Quantum ESPRESSO suite
     for quantum simulation of materials; please cite
         "P. Giannozzi et al., J. Phys.:Condens. Matter 21 395502 (2009);
          URL http://www.quantum-espresso.org", 
     in publications or presentations arising from this work. More details at
     http://www.quantum-espresso.org/quote

     Parallel version (MPI), running on    16 processors
     R & G space division:  proc/nbgrp/npool/nimage =      16
     Reading input from pw.inp
     Message from routine read_cards :
     DEPRECATED: no units specified in CELL_PARAMETERS card

     Current dimensions of program PWSCF are:
     Max number of different atomic species (ntypx) = 10
     Max number of k-points (npk) =  40000
     Max angular momentum in pseudopotentials (lmaxx) =  3

     **************************************************************************
     Initializing libbeef V0.1.1 with the BEEF-vdW functional.
     Citation: Wellendorff et al., PRB 85, 235149 (2012).
     **************************************************************************


     IMPORTANT: XC functional enforced from input :
     Exchange-correlation      = BEEF ( 1  4 27 13 2)
     Any further DFT definition will be discarded
     Please, verify this is what you really want


     Subspace diagonalization in iterative solution of the eigenvalue problem:
     a serial algorithm will be used

 
     Parallelization info
     --------------------
     sticks:   dense  smooth     PW     G-vecs:    dense   smooth      PW
     Min         281     112     31                68535    17318    2565
     Max         282     113     32                68545    17369    2582
     Sum        4501    1795    503              1096637   277353   41113
 
     Generating pointlists ...
     new r_m :   0.4125 (alat units)  0.7795 (a.u.) for type    1
     new r_m :   0.4125 (alat units)  0.7795 (a.u.) for type    2
     new r_m :   0.4125 (alat units)  0.7795 (a.u.) for type    3


     bravais-lattice index     =            0
     lattice parameter (alat)  =       1.8897  a.u.
     unit-cell volume          =    7990.9933 (a.u.)^3
     number of atoms/cell      =           51
     number of atomic types    =            3
     number of electrons       =       400.00
     number of Kohn-Sham states=          300
     kinetic-energy cutoff     =      40.4243  Ry
     charge density cutoff     =     404.2426  Ry
     convergence threshold     =      7.3E-07
     mixing beta               =       0.1000
     number of iterations used =           10  plain     mixing
     Exchange-correlation      = BEEF ( 1  4 27 13 2)
     nstep                     =           50


     celldm(1)=   1.889726  celldm(2)=   0.000000  celldm(3)=   0.000000
     celldm(4)=   0.000000  celldm(5)=   0.000000  celldm(6)=   0.000000

     crystal axes: (cart. coord. in units of alat)
               a(1) = (   6.590708   0.000000   0.000000 )  
               a(2) = (   0.000000   5.950229   0.000000 )  
               a(3) = (   0.000000   0.000000  30.195235 )  

     reciprocal axes: (cart. coord. in units 2 pi/alat)
               b(1) = (  0.151729  0.000000  0.000000 )  
               b(2) = (  0.000000  0.168061  0.000000 )  
               b(3) = (  0.000000  0.000000  0.033118 )  


     PseudoPot. # 1 for Ti read from file:
     /home/alatimer/bin/psp/esp_psp_w_gbrvRu/Ti.UPF
     MD5 check sum: 8e4df49b7f0d34bbd5052bf3f5ea0213
     Pseudo is Ultrasoft, Zval = 12.0
     Generated by new atomic code, or converted to UPF format
     Using radial grid of  851 points,  6 beta functions with: 
                l(1) =   0
                l(2) =   0
                l(3) =   1
                l(4) =   1
                l(5) =   2
                l(6) =   2
     Q(r) pseudized with  8 coefficients,  rinner =    1.000   1.000   1.000
                                                       1.000   1.000

     PseudoPot. # 2 for  O read from file:
     /home/alatimer/bin/psp/esp_psp_w_gbrvRu/O.UPF
     MD5 check sum: e057bbcf3229fb5d8c36c0c92f9568b4
     Pseudo is Ultrasoft + core correction, Zval =  6.0
     Generated using "atomic" code by A. Dal Corso  v.5.0.2 svn rev. 9415
     Using radial grid of 1095 points,  4 beta functions with: 
                l(1) =   0
                l(2) =   0
                l(3) =   1
                l(4) =   1
     Q(r) pseudized with 0 coefficients 


     PseudoPot. # 3 for  N read from file:
     /home/alatimer/bin/psp/esp_psp_w_gbrvRu/N.UPF
     MD5 check sum: ed8b6a90f28a53b7d71920e7015d2dd6
     Pseudo is Ultrasoft + core correction, Zval =  5.0
     Generated using "atomic" code by A. Dal Corso  v.5.0.2 svn rev. 9415
     Using radial grid of 1085 points,  4 beta functions with: 
                l(1) =   0
                l(2) =   0
                l(3) =   1
                l(4) =   1
     Q(r) pseudized with 0 coefficients 


     vdW kernel table read from file vdW_kernel_table
     MD5 check sum: 095c7af220d748ca6e76c0b4c6cfb241

     atomic species   valence    mass     pseudopotential
        Ti1           12.00    47.88000     Ti( 1.00)
        O1             6.00    15.99940      O( 1.00)
        N1             5.00    14.00670      N( 1.00)

     Starting magnetic structure 
     atomic species   magnetization
        Ti1          0.250
        O1           0.500
        N1           0.600

     No symmetry found



   Cartesian axes

     site n.     atom                  positions (alat units)
         1           Ti1 tau(   1) = (   1.6476770   0.7437786   2.6545865  )
         2           O1  tau(   2) = (   1.6476770   2.2313359   3.9361215  )
         3           Ti1 tau(   3) = (   1.6476770   2.2313359   5.9499405  )
         4           O1  tau(   4) = (   0.3661420   0.7437786   5.9499405  )
         5           Ti1 tau(   5) = (   1.5280591   0.7315068   9.1973351  )
         6           O1  tau(   6) = (   1.6613943   2.1836906  10.6091769  )
         7           Ti1 tau(   7) = (   1.6665780   2.2096385  12.4157880  )
         8           O1  tau(   8) = (   0.4439715   0.7264440  12.7601561  )
         9           Ti1 tau(   9) = (   1.6476770   3.7188931   2.6545865  )
        10           O1  tau(  10) = (   1.6476770   5.2064503   3.9361215  )
        11           Ti1 tau(  11) = (   1.6476770   5.2064503   5.9499405  )
        12           O1  tau(  12) = (   0.3661420   3.7188931   5.9499405  )
        13           Ti1 tau(  13) = (   1.5319291   3.7072436   9.2118370  )
        14           O1  tau(  14) = (   1.6575607   5.2126413  10.6087893  )
        15           Ti1 tau(  15) = (   1.6606453   5.1916961  12.4165775  )
        16           O1  tau(  16) = (   0.4123725   3.7022030  12.5882193  )
        17           O1  tau(  17) = (   1.6476770   2.2313359   1.3730516  )
        18           Ti1 tau(  18) = (   4.9430310   2.2313359   2.6545865  )
        19           O1  tau(  19) = (   4.9430310   2.2313359   4.6684056  )
        20           O1  tau(  20) = (   6.2245660   0.7437786   2.6545865  )
        21           O1  tau(  21) = (   3.6614961   0.7437786   2.6545865  )
        22           Ti1 tau(  22) = (   4.9430310   0.7437786   5.9499405  )
        23           O1  tau(  23) = (   1.6517842   2.2287041   8.0298356  )
        24           O1  tau(  24) = (   4.9430310   2.2313359   7.2314755  )
        25           O1  tau(  25) = (   2.9292120   0.7437786   5.9499405  )
        26           Ti1 tau(  26) = (   4.8605205   2.2076595   9.4238065  )
        27           O1  tau(  27) = (   4.9553550   2.1639423  11.2756624  )
        28           O1  tau(  28) = (   6.2690671   0.7288246   9.2688367  )
        29           O1  tau(  29) = (   3.6660957   0.7249325   9.2867299  )
        30           Ti1 tau(  30) = (   4.9284588   0.7282168  12.7798302  )
        31           O1  tau(  31) = (   4.9953437   2.2216212  13.8477397  )
        32           O1  tau(  32) = (   2.9112183   0.7266397  12.7651274  )
        33           O1  tau(  33) = (   1.6476770   5.2064503   1.3730516  )
        34           Ti1 tau(  34) = (   4.9430310   5.2064503   2.6545865  )
        35           O1  tau(  35) = (   4.9430310   5.2064503   4.6684056  )
        36           O1  tau(  36) = (   6.2245660   3.7188931   2.6545865  )
        37           O1  tau(  37) = (   3.6614961   3.7188931   2.6545865  )
        38           Ti1 tau(  38) = (   4.9430310   3.7188931   5.9499405  )
        39           O1  tau(  39) = (   1.6524867   5.1852222   8.0294571  )
        40           O1  tau(  40) = (   4.9430310   5.2064503   7.2314755  )
        41           O1  tau(  41) = (   2.9292120   3.7188931   5.9499405  )
        42           Ti1 tau(  42) = (   4.8610151   5.1886528   9.4241876  )
        43           O1  tau(  43) = (   4.9550983   5.2107439  11.2753448  )
        44           O1  tau(  44) = (   6.2713562   3.7024388   9.3047907  )
        45           O1  tau(  45) = (   3.6650622   3.7005085   9.3135888  )
        46           Ti1 tau(  46) = (   5.0160509   3.7038162  12.7585864  )
        47           O1  tau(  47) = (   4.9984032   5.1727849  13.8485277  )
        48           O1  tau(  48) = (   2.9655234   3.7049164  12.5317472  )
        49           O1  tau(  49) = (   2.2548149   3.7063572  14.5693114  )
        50           N1  tau(  50) = (   2.4020298   3.6667063  16.9651815  )
        51           N1  tau(  51) = (   2.1425646   3.6619273  15.8611024  )

     number of k points=    40  Fermi-Dirac smearing, width (Ry)=  0.0073
                       cart. coord. in units 2pi/alat
        k(    1) = (   0.0000000   0.0000000   0.0000000), wk =   0.0277778
        k(    2) = (   0.0000000   0.0280101   0.0000000), wk =   0.0555556
        k(    3) = (   0.0000000   0.0560203   0.0000000), wk =   0.0555556
        k(    4) = (   0.0000000  -0.0840304   0.0000000), wk =   0.0277778
        k(    5) = (   0.0252881   0.0000000   0.0000000), wk =   0.0555556
        k(    6) = (   0.0252881   0.0280101   0.0000000), wk =   0.0555556
        k(    7) = (   0.0252881   0.0560203   0.0000000), wk =   0.0555556
        k(    8) = (   0.0252881  -0.0840304   0.0000000), wk =   0.0555556
        k(    9) = (   0.0505763   0.0000000   0.0000000), wk =   0.0555556
        k(   10) = (   0.0505763   0.0280101   0.0000000), wk =   0.0555556
        k(   11) = (   0.0505763   0.0560203   0.0000000), wk =   0.0555556
        k(   12) = (   0.0505763  -0.0840304   0.0000000), wk =   0.0555556
        k(   13) = (  -0.0758644   0.0000000   0.0000000), wk =   0.0277778
        k(   14) = (  -0.0758644   0.0280101   0.0000000), wk =   0.0555556
        k(   15) = (  -0.0758644   0.0560203   0.0000000), wk =   0.0555556
        k(   16) = (  -0.0758644  -0.0840304   0.0000000), wk =   0.0277778
        k(   17) = (  -0.0252881   0.0280101   0.0000000), wk =   0.0555556
        k(   18) = (  -0.0252881   0.0560203   0.0000000), wk =   0.0555556
        k(   19) = (  -0.0505763   0.0280101   0.0000000), wk =   0.0555556
        k(   20) = (  -0.0505763   0.0560203   0.0000000), wk =   0.0555556
        k(   21) = (   0.0000000   0.0000000   0.0000000), wk =   0.0277778
        k(   22) = (   0.0000000   0.0280101   0.0000000), wk =   0.0555556
        k(   23) = (   0.0000000   0.0560203   0.0000000), wk =   0.0555556
        k(   24) = (   0.0000000  -0.0840304   0.0000000), wk =   0.0277778
        k(   25) = (   0.0252881   0.0000000   0.0000000), wk =   0.0555556
        k(   26) = (   0.0252881   0.0280101   0.0000000), wk =   0.0555556
        k(   27) = (   0.0252881   0.0560203   0.0000000), wk =   0.0555556
        k(   28) = (   0.0252881  -0.0840304   0.0000000), wk =   0.0555556
        k(   29) = (   0.0505763   0.0000000   0.0000000), wk =   0.0555556
        k(   30) = (   0.0505763   0.0280101   0.0000000), wk =   0.0555556
        k(   31) = (   0.0505763   0.0560203   0.0000000), wk =   0.0555556
        k(   32) = (   0.0505763  -0.0840304   0.0000000), wk =   0.0555556
        k(   33) = (  -0.0758644   0.0000000   0.0000000), wk =   0.0277778
        k(   34) = (  -0.0758644   0.0280101   0.0000000), wk =   0.0555556
        k(   35) = (  -0.0758644   0.0560203   0.0000000), wk =   0.0555556
        k(   36) = (  -0.0758644  -0.0840304   0.0000000), wk =   0.0277778
        k(   37) = (  -0.0252881   0.0280101   0.0000000), wk =   0.0555556
        k(   38) = (  -0.0252881   0.0560203   0.0000000), wk =   0.0555556
        k(   39) = (  -0.0505763   0.0280101   0.0000000), wk =   0.0555556
        k(   40) = (  -0.0505763   0.0560203   0.0000000), wk =   0.0555556

     Dense  grid:  1096637 G-vectors     FFT dimensions: (  80,  72, 375)

     Smooth grid:   277353 G-vectors     FFT dimensions: (  54,  45, 240)

     Largest allocated arrays     est. size (Mb)     dimensions
        Kohn-Sham Wavefunctions         9.98 Mb     (    2180,  300)
        NL pseudopotentials            18.89 Mb     (    2180,  568)
        Each V/rho on FFT grid          4.22 Mb     (  138240,   2)
        Each G-vector array             0.52 Mb     (   68538)
        G-vector shells                 0.25 Mb     (   33046)
     Largest temporary arrays     est. size (Mb)     dimensions
        Auxiliary wavefunctions        39.92 Mb     (    2180, 1200)
        Each subspace H/S matrix       21.97 Mb     (    1200, 1200)
        Each <psi_i|beta_j> matrix      2.60 Mb     (     568,  300)
        Arrays for rho mixing          21.09 Mb     (  138240,   10)

     Check: negative/imaginary core charge=   -0.000049    0.000000

     The initial density is read from file :
     ./calc.save/charge-density.dat


     negative rho (up, down):  1.158E-02 1.158E-02


     ************************************************************************
     *
     * You are using vdW-DF for exchange-correlation in this calculation.
     * Please cite the following three references that made this development
     * possible:
     *
     *   M. Dion, H. Rydberg, E. Schroder, D. C. Langreth, and
     *   B. I. Lundqvist, Phys. Rev. Lett. 92, 246401 (2004).
     *
     *   T. Thonhauser, V. R. Cooper, S. Li, A. Puzder, P. Hyldgaard, and
     *   D. C. Langreth, Phys. Rev. B 76, 125112 (2007).
     *
     *   G. Roman-Perez and J. M. Soler, Phys. Rev. Lett. 103, 096102 (2009).
     *
     *
     * If you are using vdW-DF2, please also cite:
     *
     *   K. Lee, E. D. Murray, L. Kong, B. I. Lundqvist, and
     *   D. C. Langreth, Phys. Rev. B 82, 081101(R) (2010).
     *
     *
     * If you are calculating the stress with vdW-DF, please also cite:
     *
     *   R. Sabatini, E. Kucukbenli, B. Kolb, T. Thonhauser, and
     *   S. de Gironcoli, J. Phys.: Condens. Matter 24, 424209 (2012).
     *
     ************************************************************************

     Carrying out vdW-DF run using the following parameters:

     Nqs =      20    Nr_points =    1024   r_max =   100.000
     q_mesh =
               0.00001000     0.04494208     0.09755937     0.15916263
               0.23128650     0.31572767     0.41458969     0.53033537
               0.66584808     0.82450364     1.01025438     1.22772762
               1.48234092     1.78043706     2.12944203     2.53805004
               3.01644009     3.57652955     4.23227104     5.00000000

     Gradients computed in reciprocal space

     ************************************************************************


     Starting wfc are  300 randomized atomic wfcs

     total cpu time spent up to now is       70.9 secs

     Self-consistent Calculation

     iteration #  1     ecut=    40.42 Ry     beta=0.10
     Davidson diagonalization with overlap
     ethr =  1.00E-05,  avg # of iterations = 14.9

     negative rho (up, down):  1.158E-02 1.158E-02
 
     Magnetic moment per site:
     atom:    1    charge:    3.1250    magn:   -0.0002    constr:    0.0000
     atom:    2    charge:    2.0894    magn:    0.0001    constr:    0.0000
     atom:    3    charge:    3.1196    magn:   -0.0001    constr:    0.0000
     atom:    4    charge:    2.0870    magn:    0.0000    constr:    0.0000
     atom:    5    charge:    3.1170    magn:   -0.0001    constr:    0.0000
     atom:    6    charge:    2.0916    magn:    0.0001    constr:    0.0000
     atom:    7    charge:    3.1187    magn:   -0.0000    constr:    0.0000
     atom:    8    charge:    2.0816    magn:    0.0001    constr:    0.0000
     atom:    9    charge:    3.1250    magn:   -0.0002    constr:    0.0000
     atom:   10    charge:    2.0894    magn:    0.0001    constr:    0.0000
     atom:   11    charge:    3.1196    magn:   -0.0001    constr:    0.0000
     atom:   12    charge:    2.0870    magn:    0.0000    constr:    0.0000
     atom:   13    charge:    3.1148    magn:   -0.0001    constr:    0.0000
     atom:   14    charge:    2.0912    magn:    0.0001    constr:    0.0000
     atom:   15    charge:    3.1192    magn:   -0.0000    constr:    0.0000
     atom:   16    charge:    2.0883    magn:    0.0001    constr:    0.0000
     atom:   17    charge:    2.0624    magn:    0.0004    constr:    0.0000
     atom:   18    charge:    3.1239    magn:   -0.0000    constr:    0.0000
     atom:   19    charge:    2.0878    magn:   -0.0000    constr:    0.0000
     atom:   20    charge:    2.0847    magn:   -0.0001    constr:    0.0000
     atom:   21    charge:    2.0847    magn:   -0.0001    constr:    0.0000
     atom:   22    charge:    3.1197    magn:   -0.0000    constr:    0.0000
     atom:   23    charge:    2.0908    magn:    0.0001    constr:    0.0000
     atom:   24    charge:    2.0777    magn:    0.0001    constr:    0.0000
     atom:   25    charge:    2.0869    magn:    0.0000    constr:    0.0000
     atom:   26    charge:    3.1165    magn:   -0.0001    constr:    0.0000
     atom:   27    charge:    2.0824    magn:    0.0002    constr:    0.0000
     atom:   28    charge:    2.0879    magn:    0.0001    constr:    0.0000
     atom:   29    charge:    2.0877    magn:    0.0001    constr:    0.0000
     atom:   30    charge:    3.1168    magn:   -0.0001    constr:    0.0000
     atom:   31    charge:    2.0818    magn:    0.0003    constr:    0.0000
     atom:   32    charge:    2.0843    magn:    0.0001    constr:    0.0000
     atom:   33    charge:    2.0624    magn:    0.0004    constr:    0.0000
     atom:   34    charge:    3.1239    magn:   -0.0000    constr:    0.0000
     atom:   35    charge:    2.0878    magn:   -0.0000    constr:    0.0000
     atom:   36    charge:    2.0847    magn:   -0.0001    constr:    0.0000
     atom:   37    charge:    2.0847    magn:   -0.0001    constr:    0.0000
     atom:   38    charge:    3.1197    magn:   -0.0000    constr:    0.0000
     atom:   39    charge:    2.0912    magn:    0.0001    constr:    0.0000
     atom:   40    charge:    2.0777    magn:    0.0001    constr:    0.0000
     atom:   41    charge:    2.0869    magn:    0.0000    constr:    0.0000
     atom:   42    charge:    3.1181    magn:   -0.0001    constr:    0.0000
     atom:   43    charge:    2.0837    magn:    0.0002    constr:    0.0000
     atom:   44    charge:    2.0865    magn:    0.0001    constr:    0.0000
     atom:   45    charge:    2.0871    magn:    0.0001    constr:    0.0000
     atom:   46    charge:    3.1171    magn:   -0.0001    constr:    0.0000
     atom:   47    charge:    2.0794    magn:    0.0003    constr:    0.0000
     atom:   48    charge:    2.0835    magn:    0.0002    constr:    0.0000
     atom:   49    charge:    2.0517    magn:   -0.0000    constr:    0.0000
     atom:   50    charge:    1.2589    magn:   -0.0000    constr:    0.0000
     atom:   51    charge:    1.2835    magn:    0.0000    constr:    0.0000

     total cpu time spent up to now is      835.8 secs

     total energy              =   -3044.96723899 Ry
     Harris-Foulkes estimate   =   -3044.97256617 Ry
     estimated scf accuracy    <       0.03804249 Ry

     total magnetization       =     0.00 Bohr mag/cell
     absolute magnetization    =     0.01 Bohr mag/cell

     iteration #  2     ecut=    40.42 Ry     beta=0.10
     Davidson diagonalization with overlap
     ethr =  9.51E-06,  avg # of iterations =  2.0

     negative rho (up, down):  1.158E-02 1.158E-02
 
     Magnetic moment per site:
     atom:    1    charge:    3.1251    magn:   -0.0001    constr:    0.0000
     atom:    2    charge:    2.0894    magn:    0.0001    constr:    0.0000
     atom:    3    charge:    3.1196    magn:   -0.0000    constr:    0.0000
     atom:    4    charge:    2.0870    magn:    0.0000    constr:    0.0000
     atom:    5    charge:    3.1170    magn:   -0.0000    constr:    0.0000
     atom:    6    charge:    2.0916    magn:    0.0000    constr:    0.0000
     atom:    7    charge:    3.1187    magn:   -0.0000    constr:    0.0000
     atom:    8    charge:    2.0815    magn:    0.0001    constr:    0.0000
     atom:    9    charge:    3.1251    magn:   -0.0001    constr:    0.0000
     atom:   10    charge:    2.0894    magn:    0.0001    constr:    0.0000
     atom:   11    charge:    3.1196    magn:   -0.0000    constr:    0.0000
     atom:   12    charge:    2.0870    magn:    0.0000    constr:    0.0000
     atom:   13    charge:    3.1148    magn:   -0.0000    constr:    0.0000
     atom:   14    charge:    2.0912    magn:    0.0000    constr:    0.0000
     atom:   15    charge:    3.1191    magn:   -0.0000    constr:    0.0000
     atom:   16    charge:    2.0883    magn:    0.0000    constr:    0.0000
     atom:   17    charge:    2.0624    magn:    0.0003    constr:    0.0000
     atom:   18    charge:    3.1239    magn:   -0.0000    constr:    0.0000
     atom:   19    charge:    2.0878    magn:   -0.0000    constr:    0.0000
     atom:   20    charge:    2.0847    magn:   -0.0000    constr:    0.0000
     atom:   21    charge:    2.0847    magn:   -0.0000    constr:    0.0000
     atom:   22    charge:    3.1197    magn:   -0.0000    constr:    0.0000
     atom:   23    charge:    2.0909    magn:    0.0001    constr:    0.0000
     atom:   24    charge:    2.0777    magn:    0.0000    constr:    0.0000
     atom:   25    charge:    2.0869    magn:    0.0000    constr:    0.0000
     atom:   26    charge:    3.1165    magn:   -0.0001    constr:    0.0000
     atom:   27    charge:    2.0824    magn:    0.0001    constr:    0.0000
     atom:   28    charge:    2.0879    magn:    0.0001    constr:    0.0000
     atom:   29    charge:    2.0878    magn:    0.0001    constr:    0.0000
     atom:   30    charge:    3.1168    magn:   -0.0001    constr:    0.0000
     atom:   31    charge:    2.0821    magn:    0.0002    constr:    0.0000
     atom:   32    charge:    2.0843    magn:    0.0000    constr:    0.0000
     atom:   33    charge:    2.0624    magn:    0.0003    constr:    0.0000
     atom:   34    charge:    3.1239    magn:   -0.0000    constr:    0.0000
     atom:   35    charge:    2.0878    magn:   -0.0000    constr:    0.0000
     atom:   36    charge:    2.0847    magn:   -0.0000    constr:    0.0000
     atom:   37    charge:    2.0847    magn:   -0.0000    constr:    0.0000
     atom:   38    charge:    3.1197    magn:   -0.0000    constr:    0.0000
     atom:   39    charge:    2.0912    magn:    0.0001    constr:    0.0000
     atom:   40    charge:    2.0777    magn:    0.0000    constr:    0.0000
     atom:   41    charge:    2.0869    magn:    0.0000    constr:    0.0000
     atom:   42    charge:    3.1181    magn:   -0.0001    constr:    0.0000
     atom:   43    charge:    2.0838    magn:    0.0001    constr:    0.0000
     atom:   44    charge:    2.0865    magn:    0.0001    constr:    0.0000
     atom:   45    charge:    2.0871    magn:    0.0001    constr:    0.0000
     atom:   46    charge:    3.1171    magn:   -0.0001    constr:    0.0000
     atom:   47    charge:    2.0790    magn:    0.0002    constr:    0.0000
     atom:   48    charge:    2.0834    magn:    0.0001    constr:    0.0000
     atom:   49    charge:    2.0510    magn:   -0.0000    constr:    0.0000
     atom:   50    charge:    1.2589    magn:   -0.0000    constr:    0.0000
     atom:   51    charge:    1.2861    magn:    0.0000    constr:    0.0000

     total cpu time spent up to now is     1025.8 secs

     total energy              =   -3044.95283736 Ry
     Harris-Foulkes estimate   =   -3044.96748625 Ry
     estimated scf accuracy    <       0.02594023 Ry

     total magnetization       =     0.00 Bohr mag/cell
     absolute magnetization    =     0.01 Bohr mag/cell

     iteration #  3     ecut=    40.42 Ry     beta=0.10
     Davidson diagonalization with overlap
     ethr =  6.49E-06,  avg # of iterations =  2.6

     negative rho (up, down):  1.158E-02 1.158E-02
 
     Magnetic moment per site:
     atom:    1    charge:    3.1250    magn:   -0.0001    constr:    0.0000
     atom:    2    charge:    2.0894    magn:    0.0001    constr:    0.0000
     atom:    3    charge:    3.1196    magn:   -0.0000    constr:    0.0000
     atom:    4    charge:    2.0870    magn:    0.0000    constr:    0.0000
     atom:    5    charge:    3.1170    magn:   -0.0000    constr:    0.0000
     atom:    6    charge:    2.0918    magn:    0.0000    constr:    0.0000
     atom:    7    charge:    3.1180    magn:   -0.0000    constr:    0.0000
     atom:    8    charge:    2.0815    magn:    0.0000    constr:    0.0000
     atom:    9    charge:    3.1250    magn:   -0.0001    constr:    0.0000
     atom:   10    charge:    2.0894    magn:    0.0001    constr:    0.0000
     atom:   11    charge:    3.1196    magn:   -0.0000    constr:    0.0000
     atom:   12    charge:    2.0870    magn:    0.0000    constr:    0.0000
     atom:   13    charge:    3.1148    magn:   -0.0000    constr:    0.0000
     atom:   14    charge:    2.0910    magn:    0.0000    constr:    0.0000
     atom:   15    charge:    3.1198    magn:   -0.0000    constr:    0.0000
     atom:   16    charge:    2.0883    magn:    0.0000    constr:    0.0000
     atom:   17    charge:    2.0624    magn:    0.0003    constr:    0.0000
     atom:   18    charge:    3.1239    magn:   -0.0000    constr:    0.0000
     atom:   19    charge:    2.0878    magn:   -0.0000    constr:    0.0000
     atom:   20    charge:    2.0847    magn:   -0.0000    constr:    0.0000
     atom:   21    charge:    2.0847    magn:   -0.0000    constr:    0.0000
     atom:   22    charge:    3.1197    magn:   -0.0000    constr:    0.0000
     atom:   23    charge:    2.0909    magn:    0.0000    constr:    0.0000
     atom:   24    charge:    2.0777    magn:    0.0000    constr:    0.0000
     atom:   25    charge:    2.0869    magn:    0.0000    constr:    0.0000
     atom:   26    charge:    3.1165    magn:   -0.0000    constr:    0.0000
     atom:   27    charge:    2.0823    magn:    0.0001    constr:    0.0000
     atom:   28    charge:    2.0879    magn:    0.0001    constr:    0.0000
     atom:   29    charge:    2.0877    magn:    0.0000    constr:    0.0000
     atom:   30    charge:    3.1168    magn:   -0.0001    constr:    0.0000
     atom:   31    charge:    2.0812    magn:    0.0002    constr:    0.0000
     atom:   32    charge:    2.0843    magn:    0.0000    constr:    0.0000
     atom:   33    charge:    2.0624    magn:    0.0003    constr:    0.0000
     atom:   34    charge:    3.1239    magn:   -0.0000    constr:    0.0000
     atom:   35    charge:    2.0878    magn:   -0.0000    constr:    0.0000
     atom:   36    charge:    2.0847    magn:   -0.0000    constr:    0.0000
     atom:   37    charge:    2.0847    magn:   -0.0000    constr:    0.0000
     atom:   38    charge:    3.1197    magn:   -0.0000    constr:    0.0000
     atom:   39    charge:    2.0912    magn:    0.0000    constr:    0.0000
     atom:   40    charge:    2.0777    magn:    0.0000    constr:    0.0000
     atom:   41    charge:    2.0869    magn:    0.0000    constr:    0.0000
     atom:   42    charge:    3.1181    magn:   -0.0000    constr:    0.0000
     atom:   43    charge:    2.0839    magn:    0.0001    constr:    0.0000
     atom:   44    charge:    2.0865    magn:    0.0001    constr:    0.0000
     atom:   45    charge:    2.0871    magn:    0.0000    constr:    0.0000
     atom:   46    charge:    3.1171    magn:   -0.0001    constr:    0.0000
     atom:   47    charge:    2.0799    magn:    0.0002    constr:    0.0000
     atom:   48    charge:    2.0836    magn:    0.0001    constr:    0.0000
     atom:   49    charge:    2.0515    magn:   -0.0000    constr:    0.0000
     atom:   50    charge:    1.2591    magn:   -0.0000    constr:    0.0000
     atom:   51    charge:    1.2858    magn:    0.0000    constr:    0.0000

     total cpu time spent up to now is     1231.1 secs

     total energy              =   -3044.95638383 Ry
     Harris-Foulkes estimate   =   -3044.95673914 Ry
     estimated scf accuracy    <       0.00114314 Ry

     total magnetization       =     0.00 Bohr mag/cell
     absolute magnetization    =     0.00 Bohr mag/cell

     iteration #  4     ecut=    40.42 Ry     beta=0.10
     Davidson diagonalization with overlap
     ethr =  2.86E-07,  avg # of iterations =  3.5

     negative rho (up, down):  1.158E-02 1.158E-02
 
     Magnetic moment per site:
     atom:    1    charge:    3.1250    magn:   -0.0001    constr:    0.0000
     atom:    2    charge:    2.0894    magn:    0.0001    constr:    0.0000
     atom:    3    charge:    3.1196    magn:   -0.0000    constr:    0.0000
     atom:    4    charge:    2.0870    magn:    0.0000    constr:    0.0000
     atom:    5    charge:    3.1170    magn:   -0.0000    constr:    0.0000
     atom:    6    charge:    2.0916    magn:    0.0000    constr:    0.0000
     atom:    7    charge:    3.1184    magn:   -0.0000    constr:    0.0000
     atom:    8    charge:    2.0816    magn:    0.0000    constr:    0.0000
     atom:    9    charge:    3.1250    magn:   -0.0001    constr:    0.0000
     atom:   10    charge:    2.0894    magn:    0.0001    constr:    0.0000
     atom:   11    charge:    3.1196    magn:   -0.0000    constr:    0.0000
     atom:   12    charge:    2.0870    magn:    0.0000    constr:    0.0000
     atom:   13    charge:    3.1148    magn:   -0.0000    constr:    0.0000
     atom:   14    charge:    2.0912    magn:    0.0000    constr:    0.0000
     atom:   15    charge:    3.1195    magn:   -0.0000    constr:    0.0000
     atom:   16    charge:    2.0883    magn:    0.0000    constr:    0.0000
     atom:   17    charge:    2.0624    magn:    0.0002    constr:    0.0000
     atom:   18    charge:    3.1239    magn:   -0.0000    constr:    0.0000
     atom:   19    charge:    2.0878    magn:   -0.0000    constr:    0.0000
     atom:   20    charge:    2.0847    magn:   -0.0000    constr:    0.0000
     atom:   21    charge:    2.0847    magn:   -0.0000    constr:    0.0000
     atom:   22    charge:    3.1197    magn:   -0.0000    constr:    0.0000
     atom:   23    charge:    2.0909    magn:    0.0000    constr:    0.0000
     atom:   24    charge:    2.0777    magn:    0.0000    constr:    0.0000
     atom:   25    charge:    2.0869    magn:    0.0000    constr:    0.0000
     atom:   26    charge:    3.1165    magn:   -0.0000    constr:    0.0000
     atom:   27    charge:    2.0824    magn:    0.0001    constr:    0.0000
     atom:   28    charge:    2.0879    magn:    0.0001    constr:    0.0000
     atom:   29    charge:    2.0877    magn:    0.0000    constr:    0.0000
     atom:   30    charge:    3.1168    magn:   -0.0001    constr:    0.0000
     atom:   31    charge:    2.0814    magn:    0.0001    constr:    0.0000
     atom:   32    charge:    2.0843    magn:    0.0000    constr:    0.0000
     atom:   33    charge:    2.0624    magn:    0.0002    constr:    0.0000
     atom:   34    charge:    3.1239    magn:   -0.0000    constr:    0.0000
     atom:   35    charge:    2.0878    magn:   -0.0000    constr:    0.0000
     atom:   36    charge:    2.0847    magn:   -0.0000    constr:    0.0000
     atom:   37    charge:    2.0847    magn:   -0.0000    constr:    0.0000
     atom:   38    charge:    3.1197    magn:   -0.0000    constr:    0.0000
     atom:   39    charge:    2.0912    magn:    0.0000    constr:    0.0000
     atom:   40    charge:    2.0777    magn:    0.0000    constr:    0.0000
     atom:   41    charge:    2.0869    magn:    0.0000    constr:    0.0000
     atom:   42    charge:    3.1181    magn:   -0.0000    constr:    0.0000
     atom:   43    charge:    2.0837    magn:    0.0001    constr:    0.0000
     atom:   44    charge:    2.0865    magn:    0.0001    constr:    0.0000
     atom:   45    charge:    2.0871    magn:    0.0000    constr:    0.0000
     atom:   46    charge:    3.1171    magn:   -0.0001    constr:    0.0000
     atom:   47    charge:    2.0798    magn:    0.0001    constr:    0.0000
     atom:   48    charge:    2.0835    magn:    0.0001    constr:    0.0000
     atom:   49    charge:    2.0519    magn:   -0.0000    constr:    0.0000
     atom:   50    charge:    1.2593    magn:   -0.0000    constr:    0.0000
     atom:   51    charge:    1.2856    magn:    0.0000    constr:    0.0000

     total cpu time spent up to now is     1444.7 secs

     total energy              =   -3044.95641010 Ry
     Harris-Foulkes estimate   =   -3044.95649047 Ry
     estimated scf accuracy    <       0.00027051 Ry

     total magnetization       =     0.00 Bohr mag/cell
     absolute magnetization    =     0.00 Bohr mag/cell

     iteration #  5     ecut=    40.42 Ry     beta=0.10
     Davidson diagonalization with overlap
     ethr =  6.76E-08,  avg # of iterations =  2.0

     negative rho (up, down):  1.158E-02 1.158E-02
 
     Magnetic moment per site:
     atom:    1    charge:    3.1250    magn:   -0.0001    constr:    0.0000
     atom:    2    charge:    2.0894    magn:    0.0000    constr:    0.0000
     atom:    3    charge:    3.1196    magn:   -0.0000    constr:    0.0000
     atom:    4    charge:    2.0870    magn:    0.0000    constr:    0.0000
     atom:    5    charge:    3.1170    magn:   -0.0000    constr:    0.0000
     atom:    6    charge:    2.0916    magn:    0.0000    constr:    0.0000
     atom:    7    charge:    3.1185    magn:   -0.0000    constr:    0.0000
     atom:    8    charge:    2.0816    magn:    0.0000    constr:    0.0000
     atom:    9    charge:    3.1250    magn:   -0.0001    constr:    0.0000
     atom:   10    charge:    2.0894    magn:    0.0000    constr:    0.0000
     atom:   11    charge:    3.1196    magn:   -0.0000    constr:    0.0000
     atom:   12    charge:    2.0870    magn:    0.0000    constr:    0.0000
     atom:   13    charge:    3.1148    magn:   -0.0000    constr:    0.0000
     atom:   14    charge:    2.0912    magn:    0.0000    constr:    0.0000
     atom:   15    charge:    3.1194    magn:   -0.0000    constr:    0.0000
     atom:   16    charge:    2.0883    magn:    0.0000    constr:    0.0000
     atom:   17    charge:    2.0624    magn:    0.0002    constr:    0.0000
     atom:   18    charge:    3.1239    magn:   -0.0000    constr:    0.0000
     atom:   19    charge:    2.0878    magn:   -0.0000    constr:    0.0000
     atom:   20    charge:    2.0847    magn:   -0.0000    constr:    0.0000
     atom:   21    charge:    2.0847    magn:   -0.0000    constr:    0.0000
     atom:   22    charge:    3.1197    magn:   -0.0000    constr:    0.0000
     atom:   23    charge:    2.0909    magn:    0.0000    constr:    0.0000
     atom:   24    charge:    2.0777    magn:    0.0000    constr:    0.0000
     atom:   25    charge:    2.0869    magn:    0.0000    constr:    0.0000
     atom:   26    charge:    3.1165    magn:   -0.0000    constr:    0.0000
     atom:   27    charge:    2.0824    magn:    0.0001    constr:    0.0000
     atom:   28    charge:    2.0879    magn:    0.0000    constr:    0.0000
     atom:   29    charge:    2.0877    magn:    0.0000    constr:    0.0000
     atom:   30    charge:    3.1168    magn:   -0.0000    constr:    0.0000
     atom:   31    charge:    2.0815    magn:    0.0001    constr:    0.0000
     atom:   32    charge:    2.0843    magn:    0.0000    constr:    0.0000
     atom:   33    charge:    2.0624    magn:    0.0002    constr:    0.0000
     atom:   34    charge:    3.1239    magn:   -0.0000    constr:    0.0000
     atom:   35    charge:    2.0878    magn:   -0.0000    constr:    0.0000
     atom:   36    charge:    2.0847    magn:   -0.0000    constr:    0.0000
     atom:   37    charge:    2.0847    magn:   -0.0000    constr:    0.0000
     atom:   38    charge:    3.1197    magn:   -0.0000    constr:    0.0000
     atom:   39    charge:    2.0912    magn:    0.0000    constr:    0.0000
     atom:   40    charge:    2.0777    magn:    0.0000    constr:    0.0000
     atom:   41    charge:    2.0869    magn:    0.0000    constr:    0.0000
     atom:   42    charge:    3.1181    magn:   -0.0000    constr:    0.0000
     atom:   43    charge:    2.0837    magn:    0.0001    constr:    0.0000
     atom:   44    charge:    2.0865    magn:    0.0000    constr:    0.0000
     atom:   45    charge:    2.0871    magn:    0.0000    constr:    0.0000
     atom:   46    charge:    3.1171    magn:   -0.0001    constr:    0.0000
     atom:   47    charge:    2.0797    magn:    0.0001    constr:    0.0000
     atom:   48    charge:    2.0835    magn:    0.0001    constr:    0.0000
     atom:   49    charge:    2.0520    magn:    0.0000    constr:    0.0000
     atom:   50    charge:    1.2593    magn:   -0.0000    constr:    0.0000
     atom:   51    charge:    1.2856    magn:    0.0000    constr:    0.0000

     total cpu time spent up to now is     1636.8 secs

     total energy              =   -3044.95639704 Ry
     Harris-Foulkes estimate   =   -3044.95642272 Ry
     estimated scf accuracy    <       0.00007248 Ry

     total magnetization       =     0.00 Bohr mag/cell
     absolute magnetization    =     0.00 Bohr mag/cell

     iteration #  6     ecut=    40.42 Ry     beta=0.10
     Davidson diagonalization with overlap
     ethr =  1.81E-08,  avg # of iterations =  3.0

     negative rho (up, down):  1.158E-02 1.158E-02
 
     Magnetic moment per site:
     atom:    1    charge:    3.1250    magn:   -0.0001    constr:    0.0000
     atom:    2    charge:    2.0894    magn:    0.0000    constr:    0.0000
     atom:    3    charge:    3.1196    magn:   -0.0000    constr:    0.0000
     atom:    4    charge:    2.0870    magn:    0.0000    constr:    0.0000
     atom:    5    charge:    3.1170    magn:   -0.0000    constr:    0.0000
     atom:    6    charge:    2.0917    magn:    0.0000    constr:    0.0000
     atom:    7    charge:    3.1185    magn:   -0.0000    constr:    0.0000
     atom:    8    charge:    2.0816    magn:    0.0000    constr:    0.0000
     atom:    9    charge:    3.1250    magn:   -0.0001    constr:    0.0000
     atom:   10    charge:    2.0894    magn:    0.0000    constr:    0.0000
     atom:   11    charge:    3.1196    magn:   -0.0000    constr:    0.0000
     atom:   12    charge:    2.0870    magn:    0.0000    constr:    0.0000
     atom:   13    charge:    3.1148    magn:   -0.0000    constr:    0.0000
     atom:   14    charge:    2.0911    magn:    0.0000    constr:    0.0000
     atom:   15    charge:    3.1194    magn:   -0.0000    constr:    0.0000
     atom:   16    charge:    2.0883    magn:    0.0000    constr:    0.0000
     atom:   17    charge:    2.0624    magn:    0.0001    constr:    0.0000
     atom:   18    charge:    3.1239    magn:   -0.0000    constr:    0.0000
     atom:   19    charge:    2.0878    magn:   -0.0000    constr:    0.0000
     atom:   20    charge:    2.0847    magn:   -0.0000    constr:    0.0000
     atom:   21    charge:    2.0847    magn:   -0.0000    constr:    0.0000
     atom:   22    charge:    3.1197    magn:   -0.0000    constr:    0.0000
     atom:   23    charge:    2.0909    magn:    0.0000    constr:    0.0000
     atom:   24    charge:    2.0777    magn:    0.0000    constr:    0.0000
     atom:   25    charge:    2.0869    magn:    0.0000    constr:    0.0000
     atom:   26    charge:    3.1165    magn:   -0.0000    constr:    0.0000
     atom:   27    charge:    2.0824    magn:    0.0001    constr:    0.0000
     atom:   28    charge:    2.0879    magn:    0.0000    constr:    0.0000
     atom:   29    charge:    2.0877    magn:    0.0000    constr:    0.0000
     atom:   30    charge:    3.1168    magn:   -0.0000    constr:    0.0000
     atom:   31    charge:    2.0816    magn:    0.0001    constr:    0.0000
     atom:   32    charge:    2.0843    magn:    0.0000    constr:    0.0000
     atom:   33    charge:    2.0624    magn:    0.0001    constr:    0.0000
     atom:   34    charge:    3.1239    magn:   -0.0000    constr:    0.0000
     atom:   35    charge:    2.0878    magn:   -0.0000    constr:    0.0000
     atom:   36    charge:    2.0847    magn:   -0.0000    constr:    0.0000
     atom:   37    charge:    2.0847    magn:   -0.0000    constr:    0.0000
     atom:   38    charge:    3.1197    magn:   -0.0000    constr:    0.0000
     atom:   39    charge:    2.0912    magn:    0.0000    constr:    0.0000
     atom:   40    charge:    2.0777    magn:    0.0000    constr:    0.0000
     atom:   41    charge:    2.0869    magn:    0.0000    constr:    0.0000
     atom:   42    charge:    3.1181    magn:   -0.0000    constr:    0.0000
     atom:   43    charge:    2.0838    magn:    0.0001    constr:    0.0000
     atom:   44    charge:    2.0865    magn:    0.0000    constr:    0.0000
     atom:   45    charge:    2.0871    magn:    0.0000    constr:    0.0000
     atom:   46    charge:    3.1171    magn:   -0.0000    constr:    0.0000
     atom:   47    charge:    2.0796    magn:    0.0001    constr:    0.0000
     atom:   48    charge:    2.0835    magn:    0.0000    constr:    0.0000
     atom:   49    charge:    2.0518    magn:    0.0000    constr:    0.0000
     atom:   50    charge:    1.2592    magn:   -0.0000    constr:    0.0000
     atom:   51    charge:    1.2859    magn:    0.0000    constr:    0.0000

     total cpu time spent up to now is     1845.0 secs

     total energy              =   -3044.95640121 Ry
     Harris-Foulkes estimate   =   -3044.95640416 Ry
     estimated scf accuracy    <       0.00001361 Ry

     total magnetization       =     0.00 Bohr mag/cell
     absolute magnetization    =     0.00 Bohr mag/cell

     iteration #  7     ecut=    40.42 Ry     beta=0.10
     Davidson diagonalization with overlap
     ethr =  3.40E-09,  avg # of iterations =  3.0

     negative rho (up, down):  1.158E-02 1.158E-02
 
     Magnetic moment per site:
     atom:    1    charge:    3.1250    magn:   -0.0000    constr:    0.0000
     atom:    2    charge:    2.0894    magn:    0.0000    constr:    0.0000
     atom:    3    charge:    3.1196    magn:   -0.0000    constr:    0.0000
     atom:    4    charge:    2.0870    magn:    0.0000    constr:    0.0000
     atom:    5    charge:    3.1170    magn:   -0.0000    constr:    0.0000
     atom:    6    charge:    2.0917    magn:    0.0000    constr:    0.0000
     atom:    7    charge:    3.1185    magn:   -0.0000    constr:    0.0000
     atom:    8    charge:    2.0816    magn:    0.0000    constr:    0.0000
     atom:    9    charge:    3.1250    magn:   -0.0000    constr:    0.0000
     atom:   10    charge:    2.0894    magn:    0.0000    constr:    0.0000
     atom:   11    charge:    3.1196    magn:   -0.0000    constr:    0.0000
     atom:   12    charge:    2.0870    magn:    0.0000    constr:    0.0000
     atom:   13    charge:    3.1148    magn:   -0.0000    constr:    0.0000
     atom:   14    charge:    2.0911    magn:    0.0000    constr:    0.0000
     atom:   15    charge:    3.1194    magn:   -0.0000    constr:    0.0000
     atom:   16    charge:    2.0883    magn:    0.0000    constr:    0.0000
     atom:   17    charge:    2.0624    magn:    0.0001    constr:    0.0000
     atom:   18    charge:    3.1239    magn:   -0.0000    constr:    0.0000
     atom:   19    charge:    2.0878    magn:   -0.0000    constr:    0.0000
     atom:   20    charge:    2.0847    magn:   -0.0000    constr:    0.0000
     atom:   21    charge:    2.0847    magn:   -0.0000    constr:    0.0000
     atom:   22    charge:    3.1197    magn:   -0.0000    constr:    0.0000
     atom:   23    charge:    2.0909    magn:    0.0000    constr:    0.0000
     atom:   24    charge:    2.0777    magn:    0.0000    constr:    0.0000
     atom:   25    charge:    2.0869    magn:    0.0000    constr:    0.0000
     atom:   26    charge:    3.1165    magn:   -0.0000    constr:    0.0000
     atom:   27    charge:    2.0824    magn:    0.0000    constr:    0.0000
     atom:   28    charge:    2.0879    magn:    0.0000    constr:    0.0000
     atom:   29    charge:    2.0877    magn:    0.0000    constr:    0.0000
     atom:   30    charge:    3.1168    magn:   -0.0000    constr:    0.0000
     atom:   31    charge:    2.0816    magn:    0.0001    constr:    0.0000
     atom:   32    charge:    2.0843    magn:    0.0000    constr:    0.0000
     atom:   33    charge:    2.0624    magn:    0.0001    constr:    0.0000
     atom:   34    charge:    3.1239    magn:   -0.0000    constr:    0.0000
     atom:   35    charge:    2.0878    magn:   -0.0000    constr:    0.0000
     atom:   36    charge:    2.0847    magn:   -0.0000    constr:    0.0000
     atom:   37    charge:    2.0847    magn:   -0.0000    constr:    0.0000
     atom:   38    charge:    3.1197    magn:   -0.0000    constr:    0.0000
     atom:   39    charge:    2.0912    magn:    0.0000    constr:    0.0000
     atom:   40    charge:    2.0777    magn:    0.0000    constr:    0.0000
     atom:   41    charge:    2.0869    magn:    0.0000    constr:    0.0000
     atom:   42    charge:    3.1181    magn:   -0.0000    constr:    0.0000
     atom:   43    charge:    2.0838    magn:    0.0000    constr:    0.0000
     atom:   44    charge:    2.0865    magn:    0.0000    constr:    0.0000
     atom:   45    charge:    2.0871    magn:    0.0000    constr:    0.0000
     atom:   46    charge:    3.1171    magn:   -0.0000    constr:    0.0000
     atom:   47    charge:    2.0796    magn:    0.0001    constr:    0.0000
     atom:   48    charge:    2.0835    magn:    0.0000    constr:    0.0000
     atom:   49    charge:    2.0518    magn:    0.0000    constr:    0.0000
     atom:   50    charge:    1.2592    magn:   -0.0000    constr:    0.0000
     atom:   51    charge:    1.2859    magn:    0.0000    constr:    0.0000

     total cpu time spent up to now is     2051.2 secs

     total energy              =   -3044.95640274 Ry
     Harris-Foulkes estimate   =   -3044.95640267 Ry
     estimated scf accuracy    <       0.00000211 Ry

     total magnetization       =     0.00 Bohr mag/cell
     absolute magnetization    =     0.00 Bohr mag/cell

     iteration #  8     ecut=    40.42 Ry     beta=0.10
     Davidson diagonalization with overlap
     ethr =  5.27E-10,  avg # of iterations =  2.0

     negative rho (up, down):  1.158E-02 1.158E-02
 
     Magnetic moment per site:
     atom:    1    charge:    3.1250    magn:   -0.0000    constr:    0.0000
     atom:    2    charge:    2.0894    magn:    0.0000    constr:    0.0000
     atom:    3    charge:    3.1196    magn:   -0.0000    constr:    0.0000
     atom:    4    charge:    2.0870    magn:    0.0000    constr:    0.0000
     atom:    5    charge:    3.1170    magn:   -0.0000    constr:    0.0000
     atom:    6    charge:    2.0917    magn:    0.0000    constr:    0.0000
     atom:    7    charge:    3.1185    magn:   -0.0000    constr:    0.0000
     atom:    8    charge:    2.0815    magn:    0.0000    constr:    0.0000
     atom:    9    charge:    3.1250    magn:   -0.0000    constr:    0.0000
     atom:   10    charge:    2.0894    magn:    0.0000    constr:    0.0000
     atom:   11    charge:    3.1196    magn:   -0.0000    constr:    0.0000
     atom:   12    charge:    2.0870    magn:    0.0000    constr:    0.0000
     atom:   13    charge:    3.1148    magn:   -0.0000    constr:    0.0000
     atom:   14    charge:    2.0911    magn:    0.0000    constr:    0.0000
     atom:   15    charge:    3.1194    magn:   -0.0000    constr:    0.0000
     atom:   16    charge:    2.0883    magn:    0.0000    constr:    0.0000
     atom:   17    charge:    2.0624    magn:    0.0001    constr:    0.0000
     atom:   18    charge:    3.1239    magn:   -0.0000    constr:    0.0000
     atom:   19    charge:    2.0878    magn:   -0.0000    constr:    0.0000
     atom:   20    charge:    2.0847    magn:   -0.0000    constr:    0.0000
     atom:   21    charge:    2.0847    magn:   -0.0000    constr:    0.0000
     atom:   22    charge:    3.1197    magn:   -0.0000    constr:    0.0000
     atom:   23    charge:    2.0909    magn:    0.0000    constr:    0.0000
     atom:   24    charge:    2.0777    magn:    0.0000    constr:    0.0000
     atom:   25    charge:    2.0869    magn:    0.0000    constr:    0.0000
     atom:   26    charge:    3.1165    magn:   -0.0000    constr:    0.0000
     atom:   27    charge:    2.0824    magn:    0.0000    constr:    0.0000
     atom:   28    charge:    2.0879    magn:    0.0000    constr:    0.0000
     atom:   29    charge:    2.0877    magn:    0.0000    constr:    0.0000
     atom:   30    charge:    3.1168    magn:   -0.0000    constr:    0.0000
     atom:   31    charge:    2.0815    magn:    0.0001    constr:    0.0000
     atom:   32    charge:    2.0843    magn:    0.0000    constr:    0.0000
     atom:   33    charge:    2.0624    magn:    0.0001    constr:    0.0000
     atom:   34    charge:    3.1239    magn:   -0.0000    constr:    0.0000
     atom:   35    charge:    2.0878    magn:   -0.0000    constr:    0.0000
     atom:   36    charge:    2.0847    magn:   -0.0000    constr:    0.0000
     atom:   37    charge:    2.0847    magn:   -0.0000    constr:    0.0000
     atom:   38    charge:    3.1197    magn:   -0.0000    constr:    0.0000
     atom:   39    charge:    2.0912    magn:    0.0000    constr:    0.0000
     atom:   40    charge:    2.0777    magn:    0.0000    constr:    0.0000
     atom:   41    charge:    2.0869    magn:    0.0000    constr:    0.0000
     atom:   42    charge:    3.1181    magn:   -0.0000    constr:    0.0000
     atom:   43    charge:    2.0838    magn:    0.0000    constr:    0.0000
     atom:   44    charge:    2.0865    magn:    0.0000    constr:    0.0000
     atom:   45    charge:    2.0871    magn:    0.0000    constr:    0.0000
     atom:   46    charge:    3.1171    magn:   -0.0000    constr:    0.0000
     atom:   47    charge:    2.0796    magn:    0.0001    constr:    0.0000
     atom:   48    charge:    2.0835    magn:    0.0000    constr:    0.0000
     atom:   49    charge:    2.0517    magn:    0.0000    constr:    0.0000
     atom:   50    charge:    1.2592    magn:   -0.0000    constr:    0.0000
     atom:   51    charge:    1.2860    magn:    0.0000    constr:    0.0000

     total cpu time spent up to now is     2242.4 secs

     total energy              =   -3044.95640281 Ry
     Harris-Foulkes estimate   =   -3044.95640282 Ry
     estimated scf accuracy    <       0.00000107 Ry

     total magnetization       =     0.00 Bohr mag/cell
     absolute magnetization    =     0.00 Bohr mag/cell

     iteration #  9     ecut=    40.42 Ry     beta=0.10
     Davidson diagonalization with overlap
     ethr =  2.68E-10,  avg # of iterations =  2.0

     negative rho (up, down):  1.158E-02 1.158E-02
 
     Magnetic moment per site:
     atom:    1    charge:    3.1250    magn:   -0.0000    constr:    0.0000
     atom:    2    charge:    2.0894    magn:    0.0000    constr:    0.0000
     atom:    3    charge:    3.1196    magn:   -0.0000    constr:    0.0000
     atom:    4    charge:    2.0870    magn:    0.0000    constr:    0.0000
     atom:    5    charge:    3.1170    magn:   -0.0000    constr:    0.0000
     atom:    6    charge:    2.0917    magn:    0.0000    constr:    0.0000
     atom:    7    charge:    3.1185    magn:   -0.0000    constr:    0.0000
     atom:    8    charge:    2.0816    magn:    0.0000    constr:    0.0000
     atom:    9    charge:    3.1250    magn:   -0.0000    constr:    0.0000
     atom:   10    charge:    2.0894    magn:    0.0000    constr:    0.0000
     atom:   11    charge:    3.1196    magn:   -0.0000    constr:    0.0000
     atom:   12    charge:    2.0870    magn:    0.0000    constr:    0.0000
     atom:   13    charge:    3.1148    magn:   -0.0000    constr:    0.0000
     atom:   14    charge:    2.0912    magn:    0.0000    constr:    0.0000
     atom:   15    charge:    3.1194    magn:   -0.0000    constr:    0.0000
     atom:   16    charge:    2.0883    magn:    0.0000    constr:    0.0000
     atom:   17    charge:    2.0624    magn:    0.0000    constr:    0.0000
     atom:   18    charge:    3.1239    magn:   -0.0000    constr:    0.0000
     atom:   19    charge:    2.0878    magn:   -0.0000    constr:    0.0000
     atom:   20    charge:    2.0847    magn:   -0.0000    constr:    0.0000
     atom:   21    charge:    2.0847    magn:   -0.0000    constr:    0.0000
     atom:   22    charge:    3.1197    magn:   -0.0000    constr:    0.0000
     atom:   23    charge:    2.0909    magn:    0.0000    constr:    0.0000
     atom:   24    charge:    2.0777    magn:    0.0000    constr:    0.0000
     atom:   25    charge:    2.0869    magn:    0.0000    constr:    0.0000
     atom:   26    charge:    3.1165    magn:   -0.0000    constr:    0.0000
     atom:   27    charge:    2.0824    magn:    0.0000    constr:    0.0000
     atom:   28    charge:    2.0879    magn:    0.0000    constr:    0.0000
     atom:   29    charge:    2.0877    magn:    0.0000    constr:    0.0000
     atom:   30    charge:    3.1168    magn:   -0.0000    constr:    0.0000
     atom:   31    charge:    2.0816    magn:    0.0000    constr:    0.0000
     atom:   32    charge:    2.0843    magn:    0.0000    constr:    0.0000
     atom:   33    charge:    2.0624    magn:    0.0000    constr:    0.0000
     atom:   34    charge:    3.1239    magn:   -0.0000    constr:    0.0000
     atom:   35    charge:    2.0878    magn:   -0.0000    constr:    0.0000
     atom:   36    charge:    2.0847    magn:   -0.0000    constr:    0.0000
     atom:   37    charge:    2.0847    magn:   -0.0000    constr:    0.0000
     atom:   38    charge:    3.1197    magn:   -0.0000    constr:    0.0000
     atom:   39    charge:    2.0912    magn:    0.0000    constr:    0.0000
     atom:   40    charge:    2.0777    magn:    0.0000    constr:    0.0000
     atom:   41    charge:    2.0869    magn:    0.0000    constr:    0.0000
     atom:   42    charge:    3.1181    magn:   -0.0000    constr:    0.0000
     atom:   43    charge:    2.0837    magn:    0.0000    constr:    0.0000
     atom:   44    charge:    2.0865    magn:    0.0000    constr:    0.0000
     atom:   45    charge:    2.0871    magn:    0.0000    constr:    0.0000
     atom:   46    charge:    3.1171    magn:   -0.0000    constr:    0.0000
     atom:   47    charge:    2.0796    magn:    0.0000    constr:    0.0000
     atom:   48    charge:    2.0835    magn:    0.0000    constr:    0.0000
     atom:   49    charge:    2.0518    magn:    0.0000    constr:    0.0000
     atom:   50    charge:    1.2592    magn:   -0.0000    constr:    0.0000
     atom:   51    charge:    1.2859    magn:    0.0000    constr:    0.0000

     total cpu time spent up to now is     2434.0 secs

     End of self-consistent calculation

 ------ SPIN UP ------------


          k = 0.0000 0.0000 0.0000 ( 34665 PWs)   bands (ev):

   -57.8229 -57.7880 -57.5128 -57.4572 -57.3891 -57.3525 -57.2782 -57.2429
   -57.1806 -57.1453 -57.1172 -57.0818 -56.8841 -56.8118 -56.2849 -56.2496
   -34.2593 -34.1040 -34.0755 -34.0597 -34.0244 -33.9301 -33.8694 -33.8647
   -33.8271 -33.7717 -33.7332 -33.7228 -33.7185 -33.6876 -33.6719 -33.6682
   -33.6490 -33.6395 -33.6184 -33.5567 -33.5255 -33.4598 -33.4596 -33.4389
   -33.4319 -33.4294 -33.3879 -33.3829 -33.3785 -33.3606 -33.3561 -33.3359
   -33.3131 -33.3071 -33.2796 -33.2739 -33.2485 -33.1453 -33.1404 -33.0836
   -33.0392 -32.9384 -32.7036 -32.6361 -32.6100 -32.5076 -32.4158 -32.3076
   -24.2415 -21.0027 -18.1762 -17.9753 -17.7521 -17.6300 -17.4959 -17.4942
   -17.2125 -17.1918 -17.1464 -17.0543 -17.0514 -17.0098 -16.9941 -16.9211
   -16.8737 -16.8619 -16.8397 -16.7989 -16.7368 -16.6902 -16.5724 -16.5493
   -16.5209 -16.5089 -16.4217 -16.3117 -16.2761 -16.2448 -16.1080 -16.0782
   -14.8672 -14.7825  -9.7914  -7.4872  -7.4686  -5.9982  -5.5681  -5.5114
    -5.3606  -5.3524  -5.2951  -4.9976  -4.9383  -4.5882  -4.5844  -4.5489
    -4.5396  -4.4918  -4.3674  -4.2710  -4.2224  -4.2049  -4.1702  -4.1675
    -4.1633  -4.1554  -4.0907  -4.0861  -4.0095  -3.9869  -3.9556  -3.9139
    -3.8806  -3.8075  -3.7735  -3.7492  -3.7198  -3.6437  -3.6225  -3.5467
    -3.5445  -3.5191  -3.4517  -3.3331  -3.2023  -3.1670  -3.0636  -3.0049
    -2.9622  -2.8768  -2.8257  -2.8132  -2.7426  -2.7410  -2.7253  -2.5998
    -2.5625  -2.5071  -2.4351  -2.3990  -2.3714  -2.3527  -2.3244  -2.2826
    -2.2772  -2.2479  -2.2112  -2.1793  -2.1753  -2.0498  -1.9929  -1.8937
    -1.7514  -1.7486  -1.7221  -1.6807  -1.6532  -1.6418  -1.5644  -1.5428
    -1.4427  -1.4332  -1.4097  -1.3987  -1.3856  -1.2837  -1.2328  -1.2229
    -1.2019  -1.1330  -1.0723  -1.0167  -0.9177  -0.7436  -0.7139  -0.7096
    -0.6463  -0.5188  -0.3717  -0.2350  -0.1723  -0.0083   0.1183   0.1334
     1.5191   1.5480   1.8329   1.8699   1.8813   1.9014   2.0690   2.0884
     2.1230   2.2395   2.3586   2.3722   2.4075   2.4266   2.4635   2.4788
     2.5265   2.5639   2.6163   2.6614   2.6673   2.6794   2.7612   2.8078
     2.8678   2.8950   2.9864   2.9952   2.9962   3.0192   3.0648   3.0822
     3.0929   3.0974   3.1051   3.1394   3.2359   3.2980   3.3019   3.3187
     3.3542   3.3836   3.4177   3.5314   3.5339   3.6710   3.8782   3.9842
     3.9955   4.0432   4.0650   4.1802   4.2529   4.4598   4.5351   4.6575
     4.9064   4.9331   5.0117   5.1266   5.2060   5.3896   5.3952   5.4218
     5.4969   5.5827   5.6284   5.6371   5.7152   5.7326   5.7376   5.7549
     5.9219   5.9603   6.0113   6.0205   6.0982   6.1426   6.2041   6.2200
     6.4747   6.6170   6.7694   6.7848   6.8811   7.1638   7.2755   7.2903
     7.9099   7.9872   8.1612   8.4056   8.7032   8.9123   8.9127   8.9526
     9.2108   9.2585   9.2857   9.3533

          k = 0.0000 0.0280 0.0000 ( 34717 PWs)   bands (ev):

   -57.8206 -57.7903 -57.5113 -57.4588 -57.3869 -57.3548 -57.2759 -57.2453
   -57.1783 -57.1477 -57.1149 -57.0842 -56.8828 -56.8131 -56.2825 -56.2520
   -34.2339 -34.1020 -34.0774 -34.0339 -34.0182 -33.9366 -33.8964 -33.8396
   -33.8207 -33.7476 -33.7359 -33.7268 -33.7178 -33.6882 -33.6727 -33.6693
   -33.6465 -33.6155 -33.6119 -33.5497 -33.5344 -33.4850 -33.4574 -33.4486
   -33.4337 -33.4234 -33.4057 -33.3789 -33.3616 -33.3596 -33.3549 -33.3423
   -33.3129 -33.3121 -33.3047 -33.2757 -33.2741 -33.1448 -33.1374 -33.0842
   -33.0435 -32.9667 -32.6779 -32.6343 -32.6118 -32.5015 -32.4221 -32.3351
   -24.2414 -21.0026 -18.1146 -17.9173 -17.6991 -17.5767 -17.4749 -17.4474
   -17.2293 -17.1894 -17.1615 -17.1205 -17.0566 -17.0063 -16.9834 -16.9068
   -16.8910 -16.8454 -16.8299 -16.7993 -16.7675 -16.7477 -16.5966 -16.5393
   -16.5190 -16.5002 -16.4513 -16.3077 -16.2939 -16.2623 -16.1334 -16.1206
   -14.8771 -14.8057  -9.7912  -7.4884  -7.4686  -5.9971  -5.4799  -5.4271
    -5.2831  -5.2724  -5.2177  -4.8797  -4.8632  -4.6124  -4.5831  -4.5156
    -4.4881  -4.4538  -4.3172  -4.2929  -4.2880  -4.2394  -4.2326  -4.1952
    -4.1580  -4.1442  -4.1086  -4.0964  -4.0788  -4.0530  -4.0093  -3.9868
    -3.9291  -3.9228  -3.8622  -3.8037  -3.7370  -3.7220  -3.7011  -3.5666
    -3.4865  -3.4710  -3.3805  -3.3124  -3.1297  -3.0825  -2.9918  -2.9578
    -2.8385  -2.8074  -2.7565  -2.7501  -2.6708  -2.6398  -2.6342  -2.6166
    -2.5697  -2.5581  -2.5198  -2.4544  -2.4144  -2.3474  -2.3223  -2.2813
    -2.2365  -2.2179  -2.2021  -2.1254  -2.0523  -2.0187  -1.9404  -1.8727
    -1.8414  -1.8194  -1.7887  -1.7733  -1.6982  -1.6737  -1.6320  -1.5986
    -1.5576  -1.4950  -1.4655  -1.4089  -1.3888  -1.3574  -1.2762  -1.2370
    -1.1905  -1.1537  -1.0674  -1.0311  -0.9475  -0.9127  -0.8454  -0.7597
    -0.7310  -0.5335  -0.4124  -0.2277  -0.2241   0.0025   0.0729   0.0978
     1.6047   1.6516   1.8619   1.8718   1.9260   2.0018   2.0468   2.1146
     2.1720   2.2676   2.3210   2.3759   2.3783   2.4415   2.4519   2.4834
     2.5169   2.5386   2.5911   2.6312   2.6839   2.7327   2.7695   2.7860
     2.8263   2.8761   2.9401   2.9568   2.9881   3.0193   3.0439   3.0722
     3.0936   3.1032   3.1884   3.2024   3.2552   3.3160   3.3486   3.4007
     3.4167   3.4684   3.5026   3.5074   3.5693   3.6378   3.8285   3.9432
     3.9920   4.0545   4.1316   4.1634   4.1847   4.4027   4.5934   4.7557
     4.9128   5.0116   5.1098   5.1890   5.2103   5.4069   5.4293   5.4797
     5.4912   5.5647   5.5977   5.6226   5.6707   5.6956   5.7338   5.8216
     5.8580   5.9319   5.9774   6.0162   6.0239   6.0277   6.1171   6.2874
     6.4543   6.5436   6.7170   6.7876   6.8096   7.0694   7.2170   7.3719
     7.6836   7.9816   8.1021   8.2888   8.4136   8.7063   8.9955   9.0255
     9.0793   9.2976   9.3579   9.4069

          k = 0.0000 0.0560 0.0000 ( 34721 PWs)   bands (ev):

   -57.8142 -57.7967 -57.5080 -57.4621 -57.3808 -57.3609 -57.2694 -57.2517
   -57.1719 -57.1541 -57.1085 -57.0906 -56.8802 -56.8157 -56.2761 -56.2585
   -34.1641 -34.0967 -34.0824 -34.0012 -33.9694 -33.9633 -33.9541 -33.8048
   -33.7742 -33.7643 -33.7509 -33.7154 -33.7053 -33.6919 -33.6743 -33.6714
   -33.5945 -33.5766 -33.5748 -33.5469 -33.5359 -33.5302 -33.4790 -33.4726
   -33.4521 -33.4384 -33.4070 -33.3810 -33.3745 -33.3600 -33.3572 -33.3531
   -33.3397 -33.3252 -33.3037 -33.3013 -33.2666 -33.1441 -33.1337 -33.0855
   -33.0570 -33.0342 -32.6296 -32.6166 -32.6071 -32.4849 -32.4390 -32.4092
   -24.2414 -21.0025 -17.9432 -17.7572 -17.5594 -17.4474 -17.4276 -17.4221
   -17.3193 -17.2921 -17.1803 -17.0787 -17.0787 -17.0458 -17.0223 -16.9811
   -16.8627 -16.8580 -16.8512 -16.8136 -16.7513 -16.6857 -16.6605 -16.6166
   -16.5321 -16.4723 -16.4467 -16.3309 -16.3215 -16.2813 -16.2456 -16.1830
   -14.8947 -14.8560  -9.7910  -7.4911  -7.4686  -5.9953  -5.2372  -5.1918
    -5.0758  -5.0431  -5.0092  -4.7366  -4.6640  -4.6270  -4.5517  -4.5423
    -4.5141  -4.4980  -4.4685  -4.3911  -4.3588  -4.3513  -4.3279  -4.3235
    -4.2566  -4.2191  -4.1980  -4.1478  -4.1340  -4.0939  -4.0687  -4.0173
    -3.9552  -3.9275  -3.8573  -3.7822  -3.7260  -3.6041  -3.5762  -3.4824
    -3.4202  -3.3867  -3.3659  -3.2695  -3.1741  -3.0257  -2.9772  -2.9645
    -2.9472  -2.8803  -2.7880  -2.7363  -2.6865  -2.6520  -2.6074  -2.4693
    -2.4551  -2.4480  -2.4146  -2.3922  -2.3389  -2.3032  -2.2804  -2.2762
    -2.2040  -2.1810  -2.0996  -2.0692  -2.0463  -2.0373  -2.0106  -1.9886
    -1.9409  -1.9030  -1.8668  -1.7906  -1.7155  -1.6830  -1.6693  -1.6565
    -1.6402  -1.5717  -1.5180  -1.5021  -1.4819  -1.4431  -1.3723  -1.3570
    -1.2815  -1.2406  -1.1672  -1.1416  -1.0635  -0.9987  -0.9284  -0.8952
    -0.7987  -0.7142  -0.5957  -0.3927  -0.0432   0.0131   0.0439   0.0470
     1.7415   1.8864   1.9040   1.9835   2.0142   2.0571   2.1348   2.2008
     2.2211   2.2578   2.2625   2.2755   2.3039   2.3556   2.3786   2.5115
     2.5229   2.5557   2.6431   2.6529   2.6788   2.7375   2.7546   2.8001
     2.8051   2.8273   2.8479   2.9411   2.9612   3.0112   3.0853   3.0949
     3.1119   3.1728   3.1948   3.2209   3.3249   3.3686   3.4089   3.4647
     3.4874   3.5562   3.6148   3.6664   3.6868   3.7216   3.7419   3.8487
     3.9829   3.9957   4.0115   4.0984   4.2378   4.3259   4.7185   4.8444
     5.0304   5.1647   5.2526   5.3011   5.3313   5.3976   5.4046   5.4773
     5.5245   5.5977   5.6110   5.6197   5.6435   5.6923   5.7275   5.7389
     5.7553   5.7932   5.8310   5.8960   5.9800   6.0235   6.1913   6.2993
     6.3716   6.4075   6.6422   6.6488   6.7422   6.9084   7.0163   7.2652
     7.4962   7.6704   7.7742   8.2687   8.4213   8.5999   8.8937   9.0365
     9.1959   9.3506   9.4458   9.5757

          k = 0.0000-0.0840 0.0000 ( 34678 PWs)   bands (ev):

   -57.8055 -57.8055 -57.5062 -57.4639 -57.3755 -57.3663 -57.2607 -57.2605
   -57.1644 -57.1616 -57.1009 -57.0982 -56.8789 -56.8171 -56.2673 -56.2673
   -34.0896 -34.0896 -34.0675 -34.0675 -33.9777 -33.9777 -33.8806 -33.8477
   -33.7878 -33.7694 -33.7172 -33.7104 -33.6949 -33.6777 -33.6706 -33.6584
   -33.5774 -33.5772 -33.5721 -33.5634 -33.5026 -33.5021 -33.4807 -33.4783
   -33.4559 -33.4480 -33.4453 -33.4449 -33.3846 -33.3823 -33.3558 -33.3528
   -33.3437 -33.3411 -33.2972 -33.2948 -33.1996 -33.1661 -33.1408 -33.0903
   -33.0853 -33.0538 -32.6231 -32.6231 -32.5092 -32.5091 -32.4619 -32.4619
   -24.2414 -21.0024 -17.7052 -17.6934 -17.5365 -17.5358 -17.4205 -17.4020
   -17.2467 -17.2407 -17.1792 -17.1787 -17.1442 -17.1408 -16.9653 -16.9651
   -16.9417 -16.9376 -16.7749 -16.7472 -16.7200 -16.7171 -16.6455 -16.6386
   -16.5521 -16.5071 -16.3787 -16.3771 -16.3325 -16.3310 -16.2515 -16.2498
   -14.8928 -14.8928  -9.7909  -7.4923  -7.4685  -5.9944  -4.9260  -4.9230
    -4.8586  -4.8585  -4.8062  -4.7913  -4.7652  -4.7586  -4.7216  -4.7000
    -4.5287  -4.5102  -4.4961  -4.4939  -4.4248  -4.4232  -4.4187  -4.4160
    -4.2603  -4.2215  -4.1587  -4.1573  -4.1453  -4.1231  -4.0100  -3.9542
    -3.9530  -3.9172  -3.8417  -3.7988  -3.6556  -3.6164  -3.4641  -3.4526
    -3.3009  -3.2911  -3.2317  -3.1538  -3.1343  -3.1049  -2.9710  -2.9562
    -2.9459  -2.8853  -2.8604  -2.8209  -2.7156  -2.6890  -2.6686  -2.6511
    -2.6260  -2.6175  -2.5744  -2.4570  -2.4498  -2.4209  -2.1601  -2.1250
    -2.1024  -2.0550  -2.0155  -1.9835  -1.9354  -1.9345  -1.9287  -1.8798
    -1.8711  -1.8666  -1.8487  -1.7922  -1.7778  -1.7118  -1.6320  -1.6314
    -1.5918  -1.5741  -1.5576  -1.5561  -1.5482  -1.5438  -1.5237  -1.4170
    -1.3753  -1.2652  -1.2524  -1.2240  -1.1299  -1.1243  -1.1007  -1.0952
    -0.6847  -0.6348  -0.5975  -0.5920   0.0127   0.0131   0.0498   0.0501
     1.9067   1.9104   2.0091   2.0103   2.0990   2.0993   2.1042   2.1260
     2.2212   2.2213   2.2263   2.2418   2.3397   2.3809   2.4298   2.4323
     2.5237   2.5285   2.5924   2.5931   2.6699   2.7491   2.7605   2.8220
     2.8295   2.8639   2.9035   2.9459   2.9731   2.9932   3.0513   3.0672
     3.0788   3.2107   3.2532   3.3225   3.3294   3.3310   3.3322   3.4787
     3.6167   3.6194   3.6864   3.7000   3.7274   3.7868   3.7882   3.8688
     3.9220   3.9243   3.9878   3.9882   4.1312   4.4132   4.7926   4.8170
     5.1510   5.1701   5.2872   5.3243   5.3823   5.3823   5.4923   5.5184
     5.5518   5.5702   5.5823   5.6403   5.6583   5.6962   5.7047   5.7052
     5.7470   5.8307   5.8362   5.8553   5.9996   6.0015   6.0368   6.0821
     6.4166   6.4215   6.5521   6.5877   6.8556   6.8583   6.9713   6.9739
     7.4525   7.4974   7.6264   8.1940   8.3327   8.6522   9.0400   9.1213
     9.3636   9.4259   9.6115   9.6614

          k = 0.0253 0.0000 0.0000 ( 34707 PWs)   bands (ev):

   -57.8229 -57.7880 -57.5128 -57.4572 -57.3891 -57.3525 -57.2782 -57.2429
   -57.1807 -57.1453 -57.1172 -57.0818 -56.8841 -56.8118 -56.2849 -56.2496
   -34.2596 -34.1040 -34.0755 -34.0598 -34.0237 -33.9302 -33.8695 -33.8654
   -33.8271 -33.7731 -33.7329 -33.7222 -33.7178 -33.6887 -33.6794 -33.6722
   -33.6491 -33.6256 -33.6166 -33.5511 -33.5260 -33.4599 -33.4594 -33.4385
   -33.4319 -33.4295 -33.3873 -33.3864 -33.3785 -33.3661 -33.3549 -33.3359
   -33.3131 -33.3069 -33.2798 -33.2740 -33.2486 -33.1464 -33.1405 -33.0836
   -33.0393 -32.9385 -32.7035 -32.6371 -32.6095 -32.5076 -32.4159 -32.3077
   -24.2415 -21.0026 -18.1479 -17.9338 -17.7116 -17.5922 -17.4951 -17.4909
   -17.2698 -17.2314 -17.1456 -17.0614 -17.0538 -17.0454 -17.0182 -16.9617
   -16.9167 -16.8977 -16.8210 -16.7886 -16.7039 -16.6086 -16.6069 -16.5217
   -16.5181 -16.5150 -16.4646 -16.3121 -16.2665 -16.2454 -16.1075 -16.0782
   -14.8661 -14.7823  -9.7906  -7.4873  -7.4685  -5.9976  -5.5379  -5.3954
    -5.2513  -5.2388  -5.1876  -4.9894  -4.9370  -4.7815  -4.5808  -4.5681
    -4.5159  -4.4932  -4.4448  -4.4374  -4.3344  -4.1987  -4.1880  -4.1684
    -4.0923  -4.0756  -4.0702  -3.9867  -3.9700  -3.9366  -3.8766  -3.8412
    -3.8339  -3.8113  -3.7740  -3.7302  -3.7015  -3.6207  -3.5808  -3.4915
    -3.4616  -3.4242  -3.3361  -3.2606  -3.2180  -3.1569  -3.1373  -3.0394
    -3.0209  -2.9245  -2.8918  -2.8120  -2.7578  -2.7245  -2.7017  -2.6758
    -2.6514  -2.6114  -2.5021  -2.4954  -2.4504  -2.3766  -2.3602  -2.3164
    -2.2535  -2.2172  -2.2129  -2.1286  -2.0986  -2.0308  -1.9367  -1.8959
    -1.8021  -1.7777  -1.7529  -1.7265  -1.7043  -1.6347  -1.6101  -1.4962
    -1.4858  -1.4755  -1.4321  -1.4076  -1.3648  -1.3398  -1.2726  -1.2559
    -1.2308  -1.1180  -1.0960  -0.9948  -0.9602  -0.8990  -0.8110  -0.7720
    -0.6925  -0.5628  -0.3662  -0.2624  -0.2028  -0.0225   0.0758   0.0767
     1.5364   1.6034   1.8804   1.8996   1.9936   2.0097   2.0575   2.1359
     2.2173   2.2465   2.3165   2.3252   2.3687   2.4179   2.4362   2.4516
     2.4659   2.5361   2.5469   2.6073   2.6675   2.6814   2.7116   2.8293
     2.8445   2.9005   2.9971   3.0031   3.0113   3.0780   3.0882   3.0978
     3.1482   3.1892   3.2059   3.2408   3.2949   3.3229   3.3339   3.3871
     3.3944   3.4340   3.4648   3.4964   3.5938   3.6167   3.8088   3.8947
     4.0375   4.0614   4.0801   4.1710   4.2377   4.4131   4.6408   4.6835
     4.7688   4.9283   4.9416   4.9916   5.0118   5.0509   5.2190   5.4951
     5.5681   5.6376   5.7300   5.7397   5.7900   5.8331   5.9419   5.9533
     5.9785   6.0372   6.0404   6.0722   6.1355   6.1503   6.2454   6.3165
     6.4890   6.6319   6.7410   6.7772   6.8851   7.0744   7.1636   7.3202
     7.6171   8.0344   8.1522   8.3450   8.4006   8.7539   8.8271   8.9237
     8.9659   9.2474   9.2923   9.4219

          k = 0.0253 0.0280 0.0000 ( 34687 PWs)   bands (ev):

   -57.8206 -57.7903 -57.5113 -57.4588 -57.3869 -57.3548 -57.2758 -57.2453
   -57.1783 -57.1477 -57.1149 -57.0842 -56.8828 -56.8131 -56.2825 -56.2520
   -34.2342 -34.1021 -34.0773 -34.0340 -34.0176 -33.9365 -33.8964 -33.8402
   -33.8208 -33.7489 -33.7359 -33.7265 -33.7167 -33.6886 -33.6761 -33.6726
   -33.6469 -33.6102 -33.6066 -33.5443 -33.5345 -33.4851 -33.4574 -33.4472
   -33.4337 -33.4235 -33.4065 -33.3820 -33.3640 -33.3612 -33.3543 -33.3423
   -33.3129 -33.3121 -33.3047 -33.2757 -33.2741 -33.1457 -33.1375 -33.0843
   -33.0435 -32.9666 -32.6778 -32.6353 -32.6113 -32.5015 -32.4221 -32.3351
   -24.2414 -21.0026 -18.0878 -17.8767 -17.6602 -17.5403 -17.4743 -17.4422
   -17.2540 -17.2317 -17.2052 -17.0841 -17.0600 -17.0411 -16.9895 -16.9535
   -16.9251 -16.8601 -16.8398 -16.8210 -16.7480 -16.6597 -16.6289 -16.5426
   -16.5084 -16.4977 -16.4815 -16.3075 -16.2847 -16.2628 -16.1331 -16.1210
   -14.8760 -14.8057  -9.7905  -7.4886  -7.4684  -5.9966  -5.4534  -5.3106
    -5.1715  -5.1597  -5.1095  -4.8744  -4.8616  -4.7281  -4.5696  -4.5215
    -4.4752  -4.4447  -4.4143  -4.3553  -4.3223  -4.2854  -4.2236  -4.1951
    -4.1547  -4.1218  -4.0905  -4.0727  -4.0329  -3.9725  -3.9607  -3.9287
    -3.9127  -3.8562  -3.8441  -3.7568  -3.7364  -3.6812  -3.6760  -3.4810
    -3.4532  -3.3881  -3.3384  -3.2807  -3.1637  -3.1053  -3.0683  -2.9359
    -2.8463  -2.8451  -2.7988  -2.7866  -2.7504  -2.6763  -2.6305  -2.6141
    -2.5898  -2.5750  -2.5481  -2.5151  -2.4556  -2.4006  -2.3517  -2.3259
    -2.2650  -2.2469  -2.1943  -2.1043  -2.0620  -2.0328  -1.9926  -1.9066
    -1.8758  -1.8520  -1.7890  -1.7632  -1.7386  -1.7181  -1.6626  -1.6235
    -1.5670  -1.5094  -1.4814  -1.4632  -1.4168  -1.3774  -1.3251  -1.2314
    -1.2051  -1.1996  -1.0544  -0.9966  -0.9760  -0.9080  -0.8872  -0.8686
    -0.7831  -0.5727  -0.4235  -0.2806  -0.2180   0.0070   0.0488   0.0578
     1.5979   1.7244   1.8931   1.9046   2.0199   2.0375   2.1372   2.1724
     2.2341   2.2788   2.3157   2.3300   2.3797   2.3942   2.4093   2.4302
     2.5080   2.5412   2.5782   2.6087   2.6312   2.6793   2.7767   2.8102
     2.8491   2.8910   2.9770   2.9868   2.9947   2.9998   3.0541   3.0919
     3.1694   3.2258   3.2629   3.2692   3.3010   3.3253   3.3749   3.4281
     3.4608   3.4921   3.5168   3.5331   3.5823   3.6291   3.7646   3.8891
     4.0194   4.0481   4.0917   4.1683   4.2230   4.3625   4.6848   4.7699
     4.8208   4.9394   4.9855   5.0303   5.0397   5.1171   5.2705   5.5250
     5.5635   5.5978   5.6457   5.7264   5.7397   5.8211   5.8804   5.9242
     5.9561   5.9975   6.0249   6.0340   6.0508   6.0865   6.2964   6.3147
     6.4735   6.5513   6.7365   6.7701   6.8149   7.0597   7.1269   7.3472
     7.5348   8.0143   8.1384   8.2254   8.3140   8.5244   8.5752   8.8331
     9.0207   9.2751   9.4030   9.4724

          k = 0.0253 0.0560 0.0000 ( 34699 PWs)   bands (ev):

   -57.8142 -57.7967 -57.5080 -57.4621 -57.3808 -57.3609 -57.2694 -57.2517
   -57.1719 -57.1541 -57.1085 -57.0906 -56.8802 -56.8157 -56.2761 -56.2585
   -34.1644 -34.0967 -34.0824 -34.0007 -33.9695 -33.9634 -33.9538 -33.8048
   -33.7745 -33.7645 -33.7510 -33.7146 -33.7053 -33.6921 -33.6758 -33.6727
   -33.5934 -33.5771 -33.5746 -33.5434 -33.5357 -33.5259 -33.4798 -33.4694
   -33.4520 -33.4384 -33.4070 -33.3811 -33.3764 -33.3606 -33.3601 -33.3542
   -33.3398 -33.3258 -33.3037 -33.3012 -33.2665 -33.1447 -33.1338 -33.0858
   -33.0571 -33.0341 -32.6302 -32.6164 -32.6070 -32.4849 -32.4390 -32.4092
   -24.2414 -21.0024 -17.9207 -17.7201 -17.5265 -17.4412 -17.4192 -17.3983
   -17.3104 -17.2947 -17.1839 -17.1218 -17.0836 -17.0316 -17.0068 -16.9887
   -16.8994 -16.8907 -16.8535 -16.8071 -16.7707 -16.7338 -16.6818 -16.5897
   -16.5751 -16.4669 -16.4323 -16.3241 -16.3191 -16.2823 -16.2464 -16.1826
   -14.8940 -14.8562  -9.7902  -7.4911  -7.4684  -5.9949  -5.2223  -5.0761
    -4.9626  -4.9339  -4.9033  -4.7309  -4.6634  -4.6465  -4.5303  -4.5230
    -4.5032  -4.4943  -4.3927  -4.3535  -4.3478  -4.3167  -4.2861  -4.2695
    -4.2250  -4.2104  -4.1903  -4.1552  -4.0873  -4.0728  -4.0616  -4.0068
    -3.9713  -3.9150  -3.8459  -3.8079  -3.7242  -3.6310  -3.5432  -3.4723
    -3.4322  -3.4134  -3.3761  -3.2051  -3.1708  -3.0399  -2.9912  -2.9722
    -2.9460  -2.8735  -2.8006  -2.7640  -2.7106  -2.6707  -2.6305  -2.5814
    -2.5576  -2.5156  -2.4700  -2.4543  -2.4123  -2.3978  -2.3167  -2.2719
    -2.2572  -2.2269  -2.1713  -2.1349  -2.0901  -2.0763  -2.0119  -1.9987
    -1.9471  -1.9243  -1.8711  -1.8359  -1.8211  -1.7776  -1.7237  -1.6920
    -1.6639  -1.5870  -1.5655  -1.4930  -1.4693  -1.4191  -1.3803  -1.3435
    -1.2574  -1.2298  -1.1590  -1.0945  -1.0681  -0.9688  -0.9436  -0.8727
    -0.8200  -0.7347  -0.6011  -0.4044  -0.0418  -0.0010   0.0241   0.0472
     1.7377   1.9126   1.9288   2.0515   2.0575   2.0807   2.1664   2.1776
     2.2530   2.2710   2.2933   2.3071   2.3504   2.3960   2.4262   2.5095
     2.5600   2.5805   2.6444   2.6557   2.6711   2.6866   2.7517   2.7856
     2.8079   2.8232   2.8729   2.8815   2.9906   3.0600   3.1218   3.1432
     3.2009   3.2125   3.2432   3.2742   3.3243   3.3661   3.4192   3.4397
     3.5148   3.5366   3.6365   3.6643   3.6987   3.7340   3.7557   3.8221
     3.9398   3.9769   4.0130   4.1375   4.2076   4.3683   4.7767   4.8486
     4.9907   5.0257   5.1009   5.1198   5.1401   5.2237   5.3275   5.4292
     5.4501   5.5061   5.5961   5.6279   5.7179   5.7308   5.7947   5.8216
     5.8796   5.9077   5.9510   6.0140   6.0518   6.2219   6.2485   6.3606
     6.4078   6.4459   6.6520   6.6557   6.7821   6.9070   7.0472   7.2882
     7.3764   7.7156   7.8344   8.0880   8.3684   8.5587   8.6321   8.9030
     9.0260   9.0672   9.2914   9.3866

          k = 0.0253-0.0840 0.0000 ( 34722 PWs)   bands (ev):

   -57.8055 -57.8055 -57.5062 -57.4639 -57.3755 -57.3663 -57.2607 -57.2605
   -57.1644 -57.1617 -57.1009 -57.0982 -56.8789 -56.8171 -56.2673 -56.2673
   -34.0896 -34.0896 -34.0677 -34.0677 -33.9774 -33.9774 -33.8807 -33.8478
   -33.7878 -33.7694 -33.7173 -33.7102 -33.6950 -33.6776 -33.6709 -33.6588
   -33.5792 -33.5790 -33.5712 -33.5625 -33.4999 -33.4998 -33.4790 -33.4768
   -33.4547 -33.4470 -33.4452 -33.4449 -33.3846 -33.3823 -33.3584 -33.3553
   -33.3451 -33.3425 -33.2972 -33.2948 -33.1996 -33.1662 -33.1413 -33.0903
   -33.0859 -33.0538 -32.6233 -32.6233 -32.5092 -32.5091 -32.4619 -32.4619
   -24.2414 -21.0023 -17.6911 -17.6779 -17.5084 -17.5077 -17.4050 -17.3871
   -17.2314 -17.2190 -17.1751 -17.1735 -17.1286 -17.1261 -17.0116 -17.0105
   -16.9251 -16.9215 -16.8103 -16.7911 -16.7535 -16.7514 -16.6784 -16.6718
   -16.5371 -16.4970 -16.3703 -16.3691 -16.3317 -16.3298 -16.2516 -16.2497
   -14.8927 -14.8927  -9.7901  -7.4924  -7.4684  -5.9941  -4.9259  -4.9232
    -4.7619  -4.7618  -4.7194  -4.6992  -4.6899  -4.6875  -4.6342  -4.5988
    -4.5014  -4.4863  -4.4545  -4.4481  -4.4104  -4.4053  -4.3719  -4.3685
    -4.2362  -4.1993  -4.1496  -4.1487  -4.1245  -4.1047  -4.0320  -3.9942
    -3.9890  -3.9216  -3.8451  -3.7898  -3.5682  -3.5628  -3.4691  -3.4477
    -3.2925  -3.2482  -3.2219  -3.2123  -3.1875  -3.1737  -3.0840  -3.0702
    -2.9711  -2.9668  -2.9409  -2.8622  -2.7478  -2.7399  -2.7185  -2.7144
    -2.6621  -2.6119  -2.5027  -2.4936  -2.4458  -2.3960  -2.2513  -2.1910
    -2.1867  -2.1595  -2.0635  -2.0524  -2.0193  -2.0057  -1.9841  -1.9817
    -1.9558  -1.9382  -1.9048  -1.8925  -1.8043  -1.7941  -1.7621  -1.7390
    -1.7301  -1.5922  -1.5440  -1.5130  -1.4168  -1.4122  -1.4009  -1.3397
    -1.3042  -1.2448  -1.2072  -1.1969  -1.1817  -1.1388  -1.0328  -1.0274
    -0.7045  -0.6459  -0.5969  -0.5917  -0.0133  -0.0131   0.0606   0.0610
     1.9183   1.9220   2.0085   2.0153   2.0996   2.1059   2.1180   2.1203
     2.2720   2.2777   2.3108   2.3114   2.4057   2.4288   2.4433   2.4461
     2.5728   2.5764   2.6519   2.6676   2.6720   2.7206   2.7397   2.7692
     2.7758   2.8665   2.8916   2.9364   2.9811   3.0461   3.0808   3.1184
     3.1410   3.2426   3.2919   3.3192   3.3210   3.3561   3.3571   3.4728
     3.5991   3.6088   3.6781   3.7109   3.7337   3.7759   3.7822   3.8351
     3.9302   3.9347   3.9794   3.9795   4.1746   4.4506   4.8168   4.8410
     5.1401   5.1513   5.1818   5.1868   5.2124   5.2247   5.2738   5.2929
     5.3588   5.3774   5.5782   5.5919   5.7211   5.7269   5.8056   5.8661
     5.8897   5.9305   5.9738   6.0014   6.1040   6.1228   6.1585   6.1702
     6.4466   6.4518   6.5690   6.6044   6.8848   6.8859   7.0136   7.0193
     7.4339   7.5547   7.6633   8.0408   8.3242   8.3920   8.8608   9.0452
     9.1985   9.2017   9.2663   9.4971

          k = 0.0506 0.0000 0.0000 ( 34729 PWs)   bands (ev):

   -57.8229 -57.7880 -57.5128 -57.4572 -57.3891 -57.3525 -57.2781 -57.2429
   -57.1807 -57.1453 -57.1172 -57.0818 -56.8841 -56.8118 -56.2849 -56.2496
   -34.2603 -34.1040 -34.0756 -34.0600 -34.0223 -33.9302 -33.8695 -33.8667
   -33.8271 -33.7760 -33.7325 -33.7219 -33.7178 -33.6936 -33.6852 -33.6729
   -33.6491 -33.6130 -33.6089 -33.5385 -33.5269 -33.4599 -33.4591 -33.4378
   -33.4320 -33.4298 -33.3936 -33.3863 -33.3792 -33.3783 -33.3517 -33.3360
   -33.3130 -33.3066 -33.2801 -33.2740 -33.2487 -33.1489 -33.1406 -33.0836
   -33.0393 -32.9386 -32.7034 -32.6393 -32.6083 -32.5075 -32.4159 -32.3078
   -24.2414 -21.0025 -18.0860 -17.8336 -17.6145 -17.5280 -17.4945 -17.4492
[...]
    -2.6736  -2.6303  -2.6216  -2.6143  -2.5830  -2.5402  -2.5040  -2.4874
    -2.4871  -2.4238  -2.3836  -2.3706  -2.3332  -2.3024  -2.2594  -2.2556
    -2.2328  -2.1456  -2.1413  -2.1392  -2.0132  -1.9754  -1.8241  -1.7954
    -1.7351  -1.6867  -1.4329  -1.3872  -1.3235  -1.3223  -1.1658  -1.1519
    -1.1449  -1.1432  -1.1178  -1.0865  -1.0412  -0.9058  -0.8893  -0.7582
    -0.7469  -0.7317  -0.6648  -0.6638  -0.0628  -0.0628   0.0748   0.0751
     1.9881   2.0025   2.0449   2.0514   2.0743   2.0771   2.0886   2.0925
     2.3577   2.3699   2.3757   2.3896   2.4525   2.4588   2.5245   2.5397
     2.5601   2.5606   2.6170   2.7141   2.7313   2.8380   2.8506   2.8683
     2.8791   2.9571   3.0308   3.1048   3.1116   3.1645   3.1946   3.2590
     3.2832   3.2989   3.3357   3.3634   3.3968   3.3999   3.4432   3.4774
     3.5597   3.5843   3.6842   3.7295   3.7939   3.8160   3.8180   3.8188
     3.9496   3.9546   3.9742   3.9742   4.2930   4.5515   4.6604   4.6609
     4.7166   4.7389   4.7763   4.7841   4.7857   4.8091   5.0779   5.1072
     5.2304   5.2628   5.6216   5.6363   5.8115   5.8258   5.9418   6.0465
     6.1666   6.2094   6.2158   6.2462   6.3972   6.4207   6.4759   6.5316
     6.5331   6.5462   6.7092   6.7100   6.7648   6.7662   7.0313   7.0845
     7.6429   7.6725   7.8010   7.8124   8.0416   8.0925   8.3284   8.4003
     8.5421   8.6053   8.6857   9.1800

          k =-0.0253 0.0280 0.0000 ( 34687 PWs)   bands (ev):

   -57.8206 -57.7903 -57.5114 -57.4588 -57.3869 -57.3549 -57.2759 -57.2453
   -57.1783 -57.1477 -57.1149 -57.0842 -56.8830 -56.8132 -56.2827 -56.2521
   -34.2342 -34.1021 -34.0774 -34.0340 -34.0176 -33.9365 -33.8964 -33.8402
   -33.8208 -33.7489 -33.7359 -33.7266 -33.7167 -33.6887 -33.6762 -33.6726
   -33.6469 -33.6103 -33.6066 -33.5443 -33.5346 -33.4851 -33.4574 -33.4473
   -33.4337 -33.4235 -33.4066 -33.3821 -33.3640 -33.3614 -33.3544 -33.3423
   -33.3130 -33.3122 -33.3048 -33.2758 -33.2741 -33.1458 -33.1376 -33.0844
   -33.0437 -32.9668 -32.6780 -32.6354 -32.6114 -32.5016 -32.4222 -32.3352
   -24.2414 -21.0026 -18.0877 -17.8767 -17.6601 -17.5403 -17.4743 -17.4420
   -17.2541 -17.2320 -17.2052 -17.0841 -17.0601 -17.0412 -16.9900 -16.9535
   -16.9251 -16.8600 -16.8398 -16.8206 -16.7470 -16.6596 -16.6291 -16.5427
   -16.5084 -16.4974 -16.4815 -16.3074 -16.2846 -16.2627 -16.1329 -16.1209
   -14.8757 -14.8054  -9.7905  -7.4885  -7.4685  -5.9966  -5.4533  -5.3106
    -5.1713  -5.1593  -5.1095  -4.8747  -4.8617  -4.7287  -4.5683  -4.5219
    -4.4751  -4.4449  -4.4151  -4.3553  -4.3226  -4.2850  -4.2259  -4.1948
    -4.1549  -4.1222  -4.0907  -4.0727  -4.0313  -3.9729  -3.9604  -3.9296
    -3.9124  -3.8561  -3.8462  -3.7564  -3.7365  -3.6814  -3.6750  -3.4794
    -3.4519  -3.3861  -3.3373  -3.2808  -3.1630  -3.1054  -3.0683  -2.9357
    -2.8580  -2.8249  -2.8026  -2.7882  -2.7521  -2.6764  -2.6328  -2.6104
    -2.5925  -2.5741  -2.5475  -2.5177  -2.4577  -2.3989  -2.3498  -2.3271
    -2.2631  -2.2465  -2.1958  -2.1067  -2.0629  -2.0321  -1.9923  -1.9130
    -1.8752  -1.8524  -1.7915  -1.7613  -1.7396  -1.7168  -1.6623  -1.6234
    -1.5637  -1.5063  -1.4815  -1.4612  -1.4179  -1.3758  -1.3266  -1.2315
    -1.2090  -1.2006  -1.0549  -0.9937  -0.9730  -0.9103  -0.8868  -0.8661
    -0.7839  -0.5730  -0.4234  -0.2805  -0.2178   0.0072   0.0491   0.0581
     1.5978   1.7244   1.8930   1.9047   2.0206   2.0384   2.1379   2.1744
     2.2368   2.2779   2.3145   2.3259   2.3803   2.3928   2.4091   2.4307
     2.5083   2.5429   2.5789   2.6117   2.6297   2.6775   2.7752   2.8086
     2.8482   2.8908   2.9755   2.9857   2.9950   3.0002   3.0552   3.0899
     3.1696   3.2269   3.2636   3.2694   3.3003   3.3248   3.3770   3.4285
     3.4612   3.4918   3.5167   3.5330   3.5813   3.6307   3.7639   3.8853
     4.0187   4.0475   4.0963   4.1682   4.2225   4.3623   4.6852   4.7667
     4.8231   4.9389   4.9847   5.0289   5.0396   5.1192   5.2719   5.5248
     5.5622   5.5982   5.6461   5.7261   5.7397   5.8196   5.8858   5.9262
     5.9545   5.9969   6.0236   6.0342   6.0511   6.0864   6.2963   6.3137
     6.4747   6.5516   6.7360   6.7695   6.8149   7.0592   7.1107   7.3502
     7.5419   8.0143   8.1458   8.2242   8.3184   8.5245   8.5737   8.8336
     9.0208   9.2730   9.4005   9.4724

          k =-0.0253 0.0560 0.0000 ( 34699 PWs)   bands (ev):

   -57.8142 -57.7967 -57.5081 -57.4621 -57.3809 -57.3609 -57.2694 -57.2518
   -57.1720 -57.1541 -57.1085 -57.0907 -56.8804 -56.8159 -56.2763 -56.2586
   -34.1644 -34.0967 -34.0825 -34.0007 -33.9695 -33.9634 -33.9538 -33.8048
   -33.7745 -33.7646 -33.7510 -33.7146 -33.7053 -33.6922 -33.6759 -33.6727
   -33.5931 -33.5771 -33.5750 -33.5434 -33.5357 -33.5259 -33.4798 -33.4695
   -33.4521 -33.4385 -33.4070 -33.3811 -33.3764 -33.3606 -33.3601 -33.3543
   -33.3399 -33.3259 -33.3037 -33.3013 -33.2666 -33.1448 -33.1339 -33.0859
   -33.0572 -33.0343 -32.6304 -32.6165 -32.6072 -32.4851 -32.4392 -32.4094
   -24.2414 -21.0024 -17.9206 -17.7201 -17.5264 -17.4414 -17.4192 -17.3983
   -17.3099 -17.2948 -17.1840 -17.1218 -17.0842 -17.0315 -17.0068 -16.9904
   -16.8994 -16.8905 -16.8525 -16.8050 -16.7712 -16.7338 -16.6824 -16.5894
   -16.5751 -16.4669 -16.4322 -16.3240 -16.3190 -16.2822 -16.2463 -16.1825
   -14.8937 -14.8559  -9.7902  -7.4911  -7.4685  -5.9949  -5.2222  -5.0761
    -4.9615  -4.9334  -4.9032  -4.7305  -4.6636  -4.6475  -4.5310  -4.5252
    -4.5020  -4.4938  -4.3947  -4.3545  -4.3476  -4.3161  -4.2841  -4.2692
    -4.2253  -4.2111  -4.1899  -4.1556  -4.0876  -4.0743  -4.0619  -4.0077
    -3.9716  -3.9152  -3.8461  -3.8071  -3.7243  -3.6293  -3.5443  -3.4690
    -3.4308  -3.4118  -3.3745  -3.2045  -3.1736  -3.0395  -2.9915  -2.9711
    -2.9419  -2.8719  -2.7995  -2.7674  -2.7111  -2.6702  -2.6328  -2.5813
    -2.5572  -2.5148  -2.4704  -2.4550  -2.4121  -2.3976  -2.3163  -2.2731
    -2.2567  -2.2293  -2.1725  -2.1363  -2.0894  -2.0788  -2.0113  -1.9979
    -1.9493  -1.9274  -1.8760  -1.8368  -1.8162  -1.7774  -1.7215  -1.6943
    -1.6609  -1.5853  -1.5651  -1.4891  -1.4682  -1.4206  -1.3819  -1.3416
    -1.2578  -1.2291  -1.1576  -1.0938  -1.0685  -0.9687  -0.9433  -0.8745
    -0.8202  -0.7341  -0.6011  -0.4045  -0.0416  -0.0007   0.0244   0.0474
     1.7377   1.9130   1.9287   2.0516   2.0573   2.0829   2.1689   2.1783
     2.2518   2.2695   2.2924   2.3080   2.3515   2.3960   2.4257   2.5081
     2.5570   2.5795   2.6469   2.6570   2.6766   2.6850   2.7493   2.7865
     2.8058   2.8211   2.8709   2.8807   2.9895   3.0596   3.1244   3.1443
     3.2003   3.2106   3.2440   3.2743   3.3250   3.3662   3.4205   3.4394
     3.5099   3.5397   3.6376   3.6652   3.6981   3.7342   3.7554   3.8215
     3.9379   3.9768   4.0132   4.1388   4.2076   4.3686   4.7769   4.8473
     4.9908   5.0256   5.0996   5.1168   5.1407   5.2242   5.3274   5.4295
     5.4524   5.5096   5.5964   5.6279   5.7182   5.7312   5.7942   5.8245
     5.8796   5.9069   5.9516   6.0141   6.0503   6.2217   6.2486   6.3599
     6.4085   6.4455   6.6508   6.6557   6.7741   6.9063   7.0429   7.2882
     7.3713   7.7221   7.8376   8.1077   8.3654   8.5580   8.6314   8.9009
     9.0258   9.0611   9.2872   9.3889

          k =-0.0506 0.0280 0.0000 ( 34685 PWs)   bands (ev):

   -57.8206 -57.7903 -57.5114 -57.4588 -57.3869 -57.3549 -57.2758 -57.2453
   -57.1784 -57.1477 -57.1150 -57.0842 -56.8830 -56.8132 -56.2827 -56.2521
   -34.2349 -34.1021 -34.0774 -34.0342 -34.0162 -33.9365 -33.8965 -33.8415
   -33.8208 -33.7516 -33.7359 -33.7262 -33.7157 -33.6903 -33.6831 -33.6727
   -33.6477 -33.6068 -33.5931 -33.5350 -33.5322 -33.4854 -33.4572 -33.4448
   -33.4337 -33.4237 -33.4096 -33.3886 -33.3733 -33.3606 -33.3529 -33.3424
   -33.3130 -33.3123 -33.3049 -33.2757 -33.2740 -33.1478 -33.1377 -33.0846
   -33.0437 -32.9668 -32.6779 -32.6372 -32.6105 -32.5016 -32.4223 -32.3353
   -24.2414 -21.0024 -18.0291 -17.7781 -17.5670 -17.4773 -17.4727 -17.3990
   -17.3404 -17.2562 -17.2409 -17.1105 -17.0900 -17.0627 -17.0591 -17.0003
   -16.9815 -16.9674 -16.8697 -16.7606 -16.7179 -16.6703 -16.5859 -16.5691
   -16.5328 -16.4903 -16.4607 -16.3063 -16.2733 -16.2638 -16.1328 -16.1218
   -14.8738 -14.8054  -9.7890  -7.4887  -7.4683  -5.9958  -5.4369  -5.0170
    -4.9436  -4.9319  -4.8623  -4.8387  -4.8186  -4.7778  -4.6411  -4.5787
    -4.5623  -4.5091  -4.4507  -4.3588  -4.3116  -4.2260  -4.1746  -4.1549
    -4.1356  -4.1262  -4.0539  -4.0102  -3.9775  -3.9495  -3.9089  -3.8839
    -3.8629  -3.8287  -3.7818  -3.7230  -3.7059  -3.5876  -3.4520  -3.4179
    -3.3918  -3.3358  -3.3051  -3.2543  -3.1865  -3.1038  -3.0600  -3.0034
    -2.9407  -2.9126  -2.8702  -2.8584  -2.8084  -2.7555  -2.7368  -2.6856
    -2.6446  -2.6187  -2.5887  -2.5397  -2.5015  -2.4791  -2.4342  -2.4056
    -2.3421  -2.3116  -2.2314  -2.2035  -2.1367  -2.1059  -2.0926  -2.0491
    -1.9989  -1.9344  -1.9057  -1.8746  -1.8470  -1.7783  -1.6927  -1.6376
    -1.6021  -1.5707  -1.4973  -1.4692  -1.4288  -1.4078  -1.3222  -1.2684
    -1.1865  -1.1463  -1.0356  -1.0220  -0.9535  -0.9254  -0.8921  -0.8569
    -0.8177  -0.6534  -0.4548  -0.4006  -0.2047  -0.0220   0.0087   0.0223
     1.5823   1.7885   1.9211   1.9386   1.9581   2.0336   2.0674   2.1443
     2.2417   2.2568   2.2984   2.3586   2.4079   2.4502   2.4518   2.5192
     2.5338   2.5778   2.6049   2.6449   2.6947   2.7667   2.8239   2.8293
     2.8705   2.9232   2.9449   3.0105   3.0191   3.0643   3.1417   3.1654
     3.2307   3.2626   3.2956   3.3144   3.3746   3.4004   3.4403   3.4781
     3.4960   3.5301   3.5430   3.5941   3.6365   3.6867   3.7373   3.8205
     3.9279   4.0286   4.1369   4.1464   4.2818   4.3504   4.5254   4.6333
     4.6558   4.6819   4.8481   4.8978   4.9940   5.3108   5.3663   5.4718
     5.5154   5.5751   5.6548   5.7087   5.7347   5.7509   5.8823   5.9284
     5.9800   6.0216   6.2514   6.2710   6.3055   6.3709   6.4316   6.5131
     6.5416   6.6156   6.6857   6.7298   6.8251   6.9586   7.0273   7.3376
     7.4300   7.6904   7.8111   8.0802   8.3170   8.4081   8.5239   8.9217
     9.0828   9.1630   9.3677   9.4618

          k =-0.0506 0.0560 0.0000 ( 34596 PWs)   bands (ev):

   -57.8142 -57.7967 -57.5081 -57.4621 -57.3809 -57.3609 -57.2694 -57.2518
   -57.1720 -57.1541 -57.1086 -57.0907 -56.8804 -56.8159 -56.2763 -56.2586
   -34.1649 -34.0967 -34.0824 -33.9995 -33.9697 -33.9636 -33.9535 -33.8048
   -33.7752 -33.7650 -33.7510 -33.7135 -33.7052 -33.6927 -33.6783 -33.6750
   -33.5903 -33.5782 -33.5751 -33.5367 -33.5352 -33.5156 -33.4825 -33.4631
   -33.4519 -33.4384 -33.4072 -33.3812 -33.3800 -33.3680 -33.3601 -33.3563
   -33.3401 -33.3271 -33.3037 -33.3011 -33.2664 -33.1460 -33.1340 -33.0866
   -33.0571 -33.0341 -32.6315 -32.6161 -32.6071 -32.4851 -32.4392 -32.4093
   -24.2413 -21.0022 -17.8722 -17.6270 -17.4523 -17.4305 -17.4122 -17.3398
   -17.3006 -17.2683 -17.1962 -17.1633 -17.0922 -17.0725 -17.0068 -16.9853
   -16.9830 -16.9142 -16.9042 -16.8394 -16.7999 -16.7733 -16.7065 -16.6608
   -16.5583 -16.4564 -16.4132 -16.3146 -16.3132 -16.2849 -16.2480 -16.1820
   -14.8925 -14.8562  -9.7887  -7.4912  -7.4681  -5.9942  -5.2142  -4.7825
    -4.7315  -4.7218  -4.6841  -4.6477  -4.6374  -4.6005  -4.4957  -4.4773
    -4.4525  -4.4365  -4.3451  -4.2927  -4.2758  -4.2703  -4.2282  -4.2079
    -4.1832  -4.1709  -4.1570  -4.1300  -4.0771  -4.0401  -4.0290  -3.9991
    -3.9438  -3.8842  -3.8187  -3.7833  -3.6808  -3.6517  -3.5087  -3.4826
    -3.4648  -3.3968  -3.3786  -3.2017  -3.1155  -3.0762  -3.0273  -2.9854
    -2.9538  -2.9114  -2.8905  -2.8554  -2.8104  -2.7674  -2.7122  -2.7066
    -2.6344  -2.6184  -2.5906  -2.5122  -2.4849  -2.4670  -2.4487  -2.4260
    -2.3988  -2.3564  -2.2870  -2.2741  -2.2497  -2.2240  -2.1788  -2.1626
    -2.0912  -2.0520  -2.0207  -1.9809  -1.9345  -1.8533  -1.7845  -1.7695
    -1.7014  -1.6012  -1.5275  -1.4824  -1.4483  -1.3705  -1.3344  -1.2252
    -1.1733  -1.1349  -1.0915  -1.0294  -0.9860  -0.9222  -0.9091  -0.8320
    -0.7980  -0.7835  -0.6548  -0.4642  -0.0533  -0.0162  -0.0028   0.0532
     1.7406   1.9368   1.9577   2.0195   2.0750   2.1149   2.1239   2.1783
     2.2248   2.2721   2.3877   2.4245   2.4328   2.4590   2.4775   2.5014
     2.5975   2.6117   2.6461   2.6687   2.6993   2.7256   2.7950   2.8271
     2.8938   2.9078   2.9478   2.9772   3.0262   3.0660   3.1928   3.2208
     3.2385   3.2695   3.3161   3.3295   3.3739   3.3901   3.4081   3.4701
     3.5451   3.5850   3.6116   3.6900   3.7438   3.7726   3.7824   3.7979
     3.8406   3.9730   4.0253   4.1518   4.2123   4.4548   4.6493   4.6795
     4.7516   4.7544   4.8986   5.0036   5.0754   5.1430   5.2127   5.2383
     5.3094   5.4672   5.5719   5.6373   5.7075   5.7422   5.8328   5.9735
     6.0139   6.1180   6.1675   6.2111   6.2576   6.3060   6.4683   6.4865
     6.5515   6.5932   6.6446   6.6836   6.8315   6.8563   6.9772   7.3106
     7.3301   7.7428   7.7765   8.0200   8.0955   8.1757   8.5745   8.6714
     8.8380   8.9096   9.1443   9.3641

     the Fermi energy is     0.8668 ev

!    total energy              =   -3044.95640301 Ry
     Harris-Foulkes estimate   =   -3044.95640287 Ry
     estimated scf accuracy    <       0.00000037 Ry

     The total energy is the sum of the following terms:

     one-electron contribution =  -40855.54082450 Ry
     hartree contribution      =   20500.10215512 Ry
     xc contribution           =    -557.16356959 Ry
     ewald contribution        =   17867.64604150 Ry
     smearing contrib. (-TS)   =      -0.00020552 Ry

     total magnetization       =     0.00 Bohr mag/cell
     absolute magnetization    =     0.00 Bohr mag/cell

     convergence has been achieved in   9 iterations

     Forces acting on atoms (Ry/au):


     negative rho (up, down):  1.158E-02 1.158E-02
     atom    1 type  1   force =    -0.00008339    0.00030700   -0.13599327
     atom    2 type  2   force =     0.00010490   -0.00007971    0.07517149
     atom    3 type  1   force =     0.00126746    0.00109283   -0.05986956
     atom    4 type  2   force =     0.00661149   -0.00006541    0.00968454
     atom    5 type  1   force =    -0.00131963   -0.00015842   -0.00002171
     atom    6 type  2   force =    -0.00181275   -0.00351364   -0.00896599
     atom    7 type  1   force =     0.01108044    0.00817311   -0.01608854
     atom    8 type  2   force =     0.00047393   -0.00006744    0.00064377
     atom    9 type  1   force =     0.00012899    0.00035576   -0.13606992
     atom   10 type  2   force =     0.00016637   -0.00003114    0.07511266
     atom   11 type  1   force =     0.00126484   -0.00086319   -0.05999343
     atom   12 type  2   force =     0.00604756   -0.00010530    0.00855282
     atom   13 type  1   force =     0.00013670   -0.00013662   -0.00037360
     atom   14 type  2   force =    -0.00203563    0.00296028   -0.00906038
     atom   15 type  1   force =     0.01113239   -0.00764369   -0.01725808
     atom   16 type  2   force =     0.00705249    0.00015819    0.01068316
     atom   17 type  2   force =    -0.00002519   -0.00005577    0.08000236
     atom   18 type  1   force =    -0.00006158    0.00022855    0.11909095
     atom   19 type  2   force =     0.00039103    0.00019336   -0.06812079
     atom   20 type  2   force =    -0.06269002    0.00005548   -0.03209756
     atom   21 type  2   force =     0.06273785    0.00015282   -0.03256707
     atom   22 type  1   force =    -0.00049208   -0.00012745    0.06428598
     atom   23 type  2   force =     0.00015716    0.00061608   -0.00264475
     atom   24 type  2   force =     0.00049396    0.00004295   -0.02241423
     atom   25 type  2   force =    -0.00645137   -0.00025191    0.00824057
     atom   26 type  1   force =    -0.00012385   -0.00004946    0.00248591
     atom   27 type  2   force =     0.00247709   -0.00139812   -0.00236979
     atom   28 type  2   force =    -0.00004076   -0.00000657   -0.00147949
     atom   29 type  2   force =     0.00011947   -0.00003353   -0.00053833
     atom   30 type  1   force =     0.00575928    0.00027019   -0.00069645
     atom   31 type  2   force =    -0.00211755    0.00157957    0.00116483
     atom   32 type  2   force =     0.00159311   -0.00009512    0.00186003
     atom   33 type  2   force =    -0.00000027    0.00015317    0.08006983
     atom   34 type  1   force =    -0.00007657    0.00023696    0.11910001
     atom   35 type  2   force =     0.00035570    0.00032885   -0.06807102
     atom   36 type  2   force =    -0.06268377    0.00010132   -0.03230473
     atom   37 type  2   force =     0.06285014    0.00017434   -0.03205809
     atom   38 type  1   force =    -0.00069495    0.00001550    0.06411722
     atom   39 type  2   force =     0.00019230   -0.00081683   -0.00263115
     atom   40 type  2   force =     0.00060623   -0.00227268   -0.02257779
     atom   41 type  2   force =    -0.00619914   -0.00030329    0.00764444
     atom   42 type  1   force =    -0.00009558   -0.00008501    0.00254331
     atom   43 type  2   force =     0.00259502    0.00143878   -0.00246687
     atom   44 type  2   force =     0.00035950   -0.00013025   -0.00071525
     atom   45 type  2   force =    -0.00022129   -0.00007694   -0.00094762
     atom   46 type  1   force =    -0.01908341    0.00051700   -0.00504477
     atom   47 type  2   force =    -0.00212945   -0.00143654    0.00105242
     atom   48 type  2   force =    -0.00084406    0.00066123   -0.02807623
     atom   49 type  2   force =    -0.04852482   -0.00952776    0.17960762
     atom   50 type  3   force =    -0.03164582   -0.00436264   -0.03132596
     atom   51 type  3   force =     0.06329753    0.01388107   -0.07827147

     Total force =     0.430328     Total SCF correction =     0.001110
 !ASE

     Writing output data file calc.save
 
     init_run     :     54.12s CPU     70.49s WALL (       1 calls)
     electrons    :   1884.66s CPU   2363.39s WALL (       1 calls)
     forces       :     41.02s CPU     42.22s WALL (       1 calls)

     Called by init_run:
     wfcinit      :     46.38s CPU     61.42s WALL (       1 calls)
     potinit      :      1.30s CPU      2.14s WALL (       1 calls)

     Called by electrons:
     c_bands      :   1630.95s CPU   2047.66s WALL (       9 calls)
     sum_band     :    213.51s CPU    269.77s WALL (       9 calls)
     v_of_rho     :      9.85s CPU     12.43s WALL (      10 calls)
     newd         :     33.83s CPU     37.31s WALL (      10 calls)
     mix_rho      :      0.35s CPU      0.49s WALL (       9 calls)
     vdW_energy   :      1.78s CPU      2.21s WALL (      11 calls)
     vdW_ffts     :      2.60s CPU      3.51s WALL (      22 calls)
     vdW_v        :      1.04s CPU      1.25s WALL (      11 calls)

     Called by c_bands:
     init_us_2    :      5.36s CPU      5.88s WALL (     800 calls)
     cegterg      :   1597.33s CPU   2012.57s WALL (     360 calls)

     Called by *egterg:
     h_psi        :    666.24s CPU   1011.50s WALL (    1803 calls)
     s_psi        :     84.98s CPU     89.31s WALL (    1803 calls)
     g_psi        :      4.51s CPU      4.61s WALL (    1403 calls)
     cdiaghg      :    530.66s CPU    543.26s WALL (    1763 calls)

     Called by h_psi:
     add_vuspsi   :     85.46s CPU     89.48s WALL (    1803 calls)

     General routines
     calbec       :    131.01s CPU    133.44s WALL (    2203 calls)
     fft          :      5.35s CPU      7.12s WALL (     867 calls)
     ffts         :      0.07s CPU      0.08s WALL (      38 calls)
     fftw         :    438.33s CPU    814.43s WALL (  660644 calls)
     interpolate  :      0.31s CPU      0.50s WALL (      38 calls)
     davcio       :      0.15s CPU      3.53s WALL (      40 calls)
 
     Parallel routines
     fft_scatter  :    238.91s CPU    431.72s WALL (  661549 calls)
 
     PWSCF        : 33m 0.77s CPU    41m21.66s WALL

 
   This run was terminated on:  17:13:26  10Mar2018            

=------------------------------------------------------------------------------=
   JOB DONE.
=------------------------------------------------------------------------------=
