  python dir          : /home/vossj/suncat/lib/python2.7/site-packages/espresso
  espresso dir        : /home/vossj/suncat/esdld/espresso-dynpy-beef/bin
  pseudo dir          : /home/alatimer/bin/psp/esp_psp_w_gbrvRu/
  ase-espresso py git : ffa2778-git



     Program PWSCF v.5.1rc2 (svn rev. ) starts on 27Feb2018 at  4:12:45 

     This program is part of the open-source Quantum ESPRESSO suite
     for quantum simulation of materials; please cite
         "P. Giannozzi et al., J. Phys.:Condens. Matter 21 395502 (2009);
          URL http://www.quantum-espresso.org", 
     in publications or presentations arising from this work. More details at
     http://www.quantum-espresso.org/quote

     Parallel version (MPI), running on    16 processors
     R & G space division:  proc/nbgrp/npool/nimage =      16
     Reading input from pw.inp
     Message from routine read_cards :
     DEPRECATED: no units specified in CELL_PARAMETERS card

     Current dimensions of program PWSCF are:
     Max number of different atomic species (ntypx) = 10
     Max number of k-points (npk) =  40000
     Max angular momentum in pseudopotentials (lmaxx) =  3

     **************************************************************************
     Initializing libbeef V0.1.1 with the BEEF-vdW functional.
     Citation: Wellendorff et al., PRB 85, 235149 (2012).
     **************************************************************************


     IMPORTANT: XC functional enforced from input :
     Exchange-correlation      = BEEF ( 1  4 27 13 2)
     Any further DFT definition will be discarded
     Please, verify this is what you really want


     Subspace diagonalization in iterative solution of the eigenvalue problem:
     a serial algorithm will be used

 
     Parallelization info
     --------------------
     sticks:   dense  smooth     PW     G-vecs:    dense   smooth      PW
     Min         281     112     31                68535    17318    2565
     Max         282     113     32                68545    17369    2582
     Sum        4501    1795    503              1096637   277353   41113
 
     Generating pointlists ...
     new r_m :   0.4125 (alat units)  0.7795 (a.u.) for type    1
     new r_m :   0.4125 (alat units)  0.7795 (a.u.) for type    2
     new r_m :   0.4125 (alat units)  0.7795 (a.u.) for type    3
     new r_m :   0.4125 (alat units)  0.7795 (a.u.) for type    4


     bravais-lattice index     =            0
     lattice parameter (alat)  =       1.8897  a.u.
     unit-cell volume          =    7990.9933 (a.u.)^3
     number of atoms/cell      =           54
     number of atomic types    =            4
     number of electrons       =       398.00
     number of Kohn-Sham states=          299
     kinetic-energy cutoff     =      40.4243  Ry
     charge density cutoff     =     404.2426  Ry
     convergence threshold     =      7.3E-07
     mixing beta               =       0.1000
     number of iterations used =           10  plain     mixing
     Exchange-correlation      = BEEF ( 1  4 27 13 2)
     nstep                     =           50


     celldm(1)=   1.889726  celldm(2)=   0.000000  celldm(3)=   0.000000
     celldm(4)=   0.000000  celldm(5)=   0.000000  celldm(6)=   0.000000

     crystal axes: (cart. coord. in units of alat)
               a(1) = (   6.590708   0.000000   0.000000 )  
               a(2) = (   0.000000   5.950229   0.000000 )  
               a(3) = (   0.000000   0.000000  30.195235 )  

     reciprocal axes: (cart. coord. in units 2 pi/alat)
               b(1) = (  0.151729  0.000000  0.000000 )  
               b(2) = (  0.000000  0.168061  0.000000 )  
               b(3) = (  0.000000  0.000000  0.033118 )  


     PseudoPot. # 1 for Ti read from file:
     /home/alatimer/bin/psp/esp_psp_w_gbrvRu/Ti.UPF
     MD5 check sum: 8e4df49b7f0d34bbd5052bf3f5ea0213
     Pseudo is Ultrasoft, Zval = 12.0
     Generated by new atomic code, or converted to UPF format
     Using radial grid of  851 points,  6 beta functions with: 
                l(1) =   0
                l(2) =   0
                l(3) =   1
                l(4) =   1
                l(5) =   2
                l(6) =   2
     Q(r) pseudized with  8 coefficients,  rinner =    1.000   1.000   1.000
                                                       1.000   1.000

     PseudoPot. # 2 for  O read from file:
     /home/alatimer/bin/psp/esp_psp_w_gbrvRu/O.UPF
     MD5 check sum: e057bbcf3229fb5d8c36c0c92f9568b4
     Pseudo is Ultrasoft + core correction, Zval =  6.0
     Generated using "atomic" code by A. Dal Corso  v.5.0.2 svn rev. 9415
     Using radial grid of 1095 points,  4 beta functions with: 
                l(1) =   0
                l(2) =   0
                l(3) =   1
                l(4) =   1
     Q(r) pseudized with 0 coefficients 


     PseudoPot. # 3 for  C read from file:
     /home/alatimer/bin/psp/esp_psp_w_gbrvRu/C.UPF
     MD5 check sum: ab446d787031eba755f1d5ee46644bb0
     Pseudo is Ultrasoft + core correction, Zval =  4.0
     Generated using "atomic" code by A. Dal Corso  v.5.0.2 svn rev. 9415
     Using radial grid of 1073 points,  4 beta functions with: 
                l(1) =   0
                l(2) =   0
                l(3) =   1
                l(4) =   1
     Q(r) pseudized with 0 coefficients 


     PseudoPot. # 4 for  H read from file:
     /home/alatimer/bin/psp/esp_psp_w_gbrvRu/H.UPF
     MD5 check sum: bd57da0722753ddfd9833a65b40bb853
     Pseudo is Ultrasoft, Zval =  1.0
     Generated using "atomic" code by A. Dal Corso  v.5.0.2 svn rev. 9415
     Using radial grid of  929 points,  2 beta functions with: 
                l(1) =   0
                l(2) =   0
     Q(r) pseudized with 0 coefficients 


     vdW kernel table read from file vdW_kernel_table
     MD5 check sum: 095c7af220d748ca6e76c0b4c6cfb241

     atomic species   valence    mass     pseudopotential
        Ti1           12.00    47.88000     Ti( 1.00)
        O1             6.00    15.99940      O( 1.00)
        C1             4.00    12.01100      C( 1.00)
        H1             1.00     1.00794      H( 1.00)

     Starting magnetic structure 
     atomic species   magnetization
        Ti1          0.250
        O1           0.500
        C1           0.750
        H1           0.000

     No symmetry found



   Cartesian axes

     site n.     atom                  positions (alat units)
         1           Ti1 tau(   1) = (   1.6476770   0.7437786   2.6545865  )
         2           O1  tau(   2) = (   1.6476770   2.2313359   3.9361215  )
         3           Ti1 tau(   3) = (   1.6476770   2.2313359   5.9499405  )
         4           O1  tau(   4) = (   0.3661420   0.7437786   5.9499405  )
         5           Ti1 tau(   5) = (   1.6407309   0.9134410   9.3139491  )
         6           O1  tau(   6) = (   1.6648823   2.2608486  10.4895904  )
         7           Ti1 tau(   7) = (   1.7578240   2.2899216  13.0472362  )
         8           O1  tau(   8) = (   0.4801583   0.7600008  12.7739736  )
         9           Ti1 tau(   9) = (   1.6476770   3.7188931   2.6545865  )
        10           O1  tau(  10) = (   1.6476770   5.2064503   3.9361215  )
        11           Ti1 tau(  11) = (   1.6476770   5.2064503   5.9499405  )
        12           O1  tau(  12) = (   0.3661420   3.7188931   5.9499405  )
        13           Ti1 tau(  13) = (   1.6336050   3.7786827   9.1566831  )
        14           O1  tau(  14) = (   1.6678212   5.2513959  10.5409436  )
        15           Ti1 tau(  15) = (   1.7144009   5.2558216  12.3462911  )
        16           O1  tau(  16) = (   0.4635505   3.7986228  12.7318280  )
        17           O1  tau(  17) = (   1.6476770   2.2313359   1.3730516  )
        18           Ti1 tau(  18) = (   4.9430310   2.2313359   2.6545865  )
        19           O1  tau(  19) = (   4.9430310   2.2313359   4.6684056  )
        20           O1  tau(  20) = (   6.2245660   0.7437786   2.6545865  )
        21           O1  tau(  21) = (   3.6614961   0.7437786   2.6545865  )
        22           Ti1 tau(  22) = (   4.9430310   0.7437786   5.9499405  )
        23           O1  tau(  23) = (   1.6683653   2.2752577   7.9427336  )
        24           O1  tau(  24) = (   4.9430310   2.2313359   7.2314755  )
        25           O1  tau(  25) = (   2.9292120   0.7437786   5.9499405  )
        26           Ti1 tau(  26) = (   4.9404121   2.2664794   9.4552217  )
        27           O1  tau(  27) = (   5.0099888   2.2616732  11.2946145  )
        28           O1  tau(  28) = (   6.2612001   0.7714827   9.2659748  )
        29           O1  tau(  29) = (   3.6791272   0.7744986   9.2965846  )
        30           Ti1 tau(  30) = (   5.0117873   0.7976728  12.8161605  )
        31           O1  tau(  31) = (   4.9963122   2.2836652  13.8750618  )
        32           O1  tau(  32) = (   2.9819382   0.7448324  12.7109220  )
        33           O1  tau(  33) = (   1.6476770   5.2064503   1.3730516  )
        34           Ti1 tau(  34) = (   4.9430310   5.2064503   2.6545865  )
        35           O1  tau(  35) = (   4.9430310   5.2064503   4.6684056  )
        36           O1  tau(  36) = (   6.2245660   3.7188931   2.6545865  )
        37           O1  tau(  37) = (   3.6614961   3.7188931   2.6545865  )
        38           Ti1 tau(  38) = (   4.9430310   3.7188931   5.9499405  )
        39           O1  tau(  39) = (   1.6664207   5.2035600   7.9365221  )
        40           O1  tau(  40) = (   4.9430310   5.2064503   7.2314755  )
        41           O1  tau(  41) = (   2.9292120   3.7188931   5.9499405  )
        42           Ti1 tau(  42) = (   4.9524353   5.2460635   9.4426343  )
        43           O1  tau(  43) = (   5.0107556   5.2394944  11.2927493  )
        44           O1  tau(  44) = (   6.2663940   3.7551737   9.2646230  )
        45           O1  tau(  45) = (   3.6780957   3.7542261   9.2971476  )
        46           Ti1 tau(  46) = (   5.0587989   3.7766986  12.8010349  )
        47           O1  tau(  47) = (   5.0196089   5.2502198  13.8813978  )
        48           O1  tau(  48) = (   2.9624133   3.7943242  12.7299881  )
        49           O1  tau(  49) = (   1.7427453   2.2533568  14.8370015  )
        50           C1  tau(  50) = (   2.7196098   4.2826273  16.2318421  )
        51           H1  tau(  51) = (   3.3037454   4.9255546  15.5827400  )
        52           H1  tau(  52) = (   3.3286606   3.7870117  16.9822022  )
        53           H1  tau(  53) = (   2.3125587   3.4026405  15.5729816  )
        54           H1  tau(  54) = (   1.8391288   4.7650601  16.6748379  )

     number of k points=    40  Fermi-Dirac smearing, width (Ry)=  0.0073
                       cart. coord. in units 2pi/alat
        k(    1) = (   0.0000000   0.0000000   0.0000000), wk =   0.0277778
        k(    2) = (   0.0000000   0.0280101   0.0000000), wk =   0.0555556
        k(    3) = (   0.0000000   0.0560203   0.0000000), wk =   0.0555556
        k(    4) = (   0.0000000  -0.0840304   0.0000000), wk =   0.0277778
        k(    5) = (   0.0252881   0.0000000   0.0000000), wk =   0.0555556
        k(    6) = (   0.0252881   0.0280101   0.0000000), wk =   0.0555556
        k(    7) = (   0.0252881   0.0560203   0.0000000), wk =   0.0555556
        k(    8) = (   0.0252881  -0.0840304   0.0000000), wk =   0.0555556
        k(    9) = (   0.0505763   0.0000000   0.0000000), wk =   0.0555556
        k(   10) = (   0.0505763   0.0280101   0.0000000), wk =   0.0555556
        k(   11) = (   0.0505763   0.0560203   0.0000000), wk =   0.0555556
        k(   12) = (   0.0505763  -0.0840304   0.0000000), wk =   0.0555556
        k(   13) = (  -0.0758644   0.0000000   0.0000000), wk =   0.0277778
        k(   14) = (  -0.0758644   0.0280101   0.0000000), wk =   0.0555556
        k(   15) = (  -0.0758644   0.0560203   0.0000000), wk =   0.0555556
        k(   16) = (  -0.0758644  -0.0840304   0.0000000), wk =   0.0277778
        k(   17) = (  -0.0252881   0.0280101   0.0000000), wk =   0.0555556
        k(   18) = (  -0.0252881   0.0560203   0.0000000), wk =   0.0555556
        k(   19) = (  -0.0505763   0.0280101   0.0000000), wk =   0.0555556
        k(   20) = (  -0.0505763   0.0560203   0.0000000), wk =   0.0555556
        k(   21) = (   0.0000000   0.0000000   0.0000000), wk =   0.0277778
        k(   22) = (   0.0000000   0.0280101   0.0000000), wk =   0.0555556
        k(   23) = (   0.0000000   0.0560203   0.0000000), wk =   0.0555556
        k(   24) = (   0.0000000  -0.0840304   0.0000000), wk =   0.0277778
        k(   25) = (   0.0252881   0.0000000   0.0000000), wk =   0.0555556
        k(   26) = (   0.0252881   0.0280101   0.0000000), wk =   0.0555556
        k(   27) = (   0.0252881   0.0560203   0.0000000), wk =   0.0555556
        k(   28) = (   0.0252881  -0.0840304   0.0000000), wk =   0.0555556
        k(   29) = (   0.0505763   0.0000000   0.0000000), wk =   0.0555556
        k(   30) = (   0.0505763   0.0280101   0.0000000), wk =   0.0555556
        k(   31) = (   0.0505763   0.0560203   0.0000000), wk =   0.0555556
        k(   32) = (   0.0505763  -0.0840304   0.0000000), wk =   0.0555556
        k(   33) = (  -0.0758644   0.0000000   0.0000000), wk =   0.0277778
        k(   34) = (  -0.0758644   0.0280101   0.0000000), wk =   0.0555556
        k(   35) = (  -0.0758644   0.0560203   0.0000000), wk =   0.0555556
        k(   36) = (  -0.0758644  -0.0840304   0.0000000), wk =   0.0277778
        k(   37) = (  -0.0252881   0.0280101   0.0000000), wk =   0.0555556
        k(   38) = (  -0.0252881   0.0560203   0.0000000), wk =   0.0555556
        k(   39) = (  -0.0505763   0.0280101   0.0000000), wk =   0.0555556
        k(   40) = (  -0.0505763   0.0560203   0.0000000), wk =   0.0555556

     Dense  grid:  1096637 G-vectors     FFT dimensions: (  80,  72, 375)

     Smooth grid:   277353 G-vectors     FFT dimensions: (  54,  45, 240)

     Largest allocated arrays     est. size (Mb)     dimensions
        Kohn-Sham Wavefunctions         9.95 Mb     (    2180,  299)
        NL pseudopotentials            18.89 Mb     (    2180,  568)
        Each V/rho on FFT grid          4.22 Mb     (  138240,   2)
        Each G-vector array             0.52 Mb     (   68538)
        G-vector shells                 0.25 Mb     (   33046)
     Largest temporary arrays     est. size (Mb)     dimensions
        Auxiliary wavefunctions        39.78 Mb     (    2180, 1196)
        Each subspace H/S matrix       21.83 Mb     (    1196, 1196)
        Each <psi_i|beta_j> matrix      2.59 Mb     (     568,  299)
        Arrays for rho mixing          21.09 Mb     (  138240,   10)

     Check: negative/imaginary core charge=   -0.000049    0.000000

     The initial density is read from file :
     ./calc.save/charge-density.dat


     negative rho (up, down):  1.189E-02 1.196E-02


     ************************************************************************
     *
     * You are using vdW-DF for exchange-correlation in this calculation.
     * Please cite the following three references that made this development
     * possible:
     *
     *   M. Dion, H. Rydberg, E. Schroder, D. C. Langreth, and
     *   B. I. Lundqvist, Phys. Rev. Lett. 92, 246401 (2004).
     *
     *   T. Thonhauser, V. R. Cooper, S. Li, A. Puzder, P. Hyldgaard, and
     *   D. C. Langreth, Phys. Rev. B 76, 125112 (2007).
     *
     *   G. Roman-Perez and J. M. Soler, Phys. Rev. Lett. 103, 096102 (2009).
     *
     *
     * If you are using vdW-DF2, please also cite:
     *
     *   K. Lee, E. D. Murray, L. Kong, B. I. Lundqvist, and
     *   D. C. Langreth, Phys. Rev. B 82, 081101(R) (2010).
     *
     *
     * If you are calculating the stress with vdW-DF, please also cite:
     *
     *   R. Sabatini, E. Kucukbenli, B. Kolb, T. Thonhauser, and
     *   S. de Gironcoli, J. Phys.: Condens. Matter 24, 424209 (2012).
     *
     ************************************************************************

     Carrying out vdW-DF run using the following parameters:

     Nqs =      20    Nr_points =    1024   r_max =   100.000
     q_mesh =
               0.00001000     0.04494208     0.09755937     0.15916263
               0.23128650     0.31572767     0.41458969     0.53033537
               0.66584808     0.82450364     1.01025438     1.22772762
               1.48234092     1.78043706     2.12944203     2.53805004
               3.01644009     3.57652955     4.23227104     5.00000000

     Gradients computed in reciprocal space

     ************************************************************************


     Starting wfc are  300 randomized atomic wfcs

     total cpu time spent up to now is       80.5 secs

     Self-consistent Calculation

     iteration #  1     ecut=    40.42 Ry     beta=0.10
     Davidson diagonalization with overlap
     ethr =  1.00E-05,  avg # of iterations = 14.9

     negative rho (up, down):  1.189E-02 1.195E-02
 
     Magnetic moment per site:
     atom:    1    charge:    3.1245    magn:   -0.0003    constr:    0.0000
     atom:    2    charge:    2.0898    magn:    0.0003    constr:    0.0000
     atom:    3    charge:    3.1198    magn:   -0.0000    constr:    0.0000
     atom:    4    charge:    2.0868    magn:   -0.0001    constr:    0.0000
     atom:    5    charge:    3.1161    magn:   -0.0002    constr:    0.0000
     atom:    6    charge:    2.0794    magn:    0.0021    constr:    0.0000
     atom:    7    charge:    3.1167    magn:   -0.0053    constr:    0.0000
     atom:    8    charge:    2.0792    magn:    0.0249    constr:    0.0000
     atom:    9    charge:    3.1245    magn:   -0.0003    constr:    0.0000
     atom:   10    charge:    2.0899    magn:    0.0003    constr:    0.0000
     atom:   11    charge:    3.1198    magn:   -0.0000    constr:    0.0000
     atom:   12    charge:    2.0871    magn:   -0.0000    constr:    0.0000
     atom:   13    charge:    3.1150    magn:   -0.0002    constr:    0.0000
     atom:   14    charge:    2.0939    magn:    0.0023    constr:    0.0000
     atom:   15    charge:    3.1183    magn:   -0.0008    constr:    0.0000
     atom:   16    charge:    2.0827    magn:    0.0047    constr:    0.0000
     atom:   17    charge:    2.0630    magn:    0.0018    constr:    0.0000
     atom:   18    charge:    3.1240    magn:   -0.0001    constr:    0.0000
     atom:   19    charge:    2.0876    magn:    0.0001    constr:    0.0000
     atom:   20    charge:    2.0847    magn:    0.0002    constr:    0.0000
     atom:   21    charge:    2.0847    magn:    0.0002    constr:    0.0000
     atom:   22    charge:    3.1199    magn:    0.0000    constr:    0.0000
     atom:   23    charge:    2.0908    magn:    0.0002    constr:    0.0000
     atom:   24    charge:    2.0753    magn:   -0.0002    constr:    0.0000
     atom:   25    charge:    2.0868    magn:    0.0000    constr:    0.0000
     atom:   26    charge:    3.1127    magn:   -0.0002    constr:    0.0000
     atom:   27    charge:    2.0801    magn:    0.0025    constr:    0.0000
     atom:   28    charge:    2.0838    magn:    0.0006    constr:    0.0000
     atom:   29    charge:    2.0860    magn:    0.0008    constr:    0.0000
     atom:   30    charge:    3.1171    magn:   -0.0008    constr:    0.0000
     atom:   31    charge:    2.0825    magn:    0.0006    constr:    0.0000
     atom:   32    charge:    2.0828    magn:    0.0065    constr:    0.0000
     atom:   33    charge:    2.0630    magn:    0.0018    constr:    0.0000
     atom:   34    charge:    3.1240    magn:   -0.0001    constr:    0.0000
     atom:   35    charge:    2.0876    magn:    0.0001    constr:    0.0000
     atom:   36    charge:    2.0847    magn:    0.0002    constr:    0.0000
     atom:   37    charge:    2.0847    magn:    0.0002    constr:    0.0000
     atom:   38    charge:    3.1200    magn:    0.0000    constr:    0.0000
     atom:   39    charge:    2.0839    magn:    0.0002    constr:    0.0000
     atom:   40    charge:    2.0756    magn:   -0.0003    constr:    0.0000
     atom:   41    charge:    2.0871    magn:   -0.0000    constr:    0.0000
     atom:   42    charge:    3.1151    magn:   -0.0002    constr:    0.0000
     atom:   43    charge:    2.0801    magn:    0.0030    constr:    0.0000
     atom:   44    charge:    2.0850    magn:    0.0008    constr:    0.0000
     atom:   45    charge:    2.0858    magn:    0.0004    constr:    0.0000
     atom:   46    charge:    3.1147    magn:   -0.0007    constr:    0.0000
     atom:   47    charge:    2.0805    magn:    0.0047    constr:    0.0000
     atom:   48    charge:    2.0836    magn:    0.0136    constr:    0.0000
     atom:   49    charge:    2.0516    magn:    0.2398    constr:    0.0000
     atom:   50    charge:    0.6707    magn:    0.0547    constr:    0.0000
     atom:   51    charge:    0.4219    magn:    0.0009    constr:    0.0000
     atom:   52    charge:    0.4229    magn:    0.0008    constr:    0.0000
     atom:   53    charge:    0.3674    magn:    0.0233    constr:    0.0000
     atom:   54    charge:    0.4161    magn:    0.0007    constr:    0.0000

     total cpu time spent up to now is     1028.4 secs

     total energy              =   -3021.14946650 Ry
     Harris-Foulkes estimate   =   -3021.15008888 Ry
     estimated scf accuracy    <       0.00415066 Ry

     total magnetization       =     1.07 Bohr mag/cell
     absolute magnetization    =     1.24 Bohr mag/cell

     iteration #  2     ecut=    40.42 Ry     beta=0.10
     Davidson diagonalization with overlap
     ethr =  1.04E-06,  avg # of iterations =  6.0

     negative rho (up, down):  1.189E-02 1.195E-02
 
     Magnetic moment per site:
     atom:    1    charge:    3.1244    magn:   -0.0003    constr:    0.0000
     atom:    2    charge:    2.0897    magn:    0.0003    constr:    0.0000
     atom:    3    charge:    3.1198    magn:   -0.0000    constr:    0.0000
     atom:    4    charge:    2.0867    magn:   -0.0001    constr:    0.0000
     atom:    5    charge:    3.1161    magn:   -0.0002    constr:    0.0000
     atom:    6    charge:    2.0795    magn:    0.0021    constr:    0.0000
     atom:    7    charge:    3.1167    magn:   -0.0053    constr:    0.0000
     atom:    8    charge:    2.0793    magn:    0.0249    constr:    0.0000
     atom:    9    charge:    3.1244    magn:   -0.0003    constr:    0.0000
     atom:   10    charge:    2.0898    magn:    0.0003    constr:    0.0000
     atom:   11    charge:    3.1198    magn:   -0.0000    constr:    0.0000
     atom:   12    charge:    2.0871    magn:   -0.0000    constr:    0.0000
     atom:   13    charge:    3.1150    magn:   -0.0002    constr:    0.0000
     atom:   14    charge:    2.0939    magn:    0.0023    constr:    0.0000
     atom:   15    charge:    3.1183    magn:   -0.0008    constr:    0.0000
     atom:   16    charge:    2.0828    magn:    0.0047    constr:    0.0000
     atom:   17    charge:    2.0625    magn:    0.0017    constr:    0.0000
     atom:   18    charge:    3.1240    magn:   -0.0001    constr:    0.0000
     atom:   19    charge:    2.0875    magn:    0.0001    constr:    0.0000
     atom:   20    charge:    2.0847    magn:    0.0002    constr:    0.0000
     atom:   21    charge:    2.0847    magn:    0.0002    constr:    0.0000
     atom:   22    charge:    3.1199    magn:    0.0000    constr:    0.0000
     atom:   23    charge:    2.0908    magn:    0.0002    constr:    0.0000
     atom:   24    charge:    2.0754    magn:   -0.0002    constr:    0.0000
     atom:   25    charge:    2.0868    magn:    0.0000    constr:    0.0000
     atom:   26    charge:    3.1127    magn:   -0.0002    constr:    0.0000
     atom:   27    charge:    2.0803    magn:    0.0025    constr:    0.0000
     atom:   28    charge:    2.0839    magn:    0.0006    constr:    0.0000
     atom:   29    charge:    2.0860    magn:    0.0008    constr:    0.0000
     atom:   30    charge:    3.1171    magn:   -0.0008    constr:    0.0000
     atom:   31    charge:    2.0825    magn:    0.0006    constr:    0.0000
     atom:   32    charge:    2.0829    magn:    0.0065    constr:    0.0000
     atom:   33    charge:    2.0625    magn:    0.0018    constr:    0.0000
     atom:   34    charge:    3.1240    magn:   -0.0001    constr:    0.0000
     atom:   35    charge:    2.0876    magn:    0.0001    constr:    0.0000
     atom:   36    charge:    2.0847    magn:    0.0002    constr:    0.0000
     atom:   37    charge:    2.0847    magn:    0.0002    constr:    0.0000
     atom:   38    charge:    3.1200    magn:    0.0000    constr:    0.0000
     atom:   39    charge:    2.0839    magn:    0.0002    constr:    0.0000
     atom:   40    charge:    2.0757    magn:   -0.0003    constr:    0.0000
     atom:   41    charge:    2.0871    magn:   -0.0000    constr:    0.0000
     atom:   42    charge:    3.1151    magn:   -0.0002    constr:    0.0000
     atom:   43    charge:    2.0803    magn:    0.0030    constr:    0.0000
     atom:   44    charge:    2.0851    magn:    0.0008    constr:    0.0000
     atom:   45    charge:    2.0858    magn:    0.0004    constr:    0.0000
     atom:   46    charge:    3.1147    magn:   -0.0007    constr:    0.0000
     atom:   47    charge:    2.0806    magn:    0.0046    constr:    0.0000
     atom:   48    charge:    2.0837    magn:    0.0136    constr:    0.0000
     atom:   49    charge:    2.0517    magn:    0.2398    constr:    0.0000
     atom:   50    charge:    0.6705    magn:    0.0547    constr:    0.0000
     atom:   51    charge:    0.4219    magn:    0.0009    constr:    0.0000
     atom:   52    charge:    0.4229    magn:    0.0008    constr:    0.0000
     atom:   53    charge:    0.3674    magn:    0.0233    constr:    0.0000
     atom:   54    charge:    0.4161    magn:    0.0007    constr:    0.0000

     total cpu time spent up to now is     1312.6 secs

     total energy              =   -3021.14934625 Ry
     Harris-Foulkes estimate   =   -3021.15040861 Ry
     estimated scf accuracy    <       0.02067231 Ry

     total magnetization       =     1.05 Bohr mag/cell
     absolute magnetization    =     1.22 Bohr mag/cell

     iteration #  3     ecut=    40.42 Ry     beta=0.10
     Davidson diagonalization with overlap
     ethr =  1.04E-06,  avg # of iterations =  4.1

     negative rho (up, down):  1.188E-02 1.195E-02
 
     Magnetic moment per site:
     atom:    1    charge:    3.1244    magn:   -0.0003    constr:    0.0000
     atom:    2    charge:    2.0896    magn:    0.0003    constr:    0.0000
     atom:    3    charge:    3.1198    magn:   -0.0000    constr:    0.0000
     atom:    4    charge:    2.0867    magn:   -0.0001    constr:    0.0000
     atom:    5    charge:    3.1161    magn:   -0.0002    constr:    0.0000
     atom:    6    charge:    2.0795    magn:    0.0021    constr:    0.0000
     atom:    7    charge:    3.1167    magn:   -0.0053    constr:    0.0000
     atom:    8    charge:    2.0793    magn:    0.0249    constr:    0.0000
     atom:    9    charge:    3.1244    magn:   -0.0003    constr:    0.0000
     atom:   10    charge:    2.0898    magn:    0.0003    constr:    0.0000
     atom:   11    charge:    3.1198    magn:   -0.0000    constr:    0.0000
     atom:   12    charge:    2.0870    magn:   -0.0000    constr:    0.0000
     atom:   13    charge:    3.1150    magn:   -0.0002    constr:    0.0000
     atom:   14    charge:    2.0939    magn:    0.0022    constr:    0.0000
     atom:   15    charge:    3.1184    magn:   -0.0008    constr:    0.0000
     atom:   16    charge:    2.0828    magn:    0.0047    constr:    0.0000
     atom:   17    charge:    2.0625    magn:    0.0017    constr:    0.0000
     atom:   18    charge:    3.1240    magn:   -0.0001    constr:    0.0000
     atom:   19    charge:    2.0875    magn:    0.0001    constr:    0.0000
     atom:   20    charge:    2.0847    magn:    0.0002    constr:    0.0000
     atom:   21    charge:    2.0847    magn:    0.0002    constr:    0.0000
     atom:   22    charge:    3.1199    magn:    0.0000    constr:    0.0000
     atom:   23    charge:    2.0908    magn:    0.0002    constr:    0.0000
     atom:   24    charge:    2.0753    magn:   -0.0002    constr:    0.0000
     atom:   25    charge:    2.0867    magn:    0.0000    constr:    0.0000
     atom:   26    charge:    3.1127    magn:   -0.0002    constr:    0.0000
     atom:   27    charge:    2.0803    magn:    0.0025    constr:    0.0000
     atom:   28    charge:    2.0839    magn:    0.0006    constr:    0.0000
     atom:   29    charge:    2.0860    magn:    0.0008    constr:    0.0000
     atom:   30    charge:    3.1171    magn:   -0.0008    constr:    0.0000
     atom:   31    charge:    2.0826    magn:    0.0006    constr:    0.0000
     atom:   32    charge:    2.0829    magn:    0.0065    constr:    0.0000
     atom:   33    charge:    2.0625    magn:    0.0017    constr:    0.0000
     atom:   34    charge:    3.1240    magn:   -0.0001    constr:    0.0000
     atom:   35    charge:    2.0875    magn:    0.0001    constr:    0.0000
     atom:   36    charge:    2.0847    magn:    0.0002    constr:    0.0000
     atom:   37    charge:    2.0847    magn:    0.0002    constr:    0.0000
     atom:   38    charge:    3.1200    magn:    0.0000    constr:    0.0000
     atom:   39    charge:    2.0839    magn:    0.0002    constr:    0.0000
     atom:   40    charge:    2.0756    magn:   -0.0002    constr:    0.0000
     atom:   41    charge:    2.0870    magn:   -0.0000    constr:    0.0000
     atom:   42    charge:    3.1151    magn:   -0.0002    constr:    0.0000
     atom:   43    charge:    2.0803    magn:    0.0030    constr:    0.0000
     atom:   44    charge:    2.0851    magn:    0.0008    constr:    0.0000
     atom:   45    charge:    2.0858    magn:    0.0004    constr:    0.0000
     atom:   46    charge:    3.1147    magn:   -0.0007    constr:    0.0000
     atom:   47    charge:    2.0807    magn:    0.0046    constr:    0.0000
     atom:   48    charge:    2.0837    magn:    0.0136    constr:    0.0000
     atom:   49    charge:    2.0518    magn:    0.2398    constr:    0.0000
     atom:   50    charge:    0.6697    magn:    0.0547    constr:    0.0000
     atom:   51    charge:    0.4218    magn:    0.0010    constr:    0.0000
     atom:   52    charge:    0.4232    magn:    0.0008    constr:    0.0000
     atom:   53    charge:    0.3674    magn:    0.0233    constr:    0.0000
     atom:   54    charge:    0.4162    magn:    0.0007    constr:    0.0000

     total cpu time spent up to now is     1558.7 secs

     total energy              =   -3021.14974436 Ry
     Harris-Foulkes estimate   =   -3021.14989181 Ry
     estimated scf accuracy    <       0.00106642 Ry

     total magnetization       =     1.06 Bohr mag/cell
     absolute magnetization    =     1.23 Bohr mag/cell

     iteration #  4     ecut=    40.42 Ry     beta=0.10
     Davidson diagonalization with overlap
     ethr =  2.68E-07,  avg # of iterations =  3.0

     negative rho (up, down):  1.188E-02 1.194E-02
 
     Magnetic moment per site:
     atom:    1    charge:    3.1244    magn:   -0.0003    constr:    0.0000
     atom:    2    charge:    2.0896    magn:    0.0003    constr:    0.0000
     atom:    3    charge:    3.1198    magn:   -0.0000    constr:    0.0000
     atom:    4    charge:    2.0867    magn:   -0.0001    constr:    0.0000
     atom:    5    charge:    3.1161    magn:   -0.0002    constr:    0.0000
     atom:    6    charge:    2.0795    magn:    0.0021    constr:    0.0000
     atom:    7    charge:    3.1167    magn:   -0.0053    constr:    0.0000
     atom:    8    charge:    2.0793    magn:    0.0249    constr:    0.0000
     atom:    9    charge:    3.1244    magn:   -0.0003    constr:    0.0000
     atom:   10    charge:    2.0898    magn:    0.0003    constr:    0.0000
     atom:   11    charge:    3.1198    magn:   -0.0000    constr:    0.0000
     atom:   12    charge:    2.0870    magn:   -0.0000    constr:    0.0000
     atom:   13    charge:    3.1150    magn:   -0.0002    constr:    0.0000
     atom:   14    charge:    2.0939    magn:    0.0022    constr:    0.0000
     atom:   15    charge:    3.1184    magn:   -0.0008    constr:    0.0000
     atom:   16    charge:    2.0829    magn:    0.0047    constr:    0.0000
     atom:   17    charge:    2.0623    magn:    0.0015    constr:    0.0000
     atom:   18    charge:    3.1239    magn:   -0.0001    constr:    0.0000
     atom:   19    charge:    2.0875    magn:    0.0001    constr:    0.0000
     atom:   20    charge:    2.0847    magn:    0.0001    constr:    0.0000
     atom:   21    charge:    2.0847    magn:    0.0001    constr:    0.0000
     atom:   22    charge:    3.1199    magn:    0.0000    constr:    0.0000
     atom:   23    charge:    2.0908    magn:    0.0002    constr:    0.0000
     atom:   24    charge:    2.0754    magn:   -0.0001    constr:    0.0000
     atom:   25    charge:    2.0867    magn:    0.0000    constr:    0.0000
     atom:   26    charge:    3.1127    magn:   -0.0002    constr:    0.0000
     atom:   27    charge:    2.0803    magn:    0.0025    constr:    0.0000
     atom:   28    charge:    2.0839    magn:    0.0006    constr:    0.0000
     atom:   29    charge:    2.0860    magn:    0.0008    constr:    0.0000
     atom:   30    charge:    3.1171    magn:   -0.0008    constr:    0.0000
     atom:   31    charge:    2.0826    magn:    0.0006    constr:    0.0000
     atom:   32    charge:    2.0830    magn:    0.0065    constr:    0.0000
     atom:   33    charge:    2.0623    magn:    0.0015    constr:    0.0000
     atom:   34    charge:    3.1239    magn:   -0.0001    constr:    0.0000
     atom:   35    charge:    2.0875    magn:    0.0001    constr:    0.0000
     atom:   36    charge:    2.0847    magn:    0.0001    constr:    0.0000
     atom:   37    charge:    2.0847    magn:    0.0001    constr:    0.0000
     atom:   38    charge:    3.1200    magn:    0.0000    constr:    0.0000
     atom:   39    charge:    2.0839    magn:    0.0002    constr:    0.0000
     atom:   40    charge:    2.0756    magn:   -0.0002    constr:    0.0000
     atom:   41    charge:    2.0870    magn:   -0.0000    constr:    0.0000
     atom:   42    charge:    3.1151    magn:   -0.0002    constr:    0.0000
     atom:   43    charge:    2.0803    magn:    0.0031    constr:    0.0000
     atom:   44    charge:    2.0851    magn:    0.0009    constr:    0.0000
     atom:   45    charge:    2.0858    magn:    0.0004    constr:    0.0000
     atom:   46    charge:    3.1148    magn:   -0.0007    constr:    0.0000
     atom:   47    charge:    2.0807    magn:    0.0047    constr:    0.0000
     atom:   48    charge:    2.0837    magn:    0.0136    constr:    0.0000
     atom:   49    charge:    2.0517    magn:    0.2399    constr:    0.0000
     atom:   50    charge:    0.6685    magn:    0.0546    constr:    0.0000
     atom:   51    charge:    0.4217    magn:    0.0010    constr:    0.0000
     atom:   52    charge:    0.4236    magn:    0.0008    constr:    0.0000
     atom:   53    charge:    0.3674    magn:    0.0232    constr:    0.0000
     atom:   54    charge:    0.4165    magn:    0.0006    constr:    0.0000

     total cpu time spent up to now is     1790.5 secs

     total energy              =   -3021.14965777 Ry
     Harris-Foulkes estimate   =   -3021.14977741 Ry
     estimated scf accuracy    <       0.00057924 Ry

     total magnetization       =     1.06 Bohr mag/cell
     absolute magnetization    =     1.23 Bohr mag/cell

     iteration #  5     ecut=    40.42 Ry     beta=0.10
     Davidson diagonalization with overlap
     ethr =  1.46E-07,  avg # of iterations =  3.7

     negative rho (up, down):  1.188E-02 1.194E-02
 
     Magnetic moment per site:
     atom:    1    charge:    3.1244    magn:   -0.0002    constr:    0.0000
     atom:    2    charge:    2.0897    magn:    0.0002    constr:    0.0000
     atom:    3    charge:    3.1198    magn:   -0.0000    constr:    0.0000
     atom:    4    charge:    2.0867    magn:   -0.0001    constr:    0.0000
     atom:    5    charge:    3.1161    magn:   -0.0002    constr:    0.0000
     atom:    6    charge:    2.0795    magn:    0.0021    constr:    0.0000
     atom:    7    charge:    3.1167    magn:   -0.0053    constr:    0.0000
     atom:    8    charge:    2.0792    magn:    0.0250    constr:    0.0000
     atom:    9    charge:    3.1244    magn:   -0.0002    constr:    0.0000
     atom:   10    charge:    2.0898    magn:    0.0002    constr:    0.0000
     atom:   11    charge:    3.1198    magn:   -0.0000    constr:    0.0000
     atom:   12    charge:    2.0871    magn:   -0.0000    constr:    0.0000
     atom:   13    charge:    3.1150    magn:   -0.0002    constr:    0.0000
     atom:   14    charge:    2.0939    magn:    0.0023    constr:    0.0000
     atom:   15    charge:    3.1184    magn:   -0.0008    constr:    0.0000
     atom:   16    charge:    2.0828    magn:    0.0047    constr:    0.0000
     atom:   17    charge:    2.0623    magn:    0.0014    constr:    0.0000
     atom:   18    charge:    3.1239    magn:   -0.0001    constr:    0.0000
     atom:   19    charge:    2.0876    magn:    0.0001    constr:    0.0000
     atom:   20    charge:    2.0847    magn:    0.0001    constr:    0.0000
     atom:   21    charge:    2.0847    magn:    0.0001    constr:    0.0000
     atom:   22    charge:    3.1199    magn:    0.0000    constr:    0.0000
     atom:   23    charge:    2.0908    magn:    0.0002    constr:    0.0000
     atom:   24    charge:    2.0754    magn:   -0.0001    constr:    0.0000
     atom:   25    charge:    2.0868    magn:    0.0000    constr:    0.0000
     atom:   26    charge:    3.1127    magn:   -0.0002    constr:    0.0000
     atom:   27    charge:    2.0802    magn:    0.0026    constr:    0.0000
     atom:   28    charge:    2.0839    magn:    0.0007    constr:    0.0000
     atom:   29    charge:    2.0860    magn:    0.0008    constr:    0.0000
     atom:   30    charge:    3.1171    magn:   -0.0008    constr:    0.0000
     atom:   31    charge:    2.0825    magn:    0.0006    constr:    0.0000
     atom:   32    charge:    2.0829    magn:    0.0065    constr:    0.0000
     atom:   33    charge:    2.0623    magn:    0.0014    constr:    0.0000
     atom:   34    charge:    3.1239    magn:   -0.0001    constr:    0.0000
     atom:   35    charge:    2.0876    magn:    0.0001    constr:    0.0000
     atom:   36    charge:    2.0847    magn:    0.0001    constr:    0.0000
     atom:   37    charge:    2.0847    magn:    0.0001    constr:    0.0000
     atom:   38    charge:    3.1200    magn:    0.0000    constr:    0.0000
     atom:   39    charge:    2.0839    magn:    0.0002    constr:    0.0000
     atom:   40    charge:    2.0757    magn:   -0.0002    constr:    0.0000
     atom:   41    charge:    2.0870    magn:   -0.0000    constr:    0.0000
     atom:   42    charge:    3.1151    magn:   -0.0002    constr:    0.0000
     atom:   43    charge:    2.0803    magn:    0.0031    constr:    0.0000
     atom:   44    charge:    2.0851    magn:    0.0009    constr:    0.0000
     atom:   45    charge:    2.0858    magn:    0.0005    constr:    0.0000
     atom:   46    charge:    3.1148    magn:   -0.0007    constr:    0.0000
     atom:   47    charge:    2.0806    magn:    0.0047    constr:    0.0000
     atom:   48    charge:    2.0837    magn:    0.0137    constr:    0.0000
     atom:   49    charge:    2.0516    magn:    0.2400    constr:    0.0000
     atom:   50    charge:    0.6689    magn:    0.0545    constr:    0.0000
     atom:   51    charge:    0.4216    magn:    0.0011    constr:    0.0000
     atom:   52    charge:    0.4235    magn:    0.0008    constr:    0.0000
     atom:   53    charge:    0.3675    magn:    0.0231    constr:    0.0000
     atom:   54    charge:    0.4165    magn:    0.0005    constr:    0.0000

     total cpu time spent up to now is     2037.3 secs

     total energy              =   -3021.14968481 Ry
     Harris-Foulkes estimate   =   -3021.14970065 Ry
     estimated scf accuracy    <       0.00014615 Ry

     total magnetization       =     1.06 Bohr mag/cell
     absolute magnetization    =     1.23 Bohr mag/cell

     iteration #  6     ecut=    40.42 Ry     beta=0.10
     Davidson diagonalization with overlap
     ethr =  3.67E-08,  avg # of iterations =  3.0

     negative rho (up, down):  1.188E-02 1.194E-02
 
     Magnetic moment per site:
     atom:    1    charge:    3.1244    magn:   -0.0002    constr:    0.0000
     atom:    2    charge:    2.0897    magn:    0.0002    constr:    0.0000
     atom:    3    charge:    3.1198    magn:   -0.0000    constr:    0.0000
     atom:    4    charge:    2.0867    magn:   -0.0001    constr:    0.0000
     atom:    5    charge:    3.1161    magn:   -0.0002    constr:    0.0000
     atom:    6    charge:    2.0795    magn:    0.0021    constr:    0.0000
     atom:    7    charge:    3.1167    magn:   -0.0053    constr:    0.0000
     atom:    8    charge:    2.0793    magn:    0.0250    constr:    0.0000
     atom:    9    charge:    3.1244    magn:   -0.0002    constr:    0.0000
     atom:   10    charge:    2.0898    magn:    0.0002    constr:    0.0000
     atom:   11    charge:    3.1198    magn:   -0.0000    constr:    0.0000
     atom:   12    charge:    2.0870    magn:   -0.0000    constr:    0.0000
     atom:   13    charge:    3.1150    magn:   -0.0002    constr:    0.0000
     atom:   14    charge:    2.0939    magn:    0.0023    constr:    0.0000
     atom:   15    charge:    3.1184    magn:   -0.0008    constr:    0.0000
     atom:   16    charge:    2.0828    magn:    0.0047    constr:    0.0000
     atom:   17    charge:    2.0624    magn:    0.0013    constr:    0.0000
     atom:   18    charge:    3.1239    magn:   -0.0001    constr:    0.0000
     atom:   19    charge:    2.0875    magn:    0.0000    constr:    0.0000
     atom:   20    charge:    2.0847    magn:    0.0001    constr:    0.0000
     atom:   21    charge:    2.0847    magn:    0.0001    constr:    0.0000
     atom:   22    charge:    3.1199    magn:    0.0000    constr:    0.0000
     atom:   23    charge:    2.0908    magn:    0.0002    constr:    0.0000
     atom:   24    charge:    2.0754    magn:   -0.0001    constr:    0.0000
     atom:   25    charge:    2.0867    magn:    0.0000    constr:    0.0000
     atom:   26    charge:    3.1127    magn:   -0.0002    constr:    0.0000
     atom:   27    charge:    2.0803    magn:    0.0026    constr:    0.0000
     atom:   28    charge:    2.0839    magn:    0.0007    constr:    0.0000
     atom:   29    charge:    2.0860    magn:    0.0008    constr:    0.0000
     atom:   30    charge:    3.1171    magn:   -0.0008    constr:    0.0000
     atom:   31    charge:    2.0824    magn:    0.0006    constr:    0.0000
     atom:   32    charge:    2.0829    magn:    0.0065    constr:    0.0000
     atom:   33    charge:    2.0624    magn:    0.0013    constr:    0.0000
     atom:   34    charge:    3.1239    magn:   -0.0001    constr:    0.0000
     atom:   35    charge:    2.0876    magn:    0.0000    constr:    0.0000
     atom:   36    charge:    2.0847    magn:    0.0001    constr:    0.0000
     atom:   37    charge:    2.0847    magn:    0.0001    constr:    0.0000
     atom:   38    charge:    3.1200    magn:    0.0000    constr:    0.0000
     atom:   39    charge:    2.0839    magn:    0.0002    constr:    0.0000
     atom:   40    charge:    2.0756    magn:   -0.0002    constr:    0.0000
     atom:   41    charge:    2.0870    magn:   -0.0000    constr:    0.0000
     atom:   42    charge:    3.1151    magn:   -0.0002    constr:    0.0000
     atom:   43    charge:    2.0803    magn:    0.0031    constr:    0.0000
     atom:   44    charge:    2.0851    magn:    0.0009    constr:    0.0000
     atom:   45    charge:    2.0858    magn:    0.0005    constr:    0.0000
     atom:   46    charge:    3.1148    magn:   -0.0007    constr:    0.0000
     atom:   47    charge:    2.0806    magn:    0.0047    constr:    0.0000
     atom:   48    charge:    2.0837    magn:    0.0137    constr:    0.0000
     atom:   49    charge:    2.0516    magn:    0.2401    constr:    0.0000
     atom:   50    charge:    0.6693    magn:    0.0544    constr:    0.0000
     atom:   51    charge:    0.4216    magn:    0.0011    constr:    0.0000
     atom:   52    charge:    0.4233    magn:    0.0008    constr:    0.0000
     atom:   53    charge:    0.3676    magn:    0.0230    constr:    0.0000
     atom:   54    charge:    0.4164    magn:    0.0005    constr:    0.0000

     total cpu time spent up to now is     2268.0 secs

     total energy              =   -3021.14968866 Ry
     Harris-Foulkes estimate   =   -3021.14969331 Ry
     estimated scf accuracy    <       0.00007109 Ry

     total magnetization       =     1.06 Bohr mag/cell
     absolute magnetization    =     1.23 Bohr mag/cell

     iteration #  7     ecut=    40.42 Ry     beta=0.10
     Davidson diagonalization with overlap
     ethr =  1.79E-08,  avg # of iterations =  3.0

     negative rho (up, down):  1.188E-02 1.194E-02
 
     Magnetic moment per site:
     atom:    1    charge:    3.1244    magn:   -0.0002    constr:    0.0000
     atom:    2    charge:    2.0897    magn:    0.0002    constr:    0.0000
     atom:    3    charge:    3.1198    magn:   -0.0000    constr:    0.0000
     atom:    4    charge:    2.0867    magn:   -0.0001    constr:    0.0000
     atom:    5    charge:    3.1161    magn:   -0.0003    constr:    0.0000
     atom:    6    charge:    2.0795    magn:    0.0021    constr:    0.0000
     atom:    7    charge:    3.1167    magn:   -0.0053    constr:    0.0000
     atom:    8    charge:    2.0793    magn:    0.0250    constr:    0.0000
     atom:    9    charge:    3.1244    magn:   -0.0002    constr:    0.0000
     atom:   10    charge:    2.0898    magn:    0.0002    constr:    0.0000
     atom:   11    charge:    3.1198    magn:   -0.0000    constr:    0.0000
     atom:   12    charge:    2.0870    magn:   -0.0000    constr:    0.0000
     atom:   13    charge:    3.1150    magn:   -0.0002    constr:    0.0000
     atom:   14    charge:    2.0939    magn:    0.0023    constr:    0.0000
     atom:   15    charge:    3.1184    magn:   -0.0008    constr:    0.0000
     atom:   16    charge:    2.0828    magn:    0.0047    constr:    0.0000
     atom:   17    charge:    2.0624    magn:    0.0012    constr:    0.0000
     atom:   18    charge:    3.1239    magn:   -0.0000    constr:    0.0000
     atom:   19    charge:    2.0875    magn:    0.0000    constr:    0.0000
     atom:   20    charge:    2.0847    magn:    0.0001    constr:    0.0000
     atom:   21    charge:    2.0847    magn:    0.0001    constr:    0.0000
     atom:   22    charge:    3.1199    magn:    0.0000    constr:    0.0000
     atom:   23    charge:    2.0908    magn:    0.0003    constr:    0.0000
     atom:   24    charge:    2.0754    magn:   -0.0001    constr:    0.0000
     atom:   25    charge:    2.0867    magn:    0.0000    constr:    0.0000
     atom:   26    charge:    3.1127    magn:   -0.0003    constr:    0.0000
     atom:   27    charge:    2.0803    magn:    0.0026    constr:    0.0000
     atom:   28    charge:    2.0839    magn:    0.0007    constr:    0.0000
     atom:   29    charge:    2.0860    magn:    0.0009    constr:    0.0000
     atom:   30    charge:    3.1171    magn:   -0.0008    constr:    0.0000
     atom:   31    charge:    2.0825    magn:    0.0006    constr:    0.0000
     atom:   32    charge:    2.0829    magn:    0.0065    constr:    0.0000
     atom:   33    charge:    2.0624    magn:    0.0012    constr:    0.0000
     atom:   34    charge:    3.1239    magn:   -0.0000    constr:    0.0000
     atom:   35    charge:    2.0875    magn:    0.0000    constr:    0.0000
     atom:   36    charge:    2.0847    magn:    0.0001    constr:    0.0000
     atom:   37    charge:    2.0847    magn:    0.0001    constr:    0.0000
     atom:   38    charge:    3.1200    magn:    0.0000    constr:    0.0000
     atom:   39    charge:    2.0839    magn:    0.0002    constr:    0.0000
     atom:   40    charge:    2.0756    magn:   -0.0001    constr:    0.0000
     atom:   41    charge:    2.0870    magn:   -0.0000    constr:    0.0000
     atom:   42    charge:    3.1151    magn:   -0.0002    constr:    0.0000
     atom:   43    charge:    2.0803    magn:    0.0032    constr:    0.0000
     atom:   44    charge:    2.0851    magn:    0.0009    constr:    0.0000
     atom:   45    charge:    2.0858    magn:    0.0005    constr:    0.0000
     atom:   46    charge:    3.1148    magn:   -0.0007    constr:    0.0000
     atom:   47    charge:    2.0806    magn:    0.0047    constr:    0.0000
     atom:   48    charge:    2.0837    magn:    0.0137    constr:    0.0000
     atom:   49    charge:    2.0516    magn:    0.2402    constr:    0.0000
     atom:   50    charge:    0.6695    magn:    0.0544    constr:    0.0000
     atom:   51    charge:    0.4217    magn:    0.0011    constr:    0.0000
     atom:   52    charge:    0.4232    magn:    0.0008    constr:    0.0000
     atom:   53    charge:    0.3676    magn:    0.0230    constr:    0.0000
     atom:   54    charge:    0.4164    magn:    0.0005    constr:    0.0000

     total cpu time spent up to now is     2497.7 secs

     total energy              =   -3021.14969246 Ry
     Harris-Foulkes estimate   =   -3021.14969366 Ry
     estimated scf accuracy    <       0.00002208 Ry

     total magnetization       =     1.06 Bohr mag/cell
     absolute magnetization    =     1.23 Bohr mag/cell

     iteration #  8     ecut=    40.42 Ry     beta=0.10
     Davidson diagonalization with overlap
     ethr =  5.55E-09,  avg # of iterations =  2.3

     negative rho (up, down):  1.188E-02 1.195E-02
 
     Magnetic moment per site:
     atom:    1    charge:    3.1244    magn:   -0.0002    constr:    0.0000
     atom:    2    charge:    2.0897    magn:    0.0002    constr:    0.0000
     atom:    3    charge:    3.1198    magn:   -0.0000    constr:    0.0000
     atom:    4    charge:    2.0867    magn:   -0.0001    constr:    0.0000
     atom:    5    charge:    3.1161    magn:   -0.0003    constr:    0.0000
     atom:    6    charge:    2.0795    magn:    0.0022    constr:    0.0000
     atom:    7    charge:    3.1167    magn:   -0.0053    constr:    0.0000
     atom:    8    charge:    2.0793    magn:    0.0250    constr:    0.0000
     atom:    9    charge:    3.1244    magn:   -0.0002    constr:    0.0000
     atom:   10    charge:    2.0898    magn:    0.0002    constr:    0.0000
     atom:   11    charge:    3.1198    magn:   -0.0000    constr:    0.0000
     atom:   12    charge:    2.0870    magn:   -0.0000    constr:    0.0000
     atom:   13    charge:    3.1150    magn:   -0.0002    constr:    0.0000
     atom:   14    charge:    2.0939    magn:    0.0023    constr:    0.0000
     atom:   15    charge:    3.1184    magn:   -0.0008    constr:    0.0000
     atom:   16    charge:    2.0828    magn:    0.0047    constr:    0.0000
     atom:   17    charge:    2.0625    magn:    0.0011    constr:    0.0000
     atom:   18    charge:    3.1240    magn:   -0.0000    constr:    0.0000
     atom:   19    charge:    2.0875    magn:    0.0000    constr:    0.0000
     atom:   20    charge:    2.0847    magn:    0.0001    constr:    0.0000
     atom:   21    charge:    2.0847    magn:    0.0001    constr:    0.0000
     atom:   22    charge:    3.1199    magn:    0.0000    constr:    0.0000
     atom:   23    charge:    2.0908    magn:    0.0003    constr:    0.0000
     atom:   24    charge:    2.0754    magn:   -0.0000    constr:    0.0000
     atom:   25    charge:    2.0867    magn:    0.0000    constr:    0.0000
     atom:   26    charge:    3.1127    magn:   -0.0003    constr:    0.0000
     atom:   27    charge:    2.0803    magn:    0.0027    constr:    0.0000
     atom:   28    charge:    2.0839    magn:    0.0007    constr:    0.0000
     atom:   29    charge:    2.0860    magn:    0.0009    constr:    0.0000
     atom:   30    charge:    3.1171    magn:   -0.0008    constr:    0.0000
     atom:   31    charge:    2.0825    magn:    0.0006    constr:    0.0000
     atom:   32    charge:    2.0829    magn:    0.0065    constr:    0.0000
     atom:   33    charge:    2.0624    magn:    0.0011    constr:    0.0000
     atom:   34    charge:    3.1239    magn:   -0.0000    constr:    0.0000
     atom:   35    charge:    2.0875    magn:    0.0000    constr:    0.0000
     atom:   36    charge:    2.0847    magn:    0.0001    constr:    0.0000
     atom:   37    charge:    2.0847    magn:    0.0001    constr:    0.0000
     atom:   38    charge:    3.1200    magn:    0.0000    constr:    0.0000
     atom:   39    charge:    2.0839    magn:    0.0002    constr:    0.0000
     atom:   40    charge:    2.0756    magn:   -0.0001    constr:    0.0000
     atom:   41    charge:    2.0870    magn:   -0.0000    constr:    0.0000
     atom:   42    charge:    3.1151    magn:   -0.0002    constr:    0.0000
     atom:   43    charge:    2.0803    magn:    0.0032    constr:    0.0000
     atom:   44    charge:    2.0851    magn:    0.0010    constr:    0.0000
     atom:   45    charge:    2.0858    magn:    0.0005    constr:    0.0000
     atom:   46    charge:    3.1147    magn:   -0.0007    constr:    0.0000
     atom:   47    charge:    2.0806    magn:    0.0047    constr:    0.0000
     atom:   48    charge:    2.0837    magn:    0.0137    constr:    0.0000
     atom:   49    charge:    2.0517    magn:    0.2402    constr:    0.0000
     atom:   50    charge:    0.6697    magn:    0.0545    constr:    0.0000
     atom:   51    charge:    0.4217    magn:    0.0011    constr:    0.0000
     atom:   52    charge:    0.4230    magn:    0.0008    constr:    0.0000
     atom:   53    charge:    0.3676    magn:    0.0230    constr:    0.0000
     atom:   54    charge:    0.4163    magn:    0.0005    constr:    0.0000

     total cpu time spent up to now is     2715.7 secs

     total energy              =   -3021.14969275 Ry
     Harris-Foulkes estimate   =   -3021.14969347 Ry
     estimated scf accuracy    <       0.00000555 Ry

     total magnetization       =     1.06 Bohr mag/cell
     absolute magnetization    =     1.23 Bohr mag/cell

     iteration #  9     ecut=    40.42 Ry     beta=0.10
     Davidson diagonalization with overlap
     ethr =  1.39E-09,  avg # of iterations =  3.4

     negative rho (up, down):  1.188E-02 1.195E-02
 
     Magnetic moment per site:
     atom:    1    charge:    3.1244    magn:   -0.0002    constr:    0.0000
     atom:    2    charge:    2.0897    magn:    0.0002    constr:    0.0000
     atom:    3    charge:    3.1198    magn:   -0.0000    constr:    0.0000
     atom:    4    charge:    2.0867    magn:   -0.0001    constr:    0.0000
     atom:    5    charge:    3.1161    magn:   -0.0003    constr:    0.0000
     atom:    6    charge:    2.0795    magn:    0.0022    constr:    0.0000
     atom:    7    charge:    3.1167    magn:   -0.0054    constr:    0.0000
     atom:    8    charge:    2.0793    magn:    0.0250    constr:    0.0000
     atom:    9    charge:    3.1244    magn:   -0.0002    constr:    0.0000
     atom:   10    charge:    2.0898    magn:    0.0002    constr:    0.0000
     atom:   11    charge:    3.1198    magn:   -0.0000    constr:    0.0000
     atom:   12    charge:    2.0870    magn:   -0.0000    constr:    0.0000
     atom:   13    charge:    3.1150    magn:   -0.0002    constr:    0.0000
     atom:   14    charge:    2.0939    magn:    0.0023    constr:    0.0000
     atom:   15    charge:    3.1184    magn:   -0.0008    constr:    0.0000
     atom:   16    charge:    2.0828    magn:    0.0047    constr:    0.0000
     atom:   17    charge:    2.0624    magn:    0.0010    constr:    0.0000
     atom:   18    charge:    3.1240    magn:   -0.0000    constr:    0.0000
     atom:   19    charge:    2.0875    magn:    0.0000    constr:    0.0000
     atom:   20    charge:    2.0847    magn:    0.0001    constr:    0.0000
     atom:   21    charge:    2.0847    magn:    0.0001    constr:    0.0000
     atom:   22    charge:    3.1199    magn:    0.0000    constr:    0.0000
     atom:   23    charge:    2.0908    magn:    0.0003    constr:    0.0000
     atom:   24    charge:    2.0754    magn:   -0.0000    constr:    0.0000
     atom:   25    charge:    2.0867    magn:    0.0000    constr:    0.0000
     atom:   26    charge:    3.1127    magn:   -0.0003    constr:    0.0000
     atom:   27    charge:    2.0803    magn:    0.0027    constr:    0.0000
     atom:   28    charge:    2.0839    magn:    0.0008    constr:    0.0000
     atom:   29    charge:    2.0860    magn:    0.0009    constr:    0.0000
     atom:   30    charge:    3.1171    magn:   -0.0008    constr:    0.0000
     atom:   31    charge:    2.0825    magn:    0.0006    constr:    0.0000
     atom:   32    charge:    2.0829    magn:    0.0065    constr:    0.0000
     atom:   33    charge:    2.0624    magn:    0.0010    constr:    0.0000
     atom:   34    charge:    3.1239    magn:   -0.0000    constr:    0.0000
     atom:   35    charge:    2.0875    magn:    0.0000    constr:    0.0000
     atom:   36    charge:    2.0847    magn:    0.0001    constr:    0.0000
     atom:   37    charge:    2.0847    magn:    0.0001    constr:    0.0000
     atom:   38    charge:    3.1200    magn:    0.0000    constr:    0.0000
     atom:   39    charge:    2.0839    magn:    0.0002    constr:    0.0000
     atom:   40    charge:    2.0756    magn:   -0.0001    constr:    0.0000
     atom:   41    charge:    2.0870    magn:   -0.0000    constr:    0.0000
     atom:   42    charge:    3.1151    magn:   -0.0002    constr:    0.0000
     atom:   43    charge:    2.0803    magn:    0.0032    constr:    0.0000
     atom:   44    charge:    2.0851    magn:    0.0010    constr:    0.0000
     atom:   45    charge:    2.0858    magn:    0.0005    constr:    0.0000
     atom:   46    charge:    3.1148    magn:   -0.0007    constr:    0.0000
     atom:   47    charge:    2.0807    magn:    0.0047    constr:    0.0000
     atom:   48    charge:    2.0837    magn:    0.0137    constr:    0.0000
     atom:   49    charge:    2.0517    magn:    0.2402    constr:    0.0000
     atom:   50    charge:    0.6696    magn:    0.0545    constr:    0.0000
     atom:   51    charge:    0.4217    magn:    0.0011    constr:    0.0000
     atom:   52    charge:    0.4230    magn:    0.0008    constr:    0.0000
     atom:   53    charge:    0.3675    magn:    0.0230    constr:    0.0000
     atom:   54    charge:    0.4163    magn:    0.0005    constr:    0.0000

     total cpu time spent up to now is     2960.8 secs

     total energy              =   -3021.14969326 Ry
     Harris-Foulkes estimate   =   -3021.14969339 Ry
     estimated scf accuracy    <       0.00000122 Ry

     total magnetization       =     1.06 Bohr mag/cell
     absolute magnetization    =     1.23 Bohr mag/cell

     iteration # 10     ecut=    40.42 Ry     beta=0.10
     Davidson diagonalization with overlap
     ethr =  3.06E-10,  avg # of iterations =  3.7

     negative rho (up, down):  1.188E-02 1.195E-02
 
     Magnetic moment per site:
     atom:    1    charge:    3.1244    magn:   -0.0001    constr:    0.0000
     atom:    2    charge:    2.0897    magn:    0.0001    constr:    0.0000
     atom:    3    charge:    3.1198    magn:   -0.0000    constr:    0.0000
     atom:    4    charge:    2.0867    magn:   -0.0001    constr:    0.0000
     atom:    5    charge:    3.1161    magn:   -0.0003    constr:    0.0000
     atom:    6    charge:    2.0795    magn:    0.0022    constr:    0.0000
     atom:    7    charge:    3.1167    magn:   -0.0054    constr:    0.0000
     atom:    8    charge:    2.0792    magn:    0.0251    constr:    0.0000
     atom:    9    charge:    3.1244    magn:   -0.0001    constr:    0.0000
     atom:   10    charge:    2.0898    magn:    0.0001    constr:    0.0000
     atom:   11    charge:    3.1198    magn:   -0.0000    constr:    0.0000
     atom:   12    charge:    2.0871    magn:   -0.0000    constr:    0.0000
     atom:   13    charge:    3.1150    magn:   -0.0002    constr:    0.0000
     atom:   14    charge:    2.0939    magn:    0.0023    constr:    0.0000
     atom:   15    charge:    3.1184    magn:   -0.0008    constr:    0.0000
     atom:   16    charge:    2.0828    magn:    0.0047    constr:    0.0000
     atom:   17    charge:    2.0624    magn:    0.0008    constr:    0.0000
     atom:   18    charge:    3.1239    magn:   -0.0000    constr:    0.0000
     atom:   19    charge:    2.0876    magn:    0.0000    constr:    0.0000
     atom:   20    charge:    2.0847    magn:    0.0001    constr:    0.0000
     atom:   21    charge:    2.0847    magn:    0.0001    constr:    0.0000
     atom:   22    charge:    3.1199    magn:    0.0000    constr:    0.0000
     atom:   23    charge:    2.0908    magn:    0.0003    constr:    0.0000
     atom:   24    charge:    2.0754    magn:   -0.0000    constr:    0.0000
     atom:   25    charge:    2.0867    magn:    0.0000    constr:    0.0000
     atom:   26    charge:    3.1127    magn:   -0.0003    constr:    0.0000
     atom:   27    charge:    2.0802    magn:    0.0027    constr:    0.0000
     atom:   28    charge:    2.0839    magn:    0.0008    constr:    0.0000
     atom:   29    charge:    2.0860    magn:    0.0009    constr:    0.0000
     atom:   30    charge:    3.1171    magn:   -0.0008    constr:    0.0000
     atom:   31    charge:    2.0825    magn:    0.0006    constr:    0.0000
     atom:   32    charge:    2.0829    magn:    0.0066    constr:    0.0000
     atom:   33    charge:    2.0624    magn:    0.0008    constr:    0.0000
     atom:   34    charge:    3.1239    magn:   -0.0000    constr:    0.0000
     atom:   35    charge:    2.0876    magn:    0.0000    constr:    0.0000
     atom:   36    charge:    2.0847    magn:    0.0001    constr:    0.0000
     atom:   37    charge:    2.0847    magn:    0.0001    constr:    0.0000
     atom:   38    charge:    3.1200    magn:    0.0000    constr:    0.0000
     atom:   39    charge:    2.0839    magn:    0.0002    constr:    0.0000
     atom:   40    charge:    2.0756    magn:   -0.0001    constr:    0.0000
     atom:   41    charge:    2.0870    magn:   -0.0000    constr:    0.0000
     atom:   42    charge:    3.1151    magn:   -0.0003    constr:    0.0000
     atom:   43    charge:    2.0803    magn:    0.0033    constr:    0.0000
     atom:   44    charge:    2.0851    magn:    0.0010    constr:    0.0000
     atom:   45    charge:    2.0858    magn:    0.0006    constr:    0.0000
     atom:   46    charge:    3.1148    magn:   -0.0007    constr:    0.0000
     atom:   47    charge:    2.0806    magn:    0.0047    constr:    0.0000
     atom:   48    charge:    2.0837    magn:    0.0138    constr:    0.0000
     atom:   49    charge:    2.0516    magn:    0.2402    constr:    0.0000
     atom:   50    charge:    0.6697    magn:    0.0544    constr:    0.0000
     atom:   51    charge:    0.4217    magn:    0.0011    constr:    0.0000
     atom:   52    charge:    0.4230    magn:    0.0008    constr:    0.0000
     atom:   53    charge:    0.3676    magn:    0.0230    constr:    0.0000
     atom:   54    charge:    0.4163    magn:    0.0005    constr:    0.0000

     total cpu time spent up to now is     3206.5 secs

     End of self-consistent calculation

 ------ SPIN UP ------------


          k = 0.0000 0.0000 0.0000 ( 34665 PWs)   bands (ev):

   -58.3072 -58.2722 -57.3893 -57.3836 -57.3505 -57.3129 -57.2615 -57.0927
   -57.0660 -57.0604 -57.0220 -56.9233 -56.8981 -56.8881 -56.8025 -56.7641
   -34.7524 -34.5758 -34.5470 -34.5138 -34.4188 -34.3619 -33.8843 -33.8719
   -33.7539 -33.6808 -33.6388 -33.5960 -33.5637 -33.5568 -33.5509 -33.5443
   -33.5327 -33.5179 -33.4925 -33.4910 -33.4766 -33.4748 -33.4722 -33.4532
   -33.3427 -33.3374 -33.3332 -33.3306 -33.3178 -33.2896 -33.2841 -33.2641
   -33.2438 -33.2385 -33.2381 -33.2288 -33.1995 -33.1782 -33.1430 -33.1419
   -33.1036 -33.0805 -33.0520 -33.0305 -33.0171 -32.9914 -32.9503 -32.8837
   -18.4725 -18.0398 -17.8155 -17.7149 -17.5546 -17.5329 -17.4891 -17.3873
   -17.3606 -17.2604 -17.0485 -17.0278 -17.0200 -16.9890 -16.9283 -16.8578
   -16.8386 -16.8012 -16.7434 -16.7114 -16.6926 -16.6602 -16.5960 -16.5919
   -16.4691 -16.4214 -16.4023 -16.3651 -16.3288 -16.1491 -16.0881 -15.6027
   -15.5418 -11.1588  -6.0510  -5.5000  -5.2858  -5.2059  -5.0971  -4.9952
    -4.9850  -4.9240  -4.8817  -4.7359  -4.6531  -4.6027  -4.5887  -4.5134
    -4.4322  -4.4169  -4.3556  -4.3195  -4.2364  -4.2220  -4.1997  -4.1452
    -4.0342  -4.0272  -3.9829  -3.9114  -3.8953  -3.8892  -3.8865  -3.8302
    -3.7798  -3.7552  -3.6879  -3.6349  -3.6015  -3.5773  -3.5449  -3.5309
    -3.5195  -3.4215  -3.4106  -3.3630  -3.2759  -3.2357  -3.1911  -3.0899
    -2.9247  -2.8999  -2.8540  -2.8061  -2.7488  -2.6968  -2.6751  -2.6646
    -2.6365  -2.5396  -2.4908  -2.4418  -2.3807  -2.3359  -2.2512  -2.2321
    -2.2279  -2.1630  -2.0719  -2.0441  -2.0021  -1.9623  -1.9326  -1.9017
    -1.8566  -1.7402  -1.6967  -1.6711  -1.6435  -1.6333  -1.5891  -1.5071
    -1.4236  -1.3699  -1.3556  -1.3407  -1.3171  -1.2710  -1.2270  -1.1732
    -1.1628  -1.1133  -1.1111  -1.0973  -1.0664  -0.9829  -0.8761  -0.8363
    -0.8112  -0.6960  -0.6898  -0.6269  -0.5550  -0.5137  -0.4860  -0.1894
     1.0236   1.1204   1.4153   1.6935   1.8017   1.9198   1.9671   2.0138
     2.0440   2.1312   2.2079   2.2285   2.2747   2.3935   2.4688   2.4826
     2.4897   2.5168   2.6195   2.6649   2.6697   2.6862   2.7085   2.8253
     2.8401   2.8847   2.8990   2.9519   2.9667   3.0196   3.0283   3.0498
     3.1036   3.1589   3.1972   3.1984   3.2459   3.2539   3.4096   3.4445
     3.4765   3.5188   3.5959   3.6246   3.6685   3.7126   3.8270   3.9543
     4.1022   4.1340   4.3247   4.4711   4.5926   4.7049   4.7827   4.8334
     5.0835   5.1310   5.2086   5.3519   5.3960   5.4016   5.4245   5.4312
     5.4460   5.5207   5.5529   5.6605   5.7168   5.7341   5.9044   5.9192
     5.9541   6.0734   6.0923   6.1345   6.2165   6.2938   6.4206   6.4879
     6.5409   6.5658   6.7810   6.8124   7.2136   7.9132   8.1534   8.1749
     8.3410   8.3883   8.6411   8.7140   8.7511   8.9676   9.1479   9.2440
     9.2965   9.4470   9.6212

          k = 0.0000 0.0280 0.0000 ( 34717 PWs)   bands (ev):

   -58.3049 -58.2745 -57.3876 -57.3819 -57.3529 -57.3139 -57.2611 -57.0925
   -57.0660 -57.0588 -57.0241 -56.9210 -56.8983 -56.8905 -56.8000 -56.7666
   -34.7270 -34.5738 -34.5489 -34.5076 -34.4253 -34.3890 -33.8589 -33.8465
   -33.7330 -33.6745 -33.6326 -33.5934 -33.5706 -33.5531 -33.5451 -33.5370
   -33.5320 -33.5197 -33.5165 -33.4993 -33.4916 -33.4749 -33.4666 -33.4469
   -33.3371 -33.3312 -33.3178 -33.3156 -33.3111 -33.3062 -33.2816 -33.2624
   -33.2485 -33.2403 -33.2388 -33.2282 -33.2044 -33.2014 -33.1492 -33.1360
   -33.1154 -33.0771 -33.0582 -33.0304 -33.0168 -32.9962 -32.9777 -32.9124
   -18.4142 -17.9801 -17.7655 -17.6847 -17.6093 -17.5099 -17.4402 -17.3753
   -17.3294 -17.2911 -17.0995 -17.0070 -16.9986 -16.9782 -16.9307 -16.8792
   -16.7992 -16.7768 -16.7642 -16.7391 -16.7106 -16.6853 -16.6212 -16.5695
   -16.4832 -16.4467 -16.4091 -16.3883 -16.3610 -16.1679 -16.1297 -15.6167
   -15.5673 -11.1597  -5.9656  -5.4158  -5.2065  -5.1353  -5.0271  -4.9595
    -4.9286  -4.9023  -4.8107  -4.7324  -4.6716  -4.6568  -4.5297  -4.5189
    -4.4198  -4.3799  -4.3661  -4.3263  -4.2609  -4.2162  -4.2022  -4.1806
    -4.1028  -4.0709  -4.0200  -4.0049  -3.9815  -3.9740  -3.9250  -3.8589
    -3.8175  -3.7627  -3.7568  -3.7174  -3.6642  -3.5942  -3.5581  -3.4414
    -3.4055  -3.3236  -3.3075  -3.3035  -3.2708  -3.1271  -3.1071  -2.9477
    -2.9067  -2.8853  -2.8049  -2.7514  -2.7472  -2.7242  -2.6919  -2.6545
    -2.6015  -2.5203  -2.4609  -2.4466  -2.4190  -2.2826  -2.2583  -2.2261
    -2.2153  -2.1559  -2.1476  -2.0310  -1.9867  -1.9607  -1.9285  -1.9161
    -1.8766  -1.7702  -1.7612  -1.7218  -1.6836  -1.6131  -1.5852  -1.5749
    -1.5044  -1.4629  -1.3941  -1.3809  -1.3777  -1.3608  -1.2876  -1.2745
    -1.2380  -1.1777  -1.1512  -1.0724  -0.9961  -0.9562  -0.9316  -0.8997
    -0.8792  -0.8424  -0.7323  -0.6022  -0.5757  -0.5619  -0.5420  -0.2304
     1.1563   1.1614   1.4165   1.8299   1.8741   1.8917   1.9243   2.0007
     2.0591   2.0771   2.2982   2.3063   2.3392   2.4562   2.4922   2.5127
     2.5205   2.5424   2.5473   2.5958   2.7128   2.7306   2.8007   2.8119
     2.8339   2.8984   2.9348   2.9631   2.9796   2.9925   3.0135   3.0644
     3.0847   3.1210   3.1744   3.2331   3.2455   3.3260   3.4344   3.4751
     3.5110   3.5418   3.5638   3.5869   3.6421   3.6655   3.7853   3.9064
     4.0564   4.2012   4.2810   4.5244   4.7033   4.7062   4.8128   4.9084
     5.1103   5.1716   5.2544   5.3011   5.3710   5.4104   5.4331   5.4773
     5.5052   5.5343   5.5478   5.6597   5.7031   5.7122   5.8215   5.8824
     5.9445   5.9900   6.0369   6.0495   6.1788   6.2500   6.3868   6.4322
     6.4496   6.5539   6.7254   6.8152   7.3199   7.4517   7.9976   8.0588
     8.3430   8.4967   8.5225   8.7051   8.7787   8.9888   9.1046   9.3080
     9.3679   9.4447   9.5183

          k = 0.0000 0.0560 0.0000 ( 34721 PWs)   bands (ev):

   -58.2985 -58.2809 -57.3842 -57.3768 -57.3593 -57.3162 -57.2603 -57.0921
   -57.0665 -57.0542 -57.0290 -56.9146 -56.8988 -56.8969 -56.7933 -56.7733
   -34.6571 -34.5686 -34.5541 -34.4904 -34.4621 -34.4429 -33.7891 -33.7771
   -33.6824 -33.6576 -33.6160 -33.5938 -33.5930 -33.5871 -33.5724 -33.5691
   -33.5410 -33.5320 -33.5147 -33.4963 -33.4729 -33.4682 -33.4648 -33.4127
   -33.3716 -33.3269 -33.3245 -33.3097 -33.2831 -33.2732 -33.2578 -33.2577
   -33.2565 -33.2481 -33.2450 -33.2268 -33.2192 -33.2109 -33.1665 -33.1348
   -33.1197 -33.0748 -33.0742 -33.0516 -33.0299 -33.0167 -33.0082 -32.9829
   -18.2530 -17.8154 -17.7930 -17.6357 -17.6020 -17.4121 -17.3930 -17.3747
   -17.3096 -17.2671 -17.2326 -17.0464 -16.9907 -16.9228 -16.9190 -16.9019
   -16.8436 -16.8184 -16.7299 -16.7064 -16.7010 -16.6752 -16.6251 -16.5624
   -16.5159 -16.5104 -16.4549 -16.4427 -16.4160 -16.2333 -16.2103 -15.6452
   -15.6210 -11.1615  -5.7262  -5.1829  -5.0470  -4.9904  -4.9549  -4.9214
    -4.8498  -4.8340  -4.8165  -4.7729  -4.7346  -4.5552  -4.5096  -4.4669
    -4.3952  -4.3941  -4.3525  -4.3215  -4.3070  -4.2889  -4.2511  -4.2147
    -4.2102  -4.1931  -4.1317  -4.0606  -4.0168  -3.9796  -3.9667  -3.9098
    -3.8771  -3.8169  -3.7572  -3.6559  -3.6018  -3.5439  -3.4138  -3.4063
    -3.3662  -3.2880  -3.2482  -3.1368  -3.0908  -3.0720  -3.0406  -3.0123
    -2.9689  -2.9588  -2.8280  -2.7981  -2.7411  -2.6971  -2.6518  -2.5593
    -2.4845  -2.4762  -2.4421  -2.3564  -2.3034  -2.2979  -2.2229  -2.1895
    -2.1545  -2.1404  -2.1206  -2.0880  -2.0553  -2.0114  -1.9967  -1.9707
    -1.9348  -1.8931  -1.8827  -1.8621  -1.8138  -1.7536  -1.6585  -1.6086
    -1.5963  -1.5792  -1.5137  -1.4749  -1.4525  -1.4472  -1.4327  -1.3780
    -1.2934  -1.2726  -1.2161  -1.1980  -1.0910  -1.0059  -0.9798  -0.9455
    -0.8609  -0.8375  -0.7389  -0.7171  -0.6219  -0.5835  -0.5657  -0.3338
     1.2852   1.4269   1.4996   1.7208   1.7975   1.8905   1.9611   2.0588
     2.1394   2.2751   2.2802   2.3319   2.4160   2.4852   2.5045   2.5305
     2.5715   2.6108   2.6612   2.7082   2.7517   2.7690   2.8002   2.8486
     2.8640   2.8829   2.8926   2.9624   3.0089   3.0270   3.0359   3.0627
     3.1239   3.1571   3.1805   3.2588   3.3071   3.3385   3.3853   3.4332
     3.4709   3.4866   3.5623   3.6105   3.6734   3.6853   3.7249   3.8008
     3.9233   4.1583   4.3236   4.6515   4.7418   4.8421   4.9339   5.0718
     5.0777   5.1750   5.2815   5.3328   5.4010   5.4364   5.4697   5.4987
     5.4991   5.5611   5.5808   5.6470   5.6521   5.7527   5.7711   5.8115
     5.8475   5.8666   5.8876   5.9299   6.1165   6.1573   6.2965   6.3699
     6.4231   6.4417   6.7190   6.7474   6.9992   7.2114   7.6132   7.7449
     8.2000   8.3754   8.7043   8.8210   8.8390   8.8801   9.1739   9.3438
     9.4117   9.5991   9.7067

          k = 0.0000-0.0840 0.0000 ( 34678 PWs)   bands (ev):

   -58.2904 -58.2890 -57.3826 -57.3704 -57.3661 -57.3173 -57.2600 -57.0918
   -57.0668 -57.0509 -57.0324 -56.9061 -56.9054 -56.8990 -56.7866 -56.7801
   -34.5622 -34.5612 -34.5603 -34.5597 -34.4673 -34.4661 -33.7052 -33.6921
   -33.6884 -33.6497 -33.6484 -33.6426 -33.6109 -33.5948 -33.5907 -33.5800
   -33.5395 -33.5339 -33.5142 -33.5055 -33.4699 -33.4635 -33.4017 -33.3868
   -33.3818 -33.3658 -33.3284 -33.3238 -33.3066 -33.2753 -33.2623 -33.2534
   -33.2516 -33.2511 -33.2267 -33.2241 -33.1756 -33.1513 -33.1504 -33.1426
   -33.1284 -33.1260 -33.0977 -33.0971 -33.0303 -33.0219 -33.0191 -33.0132
   -18.0280 -18.0272 -17.5955 -17.5864 -17.5126 -17.4887 -17.4884 -17.3982
   -17.2612 -17.2207 -17.1333 -17.1077 -17.0755 -17.0405 -16.8966 -16.8479
   -16.8109 -16.8106 -16.8092 -16.6778 -16.6159 -16.6125 -16.6062 -16.5822
   -16.5510 -16.5283 -16.5103 -16.4780 -16.4689 -16.2758 -16.2516 -15.6545
   -15.6545 -11.1623  -5.3866  -5.3864  -4.9183  -4.8904  -4.8894  -4.8768
    -4.8546  -4.7730  -4.7614  -4.7223  -4.6616  -4.6072  -4.5700  -4.5633
    -4.4946  -4.4722  -4.4490  -4.3947  -4.3789  -4.2687  -4.2566  -4.2487
    -4.1615  -4.1194  -4.0696  -4.0362  -3.9951  -3.9057  -3.8866  -3.8741
    -3.7823  -3.7335  -3.6773  -3.6698  -3.6516  -3.6262  -3.6088  -3.4143
    -3.3621  -3.3509  -3.1535  -3.0801  -3.0742  -3.0355  -2.9306  -2.9295
    -2.9201  -2.8526  -2.8295  -2.7943  -2.7763  -2.6963  -2.6720  -2.6468
    -2.5253  -2.5049  -2.4229  -2.4065  -2.3985  -2.3763  -2.3136  -2.2450
    -2.2299  -2.1682  -2.1218  -2.0595  -2.0086  -1.9825  -1.9783  -1.9729
    -1.9685  -1.9444  -1.8409  -1.8012  -1.7809  -1.7310  -1.6948  -1.6596
    -1.6436  -1.6126  -1.5937  -1.5200  -1.5102  -1.4679  -1.4484  -1.4256
    -1.3842  -1.3335  -1.2814  -1.1805  -1.1402  -1.1191  -1.0932  -1.0674
    -0.8408  -0.8171  -0.6198  -0.6108  -0.6057  -0.5977  -0.5487  -0.5002
     1.4814   1.4841   1.6337   1.6343   1.7133   1.7142   2.0843   2.0851
     2.1482   2.2032   2.3739   2.4085   2.4451   2.4912   2.5390   2.5466
     2.6535   2.6654   2.6748   2.6885   2.7405   2.7509   2.8085   2.8114
     2.9112   2.9464   2.9900   3.0177   3.0227   3.0256   3.0321   3.0355
     3.0428   3.2239   3.2335   3.2641   3.2965   3.3386   3.3649   3.3950
     3.4322   3.4471   3.5021   3.6242   3.6949   3.7340   3.7484   3.7906
     3.8448   4.0354   4.3760   4.7557   4.8313   4.8650   4.8657   5.0514
     5.1434   5.2230   5.3136   5.3294   5.3640   5.4070   5.4675   5.5423
     5.5637   5.5957   5.5984   5.6858   5.6985   5.7177   5.7281   5.7416
     5.7672   5.8081   5.8413   5.9421   6.0245   6.1569   6.2814   6.3854
     6.4593   6.4755   6.5880   6.6064   6.9333   6.9841   7.4546   7.6146
     8.0298   8.2396   8.7127   8.9424   9.1340   9.2008   9.3458   9.3473
     9.4368   9.6141   9.7027

          k = 0.0253 0.0000 0.0000 ( 34707 PWs)   bands (ev):

   -58.3072 -58.2722 -57.3889 -57.3840 -57.3505 -57.3129 -57.2615 -57.0927
   -57.0657 -57.0607 -57.0220 -56.9233 -56.8981 -56.8881 -56.8025 -56.7641
   -34.7527 -34.5758 -34.5470 -34.5130 -34.4189 -34.3620 -33.8845 -33.8739
   -33.7540 -33.6730 -33.6387 -33.5961 -33.5671 -33.5571 -33.5531 -33.5445
   -33.5328 -33.5212 -33.4921 -33.4911 -33.4757 -33.4727 -33.4706 -33.4534
   -33.3426 -33.3384 -33.3311 -33.3298 -33.3147 -33.2896 -33.2842 -33.2652
   -33.2492 -33.2382 -33.2379 -33.2286 -33.1996 -33.1784 -33.1419 -33.1415
   -33.1031 -33.0805 -33.0521 -33.0345 -33.0161 -32.9914 -32.9504 -32.8838
   -18.4279 -18.0019 -17.7935 -17.7877 -17.5642 -17.4602 -17.4520 -17.3866
   -17.3651 -17.3242 -17.1097 -17.0414 -17.0165 -16.9832 -16.9310 -16.8951
   -16.8608 -16.7979 -16.7676 -16.7455 -16.6416 -16.5994 -16.5901 -16.5824
   -16.4673 -16.4465 -16.4029 -16.3869 -16.3264 -16.1474 -16.0883 -15.6016
   -15.5417 -11.1587  -5.9261  -5.3935  -5.2176  -5.2024  -5.0770  -5.0274
    -4.9734  -4.9272  -4.8833  -4.7378  -4.7011  -4.5865  -4.5829  -4.5153
    -4.4876  -4.4119  -4.3307  -4.2666  -4.2611  -4.2017  -4.1964  -4.1077
    -4.0326  -3.9999  -3.9928  -3.9182  -3.9027  -3.8610  -3.8509  -3.8044
    -3.7403  -3.6998  -3.6078  -3.5950  -3.5653  -3.5566  -3.5260  -3.5025
    -3.4478  -3.4174  -3.3217  -3.3187  -3.2766  -3.2606  -3.2402  -3.1543
    -3.0154  -2.9050  -2.8411  -2.8208  -2.7744  -2.7461  -2.7030  -2.6732
    -2.6144  -2.5610  -2.5432  -2.5025  -2.4381  -2.3844  -2.3353  -2.2688
    -2.2505  -2.2014  -2.0934  -2.0483  -2.0075  -1.9590  -1.8858  -1.8533
    -1.8300  -1.8009  -1.7154  -1.6275  -1.5815  -1.5736  -1.5479  -1.5118
    -1.4803  -1.4356  -1.4316  -1.3958  -1.3368  -1.3053  -1.2945  -1.2243
    -1.1891  -1.1583  -1.1083  -1.0854  -1.0445  -1.0256  -0.9589  -0.9143
    -0.8371  -0.8301  -0.6732  -0.6463  -0.6093  -0.5915  -0.5601  -0.2489
     1.1062   1.1208   1.4144   1.7812   1.8174   1.9024   1.9289   2.0480
     2.0839   2.1158   2.2022   2.2430   2.3363   2.3818   2.4400   2.5039
     2.5262   2.5949   2.6270   2.6463   2.6766   2.7017   2.8106   2.8247
     2.8449   2.8482   2.8896   2.8987   2.9437   3.0254   3.0738   3.1323
     3.1891   3.2010   3.2142   3.2160   3.2404   3.3078   3.4054   3.4414
     3.4871   3.5426   3.5911   3.6332   3.6980   3.7625   3.7839   3.9076
     4.0507   4.1901   4.2628   4.4241   4.5799   4.6223   4.8081   4.8266
     4.9584   4.9825   5.0856   5.1697   5.3027   5.3152   5.4266   5.5285
     5.5567   5.7080   5.7408   5.9036   5.9119   5.9369   5.9616   5.9858
     6.0222   6.0317   6.0684   6.1684   6.2274   6.2593   6.4388   6.4945
     6.5415   6.6185   6.7391   6.8092   7.2599   7.6724   7.7565   8.0186
     8.2249   8.3007   8.3778   8.6893   8.7573   8.9693   9.1083   9.2026
     9.4009   9.4955   9.7800

          k = 0.0253 0.0280 0.0000 ( 34687 PWs)   bands (ev):

   -58.3049 -58.2745 -57.3872 -57.3822 -57.3529 -57.3139 -57.2611 -57.0925
   -57.0659 -57.0590 -57.0241 -56.9210 -56.8983 -56.8905 -56.8000 -56.7666
   -34.7273 -34.5738 -34.5489 -34.5068 -34.4252 -34.3890 -33.8591 -33.8485
   -33.7331 -33.6669 -33.6326 -33.5936 -33.5677 -33.5535 -33.5502 -33.5404
   -33.5325 -33.5207 -33.5190 -33.4989 -33.4916 -33.4689 -33.4669 -33.4475
   -33.3373 -33.3271 -33.3177 -33.3171 -33.3076 -33.3060 -33.2817 -33.2634
   -33.2528 -33.2397 -33.2388 -33.2297 -33.2041 -33.2014 -33.1473 -33.1360
   -33.1157 -33.0771 -33.0582 -33.0326 -33.0170 -32.9962 -32.9777 -32.9124
   -18.3705 -17.9435 -17.7759 -17.7401 -17.5235 -17.5213 -17.4137 -17.3685
   -17.3516 -17.3199 -17.1141 -17.0710 -17.0004 -16.9694 -16.9201 -16.8778
   -16.8310 -16.8057 -16.7964 -16.7339 -16.6709 -16.6671 -16.6147 -16.5504
   -16.4888 -16.4663 -16.4112 -16.4065 -16.3580 -16.1661 -16.1304 -15.6158
   -15.5673 -11.1596  -5.8412  -5.3100  -5.1445  -5.1287  -4.9938  -4.9576
    -4.9297  -4.9081  -4.8226  -4.6983  -4.6775  -4.6363  -4.5341  -4.4986
    -4.4399  -4.4021  -4.3137  -4.2948  -4.2446  -4.2089  -4.1836  -4.1560
    -4.1274  -4.0957  -4.0329  -3.9980  -3.9549  -3.9424  -3.8994  -3.8241
    -3.7913  -3.7522  -3.7249  -3.6533  -3.6166  -3.5959  -3.5260  -3.4036
    -3.3465  -3.3252  -3.3157  -3.2674  -3.2370  -3.1924  -3.1179  -3.0969
    -2.9304  -2.8950  -2.8406  -2.7802  -2.7508  -2.7117  -2.6804  -2.6405
    -2.6114  -2.5246  -2.5012  -2.4717  -2.4531  -2.3840  -2.3307  -2.3060
    -2.2293  -2.1900  -2.1301  -2.0658  -2.0160  -1.9550  -1.9382  -1.9105
    -1.8443  -1.8335  -1.7748  -1.7506  -1.6975  -1.6133  -1.5996  -1.5550
    -1.5445  -1.4893  -1.4440  -1.4120  -1.3746  -1.3586  -1.3491  -1.3134
    -1.2506  -1.2285  -1.1655  -1.1055  -1.0124  -0.9696  -0.9415  -0.9237
[...]
    -1.7308  -1.5082  -1.4660  -1.4549  -1.4368  -1.3993  -1.3198  -1.1560
    -1.1457  -1.0890  -1.0714  -1.0556  -0.9724  -0.9121  -0.8731  -0.7886
    -0.7350  -0.7281  -0.6991  -0.6717  -0.5965  -0.5749  -0.5611   0.2924
     1.6003   1.6038   1.6164   1.6217   1.9642   1.9650   2.0939   2.0949
     2.2775   2.2983   2.3115   2.3933   2.4164   2.4863   2.5729   2.6323
     2.6543   2.6989   2.7823   2.8157   2.8725   2.9244   2.9465   2.9744
     2.9891   2.9976   3.0386   3.0966   3.1109   3.2080   3.2337   3.2426
     3.2584   3.2823   3.3396   3.3858   3.3994   3.4047   3.4613   3.4722
     3.4824   3.5102   3.5248   3.5783   3.6355   3.6532   3.7754   3.8766
     3.9128   3.9228   4.1391   4.1396   4.5899   4.6186   4.6410   4.7265
     4.8816   4.8977   4.9303   5.0805   5.1596   5.1645   5.1838   5.4451
     5.6724   5.6814   5.6925   5.9251   5.9305   5.9643   6.0151   6.0179
     6.0928   6.1046   6.1741   6.2653   6.2694   6.2776   6.3818   6.4591
     6.4986   6.6051   7.0675   7.2376   7.3368   7.3963   7.5550   7.5895
     7.7186   7.7703   7.9240   8.1114   8.2882   8.3399   8.4530   8.8696
     9.0099   9.0541   9.2153

          k =-0.0253 0.0280 0.0000 ( 34687 PWs)   bands (ev):

   -58.3051 -58.2747 -57.3872 -57.3822 -57.3528 -57.3140 -57.2620 -57.0965
   -57.0671 -57.0602 -57.0253 -56.9229 -56.9218 -56.8913 -56.8036 -56.7702
   -34.7275 -34.5741 -34.5491 -34.5069 -34.4254 -34.3892 -33.8590 -33.8485
   -33.7340 -33.6669 -33.6326 -33.5937 -33.5677 -33.5536 -33.5502 -33.5411
   -33.5332 -33.5207 -33.5190 -33.4990 -33.4926 -33.4695 -33.4685 -33.4498
   -33.3381 -33.3288 -33.3213 -33.3185 -33.3124 -33.3074 -33.2831 -33.2641
   -33.2535 -33.2404 -33.2403 -33.2315 -33.2148 -33.2047 -33.1677 -33.1367
   -33.1343 -33.0804 -33.0589 -33.0402 -33.0212 -32.9995 -32.9785 -32.9151
   -18.3703 -17.9412 -17.7757 -17.7337 -17.5228 -17.5164 -17.3751 -17.3683
   -17.3449 -17.3152 -17.1116 -17.0687 -16.9840 -16.9389 -16.8729 -16.8301
   -16.7920 -16.7501 -16.7326 -16.6692 -16.6626 -16.5826 -16.5435 -16.4851
   -16.4610 -16.4052 -16.3657 -16.3478 -16.1555 -16.1209 -15.8817 -15.6120
   -15.5634 -10.7612  -5.8411  -5.3098  -5.1436  -5.1255  -4.9936  -4.9526
    -4.9137  -4.8247  -4.6983  -4.6776  -4.6364  -4.5362  -4.4982  -4.4417
    -4.4082  -4.3135  -4.2901  -4.2500  -4.2004  -4.1820  -4.1415  -4.1271
    -4.0934  -4.0471  -4.0112  -3.9919  -3.9551  -3.9133  -3.8798  -3.7995
    -3.7851  -3.7241  -3.6930  -3.6232  -3.6081  -3.5225  -3.4753  -3.3921
    -3.3442  -3.3206  -3.2940  -3.2633  -3.2245  -3.1827  -3.1127  -3.0963
    -2.9202  -2.8827  -2.8227  -2.7779  -2.7218  -2.6864  -2.6745  -2.6175
    -2.5884  -2.5092  -2.4997  -2.4427  -2.4105  -2.3585  -2.2882  -2.2657
    -2.2136  -2.1924  -2.1045  -2.0428  -1.9597  -1.9410  -1.9165  -1.8509
    -1.8396  -1.7915  -1.7458  -1.6852  -1.6361  -1.5954  -1.5626  -1.5108
    -1.4769  -1.4360  -1.4070  -1.3811  -1.3619  -1.3464  -1.3147  -1.2911
    -1.2055  -1.1248  -1.0639  -1.0110  -0.9874  -0.9540  -0.9297  -0.8851
    -0.8434  -0.8207  -0.6319  -0.6102  -0.5858  -0.5225  -0.2656   0.3158
     1.1522   1.2458   1.4298   1.8191   1.8585   1.9257   1.9621   2.0295
     2.0405   2.1897   2.3005   2.3463   2.3878   2.4308   2.4542   2.5042
     2.5244   2.5486   2.5895   2.6499   2.6979   2.7221   2.7779   2.8320
     2.8769   2.9141   2.9306   2.9738   2.9910   3.0148   3.0409   3.0937
     3.1707   3.1914   3.2337   3.2591   3.2946   3.3369   3.4300   3.4650
     3.4951   3.5585   3.6120   3.6428   3.6639   3.7443   3.8215   3.8657
     4.0127   4.2091   4.2852   4.4361   4.6250   4.7231   4.8441   4.8612
     5.0018   5.0257   5.1128   5.1984   5.2415   5.3568   5.4607   5.5486
     5.6609   5.6951   5.7152   5.8033   5.8501   5.8832   5.9094   5.9316
     5.9668   5.9898   6.0650   6.1260   6.1752   6.2827   6.3984   6.4488
     6.4622   6.5819   6.7539   6.8093   7.3783   7.4842   7.7939   7.8874
     8.0957   8.2269   8.4881   8.5324   8.7872   8.8855   9.0835   9.3081
     9.3668   9.5298   9.6139

          k =-0.0253 0.0560 0.0000 ( 34699 PWs)   bands (ev):

   -58.2987 -58.2811 -57.3840 -57.3769 -57.3592 -57.3163 -57.2612 -57.0960
   -57.0676 -57.0555 -57.0302 -56.9234 -56.9154 -56.8977 -56.7969 -56.7770
   -34.6576 -34.5688 -34.5544 -34.4899 -34.4624 -34.4428 -33.7893 -33.7793
   -33.6833 -33.6516 -33.6158 -33.5923 -33.5883 -33.5873 -33.5759 -33.5691
   -33.5427 -33.5328 -33.5194 -33.4975 -33.4845 -33.4671 -33.4565 -33.4158
   -33.3729 -33.3260 -33.3224 -33.3138 -33.2850 -33.2755 -33.2591 -33.2590
   -33.2580 -33.2488 -33.2454 -33.2321 -33.2221 -33.2164 -33.1830 -33.1634
   -33.1205 -33.0775 -33.0756 -33.0524 -33.0371 -33.0236 -33.0116 -32.9857
   -18.2125 -17.8026 -17.7809 -17.6122 -17.6008 -17.4567 -17.3942 -17.3704
   -17.2494 -17.2421 -17.2045 -17.0587 -16.9490 -16.9201 -16.8819 -16.8410
   -16.7983 -16.7445 -16.7337 -16.7184 -16.6841 -16.5985 -16.5487 -16.5319
   -16.5007 -16.4420 -16.4118 -16.4072 -16.2174 -16.2020 -15.8805 -15.6407
   -15.6171 -10.7631  -5.6059  -5.0824  -5.0248  -4.9567  -4.9244  -4.8179
    -4.7959  -4.7586  -4.6884  -4.6740  -4.5267  -4.5099  -4.4468  -4.3962
    -4.3783  -4.3700  -4.3215  -4.2777  -4.2508  -4.2408  -4.2056  -4.1740
    -4.1326  -4.1221  -4.0555  -4.0216  -3.9933  -3.9577  -3.9295  -3.8905
    -3.8306  -3.7973  -3.7016  -3.5950  -3.5431  -3.5006  -3.4558  -3.3849
    -3.3662  -3.2920  -3.1884  -3.1610  -3.1211  -3.1123  -3.0601  -3.0248
    -2.9836  -2.9275  -2.8438  -2.7941  -2.7627  -2.7053  -2.6102  -2.5904
    -2.5251  -2.5108  -2.4581  -2.3921  -2.3766  -2.3183  -2.3008  -2.2594
    -2.1890  -2.1360  -2.1218  -2.0895  -2.0493  -2.0072  -1.9859  -1.9491
    -1.9317  -1.9065  -1.8937  -1.8469  -1.7685  -1.7031  -1.6905  -1.5943
    -1.5731  -1.5448  -1.5188  -1.4854  -1.4436  -1.4137  -1.3846  -1.3255
    -1.2902  -1.2229  -1.1556  -1.0342  -1.0050  -0.9708  -0.9381  -0.8579
    -0.7636  -0.7363  -0.7054  -0.6406  -0.6097  -0.5562  -0.3628   0.2971
     1.2865   1.4685   1.5638   1.7577   1.7731   1.9115   1.9782   2.0577
     2.2648   2.2754   2.3420   2.3783   2.4148   2.4870   2.5221   2.5476
     2.5724   2.5958   2.6533   2.7056   2.7206   2.7643   2.8068   2.8566
     2.8822   2.9172   2.9614   3.0067   3.0325   3.0459   3.0558   3.1093
     3.1588   3.1986   3.2178   3.2886   3.3174   3.3459   3.3777   3.4575
     3.5092   3.5344   3.6123   3.6337   3.6682   3.7269   3.7460   3.7995
     3.8954   4.0993   4.3926   4.5006   4.7157   4.8587   4.9098   4.9609
     4.9952   5.0896   5.1868   5.2076   5.3358   5.3876   5.4336   5.5282
     5.5641   5.5992   5.6517   5.7093   5.7386   5.8035   5.8199   5.8603
     5.9270   5.9430   5.9966   6.0898   6.1326   6.2116   6.3285   6.4314
     6.4588   6.4755   6.7184   6.7688   7.0770   7.2954   7.6722   7.8291
     8.0992   8.2274   8.3224   8.4872   8.7748   8.8991   9.0043   9.1801
     9.3749   9.5549   9.6386

          k =-0.0506 0.0280 0.0000 ( 34685 PWs)   bands (ev):

   -58.3051 -58.2747 -57.3864 -57.3831 -57.3528 -57.3140 -57.2619 -57.0965
   -57.0668 -57.0605 -57.0253 -56.9229 -56.9218 -56.8913 -56.8036 -56.7702
   -34.7282 -34.5740 -34.5491 -34.5054 -34.4254 -34.3893 -33.8595 -33.8526
   -33.7343 -33.6473 -33.6324 -33.5938 -33.5729 -33.5555 -33.5542 -33.5465
   -33.5335 -33.5281 -33.5178 -33.4988 -33.4927 -33.4697 -33.4572 -33.4509
   -33.3382 -33.3220 -33.3205 -33.3183 -33.3082 -33.3070 -33.2833 -33.2661
   -33.2634 -33.2404 -33.2395 -33.2343 -33.2149 -33.2042 -33.1636 -33.1367
   -33.1346 -33.0805 -33.0590 -33.0471 -33.0196 -32.9995 -32.9785 -32.9151
   -18.2619 -17.8638 -17.8515 -17.7009 -17.5875 -17.4554 -17.4378 -17.3442
   -17.3170 -17.2505 -17.1802 -17.0862 -16.9966 -16.9515 -16.9226 -16.8951
   -16.8102 -16.7673 -16.7562 -16.6962 -16.6331 -16.5494 -16.5226 -16.4892
   -16.4610 -16.4061 -16.3897 -16.3527 -16.1520 -16.1213 -15.8824 -15.6102
   -15.5634 -10.7610  -5.5398  -5.1872  -5.1538  -5.1208  -4.9492  -4.8695
    -4.7676  -4.7096  -4.6825  -4.6522  -4.6013  -4.5872  -4.5330  -4.4073
    -4.3630  -4.3228  -4.2415  -4.2157  -4.1799  -4.1651  -4.1483  -4.0566
    -4.0323  -4.0123  -3.9748  -3.9287  -3.8862  -3.8389  -3.8137  -3.7821
    -3.7223  -3.6695  -3.6455  -3.5940  -3.5373  -3.5085  -3.4819  -3.4502
    -3.3790  -3.3672  -3.3058  -3.2653  -3.2042  -3.1503  -3.1184  -3.0582
    -3.0097  -2.9805  -2.9021  -2.8362  -2.7581  -2.6987  -2.6892  -2.6671
    -2.6168  -2.5940  -2.5814  -2.5256  -2.5169  -2.3935  -2.3413  -2.3328
    -2.2702  -2.2011  -2.1858  -2.1592  -2.0810  -2.0107  -2.0044  -1.9432
    -1.9242  -1.8943  -1.8112  -1.7223  -1.7091  -1.6848  -1.6152  -1.5865
    -1.5240  -1.4766  -1.4544  -1.3940  -1.3792  -1.3272  -1.3118  -1.2609
    -1.2443  -1.1211  -1.0581  -1.0350  -1.0110  -0.9568  -0.9248  -0.8767
    -0.8284  -0.7969  -0.7206  -0.6818  -0.6605  -0.5363  -0.3916   0.3006
     1.1391   1.3391   1.4642   1.5650   1.9329   1.9429   1.9655   2.0573
     2.1234   2.1982   2.2531   2.3289   2.4050   2.4389   2.5276   2.5451
     2.5916   2.6499   2.6866   2.7002   2.7540   2.8276   2.8505   2.8809
     2.9395   2.9455   2.9790   2.9837   2.9903   3.1012   3.1082   3.1369
     3.1846   3.2136   3.2890   3.3093   3.3547   3.3818   3.4057   3.4541
     3.4685   3.5468   3.6012   3.6662   3.7417   3.7783   3.7981   3.8997
     3.9576   4.0607   4.1084   4.4067   4.5093   4.6552   4.7469   4.8083
     4.8409   4.9130   4.9654   5.2879   5.3285   5.4114   5.5263   5.5585
     5.6397   5.7658   5.7858   5.8527   5.8981   5.9122   5.9659   6.0551
     6.0930   6.1647   6.2493   6.3336   6.3861   6.4014   6.4423   6.4892
     6.5404   6.5509   6.7107   6.9201   7.0726   7.2213   7.5497   7.6087
     7.7268   8.2210   8.4108   8.4750   8.8675   8.9366   9.0625   9.2196
     9.4271   9.6062   9.6739

          k =-0.0506 0.0560 0.0000 ( 34596 PWs)   bands (ev):

   -58.2987 -58.2811 -57.3836 -57.3773 -57.3592 -57.3163 -57.2612 -57.0960
   -57.0675 -57.0557 -57.0302 -56.9234 -56.9154 -56.8977 -56.7969 -56.7770
   -34.6582 -34.5688 -34.5543 -34.4886 -34.4626 -34.4424 -33.7895 -33.7838
   -33.6834 -33.6359 -33.6157 -33.5915 -33.5899 -33.5871 -33.5703 -33.5691
   -33.5460 -33.5331 -33.5315 -33.4978 -33.4937 -33.4672 -33.4449 -33.4174
   -33.3733 -33.3258 -33.3114 -33.3088 -33.2876 -33.2777 -33.2604 -33.2588
   -33.2577 -33.2486 -33.2449 -33.2421 -33.2228 -33.2167 -33.1824 -33.1592
   -33.1205 -33.0775 -33.0756 -33.0523 -33.0414 -33.0242 -33.0115 -32.9855
   -18.1094 -17.8204 -17.7030 -17.6150 -17.5988 -17.5590 -17.3819 -17.3705
   -17.2203 -17.2078 -17.1188 -17.0966 -16.9791 -16.9136 -16.8691 -16.8439
   -16.8251 -16.8091 -16.7632 -16.7373 -16.7224 -16.6290 -16.5983 -16.5080
   -16.4976 -16.4395 -16.4223 -16.4122 -16.2168 -16.1984 -15.8804 -15.6395
   -15.6176 -10.7628  -5.3033  -4.9934  -4.9427  -4.9347  -4.7847  -4.7770
    -4.7181  -4.6411  -4.5281  -4.5081  -4.5023  -4.4194  -4.4050  -4.3823
    -4.3627  -4.3290  -4.3108  -4.2495  -4.2018  -4.1776  -4.1677  -4.1150
    -4.1039  -4.0595  -4.0463  -3.9953  -3.9812  -3.9051  -3.8868  -3.8295
    -3.7811  -3.7153  -3.6832  -3.6133  -3.5652  -3.5293  -3.4849  -3.4353
    -3.3973  -3.3216  -3.2629  -3.2324  -3.1349  -3.1314  -3.0816  -3.0544
    -2.9969  -2.9791  -2.9594  -2.9054  -2.8021  -2.7651  -2.7506  -2.7074
    -2.6311  -2.5887  -2.5473  -2.5047  -2.4797  -2.4157  -2.3908  -2.3710
    -2.3526  -2.2913  -2.1964  -2.1737  -2.1486  -2.1301  -2.1037  -2.0493
    -2.0144  -1.9727  -1.9457  -1.8720  -1.8496  -1.7831  -1.7325  -1.6582
    -1.5675  -1.5504  -1.5398  -1.4976  -1.4443  -1.3864  -1.3542  -1.3073
    -1.2457  -1.1765  -1.0784  -1.0230  -0.9896  -0.9045  -0.8537  -0.8463
    -0.7945  -0.7078  -0.6934  -0.6722  -0.6571  -0.5543  -0.4767   0.2994
     1.3071   1.4968   1.6455   1.6672   1.8519   2.0030   2.0315   2.0667
     2.2425   2.2553   2.3595   2.3757   2.4320   2.4607   2.5473   2.5844
     2.6496   2.6948   2.7288   2.7434   2.8106   2.8417   2.8702   2.9025
     2.9332   2.9502   3.0058   3.0409   3.0716   3.1127   3.1442   3.1899
     3.1949   3.2498   3.2839   3.3239   3.3331   3.3761   3.4156   3.4663
     3.4807   3.5483   3.5774   3.6403   3.6669   3.7441   3.8038   3.8396
     3.8826   3.9593   4.1518   4.5032   4.5957   4.6153   4.7537   4.8212
     4.8878   4.9642   5.0095   5.1858   5.3011   5.3752   5.4109   5.4431
     5.5939   5.6156   5.6672   5.7162   5.8786   5.8960   5.9866   6.0055
     6.0675   6.1078   6.1695   6.2069   6.3131   6.3359   6.4115   6.4226
     6.5401   6.6142   6.7630   6.8071   7.1886   7.3575   7.5081   7.6187
     7.9312   8.0163   8.1011   8.3772   8.6048   8.7167   8.8042   9.0380
     9.1922   9.3276   9.4338

     the Fermi energy is    -0.2921 ev

!    total energy              =   -3021.14969330 Ry
     Harris-Foulkes estimate   =   -3021.14969343 Ry
     estimated scf accuracy    <       0.00000042 Ry

     The total energy is the sum of the following terms:

     one-electron contribution =  -40436.74305399 Ry
     hartree contribution      =   20289.72079504 Ry
     xc contribution           =    -553.20020661 Ry
     ewald contribution        =   17679.09258292 Ry
     smearing contrib. (-TS)   =      -0.01981065 Ry

     total magnetization       =     1.06 Bohr mag/cell
     absolute magnetization    =     1.23 Bohr mag/cell

     convergence has been achieved in  10 iterations

     Forces acting on atoms (Ry/au):


     negative rho (up, down):  1.188E-02 1.195E-02
     atom    1 type  1   force =     0.00018689   -0.00089916   -0.10469429
     atom    2 type  2   force =     0.00014463    0.00068177    0.04003395
     atom    3 type  1   force =     0.00075060   -0.00175212   -0.02053860
     atom    4 type  2   force =    -0.00326678    0.00312290   -0.00323301
     atom    5 type  1   force =     0.00034788    0.00007146    0.00033550
     atom    6 type  2   force =    -0.00012907   -0.00010078    0.00023867
     atom    7 type  1   force =    -0.00029121   -0.00001355   -0.00040266
     atom    8 type  2   force =    -0.00014765   -0.00013471   -0.00021182
     atom    9 type  1   force =    -0.00003224    0.00056611   -0.10482757
     atom   10 type  2   force =     0.00034975   -0.00021291    0.03600779
     atom   11 type  1   force =     0.00068132    0.00183653    0.00261955
     atom   12 type  2   force =    -0.00519579   -0.00266954   -0.00519634
     atom   13 type  1   force =     0.00041513    0.00008313   -0.00024109
     atom   14 type  2   force =     0.00013588   -0.00008345   -0.00004619
     atom   15 type  1   force =    -0.00011909   -0.00004280    0.00009621
     atom   16 type  2   force =    -0.00019837   -0.00000182   -0.00038265
     atom   17 type  2   force =     0.00001178   -0.00001406    0.06657766
     atom   18 type  1   force =     0.00005997    0.00003005    0.13146745
     atom   19 type  2   force =     0.00017955   -0.00052894   -0.08521204
     atom   20 type  2   force =    -0.05792633    0.00014089   -0.03608056
     atom   21 type  2   force =     0.05782064   -0.00004962   -0.03604123
     atom   22 type  1   force =    -0.00042823    0.00074917    0.08017428
     atom   23 type  2   force =     0.00019986   -0.00004914    0.00004101
     atom   24 type  2   force =     0.00064264    0.00185798   -0.03466805
     atom   25 type  2   force =     0.00414189    0.00332621   -0.00510333
     atom   26 type  1   force =     0.00040932   -0.00004706    0.00009446
     atom   27 type  2   force =    -0.00010131   -0.00012490    0.00004530
     atom   28 type  2   force =     0.00005778   -0.00019584   -0.00001386
     atom   29 type  2   force =    -0.00000060   -0.00007502    0.00007961
     atom   30 type  1   force =    -0.00023277   -0.00014251    0.00012834
     atom   31 type  2   force =     0.00010688   -0.00007660   -0.00010208
     atom   32 type  2   force =    -0.00011220   -0.00000607    0.00008038
     atom   33 type  2   force =    -0.00016520    0.00004772    0.06630962
     atom   34 type  1   force =     0.00007833   -0.00003367    0.13124706
     atom   35 type  2   force =     0.00018953   -0.00012987   -0.08482158
     atom   36 type  2   force =    -0.05782074    0.00006437   -0.03569358
     atom   37 type  2   force =     0.05799310   -0.00017620   -0.03609016
     atom   38 type  1   force =    -0.00037370   -0.00020497    0.07984507
     atom   39 type  2   force =     0.00007891   -0.00026290   -0.00008443
     atom   40 type  2   force =     0.00049037    0.00124026   -0.03527258
     atom   41 type  2   force =     0.00589074   -0.00243502   -0.00722746
     atom   42 type  1   force =     0.00024403   -0.00006992    0.00003364
     atom   43 type  2   force =    -0.00019490   -0.00009776    0.00004818
     atom   44 type  2   force =     0.00000848   -0.00015883   -0.00002459
     atom   45 type  2   force =     0.00000307   -0.00016798    0.00006368
     atom   46 type  1   force =    -0.00011014   -0.00010603    0.00007478
     atom   47 type  2   force =    -0.00010735   -0.00015790    0.00006894
     atom   48 type  2   force =    -0.00011825   -0.00002523    0.00036320
     atom   49 type  2   force =    -0.00059289   -0.00080033   -0.00040811
     atom   50 type  3   force =    -0.01117240    0.00393708    0.00980223
     atom   51 type  4   force =    -0.00223526    0.00049592    0.00014534
     atom   52 type  4   force =     0.00132803   -0.00114129   -0.00099445
     atom   53 type  4   force =    -0.00176082    0.00049137    0.00134475
     atom   54 type  4   force =     0.00988627   -0.00555444   -0.00975436

     Total force =     0.342983     Total SCF correction =     0.000981
 !ASE

     Writing output data file calc.save
 
     init_run     :     65.70s CPU     79.98s WALL (       1 calls)
     electrons    :   2752.90s CPU   3126.29s WALL (       1 calls)
     forces       :     48.43s CPU     50.86s WALL (       1 calls)

     Called by init_run:
     wfcinit      :     57.77s CPU     71.29s WALL (       1 calls)
     potinit      :      1.35s CPU      1.65s WALL (       1 calls)

     Called by electrons:
     c_bands      :   2442.69s CPU   2755.10s WALL (      10 calls)
     sum_band     :    265.90s CPU    320.91s WALL (      10 calls)
     v_of_rho     :     11.34s CPU     14.07s WALL (      11 calls)
     newd         :     36.49s CPU     40.01s WALL (      11 calls)
     mix_rho      :      0.42s CPU      0.55s WALL (      10 calls)
     vdW_energy   :      2.52s CPU      3.00s WALL (      12 calls)
     vdW_ffts     :      2.98s CPU      3.83s WALL (      24 calls)
     vdW_v        :      1.12s CPU      1.30s WALL (      12 calls)

     Called by c_bands:
     init_us_2    :      6.24s CPU      6.83s WALL (     880 calls)
     cegterg      :   2405.95s CPU   2716.28s WALL (     400 calls)

     Called by *egterg:
     h_psi        :    863.89s CPU   1085.15s WALL (    2323 calls)
     s_psi        :    153.90s CPU    160.08s WALL (    2323 calls)
     g_psi        :      4.48s CPU      4.71s WALL (    1883 calls)
     cdiaghg      :    872.16s CPU    898.24s WALL (    2283 calls)

     Called by h_psi:
     add_vuspsi   :    155.37s CPU    162.19s WALL (    2323 calls)

     General routines
     calbec       :    226.25s CPU    234.05s WALL (    2763 calls)
     fft          :      5.97s CPU      7.63s WALL (     948 calls)
     ffts         :      0.04s CPU      0.06s WALL (      42 calls)
     fftw         :    460.08s CPU    718.65s WALL (  720960 calls)
     interpolate  :      0.31s CPU      0.47s WALL (      42 calls)
     davcio       :      0.16s CPU      3.26s WALL (      40 calls)
 
     Parallel routines
     fft_scatter  :    218.32s CPU    382.93s WALL (  721950 calls)
 
     PWSCF        : 47m48.25s CPU    54m22.05s WALL

 
   This run was terminated on:   5: 7: 7  27Feb2018            

=------------------------------------------------------------------------------=
   JOB DONE.
=------------------------------------------------------------------------------=
