  python dir          : /home/vossj/suncat/lib/python2.7/site-packages/espresso
  espresso dir        : /home/vossj/suncat/esdld/espresso-dynpy-beef/bin
  pseudo dir          : /home/alatimer/bin/psp/esp_psp_w_gbrvRu/
  ase-espresso py git : ffa2778-git



     Program PWSCF v.5.1rc2 (svn rev. ) starts on 10Feb2018 at 18: 4:15 

     This program is part of the open-source Quantum ESPRESSO suite
     for quantum simulation of materials; please cite
         "P. Giannozzi et al., J. Phys.:Condens. Matter 21 395502 (2009);
          URL http://www.quantum-espresso.org", 
     in publications or presentations arising from this work. More details at
     http://www.quantum-espresso.org/quote

     Parallel version (MPI), running on    16 processors
     R & G space division:  proc/nbgrp/npool/nimage =      16
     Reading input from pw.inp
     Message from routine read_cards :
     DEPRECATED: no units specified in CELL_PARAMETERS card

     Current dimensions of program PWSCF are:
     Max number of different atomic species (ntypx) = 10
     Max number of k-points (npk) =  40000
     Max angular momentum in pseudopotentials (lmaxx) =  3

     **************************************************************************
     Initializing libbeef V0.1.1 with the BEEF-vdW functional.
     Citation: Wellendorff et al., PRB 85, 235149 (2012).
     **************************************************************************


     IMPORTANT: XC functional enforced from input :
     Exchange-correlation      = BEEF ( 1  4 27 13 2)
     Any further DFT definition will be discarded
     Please, verify this is what you really want


     Subspace diagonalization in iterative solution of the eigenvalue problem:
     a serial algorithm will be used

 
     Parallelization info
     --------------------
     sticks:   dense  smooth     PW     G-vecs:    dense   smooth      PW
     Min         281     112     31                68535    17318    2565
     Max         282     113     32                68545    17369    2582
     Sum        4501    1795    503              1096637   277353   41113
 
     Generating pointlists ...
     new r_m :   0.4125 (alat units)  0.7795 (a.u.) for type    1
     new r_m :   0.3887 (alat units)  0.7345 (a.u.) for type    2
     new r_m :   0.3887 (alat units)  0.7345 (a.u.) for type    3


     bravais-lattice index     =            0
     lattice parameter (alat)  =       1.8897  a.u.
     unit-cell volume          =    7990.9933 (a.u.)^3
     number of atoms/cell      =           50
     number of atomic types    =            3
     number of electrons       =       391.00
     number of Kohn-Sham states=          295
     kinetic-energy cutoff     =      40.4243  Ry
     charge density cutoff     =     404.2426  Ry
     convergence threshold     =      7.3E-07
     mixing beta               =       0.1000
     number of iterations used =           10  plain     mixing
     Exchange-correlation      = BEEF ( 1  4 27 13 2)
     nstep                     =           50


     celldm(1)=   1.889726  celldm(2)=   0.000000  celldm(3)=   0.000000
     celldm(4)=   0.000000  celldm(5)=   0.000000  celldm(6)=   0.000000

     crystal axes: (cart. coord. in units of alat)
               a(1) = (   6.590708   0.000000   0.000000 )  
               a(2) = (   0.000000   5.950229   0.000000 )  
               a(3) = (   0.000000   0.000000  30.195235 )  

     reciprocal axes: (cart. coord. in units 2 pi/alat)
               b(1) = (  0.151729  0.000000  0.000000 )  
               b(2) = (  0.000000  0.168061  0.000000 )  
               b(3) = (  0.000000  0.000000  0.033118 )  


     PseudoPot. # 1 for Ti read from file:
     /home/alatimer/bin/psp/esp_psp_w_gbrvRu/Ti.UPF
     MD5 check sum: 8e4df49b7f0d34bbd5052bf3f5ea0213
     Pseudo is Ultrasoft, Zval = 12.0
     Generated by new atomic code, or converted to UPF format
     Using radial grid of  851 points,  6 beta functions with: 
                l(1) =   0
                l(2) =   0
                l(3) =   1
                l(4) =   1
                l(5) =   2
                l(6) =   2
     Q(r) pseudized with  8 coefficients,  rinner =    1.000   1.000   1.000
                                                       1.000   1.000

     PseudoPot. # 2 for  O read from file:
     /home/alatimer/bin/psp/esp_psp_w_gbrvRu/O.UPF
     MD5 check sum: e057bbcf3229fb5d8c36c0c92f9568b4
     Pseudo is Ultrasoft + core correction, Zval =  6.0
     Generated using "atomic" code by A. Dal Corso  v.5.0.2 svn rev. 9415
     Using radial grid of 1095 points,  4 beta functions with: 
                l(1) =   0
                l(2) =   0
                l(3) =   1
                l(4) =   1
     Q(r) pseudized with 0 coefficients 


     PseudoPot. # 3 for  H read from file:
     /home/alatimer/bin/psp/esp_psp_w_gbrvRu/H.UPF
     MD5 check sum: bd57da0722753ddfd9833a65b40bb853
     Pseudo is Ultrasoft, Zval =  1.0
     Generated using "atomic" code by A. Dal Corso  v.5.0.2 svn rev. 9415
     Using radial grid of  929 points,  2 beta functions with: 
                l(1) =   0
                l(2) =   0
     Q(r) pseudized with 0 coefficients 


     vdW kernel table read from file vdW_kernel_table
     MD5 check sum: 095c7af220d748ca6e76c0b4c6cfb241

     atomic species   valence    mass     pseudopotential
        Ti1           12.00    47.88000     Ti( 1.00)
        O1             6.00    15.99940      O( 1.00)
        H1             1.00     1.00794      H( 1.00)

     Starting magnetic structure 
     atomic species   magnetization
        Ti1          0.250
        O1           0.500
        H1           0.000

      2 Sym. Ops. (no inversion) found ( 1 have fractional translation)



   Cartesian axes

     site n.     atom                  positions (alat units)
         1           Ti1 tau(   1) = (   1.6476770   0.7437786   2.6545865  )
         2           O1  tau(   2) = (   1.6476770   2.2313359   3.9361215  )
         3           Ti1 tau(   3) = (   1.6476770   2.2313359   5.9499405  )
         4           O1  tau(   4) = (   0.3661420   0.7437786   5.9499405  )
         5           Ti1 tau(   5) = (   1.6423058   0.7993178   9.2289010  )
         6           O1  tau(   6) = (   1.6406404   2.2313359  10.4535548  )
         7           Ti1 tau(   7) = (   1.6373334   2.2313359  13.0586656  )
         8           O1  tau(   8) = (   0.3716334   0.7231912  12.7369480  )
         9           Ti1 tau(   9) = (   1.6476770   3.7188931   2.6545865  )
        10           O1  tau(  10) = (   1.6476770   5.2064503   3.9361215  )
        11           Ti1 tau(  11) = (   1.6476770   5.2064503   5.9499405  )
        12           O1  tau(  12) = (   0.3661420   3.7188931   5.9499405  )
        13           Ti1 tau(  13) = (   1.6423059   3.6633529   9.2289023  )
        14           O1  tau(  14) = (   1.6396028   5.2064504  10.5374954  )
        15           Ti1 tau(  15) = (   1.6366369   5.2064504  12.3426698  )
        16           O1  tau(  16) = (   0.3716333   3.7394800  12.7369475  )
        17           O1  tau(  17) = (   1.6476770   2.2313359   1.3730516  )
        18           Ti1 tau(  18) = (   4.9430310   2.2313359   2.6545865  )
        19           O1  tau(  19) = (   4.9430310   2.2313359   4.6684056  )
        20           O1  tau(  20) = (   6.2245660   0.7437786   2.6545865  )
        21           O1  tau(  21) = (   3.6614961   0.7437786   2.6545865  )
        22           Ti1 tau(  22) = (   4.9430310   0.7437786   5.9499405  )
        23           O1  tau(  23) = (   1.6444126   2.2313359   7.9291264  )
        24           O1  tau(  24) = (   4.9430310   2.2313359   7.2314755  )
        25           O1  tau(  25) = (   2.9292120   0.7437786   5.9499405  )
        26           Ti1 tau(  26) = (   4.9374203   2.2313360   9.4425711  )
        27           O1  tau(  27) = (   4.9384755   2.2313359  11.2756104  )
        28           O1  tau(  28) = (   6.2333856   0.7395591   9.2701299  )
        29           O1  tau(  29) = (   3.6424277   0.7403199   9.2676498  )
        30           Ti1 tau(  30) = (   4.9388558   0.7382018  12.7898683  )
        31           O1  tau(  31) = (   4.8884434   2.2313358  13.8602379  )
        32           O1  tau(  32) = (   2.8718067   0.7224686  12.6922084  )
        33           O1  tau(  33) = (   1.6476770   5.2064503   1.3730516  )
        34           Ti1 tau(  34) = (   4.9430310   5.2064503   2.6545865  )
        35           O1  tau(  35) = (   4.9430310   5.2064503   4.6684056  )
        36           O1  tau(  36) = (   6.2245660   3.7188931   2.6545865  )
        37           O1  tau(  37) = (   3.6614961   3.7188931   2.6545865  )
        38           Ti1 tau(  38) = (   4.9430310   3.7188931   5.9499405  )
        39           O1  tau(  39) = (   1.6444418   5.2064506   7.9393866  )
        40           O1  tau(  40) = (   4.9430310   5.2064503   7.2314755  )
        41           O1  tau(  41) = (   2.9292120   3.7188931   5.9499405  )
        42           Ti1 tau(  42) = (   4.9387790   5.2064503   9.4241858  )
        43           O1  tau(  43) = (   4.9379278   5.2064504  11.2756977  )
        44           O1  tau(  44) = (   6.2333855   3.7231127   9.2701299  )
        45           O1  tau(  45) = (   3.6424278   3.7223520   9.2676499  )
        46           Ti1 tau(  46) = (   4.9388558   3.7244696  12.7898683  )
        47           O1  tau(  47) = (   4.8902929   5.2064502  13.8618696  )
        48           O1  tau(  48) = (   2.8718066   3.7402036  12.6922086  )
        49           O1  tau(  49) = (   1.7918258   2.2313358  14.8494317  )
        50           H1  tau(  50) = (   2.6007197   2.2313366  15.3328018  )

     number of k points=    32  Fermi-Dirac smearing, width (Ry)=  0.0073
                       cart. coord. in units 2pi/alat
        k(    1) = (   0.0000000   0.0000000   0.0000000), wk =   0.0277778
        k(    2) = (   0.0000000   0.0280101   0.0000000), wk =   0.0555556
        k(    3) = (   0.0000000   0.0560203   0.0000000), wk =   0.0555556
        k(    4) = (   0.0000000  -0.0840304   0.0000000), wk =   0.0277778
        k(    5) = (   0.0252881   0.0000000   0.0000000), wk =   0.0555556
        k(    6) = (   0.0252881   0.0280101   0.0000000), wk =   0.1111111
        k(    7) = (   0.0252881   0.0560203   0.0000000), wk =   0.1111111
        k(    8) = (   0.0252881  -0.0840304   0.0000000), wk =   0.0555556
        k(    9) = (   0.0505763   0.0000000   0.0000000), wk =   0.0555556
        k(   10) = (   0.0505763   0.0280101   0.0000000), wk =   0.1111111
        k(   11) = (   0.0505763   0.0560203   0.0000000), wk =   0.1111111
        k(   12) = (   0.0505763  -0.0840304   0.0000000), wk =   0.0555556
        k(   13) = (  -0.0758644   0.0000000   0.0000000), wk =   0.0277778
        k(   14) = (  -0.0758644   0.0280101   0.0000000), wk =   0.0555556
        k(   15) = (  -0.0758644   0.0560203   0.0000000), wk =   0.0555556
        k(   16) = (  -0.0758644  -0.0840304   0.0000000), wk =   0.0277778
        k(   17) = (   0.0000000   0.0000000   0.0000000), wk =   0.0277778
        k(   18) = (   0.0000000   0.0280101   0.0000000), wk =   0.0555556
        k(   19) = (   0.0000000   0.0560203   0.0000000), wk =   0.0555556
        k(   20) = (   0.0000000  -0.0840304   0.0000000), wk =   0.0277778
        k(   21) = (   0.0252881   0.0000000   0.0000000), wk =   0.0555556
        k(   22) = (   0.0252881   0.0280101   0.0000000), wk =   0.1111111
        k(   23) = (   0.0252881   0.0560203   0.0000000), wk =   0.1111111
        k(   24) = (   0.0252881  -0.0840304   0.0000000), wk =   0.0555556
        k(   25) = (   0.0505763   0.0000000   0.0000000), wk =   0.0555556
        k(   26) = (   0.0505763   0.0280101   0.0000000), wk =   0.1111111
        k(   27) = (   0.0505763   0.0560203   0.0000000), wk =   0.1111111
        k(   28) = (   0.0505763  -0.0840304   0.0000000), wk =   0.0555556
        k(   29) = (  -0.0758644   0.0000000   0.0000000), wk =   0.0277778
        k(   30) = (  -0.0758644   0.0280101   0.0000000), wk =   0.0555556
        k(   31) = (  -0.0758644   0.0560203   0.0000000), wk =   0.0555556
        k(   32) = (  -0.0758644  -0.0840304   0.0000000), wk =   0.0277778

     Dense  grid:  1096637 G-vectors     FFT dimensions: (  80,  72, 375)

     Smooth grid:   277353 G-vectors     FFT dimensions: (  54,  45, 240)

     Largest allocated arrays     est. size (Mb)     dimensions
        Kohn-Sham Wavefunctions         9.81 Mb     (    2180,  295)
        NL pseudopotentials            18.43 Mb     (    2180,  554)
        Each V/rho on FFT grid          4.22 Mb     (  138240,   2)
        Each G-vector array             0.52 Mb     (   68538)
        G-vector shells                 0.25 Mb     (   33046)
     Largest temporary arrays     est. size (Mb)     dimensions
        Auxiliary wavefunctions        39.25 Mb     (    2180, 1180)
        Each subspace H/S matrix       21.25 Mb     (    1180, 1180)
        Each <psi_i|beta_j> matrix      2.49 Mb     (     554,  295)
        Arrays for rho mixing          21.09 Mb     (  138240,   10)

     Check: negative/imaginary core charge=   -0.000049    0.000000

     The initial density is read from file :
     ./calc.save/charge-density.dat


     negative rho (up, down):  1.350E-02 1.350E-02


     ************************************************************************
     *
     * You are using vdW-DF for exchange-correlation in this calculation.
     * Please cite the following three references that made this development
     * possible:
     *
     *   M. Dion, H. Rydberg, E. Schroder, D. C. Langreth, and
     *   B. I. Lundqvist, Phys. Rev. Lett. 92, 246401 (2004).
     *
     *   T. Thonhauser, V. R. Cooper, S. Li, A. Puzder, P. Hyldgaard, and
     *   D. C. Langreth, Phys. Rev. B 76, 125112 (2007).
     *
     *   G. Roman-Perez and J. M. Soler, Phys. Rev. Lett. 103, 096102 (2009).
     *
     *
     * If you are using vdW-DF2, please also cite:
     *
     *   K. Lee, E. D. Murray, L. Kong, B. I. Lundqvist, and
     *   D. C. Langreth, Phys. Rev. B 82, 081101(R) (2010).
     *
     *
     * If you are calculating the stress with vdW-DF, please also cite:
     *
     *   R. Sabatini, E. Kucukbenli, B. Kolb, T. Thonhauser, and
     *   S. de Gironcoli, J. Phys.: Condens. Matter 24, 424209 (2012).
     *
     ************************************************************************

     Carrying out vdW-DF run using the following parameters:

     Nqs =      20    Nr_points =    1024   r_max =   100.000
     q_mesh =
               0.00001000     0.04494208     0.09755937     0.15916263
               0.23128650     0.31572767     0.41458969     0.53033537
               0.66584808     0.82450364     1.01025438     1.22772762
               1.48234092     1.78043706     2.12944203     2.53805004
               3.01644009     3.57652955     4.23227104     5.00000000

     Gradients computed in reciprocal space

     ************************************************************************


     Starting wfc are  293 randomized atomic wfcs +    2 random wfc

     total cpu time spent up to now is       57.5 secs

     Self-consistent Calculation

     iteration #  1     ecut=    40.42 Ry     beta=0.10
     Davidson diagonalization with overlap
     c_bands:  1 eigenvalues not converged
     c_bands:  1 eigenvalues not converged
     ethr =  1.00E-05,  avg # of iterations = 17.1

     negative rho (up, down):  1.350E-02 1.350E-02
 
     Magnetic moment per site:
     atom:    1    charge:    3.1244    magn:   -0.0002    constr:    0.0000
     atom:    2    charge:    1.8358    magn:    0.0002    constr:    0.0000
     atom:    3    charge:    3.1200    magn:    0.0000    constr:    0.0000
     atom:    4    charge:    1.8362    magn:   -0.0000    constr:    0.0000
     atom:    5    charge:    3.1144    magn:    0.0001    constr:    0.0000
     atom:    6    charge:    1.8294    magn:   -0.0002    constr:    0.0000
     atom:    7    charge:    3.1150    magn:    0.0000    constr:    0.0000
     atom:    8    charge:    1.8326    magn:   -0.0001    constr:    0.0000
     atom:    9    charge:    3.1244    magn:   -0.0002    constr:    0.0000
     atom:   10    charge:    1.8359    magn:    0.0002    constr:    0.0000
     atom:   11    charge:    3.1198    magn:    0.0000    constr:    0.0000
     atom:   12    charge:    1.8362    magn:   -0.0000    constr:    0.0000
     atom:   13    charge:    3.1144    magn:    0.0001    constr:    0.0000
     atom:   14    charge:    1.8423    magn:   -0.0000    constr:    0.0000
     atom:   15    charge:    3.1165    magn:    0.0000    constr:    0.0000
     atom:   16    charge:    1.8326    magn:   -0.0001    constr:    0.0000
     atom:   17    charge:    1.8106    magn:    0.0010    constr:    0.0000
     atom:   18    charge:    3.1239    magn:    0.0000    constr:    0.0000
     atom:   19    charge:    1.8314    magn:    0.0000    constr:    0.0000
     atom:   20    charge:    1.8344    magn:    0.0000    constr:    0.0000
     atom:   21    charge:    1.8344    magn:    0.0000    constr:    0.0000
     atom:   22    charge:    3.1199    magn:    0.0000    constr:    0.0000
     atom:   23    charge:    1.8399    magn:   -0.0001    constr:    0.0000
     atom:   24    charge:    1.8258    magn:   -0.0002    constr:    0.0000
     atom:   25    charge:    1.8361    magn:   -0.0000    constr:    0.0000
     atom:   26    charge:    3.1143    magn:    0.0001    constr:    0.0000
     atom:   27    charge:    1.8290    magn:   -0.0002    constr:    0.0000
     atom:   28    charge:    1.8338    magn:   -0.0002    constr:    0.0000
     atom:   29    charge:    1.8331    magn:   -0.0002    constr:    0.0000
     atom:   30    charge:    3.1193    magn:    0.0000    constr:    0.0000
     atom:   31    charge:    1.8322    magn:   -0.0000    constr:    0.0000
     atom:   32    charge:    1.8345    magn:   -0.0001    constr:    0.0000
     atom:   33    charge:    1.8106    magn:    0.0010    constr:    0.0000
     atom:   34    charge:    3.1239    magn:    0.0000    constr:    0.0000
     atom:   35    charge:    1.8314    magn:    0.0000    constr:    0.0000
     atom:   36    charge:    1.8344    magn:    0.0000    constr:    0.0000
     atom:   37    charge:    1.8344    magn:    0.0000    constr:    0.0000
     atom:   38    charge:    3.1199    magn:    0.0000    constr:    0.0000
     atom:   39    charge:    1.8329    magn:   -0.0001    constr:    0.0000
     atom:   40    charge:    1.8262    magn:   -0.0002    constr:    0.0000
     atom:   41    charge:    1.8361    magn:   -0.0000    constr:    0.0000
     atom:   42    charge:    3.1217    magn:    0.0001    constr:    0.0000
     atom:   43    charge:    1.8288    magn:   -0.0002    constr:    0.0000
     atom:   44    charge:    1.8338    magn:   -0.0002    constr:    0.0000
     atom:   45    charge:    1.8331    magn:   -0.0002    constr:    0.0000
     atom:   46    charge:    3.1193    magn:    0.0000    constr:    0.0000
     atom:   47    charge:    1.8318    magn:   -0.0001    constr:    0.0000
     atom:   48    charge:    1.8345    magn:   -0.0001    constr:    0.0000
     atom:   49    charge:    1.8378    magn:    0.0000    constr:    0.0000
     atom:   50    charge:    0.3756    magn:   -0.0000    constr:    0.0000

     total cpu time spent up to now is      806.9 secs

     total energy              =   -3005.55771848 Ry
     Harris-Foulkes estimate   =   -3005.57204017 Ry
     estimated scf accuracy    <       0.09444012 Ry

     total magnetization       =     0.00 Bohr mag/cell
     absolute magnetization    =     0.01 Bohr mag/cell

     iteration #  2     ecut=    40.42 Ry     beta=0.10
     Davidson diagonalization with overlap
     ethr =  2.42E-05,  avg # of iterations =  2.0

     negative rho (up, down):  1.351E-02 1.351E-02
 
     Magnetic moment per site:
     atom:    1    charge:    3.1244    magn:   -0.0002    constr:    0.0000
     atom:    2    charge:    1.8356    magn:    0.0002    constr:    0.0000
     atom:    3    charge:    3.1200    magn:    0.0000    constr:    0.0000
     atom:    4    charge:    1.8362    magn:   -0.0000    constr:    0.0000
     atom:    5    charge:    3.1144    magn:    0.0001    constr:    0.0000
     atom:    6    charge:    1.8297    magn:   -0.0001    constr:    0.0000
     atom:    7    charge:    3.1143    magn:    0.0000    constr:    0.0000
     atom:    8    charge:    1.8326    magn:   -0.0001    constr:    0.0000
     atom:    9    charge:    3.1244    magn:   -0.0002    constr:    0.0000
     atom:   10    charge:    1.8357    magn:    0.0002    constr:    0.0000
     atom:   11    charge:    3.1198    magn:    0.0000    constr:    0.0000
     atom:   12    charge:    1.8362    magn:   -0.0000    constr:    0.0000
     atom:   13    charge:    3.1144    magn:    0.0001    constr:    0.0000
     atom:   14    charge:    1.8424    magn:   -0.0000    constr:    0.0000
     atom:   15    charge:    3.1164    magn:    0.0000    constr:    0.0000
     atom:   16    charge:    1.8326    magn:   -0.0001    constr:    0.0000
     atom:   17    charge:    1.8094    magn:    0.0009    constr:    0.0000
     atom:   18    charge:    3.1239    magn:    0.0000    constr:    0.0000
     atom:   19    charge:    1.8314    magn:    0.0000    constr:    0.0000
     atom:   20    charge:    1.8343    magn:    0.0000    constr:    0.0000
     atom:   21    charge:    1.8343    magn:    0.0000    constr:    0.0000
     atom:   22    charge:    3.1199    magn:    0.0000    constr:    0.0000
     atom:   23    charge:    1.8399    magn:   -0.0001    constr:    0.0000
     atom:   24    charge:    1.8260    magn:   -0.0002    constr:    0.0000
     atom:   25    charge:    1.8361    magn:   -0.0000    constr:    0.0000
     atom:   26    charge:    3.1143    magn:    0.0001    constr:    0.0000
     atom:   27    charge:    1.8294    magn:   -0.0002    constr:    0.0000
     atom:   28    charge:    1.8341    magn:   -0.0002    constr:    0.0000
     atom:   29    charge:    1.8333    magn:   -0.0002    constr:    0.0000
     atom:   30    charge:    3.1193    magn:    0.0000    constr:    0.0000
     atom:   31    charge:    1.8322    magn:   -0.0000    constr:    0.0000
     atom:   32    charge:    1.8347    magn:   -0.0001    constr:    0.0000
     atom:   33    charge:    1.8094    magn:    0.0010    constr:    0.0000
     atom:   34    charge:    3.1239    magn:    0.0000    constr:    0.0000
     atom:   35    charge:    1.8314    magn:    0.0000    constr:    0.0000
     atom:   36    charge:    1.8343    magn:    0.0000    constr:    0.0000
     atom:   37    charge:    1.8343    magn:    0.0000    constr:    0.0000
     atom:   38    charge:    3.1199    magn:    0.0000    constr:    0.0000
     atom:   39    charge:    1.8330    magn:   -0.0001    constr:    0.0000
     atom:   40    charge:    1.8264    magn:   -0.0002    constr:    0.0000
     atom:   41    charge:    1.8361    magn:   -0.0000    constr:    0.0000
     atom:   42    charge:    3.1217    magn:    0.0001    constr:    0.0000
     atom:   43    charge:    1.8292    magn:   -0.0002    constr:    0.0000
     atom:   44    charge:    1.8341    magn:   -0.0002    constr:    0.0000
     atom:   45    charge:    1.8333    magn:   -0.0002    constr:    0.0000
     atom:   46    charge:    3.1193    magn:    0.0000    constr:    0.0000
     atom:   47    charge:    1.8318    magn:   -0.0001    constr:    0.0000
     atom:   48    charge:    1.8347    magn:   -0.0001    constr:    0.0000
     atom:   49    charge:    1.8400    magn:    0.0000    constr:    0.0000
     atom:   50    charge:    0.3823    magn:   -0.0000    constr:    0.0000

     total cpu time spent up to now is      973.1 secs

     total energy              =   -3005.54072371 Ry
     Harris-Foulkes estimate   =   -3005.55859266 Ry
     estimated scf accuracy    <       0.06595346 Ry

     total magnetization       =     0.00 Bohr mag/cell
     absolute magnetization    =     0.01 Bohr mag/cell

     iteration #  3     ecut=    40.42 Ry     beta=0.10
     Davidson diagonalization with overlap
     ethr =  1.69E-05,  avg # of iterations =  3.7

     negative rho (up, down):  1.351E-02 1.351E-02
 
     Magnetic moment per site:
     atom:    1    charge:    3.1244    magn:   -0.0002    constr:    0.0000
     atom:    2    charge:    1.8358    magn:    0.0002    constr:    0.0000
     atom:    3    charge:    3.1200    magn:    0.0000    constr:    0.0000
     atom:    4    charge:    1.8362    magn:   -0.0000    constr:    0.0000
     atom:    5    charge:    3.1144    magn:    0.0001    constr:    0.0000
     atom:    6    charge:    1.8296    magn:   -0.0001    constr:    0.0000
     atom:    7    charge:    3.1139    magn:    0.0000    constr:    0.0000
     atom:    8    charge:    1.8324    magn:   -0.0001    constr:    0.0000
     atom:    9    charge:    3.1244    magn:   -0.0002    constr:    0.0000
     atom:   10    charge:    1.8359    magn:    0.0002    constr:    0.0000
     atom:   11    charge:    3.1198    magn:    0.0000    constr:    0.0000
     atom:   12    charge:    1.8362    magn:   -0.0000    constr:    0.0000
     atom:   13    charge:    3.1144    magn:    0.0001    constr:    0.0000
     atom:   14    charge:    1.8423    magn:   -0.0000    constr:    0.0000
     atom:   15    charge:    3.1164    magn:    0.0000    constr:    0.0000
     atom:   16    charge:    1.8324    magn:   -0.0001    constr:    0.0000
     atom:   17    charge:    1.8102    magn:    0.0009    constr:    0.0000
     atom:   18    charge:    3.1239    magn:    0.0000    constr:    0.0000
     atom:   19    charge:    1.8314    magn:    0.0000    constr:    0.0000
     atom:   20    charge:    1.8344    magn:    0.0000    constr:    0.0000
     atom:   21    charge:    1.8344    magn:    0.0000    constr:    0.0000
     atom:   22    charge:    3.1199    magn:    0.0000    constr:    0.0000
     atom:   23    charge:    1.8399    magn:   -0.0001    constr:    0.0000
     atom:   24    charge:    1.8259    magn:   -0.0001    constr:    0.0000
     atom:   25    charge:    1.8362    magn:   -0.0000    constr:    0.0000
     atom:   26    charge:    3.1144    magn:    0.0001    constr:    0.0000
     atom:   27    charge:    1.8290    magn:   -0.0002    constr:    0.0000
     atom:   28    charge:    1.8340    magn:   -0.0002    constr:    0.0000
     atom:   29    charge:    1.8331    magn:   -0.0002    constr:    0.0000
     atom:   30    charge:    3.1193    magn:    0.0000    constr:    0.0000
     atom:   31    charge:    1.8320    magn:   -0.0000    constr:    0.0000
     atom:   32    charge:    1.8343    magn:   -0.0000    constr:    0.0000
     atom:   33    charge:    1.8102    magn:    0.0009    constr:    0.0000
     atom:   34    charge:    3.1239    magn:    0.0000    constr:    0.0000
     atom:   35    charge:    1.8314    magn:    0.0000    constr:    0.0000
     atom:   36    charge:    1.8344    magn:    0.0000    constr:    0.0000
     atom:   37    charge:    1.8344    magn:    0.0000    constr:    0.0000
     atom:   38    charge:    3.1199    magn:    0.0000    constr:    0.0000
     atom:   39    charge:    1.8330    magn:   -0.0001    constr:    0.0000
     atom:   40    charge:    1.8263    magn:   -0.0002    constr:    0.0000
     atom:   41    charge:    1.8362    magn:   -0.0000    constr:    0.0000
     atom:   42    charge:    3.1217    magn:    0.0001    constr:    0.0000
     atom:   43    charge:    1.8288    magn:   -0.0002    constr:    0.0000
     atom:   44    charge:    1.8340    magn:   -0.0002    constr:    0.0000
     atom:   45    charge:    1.8331    magn:   -0.0002    constr:    0.0000
     atom:   46    charge:    3.1193    magn:    0.0000    constr:    0.0000
     atom:   47    charge:    1.8315    magn:   -0.0001    constr:    0.0000
     atom:   48    charge:    1.8343    magn:   -0.0000    constr:    0.0000
     atom:   49    charge:    1.8430    magn:    0.0000    constr:    0.0000
     atom:   50    charge:    0.3915    magn:   -0.0000    constr:    0.0000

     total cpu time spent up to now is     1164.6 secs

     total energy              =   -3005.52770895 Ry
     Harris-Foulkes estimate   =   -3005.54549444 Ry
     estimated scf accuracy    <       0.09301066 Ry

     total magnetization       =    -0.00 Bohr mag/cell
     absolute magnetization    =     0.01 Bohr mag/cell

     iteration #  4     ecut=    40.42 Ry     beta=0.10
     Davidson diagonalization with overlap
     ethr =  1.69E-05,  avg # of iterations =  2.1

     negative rho (up, down):  1.352E-02 1.352E-02
 
     Magnetic moment per site:
     atom:    1    charge:    3.1244    magn:   -0.0002    constr:    0.0000
     atom:    2    charge:    1.8358    magn:    0.0002    constr:    0.0000
     atom:    3    charge:    3.1200    magn:    0.0000    constr:    0.0000
     atom:    4    charge:    1.8361    magn:   -0.0000    constr:    0.0000
     atom:    5    charge:    3.1144    magn:    0.0000    constr:    0.0000
     atom:    6    charge:    1.8297    magn:   -0.0001    constr:    0.0000
     atom:    7    charge:    3.1154    magn:    0.0000    constr:    0.0000
     atom:    8    charge:    1.8335    magn:   -0.0000    constr:    0.0000
     atom:    9    charge:    3.1244    magn:   -0.0002    constr:    0.0000
     atom:   10    charge:    1.8359    magn:    0.0002    constr:    0.0000
     atom:   11    charge:    3.1198    magn:    0.0000    constr:    0.0000
     atom:   12    charge:    1.8361    magn:   -0.0000    constr:    0.0000
     atom:   13    charge:    3.1144    magn:    0.0000    constr:    0.0000
     atom:   14    charge:    1.8423    magn:   -0.0000    constr:    0.0000
     atom:   15    charge:    3.1166    magn:    0.0000    constr:    0.0000
     atom:   16    charge:    1.8335    magn:   -0.0000    constr:    0.0000
     atom:   17    charge:    1.8109    magn:    0.0008    constr:    0.0000
     atom:   18    charge:    3.1240    magn:    0.0000    constr:    0.0000
     atom:   19    charge:    1.8313    magn:    0.0000    constr:    0.0000
     atom:   20    charge:    1.8344    magn:    0.0000    constr:    0.0000
     atom:   21    charge:    1.8344    magn:    0.0000    constr:    0.0000
     atom:   22    charge:    3.1199    magn:    0.0000    constr:    0.0000
     atom:   23    charge:    1.8398    magn:   -0.0001    constr:    0.0000
     atom:   24    charge:    1.8256    magn:   -0.0001    constr:    0.0000
     atom:   25    charge:    1.8361    magn:   -0.0000    constr:    0.0000
     atom:   26    charge:    3.1143    magn:    0.0001    constr:    0.0000
     atom:   27    charge:    1.8291    magn:   -0.0002    constr:    0.0000
     atom:   28    charge:    1.8338    magn:   -0.0002    constr:    0.0000
     atom:   29    charge:    1.8330    magn:   -0.0002    constr:    0.0000
     atom:   30    charge:    3.1194    magn:    0.0000    constr:    0.0000
     atom:   31    charge:    1.8316    magn:   -0.0000    constr:    0.0000
     atom:   32    charge:    1.8333    magn:   -0.0000    constr:    0.0000
     atom:   33    charge:    1.8109    magn:    0.0008    constr:    0.0000
     atom:   34    charge:    3.1239    magn:    0.0000    constr:    0.0000
     atom:   35    charge:    1.8314    magn:    0.0000    constr:    0.0000
     atom:   36    charge:    1.8344    magn:    0.0000    constr:    0.0000
     atom:   37    charge:    1.8344    magn:    0.0000    constr:    0.0000
     atom:   38    charge:    3.1199    magn:    0.0000    constr:    0.0000
     atom:   39    charge:    1.8327    magn:   -0.0001    constr:    0.0000
     atom:   40    charge:    1.8260    magn:   -0.0001    constr:    0.0000
     atom:   41    charge:    1.8361    magn:   -0.0000    constr:    0.0000
     atom:   42    charge:    3.1217    magn:    0.0001    constr:    0.0000
     atom:   43    charge:    1.8290    magn:   -0.0002    constr:    0.0000
     atom:   44    charge:    1.8338    magn:   -0.0002    constr:    0.0000
     atom:   45    charge:    1.8330    magn:   -0.0002    constr:    0.0000
     atom:   46    charge:    3.1194    magn:    0.0000    constr:    0.0000
     atom:   47    charge:    1.8316    magn:   -0.0001    constr:    0.0000
     atom:   48    charge:    1.8333    magn:   -0.0000    constr:    0.0000
     atom:   49    charge:    1.8441    magn:    0.0000    constr:    0.0000
     atom:   50    charge:    0.3947    magn:   -0.0000    constr:    0.0000

     total cpu time spent up to now is     1334.9 secs

     total energy              =   -3005.52846500 Ry
     Harris-Foulkes estimate   =   -3005.53147077 Ry
     estimated scf accuracy    <       0.00953839 Ry

     total magnetization       =     0.00 Bohr mag/cell
     absolute magnetization    =     0.01 Bohr mag/cell

     iteration #  5     ecut=    40.42 Ry     beta=0.10
     Davidson diagonalization with overlap
     ethr =  2.44E-06,  avg # of iterations =  7.3

     negative rho (up, down):  1.352E-02 1.352E-02
 
     Magnetic moment per site:
     atom:    1    charge:    3.1244    magn:   -0.0002    constr:    0.0000
     atom:    2    charge:    1.8358    magn:    0.0001    constr:    0.0000
     atom:    3    charge:    3.1200    magn:    0.0000    constr:    0.0000
     atom:    4    charge:    1.8361    magn:   -0.0000    constr:    0.0000
     atom:    5    charge:    3.1144    magn:    0.0000    constr:    0.0000
     atom:    6    charge:    1.8296    magn:   -0.0001    constr:    0.0000
     atom:    7    charge:    3.1164    magn:    0.0000    constr:    0.0000
     atom:    8    charge:    1.8341    magn:   -0.0000    constr:    0.0000
     atom:    9    charge:    3.1244    magn:   -0.0002    constr:    0.0000
     atom:   10    charge:    1.8359    magn:    0.0002    constr:    0.0000
     atom:   11    charge:    3.1198    magn:    0.0000    constr:    0.0000
     atom:   12    charge:    1.8361    magn:   -0.0000    constr:    0.0000
     atom:   13    charge:    3.1144    magn:    0.0000    constr:    0.0000
     atom:   14    charge:    1.8423    magn:   -0.0000    constr:    0.0000
     atom:   15    charge:    3.1166    magn:    0.0000    constr:    0.0000
     atom:   16    charge:    1.8341    magn:   -0.0000    constr:    0.0000
     atom:   17    charge:    1.8107    magn:    0.0008    constr:    0.0000
     atom:   18    charge:    3.1239    magn:    0.0000    constr:    0.0000
     atom:   19    charge:    1.8314    magn:    0.0000    constr:    0.0000
     atom:   20    charge:    1.8344    magn:    0.0000    constr:    0.0000
     atom:   21    charge:    1.8344    magn:    0.0000    constr:    0.0000
     atom:   22    charge:    3.1199    magn:    0.0000    constr:    0.0000
     atom:   23    charge:    1.8398    magn:   -0.0000    constr:    0.0000
     atom:   24    charge:    1.8257    magn:   -0.0001    constr:    0.0000
     atom:   25    charge:    1.8361    magn:   -0.0000    constr:    0.0000
     atom:   26    charge:    3.1144    magn:    0.0001    constr:    0.0000
     atom:   27    charge:    1.8290    magn:   -0.0002    constr:    0.0000
     atom:   28    charge:    1.8338    magn:   -0.0001    constr:    0.0000
     atom:   29    charge:    1.8330    magn:   -0.0001    constr:    0.0000
     atom:   30    charge:    3.1193    magn:    0.0000    constr:    0.0000
     atom:   31    charge:    1.8314    magn:   -0.0000    constr:    0.0000
     atom:   32    charge:    1.8327    magn:   -0.0000    constr:    0.0000
     atom:   33    charge:    1.8107    magn:    0.0008    constr:    0.0000
     atom:   34    charge:    3.1239    magn:    0.0000    constr:    0.0000
     atom:   35    charge:    1.8314    magn:    0.0000    constr:    0.0000
     atom:   36    charge:    1.8344    magn:    0.0000    constr:    0.0000
     atom:   37    charge:    1.8344    magn:    0.0000    constr:    0.0000
     atom:   38    charge:    3.1199    magn:    0.0000    constr:    0.0000
     atom:   39    charge:    1.8328    magn:   -0.0001    constr:    0.0000
     atom:   40    charge:    1.8261    magn:   -0.0001    constr:    0.0000
     atom:   41    charge:    1.8361    magn:   -0.0000    constr:    0.0000
     atom:   42    charge:    3.1217    magn:    0.0001    constr:    0.0000
     atom:   43    charge:    1.8289    magn:   -0.0002    constr:    0.0000
     atom:   44    charge:    1.8338    magn:   -0.0001    constr:    0.0000
     atom:   45    charge:    1.8330    magn:   -0.0001    constr:    0.0000
     atom:   46    charge:    3.1193    magn:    0.0000    constr:    0.0000
     atom:   47    charge:    1.8316    magn:   -0.0000    constr:    0.0000
     atom:   48    charge:    1.8327    magn:   -0.0000    constr:    0.0000
     atom:   49    charge:    1.8451    magn:    0.0000    constr:    0.0000
     atom:   50    charge:    0.3962    magn:   -0.0000    constr:    0.0000

     total cpu time spent up to now is     1582.6 secs

     total energy              =   -3005.52856049 Ry
     Harris-Foulkes estimate   =   -3005.52929195 Ry
     estimated scf accuracy    <       0.00481285 Ry

     total magnetization       =     0.00 Bohr mag/cell
     absolute magnetization    =     0.01 Bohr mag/cell

     iteration #  6     ecut=    40.42 Ry     beta=0.10
     Davidson diagonalization with overlap
     ethr =  1.23E-06,  avg # of iterations =  2.0

     negative rho (up, down):  1.352E-02 1.352E-02
 
     Magnetic moment per site:
     atom:    1    charge:    3.1244    magn:   -0.0001    constr:    0.0000
     atom:    2    charge:    1.8358    magn:    0.0001    constr:    0.0000
     atom:    3    charge:    3.1200    magn:    0.0000    constr:    0.0000
     atom:    4    charge:    1.8362    magn:   -0.0000    constr:    0.0000
     atom:    5    charge:    3.1144    magn:    0.0000    constr:    0.0000
     atom:    6    charge:    1.8294    magn:   -0.0001    constr:    0.0000
     atom:    7    charge:    3.1161    magn:    0.0000    constr:    0.0000
     atom:    8    charge:    1.8339    magn:   -0.0000    constr:    0.0000
     atom:    9    charge:    3.1244    magn:   -0.0001    constr:    0.0000
     atom:   10    charge:    1.8359    magn:    0.0001    constr:    0.0000
     atom:   11    charge:    3.1198    magn:    0.0000    constr:    0.0000
     atom:   12    charge:    1.8362    magn:   -0.0000    constr:    0.0000
     atom:   13    charge:    3.1144    magn:    0.0000    constr:    0.0000
     atom:   14    charge:    1.8423    magn:   -0.0000    constr:    0.0000
     atom:   15    charge:    3.1166    magn:    0.0000    constr:    0.0000
     atom:   16    charge:    1.8339    magn:   -0.0000    constr:    0.0000
     atom:   17    charge:    1.8103    magn:    0.0007    constr:    0.0000
     atom:   18    charge:    3.1239    magn:   -0.0000    constr:    0.0000
     atom:   19    charge:    1.8314    magn:    0.0000    constr:    0.0000
     atom:   20    charge:    1.8344    magn:    0.0000    constr:    0.0000
     atom:   21    charge:    1.8344    magn:    0.0000    constr:    0.0000
     atom:   22    charge:    3.1199    magn:    0.0000    constr:    0.0000
     atom:   23    charge:    1.8399    magn:   -0.0000    constr:    0.0000
     atom:   24    charge:    1.8259    magn:   -0.0001    constr:    0.0000
     atom:   25    charge:    1.8362    magn:   -0.0000    constr:    0.0000
     atom:   26    charge:    3.1143    magn:    0.0001    constr:    0.0000
     atom:   27    charge:    1.8289    magn:   -0.0002    constr:    0.0000
     atom:   28    charge:    1.8338    magn:   -0.0001    constr:    0.0000
     atom:   29    charge:    1.8331    magn:   -0.0001    constr:    0.0000
     atom:   30    charge:    3.1193    magn:    0.0000    constr:    0.0000
     atom:   31    charge:    1.8317    magn:   -0.0000    constr:    0.0000
     atom:   32    charge:    1.8334    magn:   -0.0000    constr:    0.0000
     atom:   33    charge:    1.8102    magn:    0.0007    constr:    0.0000
     atom:   34    charge:    3.1239    magn:   -0.0000    constr:    0.0000
     atom:   35    charge:    1.8314    magn:    0.0000    constr:    0.0000
     atom:   36    charge:    1.8344    magn:    0.0000    constr:    0.0000
     atom:   37    charge:    1.8344    magn:    0.0000    constr:    0.0000
     atom:   38    charge:    3.1199    magn:    0.0000    constr:    0.0000
     atom:   39    charge:    1.8330    magn:   -0.0001    constr:    0.0000
     atom:   40    charge:    1.8263    magn:   -0.0001    constr:    0.0000
     atom:   41    charge:    1.8362    magn:   -0.0000    constr:    0.0000
     atom:   42    charge:    3.1217    magn:    0.0001    constr:    0.0000
     atom:   43    charge:    1.8288    magn:   -0.0001    constr:    0.0000
     atom:   44    charge:    1.8338    magn:   -0.0001    constr:    0.0000
     atom:   45    charge:    1.8331    magn:   -0.0001    constr:    0.0000
     atom:   46    charge:    3.1193    magn:    0.0000    constr:    0.0000
     atom:   47    charge:    1.8319    magn:   -0.0000    constr:    0.0000
     atom:   48    charge:    1.8334    magn:   -0.0000    constr:    0.0000
     atom:   49    charge:    1.8470    magn:    0.0000    constr:    0.0000
     atom:   50    charge:    0.3955    magn:   -0.0000    constr:    0.0000

     total cpu time spent up to now is     1751.0 secs

     total energy              =   -3005.52848924 Ry
     Harris-Foulkes estimate   =   -3005.52875329 Ry
     estimated scf accuracy    <       0.00123299 Ry

     total magnetization       =     0.00 Bohr mag/cell
     absolute magnetization    =     0.01 Bohr mag/cell

     iteration #  7     ecut=    40.42 Ry     beta=0.10
     Davidson diagonalization with overlap
     ethr =  3.15E-07,  avg # of iterations =  2.6

     negative rho (up, down):  1.352E-02 1.352E-02
 
     Magnetic moment per site:
     atom:    1    charge:    3.1244    magn:   -0.0001    constr:    0.0000
     atom:    2    charge:    1.8358    magn:    0.0001    constr:    0.0000
     atom:    3    charge:    3.1200    magn:   -0.0000    constr:    0.0000
     atom:    4    charge:    1.8361    magn:   -0.0000    constr:    0.0000
     atom:    5    charge:    3.1144    magn:    0.0000    constr:    0.0000
     atom:    6    charge:    1.8294    magn:   -0.0001    constr:    0.0000
     atom:    7    charge:    3.1162    magn:    0.0000    constr:    0.0000
     atom:    8    charge:    1.8337    magn:   -0.0000    constr:    0.0000
     atom:    9    charge:    3.1244    magn:   -0.0001    constr:    0.0000
     atom:   10    charge:    1.8359    magn:    0.0001    constr:    0.0000
     atom:   11    charge:    3.1198    magn:    0.0000    constr:    0.0000
     atom:   12    charge:    1.8361    magn:   -0.0000    constr:    0.0000
     atom:   13    charge:    3.1144    magn:    0.0000    constr:    0.0000
     atom:   14    charge:    1.8423    magn:   -0.0000    constr:    0.0000
     atom:   15    charge:    3.1166    magn:    0.0000    constr:    0.0000
     atom:   16    charge:    1.8337    magn:   -0.0000    constr:    0.0000
     atom:   17    charge:    1.8105    magn:    0.0007    constr:    0.0000
     atom:   18    charge:    3.1239    magn:   -0.0000    constr:    0.0000
     atom:   19    charge:    1.8314    magn:    0.0000    constr:    0.0000
     atom:   20    charge:    1.8344    magn:    0.0000    constr:    0.0000
     atom:   21    charge:    1.8344    magn:    0.0000    constr:    0.0000
     atom:   22    charge:    3.1199    magn:    0.0000    constr:    0.0000
     atom:   23    charge:    1.8399    magn:   -0.0000    constr:    0.0000
     atom:   24    charge:    1.8258    magn:   -0.0001    constr:    0.0000
     atom:   25    charge:    1.8361    magn:   -0.0000    constr:    0.0000
     atom:   26    charge:    3.1143    magn:    0.0000    constr:    0.0000
     atom:   27    charge:    1.8290    magn:   -0.0001    constr:    0.0000
     atom:   28    charge:    1.8338    magn:   -0.0001    constr:    0.0000
     atom:   29    charge:    1.8331    magn:   -0.0001    constr:    0.0000
     atom:   30    charge:    3.1193    magn:    0.0000    constr:    0.0000
     atom:   31    charge:    1.8319    magn:   -0.0000    constr:    0.0000
     atom:   32    charge:    1.8337    magn:   -0.0000    constr:    0.0000
     atom:   33    charge:    1.8105    magn:    0.0007    constr:    0.0000
     atom:   34    charge:    3.1239    magn:   -0.0000    constr:    0.0000
     atom:   35    charge:    1.8314    magn:    0.0000    constr:    0.0000
     atom:   36    charge:    1.8344    magn:    0.0000    constr:    0.0000
     atom:   37    charge:    1.8344    magn:    0.0000    constr:    0.0000
     atom:   38    charge:    3.1199    magn:    0.0000    constr:    0.0000
     atom:   39    charge:    1.8329    magn:   -0.0001    constr:    0.0000
     atom:   40    charge:    1.8262    magn:   -0.0001    constr:    0.0000
     atom:   41    charge:    1.8361    magn:   -0.0000    constr:    0.0000
     atom:   42    charge:    3.1217    magn:    0.0001    constr:    0.0000
     atom:   43    charge:    1.8288    magn:   -0.0001    constr:    0.0000
     atom:   44    charge:    1.8338    magn:   -0.0001    constr:    0.0000
     atom:   45    charge:    1.8331    magn:   -0.0001    constr:    0.0000
     atom:   46    charge:    3.1193    magn:    0.0000    constr:    0.0000
     atom:   47    charge:    1.8319    magn:   -0.0000    constr:    0.0000
     atom:   48    charge:    1.8337    magn:   -0.0000    constr:    0.0000
     atom:   49    charge:    1.8479    magn:    0.0000    constr:    0.0000
     atom:   50    charge:    0.3949    magn:   -0.0000    constr:    0.0000

     total cpu time spent up to now is     1924.9 secs

     total energy              =   -3005.52847641 Ry
     Harris-Foulkes estimate   =   -3005.52872162 Ry
     estimated scf accuracy    <       0.00311498 Ry

     total magnetization       =     0.00 Bohr mag/cell
     absolute magnetization    =     0.01 Bohr mag/cell

     iteration #  8     ecut=    40.42 Ry     beta=0.10
     Davidson diagonalization with overlap
     ethr =  3.15E-07,  avg # of iterations =  1.0

     negative rho (up, down):  1.352E-02 1.352E-02
 
     Magnetic moment per site:
     atom:    1    charge:    3.1244    magn:   -0.0001    constr:    0.0000
     atom:    2    charge:    1.8358    magn:    0.0001    constr:    0.0000
     atom:    3    charge:    3.1200    magn:   -0.0000    constr:    0.0000
     atom:    4    charge:    1.8361    magn:   -0.0000    constr:    0.0000
     atom:    5    charge:    3.1144    magn:    0.0000    constr:    0.0000
     atom:    6    charge:    1.8295    magn:   -0.0001    constr:    0.0000
     atom:    7    charge:    3.1161    magn:    0.0000    constr:    0.0000
     atom:    8    charge:    1.8334    magn:   -0.0000    constr:    0.0000
     atom:    9    charge:    3.1244    magn:   -0.0001    constr:    0.0000
     atom:   10    charge:    1.8359    magn:    0.0001    constr:    0.0000
     atom:   11    charge:    3.1198    magn:    0.0000    constr:    0.0000
     atom:   12    charge:    1.8361    magn:   -0.0000    constr:    0.0000
     atom:   13    charge:    3.1144    magn:    0.0000    constr:    0.0000
     atom:   14    charge:    1.8423    magn:   -0.0000    constr:    0.0000
     atom:   15    charge:    3.1166    magn:    0.0000    constr:    0.0000
     atom:   16    charge:    1.8334    magn:   -0.0000    constr:    0.0000
     atom:   17    charge:    1.8105    magn:    0.0006    constr:    0.0000
     atom:   18    charge:    3.1239    magn:   -0.0000    constr:    0.0000
     atom:   19    charge:    1.8314    magn:    0.0000    constr:    0.0000
     atom:   20    charge:    1.8344    magn:    0.0000    constr:    0.0000
     atom:   21    charge:    1.8344    magn:    0.0000    constr:    0.0000
     atom:   22    charge:    3.1199    magn:    0.0000    constr:    0.0000
     atom:   23    charge:    1.8399    magn:   -0.0000    constr:    0.0000
     atom:   24    charge:    1.8258    magn:   -0.0001    constr:    0.0000
     atom:   25    charge:    1.8361    magn:   -0.0000    constr:    0.0000
     atom:   26    charge:    3.1143    magn:    0.0000    constr:    0.0000
     atom:   27    charge:    1.8290    magn:   -0.0001    constr:    0.0000
     atom:   28    charge:    1.8338    magn:   -0.0001    constr:    0.0000
     atom:   29    charge:    1.8331    magn:   -0.0001    constr:    0.0000
     atom:   30    charge:    3.1193    magn:    0.0000    constr:    0.0000
     atom:   31    charge:    1.8320    magn:   -0.0000    constr:    0.0000
     atom:   32    charge:    1.8339    magn:   -0.0000    constr:    0.0000
     atom:   33    charge:    1.8105    magn:    0.0006    constr:    0.0000
     atom:   34    charge:    3.1239    magn:   -0.0000    constr:    0.0000
     atom:   35    charge:    1.8314    magn:    0.0000    constr:    0.0000
     atom:   36    charge:    1.8344    magn:    0.0000    constr:    0.0000
     atom:   37    charge:    1.8344    magn:    0.0000    constr:    0.0000
     atom:   38    charge:    3.1199    magn:    0.0000    constr:    0.0000
     atom:   39    charge:    1.8329    magn:   -0.0001    constr:    0.0000
     atom:   40    charge:    1.8262    magn:   -0.0001    constr:    0.0000
     atom:   41    charge:    1.8361    magn:   -0.0000    constr:    0.0000
     atom:   42    charge:    3.1217    magn:    0.0000    constr:    0.0000
     atom:   43    charge:    1.8288    magn:   -0.0001    constr:    0.0000
     atom:   44    charge:    1.8338    magn:   -0.0001    constr:    0.0000
     atom:   45    charge:    1.8331    magn:   -0.0001    constr:    0.0000
     atom:   46    charge:    3.1193    magn:    0.0000    constr:    0.0000
     atom:   47    charge:    1.8319    magn:   -0.0000    constr:    0.0000
     atom:   48    charge:    1.8339    magn:   -0.0000    constr:    0.0000
     atom:   49    charge:    1.8485    magn:    0.0000    constr:    0.0000
     atom:   50    charge:    0.3943    magn:   -0.0000    constr:    0.0000

     total cpu time spent up to now is     2078.9 secs

     total energy              =   -3005.52858435 Ry
     Harris-Foulkes estimate   =   -3005.52859844 Ry
     estimated scf accuracy    <       0.00009171 Ry

     total magnetization       =     0.00 Bohr mag/cell
     absolute magnetization    =     0.01 Bohr mag/cell

     iteration #  9     ecut=    40.42 Ry     beta=0.10
     Davidson diagonalization with overlap
     ethr =  2.35E-08,  avg # of iterations =  2.0

     negative rho (up, down):  1.352E-02 1.352E-02
 
     Magnetic moment per site:
     atom:    1    charge:    3.1244    magn:   -0.0001    constr:    0.0000
     atom:    2    charge:    1.8358    magn:    0.0001    constr:    0.0000
     atom:    3    charge:    3.1200    magn:   -0.0000    constr:    0.0000
     atom:    4    charge:    1.8361    magn:   -0.0000    constr:    0.0000
     atom:    5    charge:    3.1144    magn:    0.0000    constr:    0.0000
     atom:    6    charge:    1.8295    magn:   -0.0001    constr:    0.0000
     atom:    7    charge:    3.1161    magn:    0.0000    constr:    0.0000
     atom:    8    charge:    1.8334    magn:   -0.0000    constr:    0.0000
     atom:    9    charge:    3.1244    magn:   -0.0001    constr:    0.0000
     atom:   10    charge:    1.8359    magn:    0.0001    constr:    0.0000
     atom:   11    charge:    3.1198    magn:    0.0000    constr:    0.0000
     atom:   12    charge:    1.8361    magn:   -0.0000    constr:    0.0000
     atom:   13    charge:    3.1144    magn:    0.0000    constr:    0.0000
     atom:   14    charge:    1.8423    magn:   -0.0000    constr:    0.0000
     atom:   15    charge:    3.1166    magn:    0.0000    constr:    0.0000
     atom:   16    charge:    1.8334    magn:   -0.0000    constr:    0.0000
     atom:   17    charge:    1.8105    magn:    0.0006    constr:    0.0000
     atom:   18    charge:    3.1239    magn:   -0.0000    constr:    0.0000
     atom:   19    charge:    1.8314    magn:    0.0000    constr:    0.0000
     atom:   20    charge:    1.8344    magn:    0.0000    constr:    0.0000
     atom:   21    charge:    1.8344    magn:    0.0000    constr:    0.0000
     atom:   22    charge:    3.1199    magn:    0.0000    constr:    0.0000
     atom:   23    charge:    1.8399    magn:   -0.0000    constr:    0.0000
     atom:   24    charge:    1.8258    magn:   -0.0001    constr:    0.0000
     atom:   25    charge:    1.8361    magn:   -0.0000    constr:    0.0000
     atom:   26    charge:    3.1143    magn:    0.0000    constr:    0.0000
     atom:   27    charge:    1.8290    magn:   -0.0001    constr:    0.0000
     atom:   28    charge:    1.8338    magn:   -0.0001    constr:    0.0000
     atom:   29    charge:    1.8331    magn:   -0.0001    constr:    0.0000
     atom:   30    charge:    3.1193    magn:    0.0000    constr:    0.0000
     atom:   31    charge:    1.8320    magn:   -0.0000    constr:    0.0000
     atom:   32    charge:    1.8339    magn:   -0.0000    constr:    0.0000
     atom:   33    charge:    1.8105    magn:    0.0006    constr:    0.0000
     atom:   34    charge:    3.1239    magn:   -0.0000    constr:    0.0000
     atom:   35    charge:    1.8314    magn:    0.0000    constr:    0.0000
     atom:   36    charge:    1.8344    magn:    0.0000    constr:    0.0000
     atom:   37    charge:    1.8344    magn:    0.0000    constr:    0.0000
     atom:   38    charge:    3.1199    magn:    0.0000    constr:    0.0000
     atom:   39    charge:    1.8329    magn:   -0.0001    constr:    0.0000
     atom:   40    charge:    1.8262    magn:   -0.0001    constr:    0.0000
     atom:   41    charge:    1.8361    magn:   -0.0000    constr:    0.0000
     atom:   42    charge:    3.1217    magn:    0.0000    constr:    0.0000
     atom:   43    charge:    1.8288    magn:   -0.0001    constr:    0.0000
     atom:   44    charge:    1.8338    magn:   -0.0001    constr:    0.0000
     atom:   45    charge:    1.8331    magn:   -0.0001    constr:    0.0000
     atom:   46    charge:    3.1193    magn:    0.0000    constr:    0.0000
     atom:   47    charge:    1.8319    magn:   -0.0000    constr:    0.0000
     atom:   48    charge:    1.8339    magn:   -0.0000    constr:    0.0000
     atom:   49    charge:    1.8486    magn:    0.0000    constr:    0.0000
     atom:   50    charge:    0.3942    magn:   -0.0000    constr:    0.0000

     total cpu time spent up to now is     2250.0 secs

     total energy              =   -3005.52859047 Ry
     Harris-Foulkes estimate   =   -3005.52859100 Ry
     estimated scf accuracy    <       0.00000981 Ry

     total magnetization       =     0.00 Bohr mag/cell
     absolute magnetization    =     0.01 Bohr mag/cell

     iteration # 10     ecut=    40.42 Ry     beta=0.10
     Davidson diagonalization with overlap
     ethr =  2.51E-09,  avg # of iterations =  2.0

     negative rho (up, down):  1.352E-02 1.352E-02
 
     Magnetic moment per site:
     atom:    1    charge:    3.1244    magn:   -0.0001    constr:    0.0000
     atom:    2    charge:    1.8358    magn:    0.0001    constr:    0.0000
     atom:    3    charge:    3.1200    magn:   -0.0000    constr:    0.0000
     atom:    4    charge:    1.8361    magn:   -0.0000    constr:    0.0000
     atom:    5    charge:    3.1144    magn:    0.0000    constr:    0.0000
     atom:    6    charge:    1.8295    magn:   -0.0001    constr:    0.0000
     atom:    7    charge:    3.1160    magn:    0.0000    constr:    0.0000
     atom:    8    charge:    1.8333    magn:   -0.0000    constr:    0.0000
     atom:    9    charge:    3.1244    magn:   -0.0001    constr:    0.0000
     atom:   10    charge:    1.8359    magn:    0.0001    constr:    0.0000
     atom:   11    charge:    3.1198    magn:    0.0000    constr:    0.0000
     atom:   12    charge:    1.8361    magn:   -0.0000    constr:    0.0000
     atom:   13    charge:    3.1144    magn:    0.0000    constr:    0.0000
     atom:   14    charge:    1.8423    magn:   -0.0000    constr:    0.0000
     atom:   15    charge:    3.1165    magn:    0.0000    constr:    0.0000
     atom:   16    charge:    1.8333    magn:   -0.0000    constr:    0.0000
     atom:   17    charge:    1.8105    magn:    0.0005    constr:    0.0000
     atom:   18    charge:    3.1239    magn:   -0.0000    constr:    0.0000
     atom:   19    charge:    1.8314    magn:    0.0000    constr:    0.0000
     atom:   20    charge:    1.8344    magn:    0.0000    constr:    0.0000
     atom:   21    charge:    1.8344    magn:    0.0000    constr:    0.0000
     atom:   22    charge:    3.1199    magn:    0.0000    constr:    0.0000
     atom:   23    charge:    1.8399    magn:   -0.0000    constr:    0.0000
     atom:   24    charge:    1.8258    magn:   -0.0001    constr:    0.0000
     atom:   25    charge:    1.8361    magn:   -0.0000    constr:    0.0000
     atom:   26    charge:    3.1143    magn:    0.0000    constr:    0.0000
     atom:   27    charge:    1.8290    magn:   -0.0001    constr:    0.0000
     atom:   28    charge:    1.8338    magn:   -0.0001    constr:    0.0000
     atom:   29    charge:    1.8331    magn:   -0.0001    constr:    0.0000
     atom:   30    charge:    3.1193    magn:    0.0000    constr:    0.0000
     atom:   31    charge:    1.8320    magn:   -0.0000    constr:    0.0000
     atom:   32    charge:    1.8338    magn:   -0.0000    constr:    0.0000
     atom:   33    charge:    1.8105    magn:    0.0005    constr:    0.0000
     atom:   34    charge:    3.1239    magn:   -0.0000    constr:    0.0000
     atom:   35    charge:    1.8314    magn:    0.0000    constr:    0.0000
     atom:   36    charge:    1.8344    magn:    0.0000    constr:    0.0000
     atom:   37    charge:    1.8344    magn:    0.0000    constr:    0.0000
     atom:   38    charge:    3.1199    magn:    0.0000    constr:    0.0000
     atom:   39    charge:    1.8329    magn:   -0.0000    constr:    0.0000
     atom:   40    charge:    1.8262    magn:   -0.0001    constr:    0.0000
     atom:   41    charge:    1.8361    magn:   -0.0000    constr:    0.0000
     atom:   42    charge:    3.1217    magn:    0.0000    constr:    0.0000
     atom:   43    charge:    1.8289    magn:   -0.0001    constr:    0.0000
     atom:   44    charge:    1.8338    magn:   -0.0001    constr:    0.0000
     atom:   45    charge:    1.8331    magn:   -0.0001    constr:    0.0000
     atom:   46    charge:    3.1193    magn:    0.0000    constr:    0.0000
     atom:   47    charge:    1.8318    magn:   -0.0000    constr:    0.0000
     atom:   48    charge:    1.8338    magn:   -0.0000    constr:    0.0000
     atom:   49    charge:    1.8486    magn:    0.0000    constr:    0.0000
     atom:   50    charge:    0.3940    magn:   -0.0000    constr:    0.0000

     total cpu time spent up to now is     2417.8 secs

     total energy              =   -3005.52859036 Ry
     Harris-Foulkes estimate   =   -3005.52859082 Ry
     estimated scf accuracy    <       0.00000563 Ry

     total magnetization       =     0.00 Bohr mag/cell
     absolute magnetization    =     0.01 Bohr mag/cell

     iteration # 11     ecut=    40.42 Ry     beta=0.10
     Davidson diagonalization with overlap
     ethr =  1.44E-09,  avg # of iterations =  2.0

     negative rho (up, down):  1.352E-02 1.352E-02
 
     Magnetic moment per site:
     atom:    1    charge:    3.1244    magn:   -0.0001    constr:    0.0000
     atom:    2    charge:    1.8358    magn:    0.0001    constr:    0.0000
     atom:    3    charge:    3.1200    magn:   -0.0000    constr:    0.0000
     atom:    4    charge:    1.8361    magn:   -0.0000    constr:    0.0000
     atom:    5    charge:    3.1144    magn:    0.0000    constr:    0.0000
     atom:    6    charge:    1.8295    magn:   -0.0001    constr:    0.0000
     atom:    7    charge:    3.1160    magn:    0.0000    constr:    0.0000
     atom:    8    charge:    1.8333    magn:   -0.0000    constr:    0.0000
     atom:    9    charge:    3.1244    magn:   -0.0001    constr:    0.0000
     atom:   10    charge:    1.8359    magn:    0.0001    constr:    0.0000
     atom:   11    charge:    3.1198    magn:    0.0000    constr:    0.0000
     atom:   12    charge:    1.8361    magn:   -0.0000    constr:    0.0000
     atom:   13    charge:    3.1144    magn:    0.0000    constr:    0.0000
     atom:   14    charge:    1.8423    magn:   -0.0000    constr:    0.0000
     atom:   15    charge:    3.1165    magn:    0.0000    constr:    0.0000
     atom:   16    charge:    1.8333    magn:   -0.0000    constr:    0.0000
     atom:   17    charge:    1.8105    magn:    0.0005    constr:    0.0000
     atom:   18    charge:    3.1239    magn:   -0.0000    constr:    0.0000
     atom:   19    charge:    1.8314    magn:    0.0000    constr:    0.0000
     atom:   20    charge:    1.8344    magn:    0.0000    constr:    0.0000
     atom:   21    charge:    1.8344    magn:    0.0000    constr:    0.0000
     atom:   22    charge:    3.1199    magn:    0.0000    constr:    0.0000
     atom:   23    charge:    1.8399    magn:   -0.0000    constr:    0.0000
     atom:   24    charge:    1.8258    magn:   -0.0000    constr:    0.0000
     atom:   25    charge:    1.8361    magn:   -0.0000    constr:    0.0000
     atom:   26    charge:    3.1143    magn:    0.0000    constr:    0.0000
     atom:   27    charge:    1.8290    magn:   -0.0001    constr:    0.0000
     atom:   28    charge:    1.8338    magn:   -0.0001    constr:    0.0000
     atom:   29    charge:    1.8331    magn:   -0.0001    constr:    0.0000
     atom:   30    charge:    3.1193    magn:    0.0000    constr:    0.0000
     atom:   31    charge:    1.8319    magn:   -0.0000    constr:    0.0000
     atom:   32    charge:    1.8338    magn:   -0.0000    constr:    0.0000
     atom:   33    charge:    1.8105    magn:    0.0005    constr:    0.0000
     atom:   34    charge:    3.1239    magn:   -0.0000    constr:    0.0000
     atom:   35    charge:    1.8314    magn:    0.0000    constr:    0.0000
     atom:   36    charge:    1.8344    magn:    0.0000    constr:    0.0000
     atom:   37    charge:    1.8344    magn:    0.0000    constr:    0.0000
     atom:   38    charge:    3.1199    magn:    0.0000    constr:    0.0000
     atom:   39    charge:    1.8329    magn:   -0.0000    constr:    0.0000
     atom:   40    charge:    1.8262    magn:   -0.0001    constr:    0.0000
     atom:   41    charge:    1.8361    magn:   -0.0000    constr:    0.0000
     atom:   42    charge:    3.1217    magn:    0.0000    constr:    0.0000
     atom:   43    charge:    1.8289    magn:   -0.0001    constr:    0.0000
     atom:   44    charge:    1.8338    magn:   -0.0001    constr:    0.0000
     atom:   45    charge:    1.8331    magn:   -0.0001    constr:    0.0000
     atom:   46    charge:    3.1193    magn:    0.0000    constr:    0.0000
     atom:   47    charge:    1.8318    magn:   -0.0000    constr:    0.0000
     atom:   48    charge:    1.8338    magn:   -0.0000    constr:    0.0000
     atom:   49    charge:    1.8487    magn:   -0.0000    constr:    0.0000
     atom:   50    charge:    0.3939    magn:   -0.0000    constr:    0.0000

     total cpu time spent up to now is     2588.3 secs

     total energy              =   -3005.52859078 Ry
     Harris-Foulkes estimate   =   -3005.52859072 Ry
     estimated scf accuracy    <       0.00000314 Ry

     total magnetization       =     0.00 Bohr mag/cell
     absolute magnetization    =     0.01 Bohr mag/cell

     iteration # 12     ecut=    40.42 Ry     beta=0.10
     Davidson diagonalization with overlap
     ethr =  8.03E-10,  avg # of iterations =  2.0

     negative rho (up, down):  1.351E-02 1.351E-02
 
     Magnetic moment per site:
     atom:    1    charge:    3.1244    magn:   -0.0001    constr:    0.0000
     atom:    2    charge:    1.8358    magn:    0.0001    constr:    0.0000
     atom:    3    charge:    3.1200    magn:   -0.0000    constr:    0.0000
     atom:    4    charge:    1.8361    magn:    0.0000    constr:    0.0000
     atom:    5    charge:    3.1144    magn:    0.0000    constr:    0.0000
     atom:    6    charge:    1.8295    magn:   -0.0000    constr:    0.0000
     atom:    7    charge:    3.1160    magn:    0.0000    constr:    0.0000
     atom:    8    charge:    1.8334    magn:   -0.0000    constr:    0.0000
     atom:    9    charge:    3.1244    magn:   -0.0001    constr:    0.0000
     atom:   10    charge:    1.8359    magn:    0.0001    constr:    0.0000
     atom:   11    charge:    3.1198    magn:   -0.0000    constr:    0.0000
     atom:   12    charge:    1.8361    magn:    0.0000    constr:    0.0000
     atom:   13    charge:    3.1144    magn:    0.0000    constr:    0.0000
     atom:   14    charge:    1.8423    magn:   -0.0000    constr:    0.0000
     atom:   15    charge:    3.1165    magn:    0.0000    constr:    0.0000
     atom:   16    charge:    1.8334    magn:   -0.0000    constr:    0.0000
     atom:   17    charge:    1.8104    magn:    0.0004    constr:    0.0000
     atom:   18    charge:    3.1239    magn:   -0.0000    constr:    0.0000
     atom:   19    charge:    1.8314    magn:    0.0000    constr:    0.0000
     atom:   20    charge:    1.8344    magn:    0.0000    constr:    0.0000
     atom:   21    charge:    1.8344    magn:    0.0000    constr:    0.0000
     atom:   22    charge:    3.1199    magn:    0.0000    constr:    0.0000
     atom:   23    charge:    1.8399    magn:   -0.0000    constr:    0.0000
     atom:   24    charge:    1.8258    magn:   -0.0000    constr:    0.0000
     atom:   25    charge:    1.8361    magn:    0.0000    constr:    0.0000
     atom:   26    charge:    3.1143    magn:    0.0000    constr:    0.0000
     atom:   27    charge:    1.8290    magn:   -0.0001    constr:    0.0000
     atom:   28    charge:    1.8338    magn:   -0.0000    constr:    0.0000
     atom:   29    charge:    1.8331    magn:   -0.0000    constr:    0.0000
     atom:   30    charge:    3.1193    magn:    0.0000    constr:    0.0000
     atom:   31    charge:    1.8319    magn:   -0.0000    constr:    0.0000
     atom:   32    charge:    1.8338    magn:   -0.0000    constr:    0.0000
     atom:   33    charge:    1.8104    magn:    0.0004    constr:    0.0000
     atom:   34    charge:    3.1239    magn:   -0.0000    constr:    0.0000
     atom:   35    charge:    1.8314    magn:    0.0000    constr:    0.0000
     atom:   36    charge:    1.8344    magn:    0.0000    constr:    0.0000
     atom:   37    charge:    1.8344    magn:    0.0000    constr:    0.0000
     atom:   38    charge:    3.1199    magn:    0.0000    constr:    0.0000
     atom:   39    charge:    1.8329    magn:   -0.0000    constr:    0.0000
     atom:   40    charge:    1.8262    magn:   -0.0000    constr:    0.0000
     atom:   41    charge:    1.8361    magn:    0.0000    constr:    0.0000
     atom:   42    charge:    3.1217    magn:    0.0000    constr:    0.0000
     atom:   43    charge:    1.8288    magn:   -0.0000    constr:    0.0000
     atom:   44    charge:    1.8338    magn:   -0.0000    constr:    0.0000
     atom:   45    charge:    1.8331    magn:   -0.0000    constr:    0.0000
     atom:   46    charge:    3.1193    magn:    0.0000    constr:    0.0000
     atom:   47    charge:    1.8318    magn:   -0.0000    constr:    0.0000
     atom:   48    charge:    1.8338    magn:   -0.0000    constr:    0.0000
     atom:   49    charge:    1.8488    magn:   -0.0000    constr:    0.0000
     atom:   50    charge:    0.3938    magn:   -0.0000    constr:    0.0000

     total cpu time spent up to now is     2754.8 secs

     End of self-consistent calculation

 ------ SPIN UP ------------


          k = 0.0000 0.0000 0.0000 ( 34665 PWs)   bands (ev):

   -58.5116 -58.4766 -57.6008 -57.5714 -57.5650 -57.4887 -57.4766 -57.4370
   -57.3508 -57.3114 -57.2698 -57.2342 -57.1244 -57.0891 -57.0188 -56.9809
   -34.9565 -34.7806 -34.7518 -34.7179 -34.6229 -34.5661 -34.1000 -34.0559
   -34.0191 -33.8747 -33.8537 -33.7960 -33.7742 -33.7681 -33.7587 -33.7499
   -33.7457 -33.7351 -33.7067 -33.7008 -33.6990 -33.6785 -33.6683 -33.6638
   -33.6590 -33.6561 -33.6416 -33.6071 -33.5580 -33.5523 -33.5431 -33.5109
   -33.5026 -33.4953 -33.4653 -33.4516 -33.4397 -33.4390 -33.4280 -33.3908
   -33.3428 -33.2961 -33.2530 -33.2524 -33.2325 -33.2078 -33.1513 -33.0997
   -18.6753 -18.3805 -18.2492 -18.0178 -17.9171 -17.7499 -17.7351 -17.6377
   -17.5973 -17.5747 -17.4626 -17.2674 -17.2247 -17.2181 -17.1552 -17.0558
   -17.0349 -17.0137 -16.9456 -16.9043 -16.8577 -16.8230 -16.8134 -16.7898
   -16.6960 -16.6343 -16.6195 -16.5194 -16.5041 -16.3512 -16.2880 -15.8041
   -15.7437  -6.2533  -6.0818  -5.6990  -5.5030  -5.4216  -5.3200  -5.1931
    -5.1732  -5.0836  -4.9532  -4.8613  -4.8053  -4.7927  -4.7211  -4.6467
    -4.6182  -4.5497  -4.5368  -4.4231  -4.4206  -4.3640  -4.3497  -4.2545
    -4.2315  -4.1761  -4.1135  -4.1028  -4.0946  -4.0819  -4.0004  -3.9838
    -3.9159  -3.8474  -3.8398  -3.7487  -3.7425  -3.7333  -3.6256  -3.6193
    -3.5904  -3.4763  -3.4537  -3.4150  -3.3029  -3.1378  -3.0959  -3.0425
    -2.9823  -2.9640  -2.9010  -2.8869  -2.8847  -2.7731  -2.7581  -2.7411
    -2.6509  -2.5973  -2.5167  -2.4374  -2.4352  -2.3988  -2.3417  -2.2895
    -2.2383  -2.1763  -2.1708  -2.1270  -2.0818  -2.0801  -1.9331  -1.8526
    -1.8340  -1.8303  -1.8206  -1.7184  -1.6275  -1.5704  -1.5613  -1.5290
    -1.5208  -1.5058  -1.4536  -1.3719  -1.3509  -1.3303  -1.3141  -1.2917
    -1.2809  -1.1638  -1.0734  -0.9941  -0.9578  -0.8880  -0.8767  -0.8236
    -0.7567  -0.7200  -0.6702  -0.3777   0.8199   0.9173   1.2103   1.4927
     1.6002   1.6856   1.7160   1.8085   1.8406   1.9118   1.9502   2.0180
     2.0210   2.1681   2.1832   2.2551   2.2809   2.3093   2.3894   2.4139
     2.4621   2.4692   2.5056   2.5186   2.5979   2.6241   2.6691   2.7151
     2.7391   2.7484   2.7934   2.8262   2.8535   2.8736   2.8756   2.9919
     3.0044   3.0316   3.2069   3.2086   3.2347   3.2421   3.3449   3.4042
     3.4303   3.4973   3.5917   3.7428   3.8739   3.8892   4.0747   4.2673
     4.3996   4.4696   4.5013   4.6444   4.7831   4.9215   4.9590   5.0497
     5.1839   5.1985   5.2286   5.2439   5.3342   5.3383   5.3659   5.4552
     5.4756   5.5235   5.6885   5.7068   5.7911   5.8745   5.9015   5.9067
     5.9970   6.0320   6.2228   6.2863   6.3406   6.4158   6.5817   6.6062
     7.1095   7.8006   7.9886   8.0232   8.2189   8.3087   8.5734   8.7205
     8.7997   9.0642   9.1945   9.2331   9.3665   9.4889   9.6319

          k = 0.0000 0.0280 0.0000 ( 34717 PWs)   bands (ev):

   -58.5093 -58.4789 -57.5984 -57.5705 -57.5674 -57.4897 -57.4745 -57.4392
   -57.3498 -57.3125 -57.2676 -57.2364 -57.1220 -57.0915 -57.0163 -56.9835
   -34.9311 -34.7786 -34.7537 -34.7117 -34.6295 -34.5931 -34.0745 -34.0306
   -33.9959 -33.8687 -33.8475 -33.7922 -33.7767 -33.7680 -33.7473 -33.7468
   -33.7457 -33.7341 -33.7183 -33.7012 -33.6953 -33.6911 -33.6833 -33.6723
   -33.6599 -33.6518 -33.6451 -33.6039 -33.5779 -33.5262 -33.5183 -33.5153
   -33.4987 -33.4928 -33.4636 -33.4524 -33.4472 -33.4436 -33.4415 -33.4171
   -33.3368 -33.2926 -33.2592 -33.2509 -33.2339 -33.2126 -33.1788 -33.1284
   -18.6169 -18.3782 -18.1902 -17.9686 -17.8869 -17.8118 -17.7061 -17.5880
   -17.5842 -17.5433 -17.4933 -17.3195 -17.1959 -17.1956 -17.1453 -17.0874
   -16.9936 -16.9886 -16.9751 -16.9360 -16.8776 -16.8352 -16.8189 -16.7884
   -16.7095 -16.6596 -16.6233 -16.5463 -16.5380 -16.3704 -16.3284 -15.8182
   -15.7692  -6.1679  -6.0811  -5.6147  -5.4230  -5.3501  -5.2498  -5.1427
    -5.1164  -5.0140  -4.9357  -4.8754  -4.8640  -4.7366  -4.7304  -4.6335
    -4.5953  -4.5686  -4.5204  -4.4650  -4.4035  -4.3941  -4.3824  -4.3178
    -4.2733  -4.2184  -4.1953  -4.1821  -4.1721  -4.1276  -4.0493  -4.0071
    -3.9607  -3.9233  -3.9103  -3.7897  -3.6492  -3.6275  -3.5483  -3.5143
    -3.5052  -3.4724  -3.3499  -3.3227  -3.1533  -3.1186  -3.0883  -3.0202
    -2.9488  -2.9449  -2.9245  -2.9088  -2.8662  -2.7535  -2.7251  -2.6775
    -2.6619  -2.6211  -2.4734  -2.4620  -2.4164  -2.3957  -2.3613  -2.3301
    -2.2263  -2.1933  -2.1362  -2.1327  -2.1149  -2.0314  -1.9695  -1.9647
    -1.9191  -1.8364  -1.7758  -1.7695  -1.7144  -1.6782  -1.6352  -1.5878
    -1.5732  -1.5683  -1.5039  -1.4763  -1.4380  -1.3839  -1.3705  -1.2588
    -1.1964  -1.1462  -1.1205  -1.0833  -1.0398  -1.0182  -0.9302  -0.8059
    -0.7767  -0.7524  -0.7344  -0.4191   0.9526   0.9571   1.2117   1.6223
     1.6808   1.6879   1.7202   1.7974   1.8032   1.8805   2.0096   2.0834
     2.0954   2.1947   2.2647   2.2857   2.3129   2.3207   2.3372   2.3567
     2.4479   2.4886   2.5068   2.6119   2.6149   2.6487   2.6728   2.7318
     2.7753   2.7834   2.7868   2.7997   2.8541   2.8733   2.9268   2.9605
     2.9840   3.0466   3.1891   3.2325   3.2528   3.2973   3.3403   3.3513
     3.4162   3.4438   3.5525   3.6919   3.8312   3.9555   4.0331   4.3276
     4.4812   4.5026   4.5118   4.7177   4.8004   4.9618   5.0085   5.0704
     5.0980   5.1933   5.2289   5.2894   5.3183   5.3313   5.4372   5.4670
     5.4859   5.4926   5.6038   5.6673   5.7288   5.8008   5.8199   5.8968
     5.9172   6.0352   6.1923   6.2280   6.2465   6.3803   6.5521   6.6246
     7.2287   7.2700   7.8420   8.1544   8.2070   8.3290   8.5914   8.7299
     8.8453   8.9847   9.1758   9.2578   9.3357   9.3569   9.5160

          k = 0.0000 0.0560 0.0000 ( 34721 PWs)   bands (ev):

   -58.5029 -58.4854 -57.5919 -57.5741 -57.5683 -57.4917 -57.4693 -57.4444
   -57.3474 -57.3149 -57.2616 -57.2424 -57.1156 -57.0980 -57.0094 -56.9904
   -34.8612 -34.7733 -34.7588 -34.6945 -34.6662 -34.6470 -34.0042 -33.9620
   -33.9360 -33.8526 -33.8308 -33.8077 -33.7957 -33.7854 -33.7830 -33.7575
   -33.7494 -33.7436 -33.7123 -33.7024 -33.6886 -33.6854 -33.6792 -33.6745
   -33.6651 -33.6543 -33.6306 -33.6148 -33.5949 -33.5255 -33.4984 -33.4938
   -33.4878 -33.4840 -33.4723 -33.4589 -33.4557 -33.4489 -33.4461 -33.4337
   -33.3206 -33.2895 -33.2758 -33.2527 -33.2470 -33.2375 -33.2251 -33.1989
   -18.4557 -18.3745 -18.0262 -17.9955 -17.8397 -17.8042 -17.6198 -17.5966
   -17.5769 -17.4819 -17.4636 -17.4287 -17.2463 -17.1438 -17.1160 -17.1039
   -17.0468 -16.9990 -16.9325 -16.9185 -16.8985 -16.8643 -16.7849 -16.7735
   -16.7330 -16.7287 -16.6455 -16.6267 -16.6028 -16.4322 -16.4105 -15.8469
   -15.8230  -6.0800  -5.9285  -5.3811  -5.2498  -5.2027  -5.1630  -5.0640
    -5.0519  -5.0186  -4.9652  -4.9402  -4.7545  -4.7169  -4.6837  -4.6020
    -4.5953  -4.5536  -4.5491  -4.5122  -4.4982  -4.4422  -4.4261  -4.4198
    -4.3971  -4.3320  -4.2725  -4.2228  -4.1800  -4.1496  -4.1070  -4.0416
    -4.0251  -3.8694  -3.7574  -3.6148  -3.6083  -3.5865  -3.4882  -3.4695
    -3.3640  -3.2912  -3.2812  -3.2561  -3.2196  -3.1660  -3.1595  -3.0427
    -2.9999  -2.9507  -2.8956  -2.8682  -2.7942  -2.6859  -2.6797  -2.6320
    -2.5138  -2.5027  -2.4974  -2.4240  -2.3760  -2.3602  -2.3375  -2.3288
    -2.2696  -2.2600  -2.2235  -2.1966  -2.1727  -2.1523  -2.0726  -2.0685
    -2.0580  -1.9970  -1.8832  -1.8116  -1.7900  -1.7706  -1.7428  -1.6981
    -1.6581  -1.6560  -1.6314  -1.5819  -1.5586  -1.4794  -1.4352  -1.3774
    -1.2884  -1.1937  -1.1774  -1.1405  -1.0479  -1.0416  -0.9176  -0.9135
    -0.8206  -0.7834  -0.7589  -0.5223   1.0806   1.2231   1.2955   1.5175
     1.5937   1.6869   1.7544   1.8628   1.9457   2.0530   2.0738   2.0942
     2.1551   2.2113   2.2494   2.2959   2.3397   2.4112   2.4212   2.4664
     2.5134   2.5223   2.5639   2.6250   2.6314   2.6635   2.6764   2.7137
     2.7562   2.7613   2.8115   2.8514   2.8863   2.9198   2.9570   3.0154
     3.0633   3.0646   3.1444   3.1735   3.1882   3.2560   3.2770   3.3509
     3.4514   3.4628   3.5038   3.5758   3.6994   3.9222   4.0861   4.4653
     4.5337   4.5384   4.6627   4.8240   4.8745   4.9192   5.0779   5.1024
     5.1428   5.1861   5.2337   5.2901   5.3113   5.3543   5.3786   5.4209
     5.4380   5.5268   5.5824   5.6204   5.6377   5.6585   5.6644   5.7568
     5.8952   5.9762   6.0897   6.2130   6.2444   6.2680   6.5571   6.5656
     6.8577   7.2011   7.5803   7.6219   8.1529   8.3998   8.6520   8.6966
     8.8400   9.0221   9.2060   9.3704   9.5980   9.6814   9.7116

          k = 0.0000-0.0840 0.0000 ( 34678 PWs)   bands (ev):

   -58.4950 -58.4933 -57.5831 -57.5829 -57.5673 -57.4927 -57.4656 -57.4482
   -57.3460 -57.3162 -57.2561 -57.2480 -57.1068 -57.1068 -57.0008 -56.9991
   -34.7671 -34.7656 -34.7647 -34.7637 -34.6716 -34.6701 -33.9076 -33.9066
   -33.8896 -33.8883 -33.8380 -33.8290 -33.8112 -33.8077 -33.8075 -33.7808
   -33.7768 -33.7420 -33.7030 -33.7021 -33.6963 -33.6765 -33.6764 -33.6704
   -33.6628 -33.6291 -33.5990 -33.5871 -33.5827 -33.5659 -33.5619 -33.5315
   -33.4843 -33.4747 -33.4693 -33.4690 -33.4525 -33.4525 -33.3521 -33.3516
   -33.3479 -33.3376 -33.2985 -33.2981 -33.2426 -33.2425 -33.2387 -33.2319
   -18.3730 -18.2308 -18.2297 -17.8081 -17.7926 -17.7155 -17.6907 -17.6907
   -17.6219 -17.4576 -17.4036 -17.2931 -17.2897 -17.2614 -17.2120 -17.0351
   -17.0107 -17.0074 -17.0071 -16.8450 -16.8273 -16.8270 -16.8197 -16.7870
   -16.7433 -16.6965 -16.6903 -16.6805 -16.6798 -16.4701 -16.4565 -15.8564
   -15.8564  -6.0796  -5.5889  -5.5889  -5.0925  -5.0914  -5.0667  -5.0569
    -4.9753  -4.9728  -4.9177  -4.8812  -4.8411  -4.8011  -4.7494  -4.6914
    -4.6834  -4.6518  -4.6114  -4.5928  -4.4751  -4.4720  -4.4133  -4.4099
    -4.3307  -4.2806  -4.2264  -4.1915  -4.1068  -4.0912  -3.9928  -3.9896
    -3.8991  -3.8757  -3.8604  -3.8333  -3.6135  -3.5588  -3.4796  -3.4670
    -3.2834  -3.2762  -3.2530  -3.1482  -3.1292  -3.1226  -3.0423  -3.0398
    -2.9847  -2.9682  -2.9172  -2.8751  -2.8493  -2.7438  -2.6918  -2.6411
    -2.6090  -2.5908  -2.5863  -2.5607  -2.4655  -2.4060  -2.3662  -2.2652
    -2.2642  -2.2008  -2.1860  -2.1848  -2.1847  -2.1805  -2.1348  -1.9988
    -1.9987  -1.9477  -1.9275  -1.9128  -1.8500  -1.7655  -1.7575  -1.7217
    -1.7095  -1.6636  -1.6422  -1.6331  -1.6233  -1.5765  -1.5274  -1.3835
    -1.3546  -1.3227  -1.2979  -1.2652  -1.0473  -0.9957  -0.8178  -0.8081
    -0.7996  -0.7947  -0.7219  -0.6973   1.2787   1.2802   1.4297   1.4301
     1.5098   1.5109   1.8779   1.8798   1.9396   1.9798   2.1331   2.2125
     2.2449   2.2592   2.2778   2.3154   2.3845   2.4398   2.4532   2.4560
     2.4934   2.5158   2.5762   2.5938   2.6129   2.7401   2.7459   2.7593
     2.7924   2.8108   2.8156   2.8202   2.8228   2.9374   3.0081   3.0269
     3.0375   3.0776   3.1203   3.1475   3.1872   3.1939   3.2938   3.3037
     3.4456   3.5090   3.5379   3.5579   3.5767   3.8315   4.1459   4.5688
     4.5852   4.6374   4.6617   4.6626   4.9399   4.9625   5.0996   5.1271
     5.1434   5.1891   5.2390   5.2646   5.3536   5.3729   5.4125   5.4630
     5.4704   5.5005   5.5011   5.5069   5.5670   5.6020   5.6449   5.7234
     5.8317   5.9046   6.1146   6.1890   6.2807   6.3088   6.5009   6.6207
     6.8285   6.8689   7.4041   7.4060   8.1107   8.1770   8.8827   9.0707
     9.1742   9.1760   9.2919   9.4132   9.4680   9.5271   9.7070

          k = 0.0253 0.0000 0.0000 ( 34707 PWs)   bands (ev):

   -58.5116 -58.4766 -57.6007 -57.5714 -57.5650 -57.4887 -57.4766 -57.4370
   -57.3508 -57.3114 -57.2698 -57.2342 -57.1244 -57.0891 -57.0188 -56.9809
   -34.9568 -34.7806 -34.7518 -34.7171 -34.6230 -34.5662 -34.1002 -34.0580
   -34.0192 -33.8664 -33.8537 -33.7960 -33.7783 -33.7658 -33.7592 -33.7565
   -33.7457 -33.7361 -33.7067 -33.7025 -33.6936 -33.6785 -33.6684 -33.6638
   -33.6586 -33.6563 -33.6368 -33.6057 -33.5580 -33.5535 -33.5430 -33.5093
[...]
    -4.3182  -4.2843  -4.2135  -4.1747  -4.1656  -4.1472  -4.0450  -4.0376
    -3.9726  -3.9364  -3.7070  -3.6927  -3.6414  -3.6070  -3.5595  -3.5486
    -3.4544  -3.4317  -3.3612  -3.3306  -3.3216  -3.3052  -3.2268  -3.1308
    -3.0784  -3.0765  -3.0188  -3.0119  -2.9794  -2.9457  -2.9223  -2.8341
    -2.8027  -2.7458  -2.6446  -2.6134  -2.6102  -2.5370  -2.5114  -2.4862
    -2.4696  -2.4315  -2.3315  -2.3258  -2.2742  -2.2578  -2.2400  -2.1818
    -2.1811  -2.0822  -2.0497  -1.9875  -1.9614  -1.8448  -1.7727  -1.7105
    -1.6905  -1.6756  -1.6547  -1.5777  -1.4115  -1.3955  -1.3213  -1.2993
    -1.2954  -1.2632  -1.1384  -1.1094  -1.0775  -0.9774  -0.9118  -0.8985
    -0.8166  -0.8105  -0.7545  -0.7537   1.3333   1.3345   1.4551   1.4565
     1.7419   1.7420   1.8491   1.8506   2.0249   2.0252   2.1224   2.2190
     2.2751   2.2813   2.3818   2.4344   2.4470   2.4498   2.5105   2.5602
     2.5622   2.5827   2.6388   2.6453   2.7437   2.7465   2.7795   2.7906
     2.8340   2.8684   2.9254   2.9772   2.9969   2.9988   3.0276   3.0529
     3.0617   3.1474   3.1837   3.1930   3.2340   3.2613   3.3272   3.3351
     3.3885   3.3911   3.4805   3.6068   3.6589   3.6704   4.1179   4.1182
     4.2869   4.5607   4.5617   4.6556   4.6974   4.7573   4.8208   4.8251
     4.9265   4.9531   4.9940   4.9945   5.4146   5.4572   5.4707   5.5983
     5.6872   5.7039   5.7517   5.7635   5.7789   5.8321   5.8497   5.9316
     5.9767   6.0704   6.2022   6.2392   6.3318   6.3619   6.6913   6.8874
     7.1448   7.1656   7.6175   7.6195   7.9522   7.9652   8.0444   8.1224
     8.4448   8.4542   8.5595   8.7012   9.1533   9.1813   9.3031

          k =-0.0759 0.0000 0.0000 ( 34758 PWs)   bands (ev):

   -58.5117 -58.4766 -57.6004 -57.5716 -57.5650 -57.4888 -57.4765 -57.4369
   -57.3508 -57.3113 -57.2697 -57.2340 -57.1248 -57.0896 -57.0188 -56.9808
   -34.9581 -34.7806 -34.7519 -34.7147 -34.6233 -34.5663 -34.1008 -34.0643
   -34.0196 -33.8534 -33.8212 -33.7979 -33.7961 -33.7899 -33.7597 -33.7591
   -33.7457 -33.7390 -33.7064 -33.7061 -33.6785 -33.6742 -33.6685 -33.6637
   -33.6575 -33.6569 -33.6240 -33.6012 -33.5579 -33.5564 -33.5432 -33.5287
   -33.5050 -33.4943 -33.4702 -33.4514 -33.4382 -33.4377 -33.4280 -33.3911
   -33.3431 -33.2961 -33.2630 -33.2535 -33.2279 -33.2078 -33.1520 -33.1000
   -18.4468 -18.3746 -18.1243 -18.0661 -17.9613 -17.8613 -17.6773 -17.5946
   -17.5722 -17.5218 -17.4337 -17.3959 -17.2512 -17.2463 -17.2331 -17.2175
   -17.1358 -17.0456 -16.9847 -16.9596 -16.8252 -16.8137 -16.7746 -16.6718
   -16.6622 -16.6394 -16.6230 -16.5955 -16.5026 -16.3470 -16.2882 -15.7980
   -15.7410  -6.0752  -5.6383  -5.5556  -5.4696  -5.4008  -5.1443  -5.1191
    -5.0655  -5.0055  -4.9772  -4.8128  -4.7563  -4.7455  -4.7379  -4.6129
    -4.6014  -4.4644  -4.4293  -4.3748  -4.2873  -4.2811  -4.2033  -4.2021
    -4.1201  -4.1052  -4.0843  -3.9903  -3.9756  -3.9693  -3.9403  -3.8560
    -3.8132  -3.7953  -3.7887  -3.7654  -3.7020  -3.6951  -3.6524  -3.6190
    -3.5260  -3.4941  -3.4740  -3.3189  -3.2317  -3.2223  -3.1835  -3.1415
    -3.0883  -3.0012  -3.0007  -2.9311  -2.9303  -2.8996  -2.8941  -2.8394
    -2.8032  -2.7487  -2.6711  -2.6657  -2.5860  -2.5456  -2.4907  -2.4497
    -2.3538  -2.3257  -2.2574  -2.1663  -2.1416  -1.9897  -1.9703  -1.9411
    -1.9291  -1.9109  -1.8336  -1.8146  -1.6916  -1.6803  -1.6796  -1.6192
    -1.5686  -1.5223  -1.4608  -1.4380  -1.3850  -1.3822  -1.3608  -1.3587
    -1.3386  -1.2782  -1.2570  -1.1183  -1.1061  -1.0690  -0.9180  -0.9109
    -0.8970  -0.8902  -0.8774  -0.7021   0.8632   1.0779   1.2010   1.2073
     1.5822   1.7114   1.7479   1.7974   1.8427   1.8758   1.9773   2.1191
     2.1436   2.2663   2.3309   2.3556   2.3901   2.4271   2.4545   2.4619
     2.5021   2.5047   2.6196   2.6637   2.7135   2.7217   2.7647   2.8096
     2.8290   2.8405   2.9414   2.9602   2.9640   2.9646   2.9832   3.0250
     3.0311   3.0946   3.1425   3.1805   3.2330   3.2979   3.3669   3.4294
     3.5242   3.6103   3.6250   3.6494   3.7475   3.7562   3.7990   4.1512
     4.1730   4.3026   4.3681   4.4966   4.6089   4.8092   4.8804   4.9184
     4.9510   5.2702   5.3473   5.4964   5.5271   5.5903   5.6048   5.6783
     5.7047   5.7579   5.8274   5.9404   5.9988   6.1044   6.1408   6.2841
     6.2978   6.3157   6.3384   6.3391   6.3613   6.4640   6.5006   6.5955
     6.6849   6.8225   7.2449   7.4182   8.0204   8.1315   8.2051   8.5722
     8.7991   8.8992   9.1208   9.2047   9.4386   9.7894   9.9151

          k =-0.0759 0.0280 0.0000 ( 34680 PWs)   bands (ev):

   -58.5094 -58.4790 -57.5980 -57.5707 -57.5674 -57.4897 -57.4744 -57.4390
   -57.3497 -57.3124 -57.2675 -57.2363 -57.1225 -57.0919 -57.0163 -56.9834
   -34.9326 -34.7787 -34.7538 -34.7086 -34.6294 -34.5933 -34.0752 -34.0394
   -33.9962 -33.8473 -33.8165 -33.7975 -33.7924 -33.7714 -33.7621 -33.7608
   -33.7463 -33.7331 -33.7215 -33.7113 -33.6912 -33.6822 -33.6728 -33.6724
   -33.6592 -33.6514 -33.6237 -33.5982 -33.5779 -33.5346 -33.5224 -33.5184
   -33.5044 -33.4918 -33.4679 -33.4520 -33.4477 -33.4442 -33.4398 -33.4165
   -33.3372 -33.2927 -33.2601 -33.2596 -33.2301 -33.2126 -33.1792 -33.1284
   -18.3904 -18.3736 -18.0987 -18.0170 -17.9156 -17.8519 -17.6522 -17.6456
   -17.5317 -17.5242 -17.4078 -17.3719 -17.2865 -17.2063 -17.2005 -17.1850
   -17.1164 -17.0334 -17.0126 -16.9722 -16.8619 -16.8529 -16.7906 -16.6917
   -16.6891 -16.6823 -16.6280 -16.6099 -16.5407 -16.3668 -16.3296 -15.8125
   -15.7672  -6.0743  -5.5419  -5.4117  -5.3969  -5.3295  -5.0426  -5.0233
    -4.9835  -4.8816  -4.8766  -4.8565  -4.8260  -4.7298  -4.6399  -4.5563
    -4.5528  -4.4813  -4.4509  -4.4299  -4.3588  -4.3339  -4.3299  -4.2045
    -4.1666  -4.1543  -4.1373  -4.0366  -4.0080  -3.9705  -3.9279  -3.9178
    -3.8543  -3.8497  -3.7626  -3.7470  -3.7015  -3.6465  -3.6281  -3.5951
    -3.5486  -3.4449  -3.3805  -3.2929  -3.2268  -3.1841  -3.1394  -3.1174
    -3.0714  -3.0473  -3.0178  -2.9779  -2.9308  -2.8994  -2.8791  -2.8137
    -2.7900  -2.7450  -2.7158  -2.6975  -2.5903  -2.5706  -2.4528  -2.4194
    -2.3839  -2.3289  -2.2891  -2.2726  -2.2383  -2.1791  -2.1476  -2.0513
    -2.0158  -1.9279  -1.8877  -1.8392  -1.8006  -1.7850  -1.7259  -1.6920
    -1.6178  -1.5882  -1.5440  -1.5229  -1.4132  -1.3626  -1.3290  -1.2927
    -1.2798  -1.2101  -1.1607  -1.1111  -1.0686  -1.0407  -1.0200  -0.9134
    -0.8909  -0.8504  -0.8418  -0.6601   0.9325   1.1540   1.2485   1.2766
     1.6752   1.7763   1.7809   1.8096   1.8967   1.9384   1.9753   2.1125
     2.1832   2.2950   2.3323   2.3415   2.4398   2.4517   2.4780   2.5126
     2.5255   2.5433   2.6771   2.7191   2.7239   2.7404   2.7631   2.7727
     2.7879   2.8376   2.9270   2.9555   2.9699   2.9719   2.9918   3.0349
     3.0698   3.1011   3.2028   3.2134   3.2254   3.3305   3.3636   3.4208
     3.4893   3.5805   3.5983   3.6237   3.6854   3.7218   3.7753   4.1764
     4.2169   4.2971   4.3653   4.6164   4.6221   4.6296   4.9002   4.9157
     4.9678   5.2898   5.3460   5.3470   5.4036   5.4741   5.5961   5.6153
     5.6521   5.6919   5.7877   5.9838   6.0184   6.0554   6.1497   6.1835
     6.2125   6.2576   6.2607   6.3742   6.4417   6.4500   6.5176   6.5957
     6.8132   6.9531   7.3637   7.3985   7.5447   8.1334   8.2336   8.6253
     9.0245   9.0992   9.1995   9.3308   9.3427   9.3778   9.4788

          k =-0.0759 0.0560 0.0000 ( 34616 PWs)   bands (ev):

   -58.5030 -58.4854 -57.5916 -57.5739 -57.5687 -57.4917 -57.4692 -57.4443
   -57.3473 -57.3148 -57.2615 -57.2423 -57.1160 -57.0984 -57.0094 -56.9903
   -34.8624 -34.7734 -34.7589 -34.6920 -34.6668 -34.6462 -34.0048 -33.9720
   -33.9363 -33.8306 -33.8143 -33.8049 -33.7975 -33.7843 -33.7843 -33.7660
   -33.7523 -33.7398 -33.7232 -33.7124 -33.7108 -33.6901 -33.6749 -33.6699
   -33.6651 -33.6310 -33.6170 -33.6149 -33.5907 -33.5227 -33.5061 -33.5000
   -33.4913 -33.4822 -33.4713 -33.4618 -33.4606 -33.4491 -33.4456 -33.4322
   -33.3210 -33.2895 -33.2762 -33.2530 -33.2529 -33.2362 -33.2250 -33.1987
   -18.3717 -18.2350 -18.0312 -17.9116 -17.8367 -17.8015 -17.7975 -17.5908
   -17.5698 -17.4203 -17.3955 -17.3287 -17.2177 -17.1779 -17.1176 -17.1071
   -17.0744 -17.0586 -17.0409 -17.0258 -16.9496 -16.9185 -16.8438 -16.7987
   -16.7290 -16.7141 -16.6456 -16.6387 -16.6293 -16.4331 -16.4034 -15.8424
   -15.8216  -6.0728  -5.2711  -5.2063  -5.1486  -5.0187  -5.0085  -5.0020
    -4.9215  -4.7727  -4.7122  -4.6392  -4.6208  -4.5993  -4.5799  -4.5401
    -4.5128  -4.5017  -4.4292  -4.4036  -4.3763  -4.3489  -4.3184  -4.2851
    -4.2813  -4.2631  -4.2415  -4.1871  -4.1273  -4.0532  -3.9683  -3.9311
    -3.8415  -3.8144  -3.8000  -3.7683  -3.7348  -3.6819  -3.5636  -3.5095
    -3.4598  -3.4145  -3.3732  -3.3576  -3.3266  -3.2825  -3.2702  -3.2031
    -3.1608  -3.1585  -2.9822  -2.9256  -2.9223  -2.8991  -2.8916  -2.8262
    -2.7958  -2.7792  -2.7457  -2.7056  -2.6501  -2.6268  -2.5924  -2.5512
    -2.4515  -2.4336  -2.4031  -2.3521  -2.3279  -2.3139  -2.2362  -2.1341
    -2.1206  -2.0824  -2.0570  -1.9127  -1.8980  -1.7871  -1.7672  -1.7508
    -1.7355  -1.6630  -1.6196  -1.5291  -1.4813  -1.4030  -1.3237  -1.2570
    -1.2191  -1.2039  -1.1577  -1.0572  -0.9836  -0.9385  -0.9215  -0.9046
    -0.8663  -0.8483  -0.8112  -0.7382   1.1340   1.3027   1.3533   1.4893
     1.6921   1.8489   1.8652   1.8902   1.9151   2.0207   2.1015   2.1346
     2.2057   2.2701   2.3384   2.3937   2.4698   2.4744   2.5186   2.5880
     2.6053   2.6559   2.6614   2.6949   2.7036   2.7382   2.8195   2.8272
     2.8591   2.8840   2.9465   2.9685   3.0196   3.0340   3.0458   3.0693
     3.0942   3.1496   3.1713   3.1992   3.2725   3.2830   3.2886   3.3968
     3.4376   3.4826   3.5796   3.6026   3.6432   3.6782   3.7776   4.2376
     4.2584   4.3015   4.3830   4.4083   4.6791   4.7416   4.8031   4.8619
     4.9698   5.0324   5.0833   5.1539   5.3907   5.4561   5.4849   5.6091
     5.6416   5.7767   5.8151   5.8756   5.9137   5.9389   5.9559   6.1005
     6.1034   6.1552   6.2990   6.3142   6.3942   6.5022   6.6374   6.8522
     6.9261   7.1346   7.3064   7.6394   7.7987   7.9366   8.1988   8.2939
     8.4858   8.5101   8.6238   8.7696   9.0552   9.2738   9.4302

          k =-0.0759-0.0840 0.0000 ( 34556 PWs)   bands (ev):

   -58.4950 -58.4934 -57.5827 -57.5827 -57.5677 -57.4927 -57.4654 -57.4481
   -57.3460 -57.3162 -57.2560 -57.2478 -57.1072 -57.1072 -57.0007 -56.9990
   -34.7671 -34.7664 -34.7650 -34.7647 -34.6699 -34.6684 -33.9078 -33.9074
   -33.9021 -33.8885 -33.8497 -33.8074 -33.8073 -33.7958 -33.7813 -33.7771
   -33.7710 -33.7620 -33.7306 -33.7020 -33.6964 -33.6772 -33.6770 -33.6707
   -33.6685 -33.6290 -33.5963 -33.5700 -33.5688 -33.5668 -33.5642 -33.5258
   -33.4869 -33.4840 -33.4798 -33.4686 -33.4536 -33.4536 -33.3524 -33.3519
   -33.3474 -33.3371 -33.2988 -33.2985 -33.2452 -33.2440 -33.2387 -33.2318
   -18.3708 -18.0198 -18.0195 -17.9496 -17.9476 -17.7082 -17.6641 -17.6624
   -17.6604 -17.3908 -17.2629 -17.2546 -17.2523 -17.1621 -17.1552 -17.1027
   -17.0620 -17.0165 -17.0000 -16.9865 -16.9853 -16.9801 -16.9753 -16.7755
   -16.7530 -16.7413 -16.7372 -16.6480 -16.6456 -16.4662 -16.4455 -15.8538
   -15.8537  -6.0721  -5.0902  -5.0804  -5.0119  -5.0098  -4.8779  -4.8777
    -4.8753  -4.8698  -4.6243  -4.6200  -4.6153  -4.5532  -4.4903  -4.4193
    -4.4170  -4.4156  -4.3825  -4.3683  -4.3542  -4.3422  -4.3242  -4.2756
    -4.2722  -4.2451  -4.2420  -4.2256  -4.1158  -4.0635  -3.9988  -3.9791
    -3.9459  -3.8709  -3.8553  -3.8526  -3.7372  -3.6584  -3.6472  -3.6441
    -3.5196  -3.5165  -3.3629  -3.3619  -3.3498  -3.3149  -3.2456  -3.2106
    -3.1449  -3.1202  -3.0612  -3.0511  -3.0177  -3.0038  -2.9849  -2.9050
    -2.8578  -2.7663  -2.7288  -2.6843  -2.6444  -2.6138  -2.5800  -2.5589
    -2.5283  -2.4575  -2.4306  -2.4240  -2.3886  -2.3422  -2.2856  -2.2536
    -2.1393  -2.0695  -2.0561  -2.0447  -1.9280  -1.8636  -1.8440  -1.6958
    -1.6599  -1.6339  -1.6193  -1.5946  -1.3550  -1.3109  -1.2970  -1.2887
    -1.2555  -1.2035  -1.1306  -1.0423  -0.9820  -0.9511  -0.9377  -0.9018
    -0.8787  -0.8437  -0.7757  -0.7624   1.3969   1.4009   1.4125   1.4183
     1.7602   1.7609   1.8888   1.8906   2.0397   2.0976   2.1006   2.1541
     2.2264   2.2556   2.3502   2.4217   2.4305   2.4984   2.5297   2.5784
     2.5917   2.6283   2.7492   2.7546   2.7667   2.7831   2.8007   2.8288
     2.8786   2.9042   2.9454   3.0345   3.0375   3.0406   3.0633   3.0784
     3.1553   3.1860   3.1896   3.2223   3.2517   3.2770   3.2915   3.2937
     3.3557   3.3819   3.5312   3.6061   3.6814   3.6834   3.9361   3.9366
     4.3304   4.4197   4.4458   4.5046   4.6166   4.6492   4.6962   4.7428
     4.9539   4.9717   4.9787   4.9798   5.4649   5.4696   5.4877   5.6993
     5.7280   5.7303   5.7992   5.8125   5.8893   5.8939   5.9405   6.0347
     6.0798   6.0871   6.1636   6.2303   6.2902   6.3882   6.8490   7.1329
     7.4106   7.4230   7.4709   7.5328   7.7088   7.7127   7.8517   7.9399
     8.2747   8.2757   8.4467   8.5933   9.0574   9.0845   9.1881

     the Fermi energy is    -0.4934 ev

!    total energy              =   -3005.52859163 Ry
     Harris-Foulkes estimate   =   -3005.52859088 Ry
     estimated scf accuracy    <       0.00000044 Ry

     The total energy is the sum of the following terms:

     one-electron contribution =  -41015.49890527 Ry
     hartree contribution      =   20573.45623382 Ry
     xc contribution           =    -546.75315697 Ry
     ewald contribution        =   17983.28689550 Ry
     smearing contrib. (-TS)   =      -0.01965872 Ry

     total magnetization       =     0.00 Bohr mag/cell
     absolute magnetization    =     0.01 Bohr mag/cell

     convergence has been achieved in  12 iterations

     Forces acting on atoms (Ry/au):


     negative rho (up, down):  1.351E-02 1.351E-02
     atom    1 type  1   force =    -0.00001169   -0.00108895   -0.10420384
     atom    2 type  2   force =     0.00002387    0.00000000    0.03814053
     atom    3 type  1   force =    -0.00016815    0.00000000   -0.02286378
     atom    4 type  2   force =    -0.00615586    0.00311223   -0.00579220
     atom    5 type  1   force =     0.00026252    0.00023398   -0.00104535
     atom    6 type  2   force =    -0.00037636    0.00000000    0.00050210
     atom    7 type  1   force =     0.00293853    0.00000000    0.00265414
     atom    8 type  2   force =     0.00042399    0.00046833    0.00049938
     atom    9 type  1   force =    -0.00001169    0.00108895   -0.10420384
     atom   10 type  2   force =    -0.00005666    0.00000000    0.03429541
     atom   11 type  1   force =    -0.00014355    0.00000000    0.01124986
     atom   12 type  2   force =    -0.00615586   -0.00311223   -0.00579220
     atom   13 type  1   force =     0.00026252   -0.00023398   -0.00104535
     atom   14 type  2   force =    -0.00092575    0.00000000   -0.00096473
     atom   15 type  1   force =     0.00084682    0.00000000    0.00128935
     atom   16 type  2   force =     0.00042399   -0.00046833    0.00049938
     atom   17 type  2   force =    -0.00005301    0.00000000    0.06639193
     atom   18 type  1   force =     0.00011841    0.00000000    0.13066982
     atom   19 type  2   force =    -0.00018714    0.00000000   -0.08419209
     atom   20 type  2   force =    -0.05796375    0.00016678   -0.03630990
     atom   21 type  2   force =     0.05798507    0.00017905   -0.03622968
     atom   22 type  1   force =    -0.00007793    0.00086143    0.07793103
     atom   23 type  2   force =    -0.00016940    0.00000000    0.00153838
     atom   24 type  2   force =    -0.00009313    0.00000000   -0.03636044
     atom   25 type  2   force =     0.00591674    0.00306715   -0.00547033
     atom   26 type  1   force =    -0.00039463    0.00000000    0.00032449
     atom   27 type  2   force =     0.00033178    0.00000000    0.00143122
     atom   28 type  2   force =    -0.00021803    0.00036252   -0.00042631
     atom   29 type  2   force =    -0.00030770    0.00013540    0.00007498
     atom   30 type  1   force =    -0.00045278    0.00092342    0.00100893
     atom   31 type  2   force =    -0.00002030    0.00000000   -0.00056241
     atom   32 type  2   force =     0.00022968   -0.00054819   -0.00081766
     atom   33 type  2   force =    -0.00002835    0.00000000    0.06641345
     atom   34 type  1   force =     0.00009278    0.00000000    0.13047923
     atom   35 type  2   force =    -0.00018890    0.00000000   -0.08356855
     atom   36 type  2   force =    -0.05796375   -0.00016678   -0.03630990
     atom   37 type  2   force =     0.05798507   -0.00017905   -0.03622968
     atom   38 type  1   force =    -0.00007793   -0.00086143    0.07793103
     atom   39 type  2   force =    -0.00011866    0.00000000   -0.00017037
     atom   40 type  2   force =     0.00008617    0.00000000   -0.03525630
     atom   41 type  2   force =     0.00591674   -0.00306715   -0.00547033
     atom   42 type  1   force =    -0.00058115    0.00000000    0.00089606
     atom   43 type  2   force =     0.00046627    0.00000000    0.00161864
     atom   44 type  2   force =    -0.00021803   -0.00036252   -0.00042631
     atom   45 type  2   force =    -0.00030770   -0.00013540    0.00007498
     atom   46 type  1   force =    -0.00045278   -0.00092342    0.00100893
     atom   47 type  2   force =     0.00154570    0.00000000    0.00040245
     atom   48 type  2   force =     0.00022968    0.00054819   -0.00081766
     atom   49 type  2   force =    -0.04567093    0.00000000   -0.02876793
     atom   50 type  3   force =     0.04346523    0.00000000    0.02597147

     Total force =     0.348195     Total SCF correction =     0.002528
 !ASE

     Writing output data file calc.save
 
     init_run     :     48.67s CPU     57.11s WALL (       1 calls)
     electrons    :   2390.86s CPU   2697.56s WALL (       1 calls)
     forces       :     42.40s CPU     44.13s WALL (       1 calls)

     Called by init_run:
     wfcinit      :     41.65s CPU     49.35s WALL (       1 calls)
     potinit      :      1.34s CPU      1.59s WALL (       1 calls)

     Called by electrons:
     c_bands      :   2073.20s CPU   2325.72s WALL (      12 calls)
     sum_band     :    264.48s CPU    312.74s WALL (      12 calls)
     v_of_rho     :     13.34s CPU     15.78s WALL (      13 calls)
     newd         :     43.04s CPU     46.68s WALL (      13 calls)
     mix_rho      :      0.51s CPU      0.68s WALL (      12 calls)
     vdW_energy   :      2.94s CPU      3.28s WALL (      14 calls)
     vdW_ffts     :      3.38s CPU      4.33s WALL (      28 calls)
     vdW_v        :      1.36s CPU      1.55s WALL (      14 calls)

     Called by c_bands:
     init_us_2    :      5.67s CPU      6.14s WALL (     832 calls)
     cegterg      :   2037.65s CPU   2288.05s WALL (     384 calls)

     Called by *egterg:
     h_psi        :    790.41s CPU    970.50s WALL (    1880 calls)
     s_psi        :    136.21s CPU    141.53s WALL (    1880 calls)
     g_psi        :      4.04s CPU      4.14s WALL (    1464 calls)
     cdiaghg      :    656.24s CPU    672.54s WALL (    1848 calls)

     Called by h_psi:
     add_vuspsi   :    137.41s CPU    142.28s WALL (    1880 calls)

     General routines
     calbec       :    202.18s CPU    207.89s WALL (    2296 calls)
     fft          :      7.16s CPU      9.02s WALL (    1110 calls)
     ffts         :      0.07s CPU      0.09s WALL (      50 calls)
     fftw         :    442.51s CPU    652.23s WALL (  661788 calls)
     interpolate  :      0.40s CPU      0.61s WALL (      50 calls)
     davcio       :      0.06s CPU      2.99s WALL (      32 calls)
 
     Parallel routines
     fft_scatter  :    215.29s CPU    343.45s WALL (  662948 calls)
 
     PWSCF        : 41m22.94s CPU    46m43.27s WALL

 
   This run was terminated on:  18:50:58  10Feb2018            

=------------------------------------------------------------------------------=
   JOB DONE.
=------------------------------------------------------------------------------=
