  python dir          : /home/vossj/suncat/lib/python2.7/site-packages/espresso
  espresso dir        : /home/vossj/suncat/esdld/espresso-dynpy-beef/bin
  pseudo dir          : /home/alatimer/bin/psp/esp_psp_w_gbrvRu/
  ase-espresso py git : ffa2778-git



     Program PWSCF v.5.1rc2 (svn rev. ) starts on 12Feb2018 at 11:12:21 

     This program is part of the open-source Quantum ESPRESSO suite
     for quantum simulation of materials; please cite
         "P. Giannozzi et al., J. Phys.:Condens. Matter 21 395502 (2009);
          URL http://www.quantum-espresso.org", 
     in publications or presentations arising from this work. More details at
     http://www.quantum-espresso.org/quote

     Parallel version (MPI), running on    16 processors
     R & G space division:  proc/nbgrp/npool/nimage =      16
     Reading input from pw.inp
     Message from routine read_cards :
     DEPRECATED: no units specified in CELL_PARAMETERS card

     Current dimensions of program PWSCF are:
     Max number of different atomic species (ntypx) = 10
     Max number of k-points (npk) =  40000
     Max angular momentum in pseudopotentials (lmaxx) =  3

     **************************************************************************
     Initializing libbeef V0.1.1 with the BEEF-vdW functional.
     Citation: Wellendorff et al., PRB 85, 235149 (2012).
     **************************************************************************


     IMPORTANT: XC functional enforced from input :
     Exchange-correlation      = BEEF ( 1  4 27 13 2)
     Any further DFT definition will be discarded
     Please, verify this is what you really want


     Subspace diagonalization in iterative solution of the eigenvalue problem:
     a serial algorithm will be used

 
     Parallelization info
     --------------------
     sticks:   dense  smooth     PW     G-vecs:    dense   smooth      PW
     Min         281     112     31                68535    17318    2565
     Max         282     113     32                68545    17369    2582
     Sum        4501    1795    503              1096637   277353   41113
 
     Generating pointlists ...
     new r_m :   0.4125 (alat units)  0.7795 (a.u.) for type    1
     new r_m :   0.3995 (alat units)  0.7549 (a.u.) for type    2
     new r_m :   0.4125 (alat units)  0.7795 (a.u.) for type    3
     new r_m :   0.3995 (alat units)  0.7549 (a.u.) for type    4


     bravais-lattice index     =            0
     lattice parameter (alat)  =       1.8897  a.u.
     unit-cell volume          =    7990.9933 (a.u.)^3
     number of atoms/cell      =           54
     number of atomic types    =            4
     number of electrons       =       398.00
     number of Kohn-Sham states=          299
     kinetic-energy cutoff     =      40.4243  Ry
     charge density cutoff     =     404.2426  Ry
     convergence threshold     =      7.3E-07
     mixing beta               =       0.1000
     number of iterations used =           10  plain     mixing
     Exchange-correlation      = BEEF ( 1  4 27 13 2)
     nstep                     =           50


     celldm(1)=   1.889726  celldm(2)=   0.000000  celldm(3)=   0.000000
     celldm(4)=   0.000000  celldm(5)=   0.000000  celldm(6)=   0.000000

     crystal axes: (cart. coord. in units of alat)
               a(1) = (   6.590708   0.000000   0.000000 )  
               a(2) = (   0.000000   5.950229   0.000000 )  
               a(3) = (   0.000000   0.000000  30.195235 )  

     reciprocal axes: (cart. coord. in units 2 pi/alat)
               b(1) = (  0.151729  0.000000  0.000000 )  
               b(2) = (  0.000000  0.168061  0.000000 )  
               b(3) = (  0.000000  0.000000  0.033118 )  


     PseudoPot. # 1 for Ti read from file:
     /home/alatimer/bin/psp/esp_psp_w_gbrvRu/Ti.UPF
     MD5 check sum: 8e4df49b7f0d34bbd5052bf3f5ea0213
     Pseudo is Ultrasoft, Zval = 12.0
     Generated by new atomic code, or converted to UPF format
     Using radial grid of  851 points,  6 beta functions with: 
                l(1) =   0
                l(2) =   0
                l(3) =   1
                l(4) =   1
                l(5) =   2
                l(6) =   2
     Q(r) pseudized with  8 coefficients,  rinner =    1.000   1.000   1.000
                                                       1.000   1.000

     PseudoPot. # 2 for  O read from file:
     /home/alatimer/bin/psp/esp_psp_w_gbrvRu/O.UPF
     MD5 check sum: e057bbcf3229fb5d8c36c0c92f9568b4
     Pseudo is Ultrasoft + core correction, Zval =  6.0
     Generated using "atomic" code by A. Dal Corso  v.5.0.2 svn rev. 9415
     Using radial grid of 1095 points,  4 beta functions with: 
                l(1) =   0
                l(2) =   0
                l(3) =   1
                l(4) =   1
     Q(r) pseudized with 0 coefficients 


     PseudoPot. # 3 for  C read from file:
     /home/alatimer/bin/psp/esp_psp_w_gbrvRu/C.UPF
     MD5 check sum: ab446d787031eba755f1d5ee46644bb0
     Pseudo is Ultrasoft + core correction, Zval =  4.0
     Generated using "atomic" code by A. Dal Corso  v.5.0.2 svn rev. 9415
     Using radial grid of 1073 points,  4 beta functions with: 
                l(1) =   0
                l(2) =   0
                l(3) =   1
                l(4) =   1
     Q(r) pseudized with 0 coefficients 


     PseudoPot. # 4 for  H read from file:
     /home/alatimer/bin/psp/esp_psp_w_gbrvRu/H.UPF
     MD5 check sum: bd57da0722753ddfd9833a65b40bb853
     Pseudo is Ultrasoft, Zval =  1.0
     Generated using "atomic" code by A. Dal Corso  v.5.0.2 svn rev. 9415
     Using radial grid of  929 points,  2 beta functions with: 
                l(1) =   0
                l(2) =   0
     Q(r) pseudized with 0 coefficients 


     vdW kernel table read from file vdW_kernel_table
     MD5 check sum: 095c7af220d748ca6e76c0b4c6cfb241

     atomic species   valence    mass     pseudopotential
        Ti1           12.00    47.88000     Ti( 1.00)
        O1             6.00    15.99940      O( 1.00)
        C1             4.00    12.01100      C( 1.00)
        H1             1.00     1.00794      H( 1.00)

     Starting magnetic structure 
     atomic species   magnetization
        Ti1          0.250
        O1           0.500
        C1           0.750
        H1           0.000

     No symmetry found



   Cartesian axes

     site n.     atom                  positions (alat units)
         1           Ti1 tau(   1) = (   1.6476770   0.7437786   2.6545865  )
         2           O1  tau(   2) = (   1.6476770   2.2313359   3.9361215  )
         3           Ti1 tau(   3) = (   1.6476770   2.2313359   5.9499405  )
         4           O1  tau(   4) = (   0.3661420   0.7437786   5.9499405  )
         5           Ti1 tau(   5) = (   1.7592931   0.7557636   9.1813031  )
         6           O1  tau(   6) = (   1.6162490   2.2572048  10.5951269  )
         7           Ti1 tau(   7) = (   1.5595004   2.2680265  12.4668274  )
         8           O1  tau(   8) = (   0.3709531   0.7738127  12.6996540  )
         9           Ti1 tau(   9) = (   1.6476770   3.7188931   2.6545865  )
        10           O1  tau(  10) = (   1.6476770   5.2064503   3.9361215  )
        11           Ti1 tau(  11) = (   1.6476770   5.2064503   5.9499405  )
        12           O1  tau(  12) = (   0.3661420   3.7188931   5.9499405  )
        13           Ti1 tau(  13) = (   1.7607536   3.7112867   9.1949733  )
        14           O1  tau(  14) = (   1.6133076   5.2250699  10.5465640  )
        15           Ti1 tau(  15) = (   1.6492307   5.2431137  12.3448001  )
        16           O1  tau(  16) = (   0.3719744   3.7598389  12.7007434  )
        17           O1  tau(  17) = (   1.6476770   2.2313359   1.3730516  )
        18           Ti1 tau(  18) = (   4.9430310   2.2313359   2.6545865  )
        19           O1  tau(  19) = (   4.9430310   2.2313359   4.6684056  )
        20           O1  tau(  20) = (   6.2245660   0.7437786   2.6545865  )
        21           O1  tau(  21) = (   3.6614961   0.7437786   2.6545865  )
        22           Ti1 tau(  22) = (   4.9430310   0.7437786   5.9499405  )
        23           O1  tau(  23) = (   1.6387103   2.2391978   8.0037664  )
        24           O1  tau(  24) = (   4.9430310   2.2313359   7.2314755  )
        25           O1  tau(  25) = (   2.9292120   0.7437786   5.9499405  )
        26           Ti1 tau(  26) = (   5.0158092   2.2383949   9.3973727  )
        27           O1  tau(  27) = (   4.9391445   2.2276729  11.2675731  )
        28           O1  tau(  28) = (   6.2094020   0.7514556   9.2742047  )
        29           O1  tau(  29) = (   3.6131301   0.7515640   9.2682932  )
        30           Ti1 tau(  30) = (   4.8940083   0.8207741  12.7348365  )
        31           O1  tau(  31) = (   4.8487174   2.2703822  13.8475395  )
        32           O1  tau(  32) = (   2.8766274   0.7418004  12.6316555  )
        33           O1  tau(  33) = (   1.6476770   5.2064503   1.3730516  )
        34           Ti1 tau(  34) = (   4.9430310   5.2064503   2.6545865  )
        35           O1  tau(  35) = (   4.9430310   5.2064503   4.6684056  )
        36           O1  tau(  36) = (   6.2245660   3.7188931   2.6545865  )
        37           O1  tau(  37) = (   3.6614961   3.7188931   2.6545865  )
        38           Ti1 tau(  38) = (   4.9430310   3.7188931   5.9499405  )
        39           O1  tau(  39) = (   1.6418458   5.2133935   8.0066417  )
        40           O1  tau(  40) = (   4.9430310   5.2064503   7.2314755  )
        41           O1  tau(  41) = (   2.9292120   3.7188931   5.9499405  )
        42           Ti1 tau(  42) = (   5.0218241   5.2139137   9.3870600  )
        43           O1  tau(  43) = (   4.9399496   5.2040061  11.2598200  )
        44           O1  tau(  44) = (   6.2073000   3.7245411   9.2731052  )
        45           O1  tau(  45) = (   3.6137513   3.7232133   9.2682466  )
        46           Ti1 tau(  46) = (   4.8936935   3.8094630  12.7397413  )
        47           O1  tau(  47) = (   4.9051259   5.2510468  13.8339921  )
        48           O1  tau(  48) = (   2.8743370   3.7938830  12.6403791  )
        49           C1  tau(  49) = (   1.0587210   2.2568971  15.9066084  )
        50           O1  tau(  50) = (   1.8917182   2.2355032  14.7378010  )
        51           H1  tau(  51) = (   0.0310076   2.2200215  15.5603933  )
        52           H1  tau(  52) = (   2.8355400   2.2288152  14.9543747  )
        53           H1  tau(  53) = (   1.2478062   1.3326534  16.5039879  )
        54           H1  tau(  54) = (   1.2341453   3.1195140  16.5098874  )

     number of k points=    40  Fermi-Dirac smearing, width (Ry)=  0.0073
                       cart. coord. in units 2pi/alat
        k(    1) = (   0.0000000   0.0000000   0.0000000), wk =   0.0277778
        k(    2) = (   0.0000000   0.0280101   0.0000000), wk =   0.0555556
        k(    3) = (   0.0000000   0.0560203   0.0000000), wk =   0.0555556
        k(    4) = (   0.0000000  -0.0840304   0.0000000), wk =   0.0277778
        k(    5) = (   0.0252881   0.0000000   0.0000000), wk =   0.0555556
        k(    6) = (   0.0252881   0.0280101   0.0000000), wk =   0.0555556
        k(    7) = (   0.0252881   0.0560203   0.0000000), wk =   0.0555556
        k(    8) = (   0.0252881  -0.0840304   0.0000000), wk =   0.0555556
        k(    9) = (   0.0505763   0.0000000   0.0000000), wk =   0.0555556
        k(   10) = (   0.0505763   0.0280101   0.0000000), wk =   0.0555556
        k(   11) = (   0.0505763   0.0560203   0.0000000), wk =   0.0555556
        k(   12) = (   0.0505763  -0.0840304   0.0000000), wk =   0.0555556
        k(   13) = (  -0.0758644   0.0000000   0.0000000), wk =   0.0277778
        k(   14) = (  -0.0758644   0.0280101   0.0000000), wk =   0.0555556
        k(   15) = (  -0.0758644   0.0560203   0.0000000), wk =   0.0555556
        k(   16) = (  -0.0758644  -0.0840304   0.0000000), wk =   0.0277778
        k(   17) = (  -0.0252881   0.0280101   0.0000000), wk =   0.0555556
        k(   18) = (  -0.0252881   0.0560203   0.0000000), wk =   0.0555556
        k(   19) = (  -0.0505763   0.0280101   0.0000000), wk =   0.0555556
        k(   20) = (  -0.0505763   0.0560203   0.0000000), wk =   0.0555556
        k(   21) = (   0.0000000   0.0000000   0.0000000), wk =   0.0277778
        k(   22) = (   0.0000000   0.0280101   0.0000000), wk =   0.0555556
        k(   23) = (   0.0000000   0.0560203   0.0000000), wk =   0.0555556
        k(   24) = (   0.0000000  -0.0840304   0.0000000), wk =   0.0277778
        k(   25) = (   0.0252881   0.0000000   0.0000000), wk =   0.0555556
        k(   26) = (   0.0252881   0.0280101   0.0000000), wk =   0.0555556
        k(   27) = (   0.0252881   0.0560203   0.0000000), wk =   0.0555556
        k(   28) = (   0.0252881  -0.0840304   0.0000000), wk =   0.0555556
        k(   29) = (   0.0505763   0.0000000   0.0000000), wk =   0.0555556
        k(   30) = (   0.0505763   0.0280101   0.0000000), wk =   0.0555556
        k(   31) = (   0.0505763   0.0560203   0.0000000), wk =   0.0555556
        k(   32) = (   0.0505763  -0.0840304   0.0000000), wk =   0.0555556
        k(   33) = (  -0.0758644   0.0000000   0.0000000), wk =   0.0277778
        k(   34) = (  -0.0758644   0.0280101   0.0000000), wk =   0.0555556
        k(   35) = (  -0.0758644   0.0560203   0.0000000), wk =   0.0555556
        k(   36) = (  -0.0758644  -0.0840304   0.0000000), wk =   0.0277778
        k(   37) = (  -0.0252881   0.0280101   0.0000000), wk =   0.0555556
        k(   38) = (  -0.0252881   0.0560203   0.0000000), wk =   0.0555556
        k(   39) = (  -0.0505763   0.0280101   0.0000000), wk =   0.0555556
        k(   40) = (  -0.0505763   0.0560203   0.0000000), wk =   0.0555556

     Dense  grid:  1096637 G-vectors     FFT dimensions: (  80,  72, 375)

     Smooth grid:   277353 G-vectors     FFT dimensions: (  54,  45, 240)

     Largest allocated arrays     est. size (Mb)     dimensions
        Kohn-Sham Wavefunctions         9.95 Mb     (    2180,  299)
        NL pseudopotentials            18.89 Mb     (    2180,  568)
        Each V/rho on FFT grid          4.22 Mb     (  138240,   2)
        Each G-vector array             0.52 Mb     (   68538)
        G-vector shells                 0.25 Mb     (   33046)
     Largest temporary arrays     est. size (Mb)     dimensions
        Auxiliary wavefunctions        39.78 Mb     (    2180, 1196)
        Each subspace H/S matrix       21.83 Mb     (    1196, 1196)
        Each <psi_i|beta_j> matrix      2.59 Mb     (     568,  299)
        Arrays for rho mixing          21.09 Mb     (  138240,   10)

     Check: negative/imaginary core charge=   -0.000049    0.000000

     The initial density is read from file :
     ./calc.save/charge-density.dat


     negative rho (up, down):  1.209E-02 1.209E-02


     ************************************************************************
     *
     * You are using vdW-DF for exchange-correlation in this calculation.
     * Please cite the following three references that made this development
     * possible:
     *
     *   M. Dion, H. Rydberg, E. Schroder, D. C. Langreth, and
     *   B. I. Lundqvist, Phys. Rev. Lett. 92, 246401 (2004).
     *
     *   T. Thonhauser, V. R. Cooper, S. Li, A. Puzder, P. Hyldgaard, and
     *   D. C. Langreth, Phys. Rev. B 76, 125112 (2007).
     *
     *   G. Roman-Perez and J. M. Soler, Phys. Rev. Lett. 103, 096102 (2009).
     *
     *
     * If you are using vdW-DF2, please also cite:
     *
     *   K. Lee, E. D. Murray, L. Kong, B. I. Lundqvist, and
     *   D. C. Langreth, Phys. Rev. B 82, 081101(R) (2010).
     *
     *
     * If you are calculating the stress with vdW-DF, please also cite:
     *
     *   R. Sabatini, E. Kucukbenli, B. Kolb, T. Thonhauser, and
     *   S. de Gironcoli, J. Phys.: Condens. Matter 24, 424209 (2012).
     *
     ************************************************************************

     Carrying out vdW-DF run using the following parameters:

     Nqs =      20    Nr_points =    1024   r_max =   100.000
     q_mesh =
               0.00001000     0.04494208     0.09755937     0.15916263
               0.23128650     0.31572767     0.41458969     0.53033537
               0.66584808     0.82450364     1.01025438     1.22772762
               1.48234092     1.78043706     2.12944203     2.53805004
               3.01644009     3.57652955     4.23227104     5.00000000

     Gradients computed in reciprocal space

     ************************************************************************


     Starting wfc are  300 randomized atomic wfcs

     total cpu time spent up to now is       69.5 secs

     Self-consistent Calculation

     iteration #  1     ecut=    40.42 Ry     beta=0.10
     Davidson diagonalization with overlap
     ethr =  1.00E-05,  avg # of iterations = 14.7

     negative rho (up, down):  1.209E-02 1.209E-02
 
     Magnetic moment per site:
     atom:    1    charge:    3.1250    magn:   -0.0002    constr:    0.0000
     atom:    2    charge:    1.9452    magn:    0.0000    constr:    0.0000
     atom:    3    charge:    3.1198    magn:    0.0000    constr:    0.0000
     atom:    4    charge:    1.9504    magn:   -0.0001    constr:    0.0000
     atom:    5    charge:    3.1166    magn:    0.0000    constr:    0.0000
     atom:    6    charge:    1.9477    magn:   -0.0001    constr:    0.0000
     atom:    7    charge:    3.1157    magn:    0.0001    constr:    0.0000
     atom:    8    charge:    1.9451    magn:   -0.0001    constr:    0.0000
     atom:    9    charge:    3.1250    magn:   -0.0002    constr:    0.0000
     atom:   10    charge:    1.9452    magn:    0.0000    constr:    0.0000
     atom:   11    charge:    3.1197    magn:    0.0000    constr:    0.0000
     atom:   12    charge:    1.9504    magn:   -0.0001    constr:    0.0000
     atom:   13    charge:    3.1158    magn:    0.0000    constr:    0.0000
     atom:   14    charge:    1.9587    magn:   -0.0001    constr:    0.0000
     atom:   15    charge:    3.1188    magn:    0.0001    constr:    0.0000
     atom:   16    charge:    1.9447    magn:   -0.0001    constr:    0.0000
     atom:   17    charge:    1.9184    magn:    0.0004    constr:    0.0000
     atom:   18    charge:    3.1240    magn:   -0.0001    constr:    0.0000
     atom:   19    charge:    1.9408    magn:   -0.0000    constr:    0.0000
     atom:   20    charge:    1.9471    magn:    0.0000    constr:    0.0000
     atom:   21    charge:    1.9471    magn:    0.0000    constr:    0.0000
     atom:   22    charge:    3.1196    magn:    0.0000    constr:    0.0000
     atom:   23    charge:    1.9566    magn:   -0.0001    constr:    0.0000
     atom:   24    charge:    1.9379    magn:   -0.0001    constr:    0.0000
     atom:   25    charge:    1.9505    magn:   -0.0001    constr:    0.0000
     atom:   26    charge:    3.1145    magn:    0.0001    constr:    0.0000
     atom:   27    charge:    1.9398    magn:   -0.0001    constr:    0.0000
     atom:   28    charge:    1.9517    magn:   -0.0001    constr:    0.0000
     atom:   29    charge:    1.9476    magn:   -0.0001    constr:    0.0000
     atom:   30    charge:    3.1166    magn:    0.0000    constr:    0.0000
     atom:   31    charge:    1.9447    magn:   -0.0000    constr:    0.0000
     atom:   32    charge:    1.9439    magn:   -0.0001    constr:    0.0000
     atom:   33    charge:    1.9184    magn:    0.0004    constr:    0.0000
     atom:   34    charge:    3.1239    magn:   -0.0001    constr:    0.0000
     atom:   35    charge:    1.9408    magn:   -0.0000    constr:    0.0000
     atom:   36    charge:    1.9471    magn:    0.0000    constr:    0.0000
     atom:   37    charge:    1.9471    magn:    0.0000    constr:    0.0000
     atom:   38    charge:    3.1196    magn:    0.0000    constr:    0.0000
     atom:   39    charge:    1.9549    magn:   -0.0001    constr:    0.0000
     atom:   40    charge:    1.9383    magn:   -0.0001    constr:    0.0000
     atom:   41    charge:    1.9505    magn:   -0.0001    constr:    0.0000
     atom:   42    charge:    3.1141    magn:    0.0001    constr:    0.0000
     atom:   43    charge:    1.9413    magn:   -0.0001    constr:    0.0000
     atom:   44    charge:    1.9518    magn:   -0.0001    constr:    0.0000
     atom:   45    charge:    1.9468    magn:   -0.0001    constr:    0.0000
     atom:   46    charge:    3.1166    magn:    0.0000    constr:    0.0000
     atom:   47    charge:    1.9431    magn:   -0.0000    constr:    0.0000
     atom:   48    charge:    1.9445    magn:   -0.0001    constr:    0.0000
     atom:   49    charge:    0.6579    magn:   -0.0001    constr:    0.0000
     atom:   50    charge:    1.9577    magn:   -0.0001    constr:    0.0000
     atom:   51    charge:    0.4021    magn:    0.0000    constr:    0.0000
     atom:   52    charge:    0.4006    magn:    0.0000    constr:    0.0000
     atom:   53    charge:    0.4010    magn:    0.0000    constr:    0.0000
     atom:   54    charge:    0.4063    magn:    0.0000    constr:    0.0000

     total cpu time spent up to now is      807.7 secs

     total energy              =   -3021.42325329 Ry
     Harris-Foulkes estimate   =   -3021.42551408 Ry
     estimated scf accuracy    <       0.01558832 Ry

     total magnetization       =     0.00 Bohr mag/cell
     absolute magnetization    =     0.01 Bohr mag/cell

     iteration #  2     ecut=    40.42 Ry     beta=0.10
     Davidson diagonalization with overlap
     ethr =  3.92E-06,  avg # of iterations =  1.9

     negative rho (up, down):  1.209E-02 1.209E-02
 
     Magnetic moment per site:
     atom:    1    charge:    3.1250    magn:   -0.0001    constr:    0.0000
     atom:    2    charge:    1.9452    magn:    0.0000    constr:    0.0000
     atom:    3    charge:    3.1198    magn:    0.0000    constr:    0.0000
     atom:    4    charge:    1.9504    magn:   -0.0000    constr:    0.0000
     atom:    5    charge:    3.1166    magn:    0.0000    constr:    0.0000
     atom:    6    charge:    1.9476    magn:   -0.0001    constr:    0.0000
     atom:    7    charge:    3.1157    magn:    0.0000    constr:    0.0000
     atom:    8    charge:    1.9449    magn:   -0.0001    constr:    0.0000
     atom:    9    charge:    3.1250    magn:   -0.0001    constr:    0.0000
     atom:   10    charge:    1.9452    magn:    0.0000    constr:    0.0000
     atom:   11    charge:    3.1197    magn:    0.0000    constr:    0.0000
     atom:   12    charge:    1.9504    magn:   -0.0000    constr:    0.0000
     atom:   13    charge:    3.1158    magn:    0.0000    constr:    0.0000
     atom:   14    charge:    1.9587    magn:   -0.0001    constr:    0.0000
     atom:   15    charge:    3.1188    magn:    0.0000    constr:    0.0000
     atom:   16    charge:    1.9449    magn:   -0.0001    constr:    0.0000
     atom:   17    charge:    1.9184    magn:    0.0003    constr:    0.0000
     atom:   18    charge:    3.1239    magn:   -0.0001    constr:    0.0000
     atom:   19    charge:    1.9408    magn:   -0.0000    constr:    0.0000
     atom:   20    charge:    1.9471    magn:    0.0000    constr:    0.0000
     atom:   21    charge:    1.9471    magn:    0.0000    constr:    0.0000
     atom:   22    charge:    3.1196    magn:    0.0000    constr:    0.0000
     atom:   23    charge:    1.9566    magn:   -0.0001    constr:    0.0000
     atom:   24    charge:    1.9379    magn:   -0.0000    constr:    0.0000
     atom:   25    charge:    1.9505    magn:   -0.0000    constr:    0.0000
     atom:   26    charge:    3.1145    magn:    0.0000    constr:    0.0000
     atom:   27    charge:    1.9398    magn:   -0.0000    constr:    0.0000
     atom:   28    charge:    1.9517    magn:   -0.0001    constr:    0.0000
     atom:   29    charge:    1.9476    magn:   -0.0001    constr:    0.0000
     atom:   30    charge:    3.1165    magn:    0.0000    constr:    0.0000
     atom:   31    charge:    1.9447    magn:   -0.0000    constr:    0.0000
     atom:   32    charge:    1.9438    magn:   -0.0001    constr:    0.0000
     atom:   33    charge:    1.9184    magn:    0.0003    constr:    0.0000
     atom:   34    charge:    3.1239    magn:   -0.0001    constr:    0.0000
     atom:   35    charge:    1.9408    magn:   -0.0000    constr:    0.0000
     atom:   36    charge:    1.9471    magn:    0.0000    constr:    0.0000
     atom:   37    charge:    1.9471    magn:    0.0000    constr:    0.0000
     atom:   38    charge:    3.1196    magn:    0.0000    constr:    0.0000
     atom:   39    charge:    1.9550    magn:   -0.0001    constr:    0.0000
     atom:   40    charge:    1.9383    magn:   -0.0000    constr:    0.0000
     atom:   41    charge:    1.9505    magn:   -0.0000    constr:    0.0000
     atom:   42    charge:    3.1141    magn:    0.0000    constr:    0.0000
     atom:   43    charge:    1.9413    magn:   -0.0000    constr:    0.0000
     atom:   44    charge:    1.9517    magn:   -0.0001    constr:    0.0000
     atom:   45    charge:    1.9469    magn:   -0.0001    constr:    0.0000
     atom:   46    charge:    3.1166    magn:    0.0000    constr:    0.0000
     atom:   47    charge:    1.9431    magn:   -0.0000    constr:    0.0000
     atom:   48    charge:    1.9447    magn:   -0.0001    constr:    0.0000
     atom:   49    charge:    0.6588    magn:   -0.0000    constr:    0.0000
     atom:   50    charge:    1.9575    magn:   -0.0000    constr:    0.0000
     atom:   51    charge:    0.4016    magn:    0.0000    constr:    0.0000
     atom:   52    charge:    0.4006    magn:    0.0000    constr:    0.0000
     atom:   53    charge:    0.3897    magn:    0.0000    constr:    0.0000
     atom:   54    charge:    0.4176    magn:    0.0000    constr:    0.0000

     total cpu time spent up to now is      987.9 secs

     total energy              =   -3021.41651473 Ry
     Harris-Foulkes estimate   =   -3021.42335289 Ry
     estimated scf accuracy    <       0.01095473 Ry

     total magnetization       =     0.00 Bohr mag/cell
     absolute magnetization    =     0.01 Bohr mag/cell

     iteration #  3     ecut=    40.42 Ry     beta=0.10
     Davidson diagonalization with overlap
     ethr =  2.75E-06,  avg # of iterations =  4.8

     negative rho (up, down):  1.209E-02 1.209E-02
 
     Magnetic moment per site:
     atom:    1    charge:    3.1250    magn:   -0.0001    constr:    0.0000
     atom:    2    charge:    1.9452    magn:    0.0000    constr:    0.0000
     atom:    3    charge:    3.1198    magn:    0.0000    constr:    0.0000
     atom:    4    charge:    1.9504    magn:   -0.0000    constr:    0.0000
     atom:    5    charge:    3.1166    magn:    0.0000    constr:    0.0000
     atom:    6    charge:    1.9477    magn:   -0.0001    constr:    0.0000
     atom:    7    charge:    3.1157    magn:    0.0000    constr:    0.0000
     atom:    8    charge:    1.9453    magn:   -0.0001    constr:    0.0000
     atom:    9    charge:    3.1250    magn:   -0.0001    constr:    0.0000
     atom:   10    charge:    1.9452    magn:    0.0000    constr:    0.0000
     atom:   11    charge:    3.1197    magn:    0.0000    constr:    0.0000
     atom:   12    charge:    1.9504    magn:   -0.0000    constr:    0.0000
     atom:   13    charge:    3.1158    magn:    0.0000    constr:    0.0000
     atom:   14    charge:    1.9587    magn:   -0.0001    constr:    0.0000
     atom:   15    charge:    3.1188    magn:    0.0000    constr:    0.0000
     atom:   16    charge:    1.9444    magn:   -0.0001    constr:    0.0000
     atom:   17    charge:    1.9184    magn:    0.0003    constr:    0.0000
     atom:   18    charge:    3.1239    magn:   -0.0001    constr:    0.0000
     atom:   19    charge:    1.9408    magn:   -0.0000    constr:    0.0000
     atom:   20    charge:    1.9471    magn:    0.0000    constr:    0.0000
     atom:   21    charge:    1.9471    magn:    0.0000    constr:    0.0000
     atom:   22    charge:    3.1196    magn:    0.0000    constr:    0.0000
     atom:   23    charge:    1.9566    magn:   -0.0001    constr:    0.0000
     atom:   24    charge:    1.9379    magn:   -0.0000    constr:    0.0000
     atom:   25    charge:    1.9505    magn:   -0.0000    constr:    0.0000
     atom:   26    charge:    3.1145    magn:    0.0000    constr:    0.0000
     atom:   27    charge:    1.9398    magn:   -0.0000    constr:    0.0000
     atom:   28    charge:    1.9517    magn:   -0.0000    constr:    0.0000
     atom:   29    charge:    1.9476    magn:   -0.0001    constr:    0.0000
     atom:   30    charge:    3.1168    magn:    0.0000    constr:    0.0000
     atom:   31    charge:    1.9446    magn:   -0.0000    constr:    0.0000
     atom:   32    charge:    1.9441    magn:   -0.0001    constr:    0.0000
     atom:   33    charge:    1.9184    magn:    0.0003    constr:    0.0000
     atom:   34    charge:    3.1239    magn:   -0.0001    constr:    0.0000
     atom:   35    charge:    1.9408    magn:   -0.0000    constr:    0.0000
     atom:   36    charge:    1.9471    magn:    0.0000    constr:    0.0000
     atom:   37    charge:    1.9471    magn:    0.0000    constr:    0.0000
     atom:   38    charge:    3.1196    magn:    0.0000    constr:    0.0000
     atom:   39    charge:    1.9550    magn:   -0.0001    constr:    0.0000
     atom:   40    charge:    1.9383    magn:   -0.0000    constr:    0.0000
     atom:   41    charge:    1.9505    magn:   -0.0000    constr:    0.0000
     atom:   42    charge:    3.1141    magn:    0.0000    constr:    0.0000
     atom:   43    charge:    1.9413    magn:   -0.0000    constr:    0.0000
     atom:   44    charge:    1.9517    magn:   -0.0000    constr:    0.0000
     atom:   45    charge:    1.9468    magn:   -0.0001    constr:    0.0000
     atom:   46    charge:    3.1163    magn:    0.0000    constr:    0.0000
     atom:   47    charge:    1.9431    magn:   -0.0000    constr:    0.0000
     atom:   48    charge:    1.9443    magn:   -0.0001    constr:    0.0000
     atom:   49    charge:    0.6586    magn:   -0.0000    constr:    0.0000
     atom:   50    charge:    1.9576    magn:   -0.0000    constr:    0.0000
     atom:   51    charge:    0.4016    magn:    0.0000    constr:    0.0000
     atom:   52    charge:    0.4006    magn:    0.0000    constr:    0.0000
     atom:   53    charge:    0.3900    magn:    0.0000    constr:    0.0000
     atom:   54    charge:    0.4175    magn:    0.0000    constr:    0.0000

     total cpu time spent up to now is     1226.1 secs

     total energy              =   -3021.41836753 Ry
     Harris-Foulkes estimate   =   -3021.41843531 Ry
     estimated scf accuracy    <       0.00030359 Ry

     total magnetization       =     0.00 Bohr mag/cell
     absolute magnetization    =     0.00 Bohr mag/cell

     iteration #  4     ecut=    40.42 Ry     beta=0.10
     Davidson diagonalization with overlap
     ethr =  7.63E-08,  avg # of iterations =  2.0

     negative rho (up, down):  1.209E-02 1.209E-02
 
     Magnetic moment per site:
     atom:    1    charge:    3.1250    magn:   -0.0001    constr:    0.0000
     atom:    2    charge:    1.9452    magn:    0.0000    constr:    0.0000
     atom:    3    charge:    3.1198    magn:    0.0000    constr:    0.0000
     atom:    4    charge:    1.9504    magn:   -0.0000    constr:    0.0000
     atom:    5    charge:    3.1166    magn:    0.0000    constr:    0.0000
     atom:    6    charge:    1.9477    magn:   -0.0000    constr:    0.0000
     atom:    7    charge:    3.1157    magn:    0.0000    constr:    0.0000
     atom:    8    charge:    1.9454    magn:   -0.0000    constr:    0.0000
     atom:    9    charge:    3.1250    magn:   -0.0001    constr:    0.0000
     atom:   10    charge:    1.9452    magn:    0.0000    constr:    0.0000
     atom:   11    charge:    3.1197    magn:    0.0000    constr:    0.0000
     atom:   12    charge:    1.9504    magn:   -0.0000    constr:    0.0000
     atom:   13    charge:    3.1158    magn:    0.0000    constr:    0.0000
     atom:   14    charge:    1.9587    magn:   -0.0000    constr:    0.0000
     atom:   15    charge:    3.1188    magn:    0.0000    constr:    0.0000
     atom:   16    charge:    1.9444    magn:   -0.0000    constr:    0.0000
     atom:   17    charge:    1.9184    magn:    0.0002    constr:    0.0000
     atom:   18    charge:    3.1239    magn:   -0.0000    constr:    0.0000
     atom:   19    charge:    1.9408    magn:   -0.0000    constr:    0.0000
     atom:   20    charge:    1.9471    magn:    0.0000    constr:    0.0000
     atom:   21    charge:    1.9471    magn:    0.0000    constr:    0.0000
     atom:   22    charge:    3.1196    magn:    0.0000    constr:    0.0000
     atom:   23    charge:    1.9566    magn:   -0.0000    constr:    0.0000
     atom:   24    charge:    1.9379    magn:   -0.0000    constr:    0.0000
     atom:   25    charge:    1.9505    magn:   -0.0000    constr:    0.0000
     atom:   26    charge:    3.1145    magn:    0.0000    constr:    0.0000
     atom:   27    charge:    1.9398    magn:   -0.0000    constr:    0.0000
     atom:   28    charge:    1.9517    magn:   -0.0000    constr:    0.0000
     atom:   29    charge:    1.9476    magn:   -0.0000    constr:    0.0000
     atom:   30    charge:    3.1167    magn:    0.0000    constr:    0.0000
     atom:   31    charge:    1.9447    magn:   -0.0000    constr:    0.0000
     atom:   32    charge:    1.9441    magn:   -0.0000    constr:    0.0000
     atom:   33    charge:    1.9184    magn:    0.0002    constr:    0.0000
     atom:   34    charge:    3.1239    magn:   -0.0000    constr:    0.0000
     atom:   35    charge:    1.9408    magn:   -0.0000    constr:    0.0000
     atom:   36    charge:    1.9471    magn:    0.0000    constr:    0.0000
     atom:   37    charge:    1.9471    magn:    0.0000    constr:    0.0000
     atom:   38    charge:    3.1196    magn:    0.0000    constr:    0.0000
     atom:   39    charge:    1.9549    magn:   -0.0000    constr:    0.0000
     atom:   40    charge:    1.9383    magn:   -0.0000    constr:    0.0000
     atom:   41    charge:    1.9505    magn:   -0.0000    constr:    0.0000
     atom:   42    charge:    3.1141    magn:    0.0000    constr:    0.0000
     atom:   43    charge:    1.9413    magn:   -0.0000    constr:    0.0000
     atom:   44    charge:    1.9518    magn:   -0.0000    constr:    0.0000
     atom:   45    charge:    1.9468    magn:   -0.0000    constr:    0.0000
     atom:   46    charge:    3.1164    magn:    0.0000    constr:    0.0000
     atom:   47    charge:    1.9431    magn:   -0.0000    constr:    0.0000
     atom:   48    charge:    1.9443    magn:   -0.0000    constr:    0.0000
     atom:   49    charge:    0.6586    magn:   -0.0000    constr:    0.0000
     atom:   50    charge:    1.9577    magn:   -0.0000    constr:    0.0000
     atom:   51    charge:    0.4017    magn:    0.0000    constr:    0.0000
     atom:   52    charge:    0.4006    magn:    0.0000    constr:    0.0000
     atom:   53    charge:    0.3896    magn:    0.0000    constr:    0.0000
     atom:   54    charge:    0.4180    magn:    0.0000    constr:    0.0000

     total cpu time spent up to now is     1407.9 secs

     total energy              =   -3021.41837438 Ry
     Harris-Foulkes estimate   =   -3021.41839099 Ry
     estimated scf accuracy    <       0.00008628 Ry

     total magnetization       =     0.00 Bohr mag/cell
     absolute magnetization    =     0.00 Bohr mag/cell

     iteration #  5     ecut=    40.42 Ry     beta=0.10
     Davidson diagonalization with overlap
     ethr =  2.17E-08,  avg # of iterations =  4.0

     negative rho (up, down):  1.209E-02 1.209E-02
 
     Magnetic moment per site:
     atom:    1    charge:    3.1250    magn:   -0.0001    constr:    0.0000
     atom:    2    charge:    1.9452    magn:    0.0000    constr:    0.0000
     atom:    3    charge:    3.1198    magn:    0.0000    constr:    0.0000
     atom:    4    charge:    1.9504    magn:   -0.0000    constr:    0.0000
     atom:    5    charge:    3.1166    magn:    0.0000    constr:    0.0000
     atom:    6    charge:    1.9476    magn:   -0.0000    constr:    0.0000
     atom:    7    charge:    3.1157    magn:    0.0000    constr:    0.0000
     atom:    8    charge:    1.9453    magn:   -0.0000    constr:    0.0000
     atom:    9    charge:    3.1250    magn:   -0.0001    constr:    0.0000
     atom:   10    charge:    1.9452    magn:    0.0000    constr:    0.0000
     atom:   11    charge:    3.1197    magn:    0.0000    constr:    0.0000
     atom:   12    charge:    1.9504    magn:   -0.0000    constr:    0.0000
     atom:   13    charge:    3.1158    magn:    0.0000    constr:    0.0000
     atom:   14    charge:    1.9587    magn:   -0.0000    constr:    0.0000
     atom:   15    charge:    3.1188    magn:    0.0000    constr:    0.0000
     atom:   16    charge:    1.9445    magn:   -0.0000    constr:    0.0000
     atom:   17    charge:    1.9184    magn:    0.0002    constr:    0.0000
     atom:   18    charge:    3.1239    magn:   -0.0000    constr:    0.0000
     atom:   19    charge:    1.9408    magn:   -0.0000    constr:    0.0000
     atom:   20    charge:    1.9471    magn:    0.0000    constr:    0.0000
     atom:   21    charge:    1.9471    magn:    0.0000    constr:    0.0000
     atom:   22    charge:    3.1196    magn:    0.0000    constr:    0.0000
     atom:   23    charge:    1.9566    magn:   -0.0000    constr:    0.0000
     atom:   24    charge:    1.9379    magn:   -0.0000    constr:    0.0000
     atom:   25    charge:    1.9505    magn:   -0.0000    constr:    0.0000
     atom:   26    charge:    3.1145    magn:    0.0000    constr:    0.0000
     atom:   27    charge:    1.9398    magn:   -0.0000    constr:    0.0000
     atom:   28    charge:    1.9517    magn:   -0.0000    constr:    0.0000
     atom:   29    charge:    1.9476    magn:   -0.0000    constr:    0.0000
     atom:   30    charge:    3.1166    magn:    0.0000    constr:    0.0000
     atom:   31    charge:    1.9447    magn:   -0.0000    constr:    0.0000
     atom:   32    charge:    1.9441    magn:   -0.0000    constr:    0.0000
     atom:   33    charge:    1.9184    magn:    0.0002    constr:    0.0000
     atom:   34    charge:    3.1239    magn:   -0.0000    constr:    0.0000
     atom:   35    charge:    1.9408    magn:   -0.0000    constr:    0.0000
     atom:   36    charge:    1.9471    magn:    0.0000    constr:    0.0000
     atom:   37    charge:    1.9471    magn:    0.0000    constr:    0.0000
     atom:   38    charge:    3.1196    magn:    0.0000    constr:    0.0000
     atom:   39    charge:    1.9549    magn:   -0.0000    constr:    0.0000
     atom:   40    charge:    1.9383    magn:   -0.0000    constr:    0.0000
     atom:   41    charge:    1.9505    magn:   -0.0000    constr:    0.0000
     atom:   42    charge:    3.1141    magn:    0.0000    constr:    0.0000
     atom:   43    charge:    1.9413    magn:   -0.0000    constr:    0.0000
     atom:   44    charge:    1.9518    magn:   -0.0000    constr:    0.0000
     atom:   45    charge:    1.9468    magn:   -0.0000    constr:    0.0000
     atom:   46    charge:    3.1165    magn:    0.0000    constr:    0.0000
     atom:   47    charge:    1.9431    magn:   -0.0000    constr:    0.0000
     atom:   48    charge:    1.9444    magn:   -0.0000    constr:    0.0000
     atom:   49    charge:    0.6584    magn:   -0.0000    constr:    0.0000
     atom:   50    charge:    1.9578    magn:   -0.0000    constr:    0.0000
     atom:   51    charge:    0.4018    magn:    0.0000    constr:    0.0000
     atom:   52    charge:    0.4006    magn:    0.0000    constr:    0.0000
     atom:   53    charge:    0.3906    magn:    0.0000    constr:    0.0000
     atom:   54    charge:    0.4173    magn:    0.0000    constr:    0.0000

     total cpu time spent up to now is     1623.4 secs

     total energy              =   -3021.41837092 Ry
     Harris-Foulkes estimate   =   -3021.41838708 Ry
     estimated scf accuracy    <       0.00004967 Ry

     total magnetization       =     0.00 Bohr mag/cell
     absolute magnetization    =     0.00 Bohr mag/cell

     iteration #  6     ecut=    40.42 Ry     beta=0.10
     Davidson diagonalization with overlap
     ethr =  1.25E-08,  avg # of iterations =  3.0

     negative rho (up, down):  1.209E-02 1.209E-02
 
     Magnetic moment per site:
     atom:    1    charge:    3.1250    magn:   -0.0001    constr:    0.0000
     atom:    2    charge:    1.9452    magn:    0.0000    constr:    0.0000
     atom:    3    charge:    3.1198    magn:    0.0000    constr:    0.0000
     atom:    4    charge:    1.9504    magn:   -0.0000    constr:    0.0000
     atom:    5    charge:    3.1166    magn:    0.0000    constr:    0.0000
     atom:    6    charge:    1.9476    magn:   -0.0000    constr:    0.0000
     atom:    7    charge:    3.1157    magn:    0.0000    constr:    0.0000
     atom:    8    charge:    1.9452    magn:   -0.0000    constr:    0.0000
     atom:    9    charge:    3.1250    magn:   -0.0001    constr:    0.0000
     atom:   10    charge:    1.9452    magn:    0.0000    constr:    0.0000
     atom:   11    charge:    3.1197    magn:    0.0000    constr:    0.0000
     atom:   12    charge:    1.9504    magn:   -0.0000    constr:    0.0000
     atom:   13    charge:    3.1158    magn:    0.0000    constr:    0.0000
     atom:   14    charge:    1.9587    magn:   -0.0000    constr:    0.0000
     atom:   15    charge:    3.1188    magn:    0.0000    constr:    0.0000
     atom:   16    charge:    1.9446    magn:   -0.0000    constr:    0.0000
     atom:   17    charge:    1.9184    magn:    0.0002    constr:    0.0000
     atom:   18    charge:    3.1239    magn:   -0.0000    constr:    0.0000
     atom:   19    charge:    1.9408    magn:   -0.0000    constr:    0.0000
     atom:   20    charge:    1.9471    magn:    0.0000    constr:    0.0000
     atom:   21    charge:    1.9471    magn:    0.0000    constr:    0.0000
     atom:   22    charge:    3.1196    magn:    0.0000    constr:    0.0000
     atom:   23    charge:    1.9566    magn:   -0.0000    constr:    0.0000
     atom:   24    charge:    1.9379    magn:   -0.0000    constr:    0.0000
     atom:   25    charge:    1.9505    magn:   -0.0000    constr:    0.0000
     atom:   26    charge:    3.1145    magn:    0.0000    constr:    0.0000
     atom:   27    charge:    1.9398    magn:   -0.0000    constr:    0.0000
     atom:   28    charge:    1.9517    magn:   -0.0000    constr:    0.0000
     atom:   29    charge:    1.9476    magn:   -0.0000    constr:    0.0000
     atom:   30    charge:    3.1166    magn:    0.0000    constr:    0.0000
     atom:   31    charge:    1.9447    magn:   -0.0000    constr:    0.0000
     atom:   32    charge:    1.9440    magn:   -0.0000    constr:    0.0000
     atom:   33    charge:    1.9184    magn:    0.0002    constr:    0.0000
     atom:   34    charge:    3.1239    magn:   -0.0000    constr:    0.0000
     atom:   35    charge:    1.9408    magn:   -0.0000    constr:    0.0000
     atom:   36    charge:    1.9471    magn:    0.0000    constr:    0.0000
     atom:   37    charge:    1.9471    magn:    0.0000    constr:    0.0000
     atom:   38    charge:    3.1196    magn:    0.0000    constr:    0.0000
     atom:   39    charge:    1.9549    magn:   -0.0000    constr:    0.0000
     atom:   40    charge:    1.9383    magn:   -0.0000    constr:    0.0000
     atom:   41    charge:    1.9505    magn:   -0.0000    constr:    0.0000
     atom:   42    charge:    3.1141    magn:    0.0000    constr:    0.0000
     atom:   43    charge:    1.9413    magn:   -0.0000    constr:    0.0000
     atom:   44    charge:    1.9517    magn:   -0.0000    constr:    0.0000
     atom:   45    charge:    1.9468    magn:   -0.0000    constr:    0.0000
     atom:   46    charge:    3.1165    magn:    0.0000    constr:    0.0000
     atom:   47    charge:    1.9431    magn:   -0.0000    constr:    0.0000
     atom:   48    charge:    1.9445    magn:   -0.0000    constr:    0.0000
     atom:   49    charge:    0.6584    magn:   -0.0000    constr:    0.0000
     atom:   50    charge:    1.9578    magn:   -0.0000    constr:    0.0000
     atom:   51    charge:    0.4019    magn:    0.0000    constr:    0.0000
     atom:   52    charge:    0.4006    magn:    0.0000    constr:    0.0000
     atom:   53    charge:    0.3912    magn:    0.0000    constr:    0.0000
     atom:   54    charge:    0.4168    magn:    0.0000    constr:    0.0000

     total cpu time spent up to now is     1823.0 secs

     total energy              =   -3021.41837271 Ry
     Harris-Foulkes estimate   =   -3021.41837435 Ry
     estimated scf accuracy    <       0.00001085 Ry

     total magnetization       =     0.00 Bohr mag/cell
     absolute magnetization    =     0.00 Bohr mag/cell

     iteration #  7     ecut=    40.42 Ry     beta=0.10
     Davidson diagonalization with overlap
     ethr =  2.73E-09,  avg # of iterations =  3.0

     negative rho (up, down):  1.209E-02 1.209E-02
 
     Magnetic moment per site:
     atom:    1    charge:    3.1250    magn:   -0.0001    constr:    0.0000
     atom:    2    charge:    1.9452    magn:    0.0000    constr:    0.0000
     atom:    3    charge:    3.1198    magn:    0.0000    constr:    0.0000
     atom:    4    charge:    1.9504    magn:   -0.0000    constr:    0.0000
     atom:    5    charge:    3.1166    magn:    0.0000    constr:    0.0000
     atom:    6    charge:    1.9476    magn:   -0.0000    constr:    0.0000
     atom:    7    charge:    3.1157    magn:    0.0000    constr:    0.0000
     atom:    8    charge:    1.9452    magn:   -0.0000    constr:    0.0000
     atom:    9    charge:    3.1250    magn:   -0.0001    constr:    0.0000
     atom:   10    charge:    1.9452    magn:    0.0000    constr:    0.0000
     atom:   11    charge:    3.1197    magn:    0.0000    constr:    0.0000
     atom:   12    charge:    1.9504    magn:   -0.0000    constr:    0.0000
     atom:   13    charge:    3.1158    magn:    0.0000    constr:    0.0000
     atom:   14    charge:    1.9587    magn:   -0.0000    constr:    0.0000
     atom:   15    charge:    3.1188    magn:    0.0000    constr:    0.0000
     atom:   16    charge:    1.9446    magn:   -0.0000    constr:    0.0000
     atom:   17    charge:    1.9184    magn:    0.0001    constr:    0.0000
     atom:   18    charge:    3.1239    magn:   -0.0000    constr:    0.0000
     atom:   19    charge:    1.9408    magn:   -0.0000    constr:    0.0000
     atom:   20    charge:    1.9471    magn:    0.0000    constr:    0.0000
     atom:   21    charge:    1.9471    magn:    0.0000    constr:    0.0000
     atom:   22    charge:    3.1196    magn:    0.0000    constr:    0.0000
     atom:   23    charge:    1.9566    magn:   -0.0000    constr:    0.0000
     atom:   24    charge:    1.9379    magn:   -0.0000    constr:    0.0000
     atom:   25    charge:    1.9505    magn:   -0.0000    constr:    0.0000
     atom:   26    charge:    3.1145    magn:    0.0000    constr:    0.0000
     atom:   27    charge:    1.9398    magn:   -0.0000    constr:    0.0000
     atom:   28    charge:    1.9517    magn:   -0.0000    constr:    0.0000
     atom:   29    charge:    1.9476    magn:   -0.0000    constr:    0.0000
     atom:   30    charge:    3.1167    magn:    0.0000    constr:    0.0000
     atom:   31    charge:    1.9447    magn:   -0.0000    constr:    0.0000
     atom:   32    charge:    1.9440    magn:   -0.0000    constr:    0.0000
     atom:   33    charge:    1.9184    magn:    0.0001    constr:    0.0000
     atom:   34    charge:    3.1239    magn:   -0.0000    constr:    0.0000
     atom:   35    charge:    1.9408    magn:   -0.0000    constr:    0.0000
     atom:   36    charge:    1.9471    magn:    0.0000    constr:    0.0000
     atom:   37    charge:    1.9471    magn:    0.0000    constr:    0.0000
     atom:   38    charge:    3.1196    magn:    0.0000    constr:    0.0000
     atom:   39    charge:    1.9549    magn:   -0.0000    constr:    0.0000
     atom:   40    charge:    1.9383    magn:   -0.0000    constr:    0.0000
     atom:   41    charge:    1.9505    magn:   -0.0000    constr:    0.0000
     atom:   42    charge:    3.1141    magn:    0.0000    constr:    0.0000
     atom:   43    charge:    1.9413    magn:   -0.0000    constr:    0.0000
     atom:   44    charge:    1.9517    magn:   -0.0000    constr:    0.0000
     atom:   45    charge:    1.9468    magn:   -0.0000    constr:    0.0000
     atom:   46    charge:    3.1165    magn:    0.0000    constr:    0.0000
     atom:   47    charge:    1.9431    magn:   -0.0000    constr:    0.0000
     atom:   48    charge:    1.9445    magn:   -0.0000    constr:    0.0000
     atom:   49    charge:    0.6585    magn:   -0.0000    constr:    0.0000
     atom:   50    charge:    1.9578    magn:   -0.0000    constr:    0.0000
     atom:   51    charge:    0.4018    magn:    0.0000    constr:    0.0000
     atom:   52    charge:    0.4006    magn:    0.0000    constr:    0.0000
     atom:   53    charge:    0.3912    magn:    0.0000    constr:    0.0000
     atom:   54    charge:    0.4168    magn:    0.0000    constr:    0.0000

     total cpu time spent up to now is     2024.4 secs

     total energy              =   -3021.41837336 Ry
     Harris-Foulkes estimate   =   -3021.41837373 Ry
     estimated scf accuracy    <       0.00000144 Ry

     total magnetization       =     0.00 Bohr mag/cell
     absolute magnetization    =     0.00 Bohr mag/cell

     iteration #  8     ecut=    40.42 Ry     beta=0.10
     Davidson diagonalization with overlap
     ethr =  3.62E-10,  avg # of iterations =  3.0

     negative rho (up, down):  1.209E-02 1.209E-02
 
     Magnetic moment per site:
     atom:    1    charge:    3.1250    magn:   -0.0000    constr:    0.0000
     atom:    2    charge:    1.9452    magn:    0.0000    constr:    0.0000
     atom:    3    charge:    3.1198    magn:    0.0000    constr:    0.0000
     atom:    4    charge:    1.9504    magn:   -0.0000    constr:    0.0000
     atom:    5    charge:    3.1166    magn:    0.0000    constr:    0.0000
     atom:    6    charge:    1.9476    magn:   -0.0000    constr:    0.0000
     atom:    7    charge:    3.1157    magn:    0.0000    constr:    0.0000
     atom:    8    charge:    1.9452    magn:   -0.0000    constr:    0.0000
     atom:    9    charge:    3.1250    magn:   -0.0000    constr:    0.0000
     atom:   10    charge:    1.9452    magn:    0.0000    constr:    0.0000
     atom:   11    charge:    3.1197    magn:    0.0000    constr:    0.0000
     atom:   12    charge:    1.9504    magn:   -0.0000    constr:    0.0000
     atom:   13    charge:    3.1158    magn:    0.0000    constr:    0.0000
     atom:   14    charge:    1.9587    magn:   -0.0000    constr:    0.0000
     atom:   15    charge:    3.1188    magn:    0.0000    constr:    0.0000
     atom:   16    charge:    1.9446    magn:   -0.0000    constr:    0.0000
     atom:   17    charge:    1.9184    magn:    0.0001    constr:    0.0000
     atom:   18    charge:    3.1239    magn:   -0.0000    constr:    0.0000
     atom:   19    charge:    1.9408    magn:   -0.0000    constr:    0.0000
     atom:   20    charge:    1.9471    magn:    0.0000    constr:    0.0000
     atom:   21    charge:    1.9471    magn:    0.0000    constr:    0.0000
     atom:   22    charge:    3.1196    magn:    0.0000    constr:    0.0000
     atom:   23    charge:    1.9566    magn:   -0.0000    constr:    0.0000
     atom:   24    charge:    1.9379    magn:   -0.0000    constr:    0.0000
     atom:   25    charge:    1.9505    magn:   -0.0000    constr:    0.0000
     atom:   26    charge:    3.1145    magn:    0.0000    constr:    0.0000
     atom:   27    charge:    1.9398    magn:   -0.0000    constr:    0.0000
     atom:   28    charge:    1.9517    magn:   -0.0000    constr:    0.0000
     atom:   29    charge:    1.9476    magn:   -0.0000    constr:    0.0000
     atom:   30    charge:    3.1167    magn:    0.0000    constr:    0.0000
     atom:   31    charge:    1.9447    magn:   -0.0000    constr:    0.0000
     atom:   32    charge:    1.9440    magn:   -0.0000    constr:    0.0000
     atom:   33    charge:    1.9184    magn:    0.0001    constr:    0.0000
     atom:   34    charge:    3.1239    magn:   -0.0000    constr:    0.0000
     atom:   35    charge:    1.9408    magn:   -0.0000    constr:    0.0000
     atom:   36    charge:    1.9471    magn:    0.0000    constr:    0.0000
     atom:   37    charge:    1.9471    magn:    0.0000    constr:    0.0000
     atom:   38    charge:    3.1196    magn:    0.0000    constr:    0.0000
     atom:   39    charge:    1.9549    magn:   -0.0000    constr:    0.0000
     atom:   40    charge:    1.9383    magn:   -0.0000    constr:    0.0000
     atom:   41    charge:    1.9505    magn:   -0.0000    constr:    0.0000
     atom:   42    charge:    3.1141    magn:    0.0000    constr:    0.0000
     atom:   43    charge:    1.9413    magn:   -0.0000    constr:    0.0000
     atom:   44    charge:    1.9517    magn:   -0.0000    constr:    0.0000
     atom:   45    charge:    1.9468    magn:   -0.0000    constr:    0.0000
     atom:   46    charge:    3.1165    magn:    0.0000    constr:    0.0000
     atom:   47    charge:    1.9431    magn:   -0.0000    constr:    0.0000
     atom:   48    charge:    1.9444    magn:   -0.0000    constr:    0.0000
     atom:   49    charge:    0.6585    magn:   -0.0000    constr:    0.0000
     atom:   50    charge:    1.9577    magn:   -0.0000    constr:    0.0000
     atom:   51    charge:    0.4019    magn:    0.0000    constr:    0.0000
     atom:   52    charge:    0.4006    magn:    0.0000    constr:    0.0000
     atom:   53    charge:    0.3914    magn:    0.0000    constr:    0.0000
     atom:   54    charge:    0.4166    magn:    0.0000    constr:    0.0000

     total cpu time spent up to now is     2222.7 secs

     total energy              =   -3021.41837357 Ry
     Harris-Foulkes estimate   =   -3021.41837347 Ry
     estimated scf accuracy    <       0.00000083 Ry

     total magnetization       =     0.00 Bohr mag/cell
     absolute magnetization    =     0.00 Bohr mag/cell

     iteration #  9     ecut=    40.42 Ry     beta=0.10
     Davidson diagonalization with overlap
     ethr =  2.08E-10,  avg # of iterations =  3.0

     negative rho (up, down):  1.209E-02 1.209E-02
 
     Magnetic moment per site:
     atom:    1    charge:    3.1250    magn:   -0.0000    constr:    0.0000
     atom:    2    charge:    1.9452    magn:    0.0000    constr:    0.0000
     atom:    3    charge:    3.1198    magn:    0.0000    constr:    0.0000
     atom:    4    charge:    1.9504    magn:   -0.0000    constr:    0.0000
     atom:    5    charge:    3.1166    magn:    0.0000    constr:    0.0000
     atom:    6    charge:    1.9476    magn:   -0.0000    constr:    0.0000
     atom:    7    charge:    3.1157    magn:    0.0000    constr:    0.0000
     atom:    8    charge:    1.9452    magn:   -0.0000    constr:    0.0000
     atom:    9    charge:    3.1250    magn:   -0.0000    constr:    0.0000
     atom:   10    charge:    1.9452    magn:    0.0000    constr:    0.0000
     atom:   11    charge:    3.1197    magn:    0.0000    constr:    0.0000
     atom:   12    charge:    1.9504    magn:   -0.0000    constr:    0.0000
     atom:   13    charge:    3.1158    magn:    0.0000    constr:    0.0000
     atom:   14    charge:    1.9587    magn:   -0.0000    constr:    0.0000
     atom:   15    charge:    3.1188    magn:    0.0000    constr:    0.0000
     atom:   16    charge:    1.9445    magn:   -0.0000    constr:    0.0000
     atom:   17    charge:    1.9184    magn:    0.0000    constr:    0.0000
     atom:   18    charge:    3.1239    magn:   -0.0000    constr:    0.0000
     atom:   19    charge:    1.9408    magn:   -0.0000    constr:    0.0000
     atom:   20    charge:    1.9471    magn:    0.0000    constr:    0.0000
     atom:   21    charge:    1.9471    magn:    0.0000    constr:    0.0000
     atom:   22    charge:    3.1196    magn:    0.0000    constr:    0.0000
     atom:   23    charge:    1.9566    magn:   -0.0000    constr:    0.0000
     atom:   24    charge:    1.9379    magn:   -0.0000    constr:    0.0000
     atom:   25    charge:    1.9505    magn:   -0.0000    constr:    0.0000
     atom:   26    charge:    3.1145    magn:    0.0000    constr:    0.0000
     atom:   27    charge:    1.9398    magn:   -0.0000    constr:    0.0000
     atom:   28    charge:    1.9517    magn:   -0.0000    constr:    0.0000
     atom:   29    charge:    1.9476    magn:   -0.0000    constr:    0.0000
     atom:   30    charge:    3.1167    magn:    0.0000    constr:    0.0000
     atom:   31    charge:    1.9447    magn:   -0.0000    constr:    0.0000
     atom:   32    charge:    1.9440    magn:   -0.0000    constr:    0.0000
     atom:   33    charge:    1.9184    magn:    0.0000    constr:    0.0000
     atom:   34    charge:    3.1239    magn:   -0.0000    constr:    0.0000
     atom:   35    charge:    1.9408    magn:   -0.0000    constr:    0.0000
     atom:   36    charge:    1.9471    magn:    0.0000    constr:    0.0000
     atom:   37    charge:    1.9471    magn:    0.0000    constr:    0.0000
     atom:   38    charge:    3.1196    magn:    0.0000    constr:    0.0000
     atom:   39    charge:    1.9549    magn:   -0.0000    constr:    0.0000
     atom:   40    charge:    1.9383    magn:   -0.0000    constr:    0.0000
     atom:   41    charge:    1.9505    magn:   -0.0000    constr:    0.0000
     atom:   42    charge:    3.1141    magn:    0.0000    constr:    0.0000
     atom:   43    charge:    1.9413    magn:   -0.0000    constr:    0.0000
     atom:   44    charge:    1.9518    magn:   -0.0000    constr:    0.0000
     atom:   45    charge:    1.9469    magn:   -0.0000    constr:    0.0000
     atom:   46    charge:    3.1165    magn:    0.0000    constr:    0.0000
     atom:   47    charge:    1.9431    magn:   -0.0000    constr:    0.0000
     atom:   48    charge:    1.9444    magn:   -0.0000    constr:    0.0000
     atom:   49    charge:    0.6585    magn:   -0.0000    constr:    0.0000
     atom:   50    charge:    1.9578    magn:   -0.0000    constr:    0.0000
     atom:   51    charge:    0.4019    magn:    0.0000    constr:    0.0000
     atom:   52    charge:    0.4006    magn:    0.0000    constr:    0.0000
     atom:   53    charge:    0.3914    magn:    0.0000    constr:    0.0000
     atom:   54    charge:    0.4166    magn:    0.0000    constr:    0.0000

     total cpu time spent up to now is     2422.3 secs

     End of self-consistent calculation

 ------ SPIN UP ------------


          k = 0.0000 0.0000 0.0000 ( 34665 PWs)   bands (ev):

   -57.6990 -57.6641 -57.3181 -57.2818 -57.2326 -57.1101 -57.0737 -57.0727
   -57.0513 -57.0380 -56.9903 -56.9548 -56.7309 -56.6934 -56.1496 -56.1144
   -34.1351 -33.9813 -33.9527 -33.9000 -33.8703 -33.8057 -33.7453 -33.6536
   -33.6187 -33.6055 -33.5680 -33.5410 -33.5189 -33.5080 -33.4900 -33.4857
   -33.4649 -33.4547 -33.4316 -33.3991 -33.3244 -33.2923 -33.2721 -33.2628
   -33.2553 -33.2545 -33.2434 -33.2434 -33.2374 -33.2299 -33.2296 -33.2128
   -33.1806 -33.1803 -33.1750 -33.1411 -33.1185 -32.9969 -32.9788 -32.9578
   -32.9084 -32.8056 -32.5674 -32.5019 -32.4759 -32.3716 -32.2800 -32.1716
   -20.3006 -18.0129 -17.8416 -17.5573 -17.4623 -17.3730 -17.2522 -17.0780
   -17.0666 -16.9748 -16.9391 -16.8845 -16.7843 -16.7780 -16.7297 -16.7077
   -16.7037 -16.6629 -16.6114 -16.6050 -16.5363 -16.4159 -16.4031 -16.3984
   -16.3219 -16.2681 -16.1949 -16.1677 -16.1502 -15.9797 -15.9301 -14.7340
   -14.6503 -11.4677  -7.2501  -5.4721  -5.3956  -5.3154  -5.2096  -5.2006
    -5.1458  -5.1261  -4.8395  -4.8180  -4.4723  -4.4432  -4.3600  -4.3557
    -4.3219  -4.2328  -4.0901  -4.0611  -4.0554  -4.0181  -3.9997  -3.9914
    -3.9609  -3.9522  -3.9511  -3.8402  -3.7898  -3.7661  -3.7366  -3.7185
    -3.6331  -3.6175  -3.5875  -3.5781  -3.5202  -3.5081  -3.4088  -3.3940
    -3.3727  -3.2722  -3.2357  -3.1879  -3.0137  -2.9360  -2.8791  -2.8339
    -2.6952  -2.6076  -2.5902  -2.5804  -2.5758  -2.5689  -2.4320  -2.4147
    -2.3364  -2.2695  -2.2477  -2.2050  -2.2006  -2.1657  -2.1389  -2.0933
    -2.0483  -2.0288  -2.0205  -1.8894  -1.8654  -1.7603  -1.7357  -1.6244
    -1.5432  -1.5414  -1.4901  -1.4815  -1.4630  -1.4237  -1.3233  -1.3097
    -1.3027  -1.2802  -1.2431  -1.1361  -1.0870  -1.0828  -1.0666  -1.0198
    -0.9542  -0.9158  -0.8206  -0.7650  -0.6107  -0.5877  -0.5695  -0.4796
    -0.3767  -0.2424  -0.0850  -0.0268   0.1311   0.2480   0.2617   1.6424
     1.6749   1.9854   2.0019   2.0651   2.0950   2.2047   2.2436   2.2868
     2.4296   2.4970   2.5257   2.5305   2.5418   2.6308   2.6488   2.6570
     2.7151   2.7994   2.8269   2.8387   2.9108   2.9992   3.0332   3.0991
     3.1051   3.1140   3.1608   3.2019   3.2080   3.2264   3.2396   3.2512
     3.2605   3.2886   3.3966   3.4314   3.4565   3.4661   3.5282   3.5854
     3.6530   3.6947   3.8076   3.9807   4.0160   4.0915   4.1798   4.3201
     4.3384   4.3916   4.5856   4.5991   4.8103   4.8385   5.0869   5.1666
     5.2456   5.3305   5.4787   5.5173   5.5272   5.5931   5.6778   5.7116
     5.7996   5.8650   5.8764   5.8862   5.9543   6.0388   6.0478   6.0721
     6.1443   6.2290   6.2431   6.2969   6.3779   6.5820   6.6360   6.7557
     6.8410   7.0078   7.0387   7.1601   7.3022   7.5765   7.9082   8.2524
     8.3324   8.6774   8.7945   8.8723   8.9390   9.0080   9.1750   9.2550
     9.3521   9.3812   9.5302

          k = 0.0000 0.0280 0.0000 ( 34717 PWs)   bands (ev):

   -57.6967 -57.6664 -57.3157 -57.2842 -57.2322 -57.1078 -57.0758 -57.0706
   -57.0518 -57.0403 -56.9880 -56.9572 -56.7284 -56.6958 -56.1473 -56.1167
   -34.1098 -33.9792 -33.9546 -33.8938 -33.8444 -33.8122 -33.7723 -33.6309
   -33.6119 -33.5805 -33.5426 -33.5380 -33.5209 -33.5010 -33.4928 -33.4845
   -33.4718 -33.4620 -33.4296 -33.3922 -33.3183 -33.2905 -33.2858 -33.2643
   -33.2596 -33.2529 -33.2506 -33.2399 -33.2382 -33.2364 -33.2361 -33.2178
   -33.2029 -33.1854 -33.1774 -33.1451 -33.1419 -32.9930 -32.9774 -32.9591
   -32.9135 -32.8336 -32.5418 -32.5002 -32.4777 -32.3655 -32.2862 -32.1991
   -20.3004 -17.9512 -17.7840 -17.5044 -17.4101 -17.3294 -17.2255 -17.0918
   -17.0363 -16.9986 -16.9932 -16.8862 -16.8199 -16.7619 -16.7076 -16.6898
   -16.6762 -16.6653 -16.6572 -16.6421 -16.5953 -16.4397 -16.3845 -16.3685
   -16.3485 -16.2976 -16.2119 -16.1743 -16.1540 -16.0105 -15.9672 -14.7441
   -14.6737 -11.4673  -7.2497  -5.4365  -5.3147  -5.2561  -5.2069  -5.1306
    -5.0687  -5.0473  -4.7639  -4.7036  -4.4359  -4.4007  -4.3944  -4.3123
    -4.3015  -4.1602  -4.1244  -4.1142  -4.0919  -4.0709  -4.0331  -4.0301
    -3.9661  -3.9616  -3.9502  -3.8918  -3.8534  -3.8471  -3.8381  -3.7667
    -3.7218  -3.7068  -3.6661  -3.6162  -3.5757  -3.5572  -3.4301  -3.3574
    -3.3142  -3.2360  -3.2012  -3.1041  -2.9346  -2.8714  -2.7466  -2.7251
    -2.6140  -2.6010  -2.5255  -2.5101  -2.4784  -2.4408  -2.4124  -2.4080
    -2.3867  -2.3621  -2.2885  -2.2771  -2.1683  -2.1427  -2.1366  -2.0946
    -2.0224  -1.9982  -1.9539  -1.8784  -1.8113  -1.7652  -1.7074  -1.6824
    -1.6432  -1.6254  -1.5641  -1.5260  -1.4820  -1.4384  -1.4359  -1.3965
    -1.3548  -1.2716  -1.2187  -1.2142  -1.1593  -1.0910  -1.0695  -1.0224
    -1.0090  -0.9048  -0.8676  -0.7911  -0.7615  -0.7068  -0.6084  -0.5914
    -0.3950  -0.2705  -0.0918  -0.0810   0.1460   0.2016   0.2282   1.7287
     1.7747   1.9857   2.0647   2.1302   2.1513   2.2182   2.2739   2.3127
     2.4242   2.4610   2.4988   2.5351   2.5857   2.6029   2.6301   2.6914
     2.7324   2.7703   2.7967   2.9121   2.9223   2.9510   2.9758   3.0098
     3.1107   3.1164   3.1344   3.1747   3.1922   3.2051   3.2580   3.3039
     3.3352   3.3706   3.4067   3.4731   3.5063   3.5516   3.5615   3.6487
     3.6645   3.6854   3.7712   3.9595   4.0339   4.1138   4.1908   4.2859
     4.3230   4.3964   4.5407   4.6886   4.8639   4.9251   5.0907   5.2582
     5.3038   5.3350   5.5371   5.5673   5.6031   5.6245   5.6856   5.7202
     5.7841   5.7922   5.8513   5.8777   5.8987   5.9476   6.0690   6.1224
     6.1492   6.1569   6.1756   6.2067   6.2750   6.5584   6.6028   6.6945
     6.8459   6.9485   6.9801   7.0824   7.2308   7.5811   7.9157   8.0135
     8.0602   8.4556   8.5639   8.8363   8.9110   8.9976   9.0880   9.1300
     9.2731   9.4325   9.4962

          k = 0.0000 0.0560 0.0000 ( 34721 PWs)   bands (ev):

   -57.6903 -57.6728 -57.3091 -57.2908 -57.2314 -57.1017 -57.0818 -57.0642
   -57.0526 -57.0467 -56.9815 -56.9637 -56.7218 -56.7025 -56.1408 -56.1232
   -34.0400 -33.9739 -33.9596 -33.8768 -33.8453 -33.8297 -33.7734 -33.5963
   -33.5731 -33.5722 -33.5351 -33.5277 -33.5067 -33.5044 -33.4769 -33.4725
   -33.4563 -33.4267 -33.4191 -33.3728 -33.3166 -33.3133 -33.3131 -33.3018
   -33.2862 -33.2765 -33.2680 -33.2642 -33.2536 -33.2466 -33.2344 -33.2323
   -33.2104 -33.1985 -33.1709 -33.1653 -33.1266 -32.9880 -32.9739 -32.9624
   -32.9264 -32.9033 -32.4955 -32.4825 -32.4710 -32.3490 -32.3031 -32.2733
   -20.3001 -17.7800 -17.6254 -17.3730 -17.2762 -17.2606 -17.2193 -17.1672
   -17.1365 -16.9629 -16.9535 -16.9190 -16.8741 -16.8201 -16.7887 -16.7258
   -16.7163 -16.6844 -16.6256 -16.5972 -16.5403 -16.5052 -16.4234 -16.3783
   -16.3628 -16.3022 -16.2410 -16.1954 -16.1575 -16.1111 -16.0400 -14.7623
   -14.7243 -11.4665  -7.2488  -5.4031  -5.2211  -5.0766  -5.0377  -4.9246
    -4.8587  -4.8247  -4.5621  -4.5056  -4.4734  -4.4181  -4.4098  -4.3669
    -4.3318  -4.2602  -4.2352  -4.2121  -4.1965  -4.1870  -4.1568  -4.0758
    -4.0581  -4.0061  -3.9877  -3.9691  -3.9309  -3.8916  -3.8568  -3.8178
    -3.7974  -3.7313  -3.6360  -3.5862  -3.4341  -3.4285  -3.3361  -3.2678
    -3.2394  -3.2122  -3.1915  -3.0822  -2.8943  -2.8444  -2.8371  -2.7989
    -2.7222  -2.6686  -2.5482  -2.4733  -2.4444  -2.3225  -2.3161  -2.3115
    -2.3040  -2.2495  -2.2074  -2.1796  -2.1482  -2.1178  -2.0321  -2.0106
    -1.9610  -1.9479  -1.9179  -1.9054  -1.8837  -1.8496  -1.8169  -1.7832
    -1.7452  -1.6941  -1.6254  -1.5424  -1.5278  -1.5103  -1.4564  -1.4202
    -1.3810  -1.3649  -1.3506  -1.2907  -1.2390  -1.2175  -1.1563  -1.1029
    -1.0830  -1.0241  -0.9239  -0.8916  -0.8510  -0.7854  -0.7635  -0.6604
    -0.5874  -0.4636  -0.2424   0.0909   0.1432   0.1783   0.1849   1.8644
     2.0243   2.0972   2.1088   2.2092   2.2341   2.2690   2.3661   2.3888
     2.3955   2.4108   2.4338   2.4757   2.5029   2.5375   2.6738   2.6949
     2.7334   2.7748   2.8298   2.9032   2.9150   2.9377   2.9713   2.9728
     3.0147   3.0982   3.1369   3.1566   3.2497   3.2612   3.2857   3.3289
     3.3677   3.3857   3.4402   3.5368   3.5430   3.6359   3.6765   3.7267
     3.7598   3.8227   3.8575   3.8896   3.9312   4.1300   4.1413   4.1579
     4.3265   4.3751   4.5638   4.9058   5.0153   5.0613   5.1740   5.3779
     5.3815   5.4777   5.5175   5.5491   5.6476   5.7225   5.7237   5.7328
     5.7788   5.7871   5.7989   5.8558   5.8848   5.9467   5.9771   5.9902
     6.0008   6.0542   6.1548   6.1706   6.3068   6.3732   6.4105   6.6151
     6.6602   6.7806   6.8696   7.0419   7.2141   7.3342   7.4439   7.7264
     8.0791   8.2005   8.3434   8.6162   8.8857   8.9905   9.3109   9.3298
     9.4273   9.4358   9.5690

          k = 0.0000-0.0840 0.0000 ( 34678 PWs)   bands (ev):

   -57.6817 -57.6815 -57.3016 -57.2983 -57.2310 -57.0962 -57.0873 -57.0556
   -57.0554 -57.0531 -56.9731 -56.9721 -56.7148 -56.7095 -56.1320 -56.1320
   -33.9669 -33.9667 -33.9434 -33.9433 -33.8534 -33.8532 -33.6865 -33.6625
   -33.5664 -33.5630 -33.5288 -33.5184 -33.5140 -33.4771 -33.4534 -33.4245
   -33.4143 -33.4078 -33.3754 -33.3752 -33.3631 -33.3474 -33.3415 -33.3244
   -33.3231 -33.2851 -33.2783 -33.2762 -33.2694 -33.2677 -33.2329 -33.2311
   -33.2158 -33.2140 -33.1639 -33.1631 -33.0494 -33.0285 -32.9708 -32.9652
   -32.9404 -32.9373 -32.4889 -32.4889 -32.3731 -32.3731 -32.3260 -32.3260
   -20.3000 -17.5694 -17.5058 -17.4106 -17.3903 -17.2297 -17.1757 -17.0664
   -17.0622 -17.0163 -17.0036 -16.9899 -16.8724 -16.8399 -16.8399 -16.8012
   -16.7946 -16.5967 -16.5947 -16.5260 -16.5240 -16.4889 -16.4874 -16.4051
   -16.4029 -16.2632 -16.2611 -16.2015 -16.1975 -16.1323 -16.1023 -14.7610
   -14.7609 -11.4662  -7.2483  -5.3945  -5.2263  -4.8001  -4.7336  -4.7325
    -4.6560  -4.6427  -4.6379  -4.6022  -4.5732  -4.5103  -4.5024  -4.4010
    -4.3737  -4.3396  -4.3379  -4.3089  -4.2958  -4.2806  -4.2753  -4.0552
    -4.0333  -4.0239  -4.0111  -3.9928  -3.9431  -3.8102  -3.7948  -3.7868
    -3.7169  -3.6950  -3.6404  -3.5067  -3.4760  -3.3400  -3.3263  -3.2451
    -3.1390  -3.1169  -3.0445  -3.0196  -2.9636  -2.9269  -2.8043  -2.7888
    -2.6979  -2.6940  -2.5769  -2.5400  -2.5132  -2.4956  -2.4784  -2.4478
    -2.4389  -2.4188  -2.3303  -2.2459  -2.0282  -2.0076  -1.9679  -1.9415
    -1.9278  -1.8294  -1.8227  -1.8091  -1.7823  -1.7454  -1.7314  -1.7006
    -1.6650  -1.6413  -1.6144  -1.5590  -1.5161  -1.4880  -1.4816  -1.4535
    -1.4255  -1.4179  -1.4102  -1.3821  -1.3598  -1.3264  -1.2218  -1.1877
    -1.1005  -1.0734  -1.0104  -0.9788  -0.9708  -0.9603  -0.9445  -0.5246
    -0.5194  -0.4573  -0.4432   0.1432   0.1433   0.1859   0.1877   2.0388
     2.0420   2.2182   2.2196   2.2204   2.2362   2.2844   2.3394   2.3468
     2.3469   2.3720   2.3828   2.5273   2.5536   2.5546   2.6006   2.6639
     2.7147   2.7367   2.7496   2.8912   2.9222   2.9894   2.9970   3.0568
     3.0580   3.1017   3.1124   3.1795   3.2179   3.2328   3.2455   3.4033
     3.4258   3.4368   3.4395   3.4725   3.4834   3.7247   3.7654   3.8039
     3.8073   3.8317   3.9086   3.9309   3.9682   4.0732   4.0755   4.1255
     4.1261   4.4177   4.6719   4.9600   5.0002   5.2597   5.3305   5.4571
     5.4886   5.5080   5.5081   5.5720   5.6028   5.6465   5.6650   5.6707
     5.7987   5.8039   5.8258   5.8514   5.8616   5.8664   5.8825   5.9734
     6.0196   6.0592   6.0713   6.1586   6.1960   6.4051   6.4664   6.5644
     6.6040   6.7455   6.7741   6.9798   7.0312   7.1013   7.3272   7.7008
     7.8802   8.1632   8.4124   8.7637   8.8316   8.8797   9.1459   9.6932
     9.7014   9.7477   9.7923

          k = 0.0253 0.0000 0.0000 ( 34707 PWs)   bands (ev):

   -57.6990 -57.6641 -57.3180 -57.2818 -57.2326 -57.1100 -57.0736 -57.0728
   -57.0513 -57.0380 -56.9903 -56.9548 -56.7309 -56.6934 -56.1496 -56.1144
   -34.1354 -33.9813 -33.9528 -33.8993 -33.8704 -33.8058 -33.7453 -33.6543
   -33.6187 -33.6071 -33.5682 -33.5376 -33.5326 -33.5089 -33.4857 -33.4752
   -33.4636 -33.4547 -33.4316 -33.3922 -33.3243 -33.2924 -33.2718 -33.2628
   -33.2586 -33.2578 -33.2446 -33.2415 -33.2397 -33.2299 -33.2297 -33.2126
   -33.1805 -33.1802 -33.1753 -33.1411 -33.1186 -32.9969 -32.9812 -32.9569
   -32.9085 -32.8057 -32.5674 -32.5030 -32.4754 -32.3716 -32.2800 -32.1718
   -20.3004 -17.9831 -17.8017 -17.5150 -17.4333 -17.3564 -17.2587 -17.1447
   -17.0925 -16.9757 -16.9386 -16.8716 -16.8191 -16.8062 -16.7897 -16.7806
   -16.7301 -16.6930 -16.5568 -16.5345 -16.4542 -16.4528 -16.4040 -16.3704
   -16.3394 -16.3127 -16.1834 -16.1655 -16.1515 -15.9795 -15.9299 -14.7328
   -14.6501 -11.4665  -7.2474  -5.4666  -5.3064  -5.2647  -5.2023  -5.0977
    -5.0446  -5.0165  -4.8341  -4.8133  -4.6181  -4.4693  -4.4358  -4.3313
    -4.3117  -4.3016  -4.2480  -4.0983  -4.0369  -4.0331  -3.9967  -3.9451
    -3.9380  -3.9100  -3.8307  -3.8009  -3.7524  -3.7197  -3.6956  -3.6923
    -3.6207  -3.5983  -3.5705  -3.5629  -3.5168  -3.4474  -3.3323  -3.3099
    -3.2519  -3.2337  -3.1812  -3.1065  -3.0340  -2.9768  -2.9239  -2.8962
    -2.7517  -2.6741  -2.6327  -2.6004  -2.5795  -2.5302  -2.5199  -2.5038
    -2.4321  -2.3357  -2.3226  -2.2368  -2.2210  -2.1821  -2.1577  -2.0709
    -2.0102  -2.0001  -1.9632  -1.8849  -1.8475  -1.7529  -1.7400  -1.6510
    -1.5861  -1.5816  -1.5381  -1.4631  -1.4587  -1.3670  -1.3581  -1.3445
    -1.3373  -1.2907  -1.2735  -1.1904  -1.1272  -1.1177  -1.0782  -1.0473
    -0.9726  -0.9153  -0.8303  -0.7856  -0.7744  -0.6512  -0.6430  -0.5510
    -0.4213  -0.2367  -0.1160  -0.0541   0.1170   0.2052   0.2061   1.6618
     1.7249   2.0011   2.0713   2.1484   2.2230   2.2377   2.2696   2.3780
     2.3851   2.4575   2.5042   2.5222   2.5411   2.5781   2.5973   2.6360
     2.6556   2.7341   2.7574   2.8669   2.8838   2.9696   3.0305   3.1037
     3.1210   3.1437   3.1623   3.2032   3.2083   3.2537   3.2693   3.3395
     3.3772   3.4021   3.4508   3.4728   3.5355   3.5601   3.5917   3.5997
     3.6639   3.7297   3.7470   3.9136   4.0016   4.0960   4.1739   4.2761
     4.3742   4.3946   4.5529   4.6744   4.8633   4.9112   4.9259   5.0696
     5.1213   5.1458   5.1885   5.3506   5.5681   5.6211   5.6934   5.8661
     5.8826   5.9246   5.9590   6.0298   6.0801   6.1145   6.1604   6.2093
     6.2187   6.2517   6.2585   6.3078   6.4484   6.5232   6.6413   6.6657
     6.8203   6.8682   7.0340   7.1465   7.3020   7.7506   7.8533   8.0842
     8.3238   8.3609   8.4307   8.6836   8.8454   8.9684   9.1485   9.3448
     9.3629   9.4554   9.4994

          k = 0.0253 0.0280 0.0000 ( 34687 PWs)   bands (ev):

   -57.6967 -57.6664 -57.3157 -57.2842 -57.2322 -57.1077 -57.0757 -57.0707
   -57.0517 -57.0403 -56.9880 -56.9572 -56.7284 -56.6958 -56.1473 -56.1167
   -34.1101 -33.9793 -33.9546 -33.8932 -33.8445 -33.8121 -33.7723 -33.6315
   -33.6119 -33.5822 -33.5429 -33.5348 -33.5222 -33.5164 -33.4931 -33.4725
   -33.4662 -33.4608 -33.4296 -33.3854 -33.3182 -33.2907 -33.2836 -33.2643
   -33.2596 -33.2544 -33.2530 -33.2478 -33.2378 -33.2364 -33.2353 -33.2166
   -33.2030 -33.1855 -33.1774 -33.1450 -33.1418 -32.9931 -32.9796 -32.9584
   -32.9135 -32.8336 -32.5417 -32.5011 -32.4772 -32.3655 -32.2862 -32.1991
   -20.3002 -17.9228 -17.7450 -17.4638 -17.3836 -17.3094 -17.2323 -17.1284
   -17.0981 -17.0063 -16.9633 -16.8588 -16.8304 -16.8059 -16.7843 -16.7703
   -16.7130 -16.7000 -16.6004 -16.5801 -16.5065 -16.4753 -16.3816 -16.3653
   -16.3564 -16.3296 -16.2005 -16.1738 -16.1537 -16.0109 -15.9669 -14.7430
   -14.6737 -11.4661  -7.2469  -5.4396  -5.2459  -5.2046  -5.1810  -5.0214
    -4.9663  -4.9363  -4.7589  -4.7005  -4.5624  -4.4033  -4.3715  -4.3458
    -4.2598  -4.2531  -4.1868  -4.1187  -4.0861  -4.0649  -4.0336  -4.0202
    -3.9764  -3.9427  -3.9130  -3.8681  -3.8222  -3.8102  -3.7841  -3.7198
    -3.6981  -3.6643  -3.6153  -3.6051  -3.5408  -3.5259  -3.3529  -3.2965
    -3.2515  -3.2173  -3.1504  -3.0729  -2.9820  -2.9497  -2.7849  -2.7060
    -2.6816  -2.6356  -2.6108  -2.5347  -2.5038  -2.4544  -2.4480  -2.4212
    -2.4050  -2.3869  -2.3402  -2.3024  -2.2159  -2.1782  -2.1158  -2.1005
    -2.0670  -1.9952  -1.9488  -1.8919  -1.8644  -1.8266  -1.7627  -1.6742
    -1.6444  -1.6163  -1.5889  -1.5622  -1.5086  -1.4621  -1.4398  -1.4022
    -1.3448  -1.3278  -1.2695  -1.2548  -1.2092  -1.1062  -1.0963  -1.0608
    -1.0111  -0.8872  -0.8403  -0.8354  -0.7644  -0.7395  -0.6967  -0.6586
    -0.4324  -0.2814  -0.1343  -0.0858   0.1491   0.1785   0.1887   1.7208
     1.8449   2.0163   2.0988   2.1956   2.2445   2.2819   2.3162   2.3969
     2.4175   2.4669   2.4888   2.5244   2.5327   2.5523   2.5906   2.6740
     2.7052   2.7274   2.7871   2.8066   2.9303   2.9868   3.0097   3.0346
     3.1061   3.1342   3.1458   3.1726   3.2085   3.2421   3.3441   3.3734
     3.4060   3.4362   3.4626   3.5101   3.5522   3.5688   3.6361   3.6610
     3.6733   3.7080   3.7497   3.8946   3.9936   4.1380   4.1854   4.2525
     4.3065   4.4520   4.5093   4.7691   4.9290   4.9517   4.9933   5.0779
     5.1599   5.1753   5.2233   5.3866   5.6427   5.6813   5.7313   5.7774
     5.8543   5.8652   5.8714   6.0073   6.0710   6.0852   6.1191   6.1447
     6.1967   6.2085   6.2181   6.2342   6.4285   6.5295   6.6116   6.6604
     6.7875   6.8662   6.9631   7.1516   7.2263   7.5075   7.9346   8.0316
     8.0937   8.2344   8.4525   8.5732   8.6475   8.7707   8.9447   9.2484
     9.3646   9.4812   9.5047

          k = 0.0253 0.0560 0.0000 ( 34699 PWs)   bands (ev):

   -57.6903 -57.6728 -57.3091 -57.2907 -57.2314 -57.1017 -57.0818 -57.0643
   -57.0526 -57.0468 -56.9815 -56.9637 -56.7218 -56.7025 -56.1408 -56.1232
   -34.0402 -33.9739 -33.9597 -33.8763 -33.8453 -33.8294 -33.7734 -33.5963
   -33.5737 -33.5723 -33.5353 -33.5257 -33.5090 -33.5078 -33.4769 -33.4729
   -33.4554 -33.4268 -33.4137 -33.3673 -33.3170 -33.3139 -33.3088 -33.3016
   -33.2864 -33.2768 -33.2680 -33.2631 -33.2537 -33.2488 -33.2385 -33.2347
   -33.2106 -33.1992 -33.1709 -33.1652 -33.1264 -32.9880 -32.9753 -32.9623
   -32.9265 -32.9032 -32.4961 -32.4822 -32.4709 -32.3490 -32.3032 -32.2732
   -20.3000 -17.7566 -17.5896 -17.3437 -17.2645 -17.2450 -17.1938 -17.1680
   -17.1396 -16.9960 -16.9705 -16.8807 -16.8763 -16.8296 -16.7967 -16.7726
   -16.7481 -16.6707 -16.6234 -16.6049 -16.5795 -16.5305 -16.4270 -16.4125
   -16.3561 -16.2851 -16.2341 -16.1947 -16.1572 -16.1119 -16.0394 -14.7616
   -14.7245 -11.4653  -7.2459  -5.4105  -5.2203  -5.0312  -4.9489  -4.8131
    -4.7570  -4.7148  -4.5584  -4.4983  -4.4903  -4.4142  -4.3942  -4.3395
    -4.2709  -4.2316  -4.2158  -4.1923  -4.1480  -4.1414  -4.1063  -4.0619
    -4.0325  -4.0129  -3.9936  -3.9357  -3.9246  -3.8754  -3.8596  -3.8216
    -3.7744  -3.7156  -3.6548  -3.5720  -3.4736  -3.3961  -3.3232  -3.2830
    -3.2386  -3.2241  -3.1832  -3.0127  -2.9381  -2.8634  -2.8298  -2.7801
    -2.7581  -2.6454  -2.5930  -2.5095  -2.4888  -2.4372  -2.3933  -2.3654
    -2.3432  -2.3247  -2.2889  -2.2634  -2.1903  -2.1411  -2.1276  -2.0399
    -2.0123  -2.0101  -1.9468  -1.9384  -1.9030  -1.8619  -1.8341  -1.8124
    -1.7452  -1.7024  -1.6790  -1.6377  -1.5726  -1.5376  -1.4941  -1.4760
    -1.4312  -1.3735  -1.3392  -1.3026  -1.2239  -1.2053  -1.1294  -1.1055
    -1.0591  -1.0137  -0.9130  -0.8758  -0.8215  -0.7999  -0.7440  -0.6809
    -0.6069  -0.4656  -0.2563   0.0918   0.1284   0.1555   0.1881   1.8617
     2.0480   2.1320   2.1788   2.2313   2.2716   2.3058   2.3475   2.3847
     2.4259   2.4619   2.4806   2.5077   2.5202   2.5834   2.6935   2.7213
     2.7387   2.7762   2.8237   2.8397   2.9037   2.9522   2.9745   2.9858
     3.0271   3.0335   3.1561   3.2073   3.2862   3.3294   3.3402   3.3830
     3.4073   3.4388   3.4605   3.5405   3.5595   3.6307   3.6557   3.7342
     3.7927   3.8195   3.8613   3.9004   3.9045   4.0717   4.1166   4.1652
     4.3429   4.3842   4.6152   4.9646   5.0121   5.1258   5.1417   5.1579
     5.2620   5.2891   5.3134   5.4364   5.5097   5.5612   5.6367   5.7581
     5.8231   5.8499   5.8913   5.9336   5.9606   6.0016   6.0470   6.0609
     6.1357   6.1571   6.2221   6.3271   6.3793   6.4032   6.4823   6.6417
     6.6920   6.7963   6.8493   7.0356   7.1562   7.3638   7.4897   7.5930
     7.9784   8.1746   8.3482   8.5196   8.6168   8.8485   9.0481   9.1130
     9.1680   9.5078   9.6230

          k = 0.0253-0.0840 0.0000 ( 34722 PWs)   bands (ev):

   -57.6817 -57.6815 -57.3016 -57.2983 -57.2310 -57.0962 -57.0873 -57.0556
   -57.0555 -57.0531 -56.9731 -56.9721 -56.7148 -56.7095 -56.1320 -56.1320
   -33.9669 -33.9667 -33.9437 -33.9435 -33.8530 -33.8529 -33.6866 -33.6626
   -33.5664 -33.5630 -33.5294 -33.5182 -33.5139 -33.4772 -33.4526 -33.4246
   -33.4164 -33.4103 -33.3763 -33.3762 -33.3638 -33.3405 -33.3346 -33.3230
   -33.3216 -33.2849 -33.2781 -33.2764 -33.2696 -33.2663 -33.2364 -33.2350
   -33.2175 -33.2157 -33.1639 -33.1631 -33.0493 -33.0285 -32.9714 -32.9660
   -32.9403 -32.9372 -32.4892 -32.4892 -32.3731 -32.3731 -32.3260 -32.3260
   -20.2998 -17.5561 -17.4877 -17.3824 -17.3639 -17.2137 -17.1547 -17.0595
   -17.0501 -17.0044 -16.9800 -16.9757 -16.8892 -16.8795 -16.8693 -16.7860
[...]
    -1.2975  -1.2668  -1.2502  -1.1901  -1.1516  -1.0315  -1.0201  -1.0119
    -0.9883  -0.9487  -0.9060  -0.8379  -0.7567  -0.7012  -0.6473  -0.5941
    -0.5900  -0.5348  -0.5183   0.0660   0.0661   0.2107   0.2124   2.1534
     2.1542   2.2008   2.2027   2.2381   2.2389   2.2663   2.2976   2.4878
     2.4934   2.5253   2.5551   2.6088   2.6165   2.6793   2.6813   2.6907
     2.6919   2.8440   2.9096   2.9827   2.9977   3.0340   3.0416   3.0982
     3.2196   3.2491   3.2721   3.3327   3.3734   3.3902   3.4446   3.4925
     3.5000   3.5224   3.5488   3.5806   3.6034   3.6797   3.6997   3.7450
     3.8345   3.8908   3.9070   3.9527   3.9530   4.0960   4.1029   4.1116
     4.1121   4.6140   4.7831   4.7870   4.8020   4.8704   4.9203   4.9254
     4.9417   4.9843   5.0267   5.2487   5.3395   5.3586   5.3693   5.7294
     5.7994   5.9103   5.9272   5.9790   6.0421   6.1475   6.3031   6.3492
     6.3650   6.3744   6.4100   6.5749   6.6177   6.6649   6.6650   6.7031
     6.7626   6.8444   6.8454   6.8523   6.8531   7.3600   7.4076   7.5242
     7.6625   7.8252   8.0114   8.1706   8.2228   8.3174   8.3881   8.8246
     8.9120   9.0449   9.0813

          k =-0.0253 0.0280 0.0000 ( 34687 PWs)   bands (ev):

   -57.6968 -57.6665 -57.3156 -57.2841 -57.2322 -57.1077 -57.0757 -57.0707
   -57.0517 -57.0403 -56.9879 -56.9572 -56.7284 -56.6958 -56.1475 -56.1169
   -34.1101 -33.9794 -33.9547 -33.8932 -33.8445 -33.8122 -33.7724 -33.6315
   -33.6119 -33.5822 -33.5428 -33.5348 -33.5222 -33.5164 -33.4930 -33.4725
   -33.4661 -33.4608 -33.4296 -33.3854 -33.3182 -33.2907 -33.2836 -33.2643
   -33.2593 -33.2544 -33.2532 -33.2478 -33.2378 -33.2364 -33.2353 -33.2166
   -33.2030 -33.1854 -33.1774 -33.1450 -33.1418 -32.9931 -32.9795 -32.9584
   -32.9135 -32.8335 -32.5418 -32.5013 -32.4773 -32.3657 -32.2864 -32.1993
   -20.3003 -17.9229 -17.7449 -17.4638 -17.3836 -17.3094 -17.2323 -17.1284
   -17.0983 -17.0060 -16.9633 -16.8592 -16.8303 -16.8068 -16.7839 -16.7702
   -16.7129 -16.7002 -16.6002 -16.5797 -16.5066 -16.4753 -16.3816 -16.3654
   -16.3565 -16.3296 -16.2006 -16.1738 -16.1537 -16.0109 -15.9669 -14.7427
   -14.6734 -11.4661  -7.2469  -5.4395  -5.2457  -5.2045  -5.1810  -5.0217
    -4.9663  -4.9366  -4.7590  -4.7014  -4.5620  -4.4030  -4.3714  -4.3460
    -4.2612  -4.2498  -4.1881  -4.1169  -4.0911  -4.0641  -4.0362  -4.0209
    -3.9751  -3.9410  -3.9144  -3.8691  -3.8223  -3.8114  -3.7846  -3.7199
    -3.6998  -3.6633  -3.6152  -3.6047  -3.5398  -3.5248  -3.3575  -3.2903
    -3.2528  -3.2164  -3.1477  -3.0727  -2.9826  -2.9462  -2.7839  -2.7065
    -2.6798  -2.6367  -2.6108  -2.5323  -2.5045  -2.4516  -2.4474  -2.4221
    -2.4058  -2.3840  -2.3395  -2.3015  -2.2179  -2.1754  -2.1219  -2.1038
    -2.0625  -1.9910  -1.9513  -1.8965  -1.8629  -1.8256  -1.7429  -1.7061
    -1.6533  -1.5994  -1.5930  -1.5608  -1.5163  -1.4704  -1.4369  -1.3913
    -1.3448  -1.3327  -1.2811  -1.2431  -1.1948  -1.1122  -1.0991  -1.0589
    -1.0100  -0.8925  -0.8407  -0.8299  -0.7556  -0.7387  -0.7084  -0.6597
    -0.4333  -0.2814  -0.1348  -0.0856   0.1493   0.1788   0.1890   1.7207
     1.8449   2.0162   2.1002   2.1953   2.2459   2.2851   2.3190   2.4039
     2.4154   2.4499   2.4860   2.5300   2.5326   2.5473   2.6076   2.6685
     2.7053   2.7389   2.7756   2.8121   2.9388   2.9860   3.0042   3.0271
     3.1073   3.1357   3.1462   3.1741   3.2086   3.2394   3.3476   3.3725
     3.4037   3.4198   3.4642   3.5065   3.5614   3.5707   3.6370   3.6609
     3.6730   3.7090   3.7491   3.8933   3.9923   4.1398   4.1854   4.2531
     4.3065   4.4524   4.5096   4.7703   4.9371   4.9511   4.9839   5.0779
     5.1587   5.1749   5.2231   5.3857   5.6445   5.6756   5.7288   5.7871
     5.8524   5.8650   5.8723   6.0061   6.0735   6.0784   6.1240   6.1454
     6.1968   6.2076   6.2159   6.2441   6.4284   6.5253   6.6122   6.6657
     6.7873   6.8588   6.9630   7.1491   7.2256   7.4985   7.9263   8.0257
     8.0937   8.2619   8.4345   8.5828   8.6474   8.7824   8.9436   9.2817
     9.3474   9.4481   9.5137

          k =-0.0253 0.0560 0.0000 ( 34699 PWs)   bands (ev):

   -57.6904 -57.6729 -57.3091 -57.2907 -57.2314 -57.1017 -57.0818 -57.0643
   -57.0526 -57.0467 -56.9815 -56.9637 -56.7218 -56.7024 -56.1410 -56.1234
   -34.0403 -33.9740 -33.9597 -33.8763 -33.8454 -33.8295 -33.7734 -33.5962
   -33.5736 -33.5723 -33.5352 -33.5256 -33.5090 -33.5078 -33.4769 -33.4729
   -33.4553 -33.4267 -33.4136 -33.3673 -33.3169 -33.3139 -33.3087 -33.3016
   -33.2864 -33.2768 -33.2680 -33.2631 -33.2537 -33.2489 -33.2385 -33.2346
   -33.2104 -33.1992 -33.1708 -33.1652 -33.1264 -32.9880 -32.9752 -32.9624
   -32.9264 -32.9032 -32.4963 -32.4824 -32.4711 -32.3492 -32.3033 -32.2734
   -20.3000 -17.7566 -17.5896 -17.3436 -17.2645 -17.2452 -17.1940 -17.1680
   -17.1394 -16.9960 -16.9704 -16.8808 -16.8766 -16.8301 -16.7972 -16.7726
   -16.7479 -16.6704 -16.6232 -16.6046 -16.5795 -16.5308 -16.4270 -16.4126
   -16.3562 -16.2851 -16.2341 -16.1947 -16.1572 -16.1119 -16.0394 -14.7613
   -14.7241 -11.4653  -7.2459  -5.4104  -5.2202  -5.0308  -4.9489  -4.8137
    -4.7571  -4.7150  -4.5584  -4.4965  -4.4911  -4.4137  -4.3945  -4.3446
    -4.2712  -4.2324  -4.2153  -4.1921  -4.1478  -4.1407  -4.1084  -4.0619
    -4.0321  -4.0100  -3.9946  -3.9367  -3.9242  -3.8734  -3.8632  -3.8221
    -3.7740  -3.7139  -3.6558  -3.5719  -3.4739  -3.3970  -3.3327  -3.2817
    -3.2382  -3.2159  -3.1747  -3.0131  -2.9367  -2.8653  -2.8258  -2.7834
    -2.7550  -2.6458  -2.5924  -2.5098  -2.4878  -2.4398  -2.3938  -2.3631
    -2.3431  -2.3241  -2.2908  -2.2656  -2.1895  -2.1410  -2.1271  -2.0363
    -2.0200  -2.0019  -1.9455  -1.9429  -1.9042  -1.8617  -1.8296  -1.8070
    -1.7435  -1.7107  -1.6737  -1.6421  -1.5801  -1.5399  -1.5051  -1.4599
    -1.4309  -1.3724  -1.3474  -1.3002  -1.2229  -1.2061  -1.1308  -1.1042
    -1.0625  -1.0129  -0.9233  -0.8759  -0.8138  -0.8001  -0.7379  -0.6805
    -0.6069  -0.4671  -0.2576   0.0921   0.1287   0.1558   0.1883   1.8615
     2.0479   2.1349   2.1788   2.2281   2.2697   2.3064   2.3330   2.3837
     2.4443   2.4590   2.4856   2.5131   2.5207   2.5835   2.6928   2.7242
     2.7446   2.7758   2.8276   2.8408   2.8931   2.9497   2.9707   2.9866
     3.0239   3.0346   3.1702   3.2078   3.2904   3.3166   3.3339   3.3706
     3.4115   3.4365   3.4599   3.5430   3.5592   3.6346   3.6572   3.7347
     3.7930   3.8169   3.8622   3.8986   3.9066   4.0724   4.1166   4.1653
     4.3427   4.3844   4.6161   4.9658   5.0193   5.1239   5.1375   5.1561
     5.2594   5.2869   5.3149   5.4280   5.5116   5.5610   5.6400   5.7626
     5.8246   5.8483   5.8949   5.9366   5.9556   5.9977   6.0533   6.0634
     6.1357   6.1549   6.2293   6.3235   6.3793   6.4103   6.4772   6.6463
     6.6933   6.7961   6.8392   7.0356   7.1435   7.3637   7.4753   7.5824
     7.9758   8.1761   8.3524   8.5203   8.6702   8.8668   9.0471   9.1158
     9.1942   9.4753   9.6218

          k =-0.0506 0.0280 0.0000 ( 34685 PWs)   bands (ev):

   -57.6968 -57.6665 -57.3156 -57.2841 -57.2322 -57.1076 -57.0757 -57.0708
   -57.0517 -57.0403 -56.9879 -56.9572 -56.7284 -56.6958 -56.1475 -56.1169
   -34.1108 -33.9793 -33.9547 -33.8918 -33.8447 -33.8122 -33.7724 -33.6329
   -33.6119 -33.5855 -33.5434 -33.5357 -33.5277 -33.5199 -33.4929 -33.4721
   -33.4584 -33.4489 -33.4296 -33.3692 -33.3179 -33.2909 -33.2792 -33.2655
   -33.2643 -33.2615 -33.2591 -33.2538 -33.2378 -33.2364 -33.2342 -33.2143
   -33.2034 -33.1857 -33.1773 -33.1448 -33.1417 -32.9931 -32.9838 -32.9570
   -32.9135 -32.8335 -32.5417 -32.5031 -32.4764 -32.3657 -32.2864 -32.1993
   -20.2999 -17.8607 -17.6513 -17.3690 -17.3416 -17.2499 -17.2246 -17.2146
   -17.1226 -17.0434 -16.9636 -16.9208 -16.8710 -16.8577 -16.8550 -16.8329
   -16.7635 -16.7450 -16.5594 -16.5282 -16.5042 -16.4381 -16.4155 -16.3764
   -16.3688 -16.3118 -16.1914 -16.1723 -16.1525 -16.0122 -15.9667 -14.7407
   -14.6734 -11.4636  -7.2412  -5.4528  -5.2330  -5.1996  -4.8924  -4.8342
    -4.7212  -4.7045  -4.6755  -4.6550  -4.6304  -4.5095  -4.4279  -4.3456
    -4.3189  -4.3018  -4.1600  -4.1261  -4.0608  -4.0268  -4.0087  -3.9933
    -3.9828  -3.9096  -3.8598  -3.8158  -3.7735  -3.7613  -3.7188  -3.6911
    -3.6553  -3.6336  -3.5830  -3.5513  -3.4457  -3.3180  -3.2823  -3.2611
    -3.2191  -3.1713  -3.1005  -3.0599  -2.9539  -2.9379  -2.8734  -2.8403
    -2.7432  -2.6937  -2.6596  -2.6506  -2.6034  -2.5901  -2.5359  -2.4952
    -2.4370  -2.3871  -2.3808  -2.3355  -2.3085  -2.2539  -2.1791  -2.1352
    -2.1127  -2.0623  -2.0275  -1.9744  -1.9398  -1.9058  -1.8597  -1.8308
    -1.7543  -1.7397  -1.7118  -1.6409  -1.5406  -1.5067  -1.4851  -1.4172
    -1.3669  -1.3476  -1.2779  -1.2592  -1.2388  -1.1489  -1.1113  -1.0129
    -0.9765  -0.8802  -0.8560  -0.8135  -0.7788  -0.7633  -0.7050  -0.6898
    -0.5128  -0.3119  -0.2595  -0.0730   0.1100   0.1394   0.1627   1.7042
     1.9051   2.0604   2.1228   2.1275   2.1726   2.2410   2.3613   2.3723
     2.4062   2.4382   2.5180   2.5677   2.5746   2.6029   2.6839   2.6965
     2.7432   2.8028   2.8333   2.9029   2.9560   2.9817   3.0417   3.0604
     3.0911   3.1606   3.1713   3.2006   3.3024   3.3566   3.3763   3.4104
     3.4460   3.4582   3.5471   3.5862   3.6043   3.6536   3.6761   3.6849
     3.7172   3.7710   3.8185   3.8695   3.9324   4.0589   4.1688   4.2821
     4.2932   4.4228   4.6222   4.6897   4.7644   4.8112   4.8555   4.9855
     5.0126   5.1267   5.2239   5.4697   5.5947   5.6410   5.7216   5.8053
     5.8616   5.8728   5.9254   5.9471   5.9809   6.0927   6.1169   6.1390
     6.2302   6.4321   6.4817   6.5404   6.5779   6.6077   6.6854   6.7405
     6.7967   6.8174   6.9739   7.1161   7.1674   7.3943   7.5704   7.6969
     8.1271   8.1635   8.2443   8.3894   8.7609   8.9707   9.0148   9.0534
     9.3725   9.4374   9.6058

          k =-0.0506 0.0560 0.0000 ( 34596 PWs)   bands (ev):

   -57.6904 -57.6729 -57.3091 -57.2907 -57.2313 -57.1015 -57.0818 -57.0644
   -57.0526 -57.0468 -56.9815 -56.9637 -56.7218 -56.7025 -56.1410 -56.1234
   -34.0408 -33.9740 -33.9597 -33.8751 -33.8456 -33.8291 -33.7735 -33.5962
   -33.5748 -33.5723 -33.5356 -33.5216 -33.5154 -33.5111 -33.4769 -33.4736
   -33.4533 -33.4267 -33.4041 -33.3537 -33.3182 -33.3177 -33.3012 -33.2991
   -33.2867 -33.2767 -33.2679 -33.2608 -33.2538 -33.2535 -33.2478 -33.2397
   -33.2105 -33.2007 -33.1708 -33.1648 -33.1260 -32.9880 -32.9780 -32.9621
   -32.9264 -32.9030 -32.4974 -32.4820 -32.4710 -32.3492 -32.3033 -32.2733
   -20.2996 -17.7062 -17.5006 -17.2914 -17.2398 -17.1978 -17.1738 -17.1620
   -17.0899 -17.0371 -17.0060 -16.9136 -16.8567 -16.8491 -16.8446 -16.8065
   -16.7764 -16.7221 -16.6627 -16.6226 -16.6128 -16.5509 -16.5127 -16.3991
   -16.3435 -16.2637 -16.2263 -16.1932 -16.1565 -16.1136 -16.0386 -14.7601
   -14.7245 -11.4627  -7.2400  -5.4257  -5.2189  -5.0213  -4.6592  -4.6172
    -4.5156  -4.4992  -4.4839  -4.4563  -4.4324  -4.3677  -4.3250  -4.3019
    -4.2261  -4.2058  -4.1464  -4.1321  -4.0826  -4.0675  -4.0463  -4.0368
    -4.0146  -3.9965  -3.9689  -3.9149  -3.8941  -3.8884  -3.8228  -3.7871
    -3.7308  -3.6601  -3.6302  -3.5235  -3.4875  -3.3771  -3.3272  -3.2625
    -3.2548  -3.2440  -3.1360  -3.0139  -2.9332  -2.9050  -2.8506  -2.8312
    -2.7565  -2.7265  -2.6848  -2.6101  -2.5913  -2.5681  -2.5290  -2.4901
    -2.4285  -2.4054  -2.3659  -2.3299  -2.3164  -2.3003  -2.2555  -2.1786
    -2.1515  -2.1212  -2.1133  -2.0772  -2.0475  -2.0030  -1.9853  -1.9018
    -1.8915  -1.8514  -1.8329  -1.7251  -1.6380  -1.6063  -1.5730  -1.4786
    -1.4082  -1.3751  -1.3077  -1.2472  -1.2054  -1.1144  -1.0738  -1.0167
    -1.0016  -0.9369  -0.8519  -0.8204  -0.7699  -0.7563  -0.6930  -0.6572
    -0.6517  -0.5176  -0.3246   0.0780   0.1122   0.1302   0.1937   1.8668
     2.0767   2.1655   2.1993   2.2210   2.2437   2.2985   2.3480   2.3932
     2.4037   2.5375   2.5703   2.5794   2.6076   2.6284   2.6835   2.7548
     2.7821   2.8044   2.8389   2.8810   2.9636   3.0045   3.0284   3.0622
     3.0973   3.1363   3.1678   3.2567   3.3357   3.3674   3.3971   3.4411
     3.4788   3.4998   3.5220   3.5426   3.6151   3.6475   3.7116   3.7443
     3.7800   3.8514   3.8803   3.9194   3.9253   3.9542   4.1117   4.1749
     4.2895   4.4734   4.7252   4.8069   4.8167   4.8963   4.9422   5.0921
     5.1655   5.2319   5.2720   5.3272   5.3722   5.4350   5.4957   5.6262
     5.7809   5.8310   5.8811   5.9521   6.0422   6.1242   6.2178   6.2593
     6.2867   6.3480   6.4162   6.4504   6.5020   6.5775   6.6473   6.7161
     6.7308   6.8243   6.8490   6.9841   7.0459   7.4106   7.4264   7.5767
     7.7437   7.9413   8.0702   8.3935   8.5727   8.6124   8.7468   9.0123
     9.2281   9.3232   9.4540

     the Fermi energy is     0.9970 ev

!    total energy              =   -3021.41837366 Ry
     Harris-Foulkes estimate   =   -3021.41837365 Ry
     estimated scf accuracy    <       0.00000011 Ry

     The total energy is the sum of the following terms:

     one-electron contribution =  -41241.38169690 Ry
     hartree contribution      =   20694.93510809 Ry
     xc contribution           =    -553.69086508 Ry
     ewald contribution        =   18078.71929141 Ry
     smearing contrib. (-TS)   =      -0.00021118 Ry

     total magnetization       =     0.00 Bohr mag/cell
     absolute magnetization    =     0.00 Bohr mag/cell

     convergence has been achieved in   9 iterations

     Forces acting on atoms (Ry/au):


     negative rho (up, down):  1.209E-02 1.209E-02
     atom    1 type  1   force =     0.00001790   -0.00035314   -0.13379655
     atom    2 type  2   force =     0.00000370    0.00003302    0.07212794
     atom    3 type  1   force =    -0.00135355    0.00031228   -0.06096997
     atom    4 type  2   force =     0.00290201    0.00048897    0.00638279
     atom    5 type  1   force =     0.00027261    0.00185463    0.00353034
     atom    6 type  2   force =     0.00006188    0.00004969   -0.00288646
     atom    7 type  1   force =    -0.00033178   -0.00064859    0.00450622
     atom    8 type  2   force =     0.00090751   -0.00020492   -0.00069482
     atom    9 type  1   force =    -0.00002683    0.00002204   -0.13355394
     atom   10 type  2   force =    -0.00006773    0.00006481    0.07131033
     atom   11 type  1   force =    -0.00131634   -0.00024344   -0.05588244
     atom   12 type  2   force =     0.00299570   -0.00006961    0.00609994
     atom   13 type  1   force =     0.00029678   -0.00148636    0.00346285
     atom   14 type  2   force =    -0.00120193   -0.00038120   -0.00289943
     atom   15 type  1   force =    -0.00054498    0.00015542    0.00448015
     atom   16 type  2   force =     0.00061200   -0.00020205   -0.00002065
     atom   17 type  2   force =    -0.00006847   -0.00006791    0.07939315
     atom   18 type  1   force =     0.00013393   -0.00017175    0.11911953
     atom   19 type  2   force =    -0.00010766   -0.00017293   -0.06668371
     atom   20 type  2   force =    -0.06322408    0.00014693   -0.03224382
     atom   21 type  2   force =     0.06320142    0.00001545   -0.03244939
     atom   22 type  1   force =     0.00072556    0.00108490    0.05974644
     atom   23 type  2   force =    -0.00017307    0.00006025   -0.00175612
     atom   24 type  2   force =    -0.00143034   -0.00000547   -0.02326107
     atom   25 type  2   force =    -0.00312824    0.00059162    0.00786865
     atom   26 type  1   force =     0.00063893    0.00028239    0.00461254
     atom   27 type  2   force =     0.00052642    0.00058332   -0.00380335
     atom   28 type  2   force =     0.00013873   -0.00008331   -0.00119647
     atom   29 type  2   force =     0.00021850   -0.00034480   -0.00058020
     atom   30 type  1   force =     0.00039427   -0.00067680    0.00387198
     atom   31 type  2   force =     0.00004514    0.00006529   -0.00264186
     atom   32 type  2   force =    -0.00005562    0.00013177   -0.00101345
     atom   33 type  2   force =    -0.00011954    0.00003828    0.07899412
     atom   34 type  1   force =     0.00006891   -0.00021858    0.11903575
     atom   35 type  2   force =    -0.00030314   -0.00005562   -0.06638376
     atom   36 type  2   force =    -0.06318632   -0.00005283   -0.03233277
     atom   37 type  2   force =     0.06333465   -0.00020048   -0.03248624
     atom   38 type  1   force =     0.00066180   -0.00097563    0.05996345
     atom   39 type  2   force =    -0.00045913    0.00010795   -0.00249994
     atom   40 type  2   force =    -0.00118867    0.00030857   -0.02217192
     atom   41 type  2   force =    -0.00317178   -0.00015032    0.00789873
     atom   42 type  1   force =     0.00051605    0.00007798    0.00372963
     atom   43 type  2   force =     0.00069449    0.00026273   -0.00299146
     atom   44 type  2   force =     0.00022666    0.00010667   -0.00116404
     atom   45 type  2   force =     0.00019377    0.00030809   -0.00062188
     atom   46 type  1   force =     0.00047825    0.00028507    0.00393763
     atom   47 type  2   force =     0.00007803   -0.00033297   -0.00132002
     atom   48 type  2   force =     0.00017796    0.00029464   -0.00109532
     atom   49 type  3   force =    -0.00244403   -0.06325238   -0.00068558
     atom   50 type  2   force =     0.00123534    0.00506103   -0.00306968
     atom   51 type  4   force =     0.00067518    0.00578950    0.00022390
     atom   52 type  4   force =     0.00034215    0.00061244    0.00078078
     atom   53 type  4   force =    -0.00448771    0.02482377   -0.01089013
     atom   54 type  4   force =     0.00561471    0.02633159    0.01296958

     Total force =     0.370398     Total SCF correction =     0.001095
 !ASE

     Writing output data file calc.save
 
     init_run     :     54.89s CPU     68.96s WALL (       1 calls)
     electrons    :   1949.09s CPU   2353.15s WALL (       1 calls)
     forces       :     40.19s CPU     41.70s WALL (       1 calls)

     Called by init_run:
     wfcinit      :     46.55s CPU     59.84s WALL (       1 calls)
     potinit      :      1.51s CPU      1.77s WALL (       1 calls)

     Called by electrons:
     c_bands      :   1701.13s CPU   2040.84s WALL (       9 calls)
     sum_band     :    208.31s CPU    266.62s WALL (       9 calls)
     v_of_rho     :      9.75s CPU     12.29s WALL (      10 calls)
     newd         :     33.70s CPU     37.50s WALL (      10 calls)
     mix_rho      :      0.32s CPU      0.46s WALL (       9 calls)
     vdW_energy   :      1.77s CPU      2.22s WALL (      11 calls)
     vdW_ffts     :      2.52s CPU      3.37s WALL (      22 calls)
     vdW_v        :      1.00s CPU      1.18s WALL (      11 calls)

     Called by c_bands:
     init_us_2    :      5.44s CPU      5.89s WALL (     800 calls)
     cegterg      :   1669.29s CPU   2007.26s WALL (     360 calls)

     Called by *egterg:
     h_psi        :    680.15s CPU    943.44s WALL (    1974 calls)
     s_psi        :     83.85s CPU     87.79s WALL (    1974 calls)
     g_psi        :      4.57s CPU      4.76s WALL (    1574 calls)
     cdiaghg      :    593.50s CPU    610.70s WALL (    1934 calls)

     Called by h_psi:
     add_vuspsi   :     84.17s CPU     88.92s WALL (    1974 calls)

     General routines
     calbec       :    126.84s CPU    130.63s WALL (    2374 calls)
     fft          :      5.24s CPU      6.94s WALL (     867 calls)
     ffts         :      0.04s CPU      0.06s WALL (      38 calls)
     fftw         :    440.40s CPU    746.15s WALL (  668612 calls)
     interpolate  :      0.28s CPU      0.46s WALL (      38 calls)
     davcio       :      0.17s CPU      3.31s WALL (      40 calls)
 
     Parallel routines
     fft_scatter  :    223.58s CPU    408.05s WALL (  669517 calls)
 
     PWSCF        : 34m 5.37s CPU    41m 9.08s WALL

 
   This run was terminated on:  11:53:30  12Feb2018            

=------------------------------------------------------------------------------=
   JOB DONE.
=------------------------------------------------------------------------------=
