  python dir          : /home/vossj/suncat/lib/python2.7/site-packages/espresso
  espresso dir        : /home/vossj/suncat/esdld/espresso-dynpy-beef/bin
  pseudo dir          : /home/alatimer/bin/psp/esp_psp_w_gbrvRu/
  ase-espresso py git : ffa2778-git



     Program PWSCF v.5.1rc2 (svn rev. ) starts on 26Feb2018 at 16:51:44 

     This program is part of the open-source Quantum ESPRESSO suite
     for quantum simulation of materials; please cite
         "P. Giannozzi et al., J. Phys.:Condens. Matter 21 395502 (2009);
          URL http://www.quantum-espresso.org", 
     in publications or presentations arising from this work. More details at
     http://www.quantum-espresso.org/quote

     Parallel version (MPI), running on    16 processors
     R & G space division:  proc/nbgrp/npool/nimage =      16
     Reading input from pw.inp
     Message from routine read_cards :
     DEPRECATED: no units specified in CELL_PARAMETERS card

     Current dimensions of program PWSCF are:
     Max number of different atomic species (ntypx) = 10
     Max number of k-points (npk) =  40000
     Max angular momentum in pseudopotentials (lmaxx) =  3

     **************************************************************************
     Initializing libbeef V0.1.1 with the BEEF-vdW functional.
     Citation: Wellendorff et al., PRB 85, 235149 (2012).
     **************************************************************************


     IMPORTANT: XC functional enforced from input :
     Exchange-correlation      = BEEF ( 1  4 27 13 2)
     Any further DFT definition will be discarded
     Please, verify this is what you really want


     Subspace diagonalization in iterative solution of the eigenvalue problem:
     a serial algorithm will be used

 
     Parallelization info
     --------------------
     sticks:   dense  smooth     PW     G-vecs:    dense   smooth      PW
     Min         281     112     31                68535    17318    2565
     Max         282     113     32                68545    17369    2582
     Sum        4501    1795    503              1096637   277353   41113
 
     Generating pointlists ...
     new r_m :   0.4125 (alat units)  0.7795 (a.u.) for type    1
     new r_m :   0.4125 (alat units)  0.7795 (a.u.) for type    2
     new r_m :   0.4125 (alat units)  0.7795 (a.u.) for type    3
     new r_m :   0.4125 (alat units)  0.7795 (a.u.) for type    4


     bravais-lattice index     =            0
     lattice parameter (alat)  =       1.8897  a.u.
     unit-cell volume          =    7990.9933 (a.u.)^3
     number of atoms/cell      =           54
     number of atomic types    =            4
     number of electrons       =       398.00
     number of Kohn-Sham states=          299
     kinetic-energy cutoff     =      40.4243  Ry
     charge density cutoff     =     404.2426  Ry
     convergence threshold     =      7.3E-07
     mixing beta               =       0.1000
     number of iterations used =           10  plain     mixing
     Exchange-correlation      = BEEF ( 1  4 27 13 2)
     nstep                     =           50


     celldm(1)=   1.889726  celldm(2)=   0.000000  celldm(3)=   0.000000
     celldm(4)=   0.000000  celldm(5)=   0.000000  celldm(6)=   0.000000

     crystal axes: (cart. coord. in units of alat)
               a(1) = (   6.590708   0.000000   0.000000 )  
               a(2) = (   0.000000   5.950229   0.000000 )  
               a(3) = (   0.000000   0.000000  30.195235 )  

     reciprocal axes: (cart. coord. in units 2 pi/alat)
               b(1) = (  0.151729  0.000000  0.000000 )  
               b(2) = (  0.000000  0.168061  0.000000 )  
               b(3) = (  0.000000  0.000000  0.033118 )  


     PseudoPot. # 1 for Ti read from file:
     /home/alatimer/bin/psp/esp_psp_w_gbrvRu/Ti.UPF
     MD5 check sum: 8e4df49b7f0d34bbd5052bf3f5ea0213
     Pseudo is Ultrasoft, Zval = 12.0
     Generated by new atomic code, or converted to UPF format
     Using radial grid of  851 points,  6 beta functions with: 
                l(1) =   0
                l(2) =   0
                l(3) =   1
                l(4) =   1
                l(5) =   2
                l(6) =   2
     Q(r) pseudized with  8 coefficients,  rinner =    1.000   1.000   1.000
                                                       1.000   1.000

     PseudoPot. # 2 for  O read from file:
     /home/alatimer/bin/psp/esp_psp_w_gbrvRu/O.UPF
     MD5 check sum: e057bbcf3229fb5d8c36c0c92f9568b4
     Pseudo is Ultrasoft + core correction, Zval =  6.0
     Generated using "atomic" code by A. Dal Corso  v.5.0.2 svn rev. 9415
     Using radial grid of 1095 points,  4 beta functions with: 
                l(1) =   0
                l(2) =   0
                l(3) =   1
                l(4) =   1
     Q(r) pseudized with 0 coefficients 


     PseudoPot. # 3 for  C read from file:
     /home/alatimer/bin/psp/esp_psp_w_gbrvRu/C.UPF
     MD5 check sum: ab446d787031eba755f1d5ee46644bb0
     Pseudo is Ultrasoft + core correction, Zval =  4.0
     Generated using "atomic" code by A. Dal Corso  v.5.0.2 svn rev. 9415
     Using radial grid of 1073 points,  4 beta functions with: 
                l(1) =   0
                l(2) =   0
                l(3) =   1
                l(4) =   1
     Q(r) pseudized with 0 coefficients 


     PseudoPot. # 4 for  H read from file:
     /home/alatimer/bin/psp/esp_psp_w_gbrvRu/H.UPF
     MD5 check sum: bd57da0722753ddfd9833a65b40bb853
     Pseudo is Ultrasoft, Zval =  1.0
     Generated using "atomic" code by A. Dal Corso  v.5.0.2 svn rev. 9415
     Using radial grid of  929 points,  2 beta functions with: 
                l(1) =   0
                l(2) =   0
     Q(r) pseudized with 0 coefficients 


     vdW kernel table read from file vdW_kernel_table
     MD5 check sum: 095c7af220d748ca6e76c0b4c6cfb241

     atomic species   valence    mass     pseudopotential
        Ti1           12.00    47.88000     Ti( 1.00)
        O1             6.00    15.99940      O( 1.00)
        C1             4.00    12.01100      C( 1.00)
        H1             1.00     1.00794      H( 1.00)

     Starting magnetic structure 
     atomic species   magnetization
        Ti1          0.250
        O1           0.500
        C1           0.750
        H1           0.000

     No symmetry found



   Cartesian axes

     site n.     atom                  positions (alat units)
         1           Ti1 tau(   1) = (   1.6476770   0.7437786   2.6545865  )
         2           O1  tau(   2) = (   1.6476770   2.2313359   3.9361215  )
         3           Ti1 tau(   3) = (   1.6476770   2.2313359   5.9499405  )
         4           O1  tau(   4) = (   0.3661420   0.7437786   5.9499405  )
         5           Ti1 tau(   5) = (   1.6407309   0.9134410   9.3139491  )
         6           O1  tau(   6) = (   1.6648823   2.2608486  10.4895904  )
         7           Ti1 tau(   7) = (   1.7578240   2.2899216  13.0472362  )
         8           O1  tau(   8) = (   0.4801583   0.7600008  12.7739736  )
         9           Ti1 tau(   9) = (   1.6476770   3.7188931   2.6545865  )
        10           O1  tau(  10) = (   1.6476770   5.2064503   3.9361215  )
        11           Ti1 tau(  11) = (   1.6476770   5.2064503   5.9499405  )
        12           O1  tau(  12) = (   0.3661420   3.7188931   5.9499405  )
        13           Ti1 tau(  13) = (   1.6336050   3.7786827   9.1566831  )
        14           O1  tau(  14) = (   1.6678212   5.2513959  10.5409436  )
        15           Ti1 tau(  15) = (   1.7144009   5.2558216  12.3462911  )
        16           O1  tau(  16) = (   0.4635505   3.7986228  12.7318280  )
        17           O1  tau(  17) = (   1.6476770   2.2313359   1.3730516  )
        18           Ti1 tau(  18) = (   4.9430310   2.2313359   2.6545865  )
        19           O1  tau(  19) = (   4.9430310   2.2313359   4.6684056  )
        20           O1  tau(  20) = (   6.2245660   0.7437786   2.6545865  )
        21           O1  tau(  21) = (   3.6614961   0.7437786   2.6545865  )
        22           Ti1 tau(  22) = (   4.9430310   0.7437786   5.9499405  )
        23           O1  tau(  23) = (   1.6683653   2.2752577   7.9427336  )
        24           O1  tau(  24) = (   4.9430310   2.2313359   7.2314755  )
        25           O1  tau(  25) = (   2.9292120   0.7437786   5.9499405  )
        26           Ti1 tau(  26) = (   4.9404121   2.2664794   9.4552217  )
        27           O1  tau(  27) = (   5.0099888   2.2616732  11.2946145  )
        28           O1  tau(  28) = (   6.2612001   0.7714827   9.2659748  )
        29           O1  tau(  29) = (   3.6791272   0.7744986   9.2965846  )
        30           Ti1 tau(  30) = (   5.0117873   0.7976728  12.8161605  )
        31           O1  tau(  31) = (   4.9963122   2.2836652  13.8750618  )
        32           O1  tau(  32) = (   2.9819382   0.7448324  12.7109220  )
        33           O1  tau(  33) = (   1.6476770   5.2064503   1.3730516  )
        34           Ti1 tau(  34) = (   4.9430310   5.2064503   2.6545865  )
        35           O1  tau(  35) = (   4.9430310   5.2064503   4.6684056  )
        36           O1  tau(  36) = (   6.2245660   3.7188931   2.6545865  )
        37           O1  tau(  37) = (   3.6614961   3.7188931   2.6545865  )
        38           Ti1 tau(  38) = (   4.9430310   3.7188931   5.9499405  )
        39           O1  tau(  39) = (   1.6664207   5.2035600   7.9365221  )
        40           O1  tau(  40) = (   4.9430310   5.2064503   7.2314755  )
        41           O1  tau(  41) = (   2.9292120   3.7188931   5.9499405  )
        42           Ti1 tau(  42) = (   4.9524353   5.2460635   9.4426343  )
        43           O1  tau(  43) = (   5.0107556   5.2394944  11.2927493  )
        44           O1  tau(  44) = (   6.2663940   3.7551737   9.2646230  )
        45           O1  tau(  45) = (   3.6780957   3.7542261   9.2971476  )
        46           Ti1 tau(  46) = (   5.0587989   3.7766986  12.8010349  )
        47           O1  tau(  47) = (   5.0196089   5.2502198  13.8813978  )
        48           O1  tau(  48) = (   2.9624133   3.7943242  12.7299881  )
        49           O1  tau(  49) = (   1.7427453   2.2533568  14.8370015  )
        50           C1  tau(  50) = (   2.7196098   4.2826273  16.2318421  )
        51           H1  tau(  51) = (   3.3037454   4.9255546  15.5827400  )
        52           H1  tau(  52) = (   3.3286606   3.7870117  17.0122022  )
        53           H1  tau(  53) = (   2.3125587   3.4026405  15.5729816  )
        54           H1  tau(  54) = (   1.8391288   4.7650601  16.6448379  )

     number of k points=    40  Fermi-Dirac smearing, width (Ry)=  0.0073
                       cart. coord. in units 2pi/alat
        k(    1) = (   0.0000000   0.0000000   0.0000000), wk =   0.0277778
        k(    2) = (   0.0000000   0.0280101   0.0000000), wk =   0.0555556
        k(    3) = (   0.0000000   0.0560203   0.0000000), wk =   0.0555556
        k(    4) = (   0.0000000  -0.0840304   0.0000000), wk =   0.0277778
        k(    5) = (   0.0252881   0.0000000   0.0000000), wk =   0.0555556
        k(    6) = (   0.0252881   0.0280101   0.0000000), wk =   0.0555556
        k(    7) = (   0.0252881   0.0560203   0.0000000), wk =   0.0555556
        k(    8) = (   0.0252881  -0.0840304   0.0000000), wk =   0.0555556
        k(    9) = (   0.0505763   0.0000000   0.0000000), wk =   0.0555556
        k(   10) = (   0.0505763   0.0280101   0.0000000), wk =   0.0555556
        k(   11) = (   0.0505763   0.0560203   0.0000000), wk =   0.0555556
        k(   12) = (   0.0505763  -0.0840304   0.0000000), wk =   0.0555556
        k(   13) = (  -0.0758644   0.0000000   0.0000000), wk =   0.0277778
        k(   14) = (  -0.0758644   0.0280101   0.0000000), wk =   0.0555556
        k(   15) = (  -0.0758644   0.0560203   0.0000000), wk =   0.0555556
        k(   16) = (  -0.0758644  -0.0840304   0.0000000), wk =   0.0277778
        k(   17) = (  -0.0252881   0.0280101   0.0000000), wk =   0.0555556
        k(   18) = (  -0.0252881   0.0560203   0.0000000), wk =   0.0555556
        k(   19) = (  -0.0505763   0.0280101   0.0000000), wk =   0.0555556
        k(   20) = (  -0.0505763   0.0560203   0.0000000), wk =   0.0555556
        k(   21) = (   0.0000000   0.0000000   0.0000000), wk =   0.0277778
        k(   22) = (   0.0000000   0.0280101   0.0000000), wk =   0.0555556
        k(   23) = (   0.0000000   0.0560203   0.0000000), wk =   0.0555556
        k(   24) = (   0.0000000  -0.0840304   0.0000000), wk =   0.0277778
        k(   25) = (   0.0252881   0.0000000   0.0000000), wk =   0.0555556
        k(   26) = (   0.0252881   0.0280101   0.0000000), wk =   0.0555556
        k(   27) = (   0.0252881   0.0560203   0.0000000), wk =   0.0555556
        k(   28) = (   0.0252881  -0.0840304   0.0000000), wk =   0.0555556
        k(   29) = (   0.0505763   0.0000000   0.0000000), wk =   0.0555556
        k(   30) = (   0.0505763   0.0280101   0.0000000), wk =   0.0555556
        k(   31) = (   0.0505763   0.0560203   0.0000000), wk =   0.0555556
        k(   32) = (   0.0505763  -0.0840304   0.0000000), wk =   0.0555556
        k(   33) = (  -0.0758644   0.0000000   0.0000000), wk =   0.0277778
        k(   34) = (  -0.0758644   0.0280101   0.0000000), wk =   0.0555556
        k(   35) = (  -0.0758644   0.0560203   0.0000000), wk =   0.0555556
        k(   36) = (  -0.0758644  -0.0840304   0.0000000), wk =   0.0277778
        k(   37) = (  -0.0252881   0.0280101   0.0000000), wk =   0.0555556
        k(   38) = (  -0.0252881   0.0560203   0.0000000), wk =   0.0555556
        k(   39) = (  -0.0505763   0.0280101   0.0000000), wk =   0.0555556
        k(   40) = (  -0.0505763   0.0560203   0.0000000), wk =   0.0555556

     Dense  grid:  1096637 G-vectors     FFT dimensions: (  80,  72, 375)

     Smooth grid:   277353 G-vectors     FFT dimensions: (  54,  45, 240)

     Largest allocated arrays     est. size (Mb)     dimensions
        Kohn-Sham Wavefunctions         9.95 Mb     (    2180,  299)
        NL pseudopotentials            18.89 Mb     (    2180,  568)
        Each V/rho on FFT grid          4.22 Mb     (  138240,   2)
        Each G-vector array             0.52 Mb     (   68538)
        G-vector shells                 0.25 Mb     (   33046)
     Largest temporary arrays     est. size (Mb)     dimensions
        Auxiliary wavefunctions        39.78 Mb     (    2180, 1196)
        Each subspace H/S matrix       21.83 Mb     (    1196, 1196)
        Each <psi_i|beta_j> matrix      2.59 Mb     (     568,  299)
        Arrays for rho mixing          21.09 Mb     (  138240,   10)

     Check: negative/imaginary core charge=   -0.000049    0.000000

     The initial density is read from file :
     ./calc.save/charge-density.dat


     negative rho (up, down):  1.189E-02 1.196E-02


     ************************************************************************
     *
     * You are using vdW-DF for exchange-correlation in this calculation.
     * Please cite the following three references that made this development
     * possible:
     *
     *   M. Dion, H. Rydberg, E. Schroder, D. C. Langreth, and
     *   B. I. Lundqvist, Phys. Rev. Lett. 92, 246401 (2004).
     *
     *   T. Thonhauser, V. R. Cooper, S. Li, A. Puzder, P. Hyldgaard, and
     *   D. C. Langreth, Phys. Rev. B 76, 125112 (2007).
     *
     *   G. Roman-Perez and J. M. Soler, Phys. Rev. Lett. 103, 096102 (2009).
     *
     *
     * If you are using vdW-DF2, please also cite:
     *
     *   K. Lee, E. D. Murray, L. Kong, B. I. Lundqvist, and
     *   D. C. Langreth, Phys. Rev. B 82, 081101(R) (2010).
     *
     *
     * If you are calculating the stress with vdW-DF, please also cite:
     *
     *   R. Sabatini, E. Kucukbenli, B. Kolb, T. Thonhauser, and
     *   S. de Gironcoli, J. Phys.: Condens. Matter 24, 424209 (2012).
     *
     ************************************************************************

     Carrying out vdW-DF run using the following parameters:

     Nqs =      20    Nr_points =    1024   r_max =   100.000
     q_mesh =
               0.00001000     0.04494208     0.09755937     0.15916263
               0.23128650     0.31572767     0.41458969     0.53033537
               0.66584808     0.82450364     1.01025438     1.22772762
               1.48234092     1.78043706     2.12944203     2.53805004
               3.01644009     3.57652955     4.23227104     5.00000000

     Gradients computed in reciprocal space

     ************************************************************************


     Starting wfc are  300 randomized atomic wfcs

     total cpu time spent up to now is       77.9 secs

     Self-consistent Calculation

     iteration #  1     ecut=    40.42 Ry     beta=0.10
     Davidson diagonalization with overlap
     ethr =  1.00E-05,  avg # of iterations = 14.9

     negative rho (up, down):  1.189E-02 1.195E-02
 
     Magnetic moment per site:
     atom:    1    charge:    3.1245    magn:   -0.0003    constr:    0.0000
     atom:    2    charge:    2.0898    magn:    0.0003    constr:    0.0000
     atom:    3    charge:    3.1198    magn:   -0.0000    constr:    0.0000
     atom:    4    charge:    2.0868    magn:   -0.0001    constr:    0.0000
     atom:    5    charge:    3.1161    magn:   -0.0002    constr:    0.0000
     atom:    6    charge:    2.0794    magn:    0.0021    constr:    0.0000
     atom:    7    charge:    3.1167    magn:   -0.0053    constr:    0.0000
     atom:    8    charge:    2.0793    magn:    0.0249    constr:    0.0000
     atom:    9    charge:    3.1245    magn:   -0.0003    constr:    0.0000
     atom:   10    charge:    2.0899    magn:    0.0003    constr:    0.0000
     atom:   11    charge:    3.1198    magn:   -0.0000    constr:    0.0000
     atom:   12    charge:    2.0871    magn:   -0.0000    constr:    0.0000
     atom:   13    charge:    3.1150    magn:   -0.0002    constr:    0.0000
     atom:   14    charge:    2.0939    magn:    0.0023    constr:    0.0000
     atom:   15    charge:    3.1184    magn:   -0.0008    constr:    0.0000
     atom:   16    charge:    2.0827    magn:    0.0047    constr:    0.0000
     atom:   17    charge:    2.0630    magn:    0.0018    constr:    0.0000
     atom:   18    charge:    3.1240    magn:   -0.0001    constr:    0.0000
     atom:   19    charge:    2.0876    magn:    0.0001    constr:    0.0000
     atom:   20    charge:    2.0847    magn:    0.0002    constr:    0.0000
     atom:   21    charge:    2.0847    magn:    0.0002    constr:    0.0000
     atom:   22    charge:    3.1199    magn:    0.0000    constr:    0.0000
     atom:   23    charge:    2.0908    magn:    0.0002    constr:    0.0000
     atom:   24    charge:    2.0753    magn:   -0.0002    constr:    0.0000
     atom:   25    charge:    2.0868    magn:    0.0000    constr:    0.0000
     atom:   26    charge:    3.1127    magn:   -0.0002    constr:    0.0000
     atom:   27    charge:    2.0801    magn:    0.0025    constr:    0.0000
     atom:   28    charge:    2.0838    magn:    0.0006    constr:    0.0000
     atom:   29    charge:    2.0860    magn:    0.0008    constr:    0.0000
     atom:   30    charge:    3.1171    magn:   -0.0008    constr:    0.0000
     atom:   31    charge:    2.0824    magn:    0.0006    constr:    0.0000
     atom:   32    charge:    2.0828    magn:    0.0065    constr:    0.0000
     atom:   33    charge:    2.0630    magn:    0.0018    constr:    0.0000
     atom:   34    charge:    3.1240    magn:   -0.0001    constr:    0.0000
     atom:   35    charge:    2.0876    magn:    0.0001    constr:    0.0000
     atom:   36    charge:    2.0847    magn:    0.0002    constr:    0.0000
     atom:   37    charge:    2.0847    magn:    0.0002    constr:    0.0000
     atom:   38    charge:    3.1200    magn:    0.0000    constr:    0.0000
     atom:   39    charge:    2.0839    magn:    0.0002    constr:    0.0000
     atom:   40    charge:    2.0756    magn:   -0.0003    constr:    0.0000
     atom:   41    charge:    2.0871    magn:   -0.0000    constr:    0.0000
     atom:   42    charge:    3.1151    magn:   -0.0002    constr:    0.0000
     atom:   43    charge:    2.0801    magn:    0.0030    constr:    0.0000
     atom:   44    charge:    2.0850    magn:    0.0008    constr:    0.0000
     atom:   45    charge:    2.0858    magn:    0.0004    constr:    0.0000
     atom:   46    charge:    3.1147    magn:   -0.0007    constr:    0.0000
     atom:   47    charge:    2.0805    magn:    0.0047    constr:    0.0000
     atom:   48    charge:    2.0836    magn:    0.0136    constr:    0.0000
     atom:   49    charge:    2.0517    magn:    0.2397    constr:    0.0000
     atom:   50    charge:    0.6701    magn:    0.0547    constr:    0.0000
     atom:   51    charge:    0.4220    magn:    0.0009    constr:    0.0000
     atom:   52    charge:    0.4111    magn:    0.0008    constr:    0.0000
     atom:   53    charge:    0.3674    magn:    0.0234    constr:    0.0000
     atom:   54    charge:    0.4233    magn:    0.0006    constr:    0.0000

     total cpu time spent up to now is     1042.8 secs

     total energy              =   -3021.14924765 Ry
     Harris-Foulkes estimate   =   -3021.14999865 Ry
     estimated scf accuracy    <       0.00499408 Ry

     total magnetization       =     1.07 Bohr mag/cell
     absolute magnetization    =     1.24 Bohr mag/cell

     iteration #  2     ecut=    40.42 Ry     beta=0.10
     Davidson diagonalization with overlap
     ethr =  1.25E-06,  avg # of iterations =  6.2

     negative rho (up, down):  1.188E-02 1.195E-02
 
     Magnetic moment per site:
     atom:    1    charge:    3.1244    magn:   -0.0003    constr:    0.0000
     atom:    2    charge:    2.0897    magn:    0.0003    constr:    0.0000
     atom:    3    charge:    3.1198    magn:   -0.0000    constr:    0.0000
     atom:    4    charge:    2.0867    magn:   -0.0001    constr:    0.0000
     atom:    5    charge:    3.1161    magn:   -0.0002    constr:    0.0000
     atom:    6    charge:    2.0795    magn:    0.0021    constr:    0.0000
     atom:    7    charge:    3.1167    magn:   -0.0053    constr:    0.0000
     atom:    8    charge:    2.0793    magn:    0.0248    constr:    0.0000
     atom:    9    charge:    3.1244    magn:   -0.0003    constr:    0.0000
     atom:   10    charge:    2.0898    magn:    0.0003    constr:    0.0000
     atom:   11    charge:    3.1198    magn:   -0.0000    constr:    0.0000
     atom:   12    charge:    2.0871    magn:   -0.0000    constr:    0.0000
     atom:   13    charge:    3.1150    magn:   -0.0002    constr:    0.0000
     atom:   14    charge:    2.0939    magn:    0.0022    constr:    0.0000
     atom:   15    charge:    3.1184    magn:   -0.0008    constr:    0.0000
     atom:   16    charge:    2.0828    magn:    0.0047    constr:    0.0000
     atom:   17    charge:    2.0625    magn:    0.0017    constr:    0.0000
     atom:   18    charge:    3.1240    magn:   -0.0001    constr:    0.0000
     atom:   19    charge:    2.0875    magn:    0.0001    constr:    0.0000
     atom:   20    charge:    2.0847    magn:    0.0002    constr:    0.0000
     atom:   21    charge:    2.0847    magn:    0.0002    constr:    0.0000
     atom:   22    charge:    3.1199    magn:    0.0000    constr:    0.0000
     atom:   23    charge:    2.0908    magn:    0.0002    constr:    0.0000
     atom:   24    charge:    2.0754    magn:   -0.0002    constr:    0.0000
     atom:   25    charge:    2.0868    magn:    0.0000    constr:    0.0000
     atom:   26    charge:    3.1127    magn:   -0.0002    constr:    0.0000
     atom:   27    charge:    2.0803    magn:    0.0025    constr:    0.0000
     atom:   28    charge:    2.0839    magn:    0.0006    constr:    0.0000
     atom:   29    charge:    2.0860    magn:    0.0008    constr:    0.0000
     atom:   30    charge:    3.1171    magn:   -0.0008    constr:    0.0000
     atom:   31    charge:    2.0825    magn:    0.0006    constr:    0.0000
     atom:   32    charge:    2.0829    magn:    0.0065    constr:    0.0000
     atom:   33    charge:    2.0625    magn:    0.0018    constr:    0.0000
     atom:   34    charge:    3.1240    magn:   -0.0001    constr:    0.0000
     atom:   35    charge:    2.0876    magn:    0.0001    constr:    0.0000
     atom:   36    charge:    2.0847    magn:    0.0002    constr:    0.0000
     atom:   37    charge:    2.0847    magn:    0.0002    constr:    0.0000
     atom:   38    charge:    3.1200    magn:    0.0000    constr:    0.0000
     atom:   39    charge:    2.0839    magn:    0.0002    constr:    0.0000
     atom:   40    charge:    2.0757    magn:   -0.0003    constr:    0.0000
     atom:   41    charge:    2.0871    magn:   -0.0000    constr:    0.0000
     atom:   42    charge:    3.1151    magn:   -0.0002    constr:    0.0000
     atom:   43    charge:    2.0803    magn:    0.0030    constr:    0.0000
     atom:   44    charge:    2.0851    magn:    0.0008    constr:    0.0000
     atom:   45    charge:    2.0859    magn:    0.0004    constr:    0.0000
     atom:   46    charge:    3.1147    magn:   -0.0007    constr:    0.0000
     atom:   47    charge:    2.0806    magn:    0.0046    constr:    0.0000
     atom:   48    charge:    2.0837    magn:    0.0136    constr:    0.0000
     atom:   49    charge:    2.0518    magn:    0.2396    constr:    0.0000
     atom:   50    charge:    0.6699    magn:    0.0547    constr:    0.0000
     atom:   51    charge:    0.4220    magn:    0.0010    constr:    0.0000
     atom:   52    charge:    0.4112    magn:    0.0008    constr:    0.0000
     atom:   53    charge:    0.3674    magn:    0.0234    constr:    0.0000
     atom:   54    charge:    0.4233    magn:    0.0006    constr:    0.0000

     total cpu time spent up to now is     1335.6 secs

     total energy              =   -3021.14910427 Ry
     Harris-Foulkes estimate   =   -3021.15020723 Ry
     estimated scf accuracy    <       0.02100157 Ry

     total magnetization       =     1.05 Bohr mag/cell
     absolute magnetization    =     1.22 Bohr mag/cell

     iteration #  3     ecut=    40.42 Ry     beta=0.10
     Davidson diagonalization with overlap
     ethr =  1.25E-06,  avg # of iterations =  4.2

     negative rho (up, down):  1.188E-02 1.194E-02
 
     Magnetic moment per site:
     atom:    1    charge:    3.1244    magn:   -0.0003    constr:    0.0000
     atom:    2    charge:    2.0896    magn:    0.0003    constr:    0.0000
     atom:    3    charge:    3.1198    magn:   -0.0000    constr:    0.0000
     atom:    4    charge:    2.0867    magn:   -0.0001    constr:    0.0000
     atom:    5    charge:    3.1161    magn:   -0.0002    constr:    0.0000
     atom:    6    charge:    2.0795    magn:    0.0021    constr:    0.0000
     atom:    7    charge:    3.1167    magn:   -0.0052    constr:    0.0000
     atom:    8    charge:    2.0794    magn:    0.0248    constr:    0.0000
     atom:    9    charge:    3.1244    magn:   -0.0003    constr:    0.0000
     atom:   10    charge:    2.0898    magn:    0.0003    constr:    0.0000
     atom:   11    charge:    3.1198    magn:   -0.0000    constr:    0.0000
     atom:   12    charge:    2.0870    magn:   -0.0000    constr:    0.0000
     atom:   13    charge:    3.1150    magn:   -0.0002    constr:    0.0000
     atom:   14    charge:    2.0939    magn:    0.0022    constr:    0.0000
     atom:   15    charge:    3.1184    magn:   -0.0008    constr:    0.0000
     atom:   16    charge:    2.0829    magn:    0.0046    constr:    0.0000
     atom:   17    charge:    2.0625    magn:    0.0017    constr:    0.0000
     atom:   18    charge:    3.1240    magn:   -0.0001    constr:    0.0000
     atom:   19    charge:    2.0875    magn:    0.0001    constr:    0.0000
     atom:   20    charge:    2.0847    magn:    0.0002    constr:    0.0000
     atom:   21    charge:    2.0847    magn:    0.0002    constr:    0.0000
     atom:   22    charge:    3.1199    magn:    0.0000    constr:    0.0000
     atom:   23    charge:    2.0908    magn:    0.0002    constr:    0.0000
     atom:   24    charge:    2.0753    magn:   -0.0002    constr:    0.0000
     atom:   25    charge:    2.0867    magn:    0.0000    constr:    0.0000
     atom:   26    charge:    3.1126    magn:   -0.0002    constr:    0.0000
     atom:   27    charge:    2.0803    magn:    0.0025    constr:    0.0000
     atom:   28    charge:    2.0839    magn:    0.0006    constr:    0.0000
     atom:   29    charge:    2.0860    magn:    0.0008    constr:    0.0000
     atom:   30    charge:    3.1171    magn:   -0.0008    constr:    0.0000
     atom:   31    charge:    2.0825    magn:    0.0006    constr:    0.0000
     atom:   32    charge:    2.0830    magn:    0.0065    constr:    0.0000
     atom:   33    charge:    2.0625    magn:    0.0017    constr:    0.0000
     atom:   34    charge:    3.1240    magn:   -0.0001    constr:    0.0000
     atom:   35    charge:    2.0875    magn:    0.0001    constr:    0.0000
     atom:   36    charge:    2.0847    magn:    0.0002    constr:    0.0000
     atom:   37    charge:    2.0847    magn:    0.0002    constr:    0.0000
     atom:   38    charge:    3.1200    magn:    0.0000    constr:    0.0000
     atom:   39    charge:    2.0839    magn:    0.0002    constr:    0.0000
     atom:   40    charge:    2.0756    magn:   -0.0002    constr:    0.0000
     atom:   41    charge:    2.0870    magn:   -0.0000    constr:    0.0000
     atom:   42    charge:    3.1151    magn:   -0.0002    constr:    0.0000
     atom:   43    charge:    2.0803    magn:    0.0030    constr:    0.0000
     atom:   44    charge:    2.0851    magn:    0.0008    constr:    0.0000
     atom:   45    charge:    2.0858    magn:    0.0004    constr:    0.0000
     atom:   46    charge:    3.1147    magn:   -0.0007    constr:    0.0000
     atom:   47    charge:    2.0807    magn:    0.0046    constr:    0.0000
     atom:   48    charge:    2.0837    magn:    0.0136    constr:    0.0000
     atom:   49    charge:    2.0519    magn:    0.2395    constr:    0.0000
     atom:   50    charge:    0.6683    magn:    0.0547    constr:    0.0000
     atom:   51    charge:    0.4220    magn:    0.0010    constr:    0.0000
     atom:   52    charge:    0.4113    magn:    0.0008    constr:    0.0000
     atom:   53    charge:    0.3673    magn:    0.0235    constr:    0.0000
     atom:   54    charge:    0.4236    magn:    0.0007    constr:    0.0000

     total cpu time spent up to now is     1588.6 secs

     total energy              =   -3021.14942390 Ry
     Harris-Foulkes estimate   =   -3021.14967680 Ry
     estimated scf accuracy    <       0.00145847 Ry

     total magnetization       =     1.06 Bohr mag/cell
     absolute magnetization    =     1.23 Bohr mag/cell

     iteration #  4     ecut=    40.42 Ry     beta=0.10
     Davidson diagonalization with overlap
     ethr =  3.66E-07,  avg # of iterations =  3.0

     negative rho (up, down):  1.187E-02 1.194E-02
 
     Magnetic moment per site:
     atom:    1    charge:    3.1244    magn:   -0.0003    constr:    0.0000
     atom:    2    charge:    2.0896    magn:    0.0003    constr:    0.0000
     atom:    3    charge:    3.1198    magn:   -0.0000    constr:    0.0000
     atom:    4    charge:    2.0867    magn:   -0.0001    constr:    0.0000
     atom:    5    charge:    3.1161    magn:   -0.0002    constr:    0.0000
     atom:    6    charge:    2.0795    magn:    0.0021    constr:    0.0000
     atom:    7    charge:    3.1167    magn:   -0.0052    constr:    0.0000
     atom:    8    charge:    2.0793    magn:    0.0248    constr:    0.0000
     atom:    9    charge:    3.1244    magn:   -0.0003    constr:    0.0000
     atom:   10    charge:    2.0898    magn:    0.0003    constr:    0.0000
     atom:   11    charge:    3.1198    magn:   -0.0000    constr:    0.0000
     atom:   12    charge:    2.0870    magn:   -0.0000    constr:    0.0000
     atom:   13    charge:    3.1150    magn:   -0.0002    constr:    0.0000
     atom:   14    charge:    2.0939    magn:    0.0022    constr:    0.0000
     atom:   15    charge:    3.1184    magn:   -0.0008    constr:    0.0000
     atom:   16    charge:    2.0829    magn:    0.0047    constr:    0.0000
     atom:   17    charge:    2.0624    magn:    0.0016    constr:    0.0000
     atom:   18    charge:    3.1240    magn:   -0.0001    constr:    0.0000
     atom:   19    charge:    2.0875    magn:    0.0001    constr:    0.0000
     atom:   20    charge:    2.0847    magn:    0.0001    constr:    0.0000
     atom:   21    charge:    2.0847    magn:    0.0001    constr:    0.0000
     atom:   22    charge:    3.1199    magn:    0.0000    constr:    0.0000
     atom:   23    charge:    2.0908    magn:    0.0002    constr:    0.0000
     atom:   24    charge:    2.0754    magn:   -0.0001    constr:    0.0000
     atom:   25    charge:    2.0867    magn:    0.0000    constr:    0.0000
     atom:   26    charge:    3.1127    magn:   -0.0002    constr:    0.0000
     atom:   27    charge:    2.0803    magn:    0.0025    constr:    0.0000
     atom:   28    charge:    2.0839    magn:    0.0006    constr:    0.0000
     atom:   29    charge:    2.0860    magn:    0.0008    constr:    0.0000
     atom:   30    charge:    3.1171    magn:   -0.0008    constr:    0.0000
     atom:   31    charge:    2.0826    magn:    0.0006    constr:    0.0000
     atom:   32    charge:    2.0830    magn:    0.0065    constr:    0.0000
     atom:   33    charge:    2.0624    magn:    0.0016    constr:    0.0000
     atom:   34    charge:    3.1239    magn:   -0.0001    constr:    0.0000
     atom:   35    charge:    2.0875    magn:    0.0001    constr:    0.0000
     atom:   36    charge:    2.0847    magn:    0.0001    constr:    0.0000
     atom:   37    charge:    2.0847    magn:    0.0001    constr:    0.0000
     atom:   38    charge:    3.1200    magn:    0.0000    constr:    0.0000
     atom:   39    charge:    2.0839    magn:    0.0002    constr:    0.0000
     atom:   40    charge:    2.0756    magn:   -0.0002    constr:    0.0000
     atom:   41    charge:    2.0870    magn:   -0.0000    constr:    0.0000
     atom:   42    charge:    3.1151    magn:   -0.0002    constr:    0.0000
     atom:   43    charge:    2.0803    magn:    0.0030    constr:    0.0000
     atom:   44    charge:    2.0851    magn:    0.0009    constr:    0.0000
     atom:   45    charge:    2.0858    magn:    0.0004    constr:    0.0000
     atom:   46    charge:    3.1147    magn:   -0.0007    constr:    0.0000
     atom:   47    charge:    2.0807    magn:    0.0046    constr:    0.0000
     atom:   48    charge:    2.0837    magn:    0.0136    constr:    0.0000
     atom:   49    charge:    2.0518    magn:    0.2395    constr:    0.0000
     atom:   50    charge:    0.6671    magn:    0.0547    constr:    0.0000
     atom:   51    charge:    0.4219    magn:    0.0010    constr:    0.0000
     atom:   52    charge:    0.4115    magn:    0.0007    constr:    0.0000
     atom:   53    charge:    0.3673    magn:    0.0235    constr:    0.0000
     atom:   54    charge:    0.4238    magn:    0.0007    constr:    0.0000

     total cpu time spent up to now is     1826.9 secs

     total energy              =   -3021.14939107 Ry
     Harris-Foulkes estimate   =   -3021.14949648 Ry
     estimated scf accuracy    <       0.00063799 Ry

     total magnetization       =     1.06 Bohr mag/cell
     absolute magnetization    =     1.23 Bohr mag/cell

     iteration #  5     ecut=    40.42 Ry     beta=0.10
     Davidson diagonalization with overlap
     ethr =  1.60E-07,  avg # of iterations =  3.0

     negative rho (up, down):  1.187E-02 1.193E-02
 
     Magnetic moment per site:
     atom:    1    charge:    3.1244    magn:   -0.0003    constr:    0.0000
     atom:    2    charge:    2.0897    magn:    0.0002    constr:    0.0000
     atom:    3    charge:    3.1198    magn:   -0.0000    constr:    0.0000
     atom:    4    charge:    2.0867    magn:   -0.0001    constr:    0.0000
     atom:    5    charge:    3.1161    magn:   -0.0002    constr:    0.0000
     atom:    6    charge:    2.0795    magn:    0.0021    constr:    0.0000
     atom:    7    charge:    3.1167    magn:   -0.0053    constr:    0.0000
     atom:    8    charge:    2.0791    magn:    0.0249    constr:    0.0000
     atom:    9    charge:    3.1244    magn:   -0.0003    constr:    0.0000
     atom:   10    charge:    2.0898    magn:    0.0003    constr:    0.0000
     atom:   11    charge:    3.1198    magn:   -0.0000    constr:    0.0000
     atom:   12    charge:    2.0871    magn:   -0.0000    constr:    0.0000
     atom:   13    charge:    3.1150    magn:   -0.0002    constr:    0.0000
     atom:   14    charge:    2.0939    magn:    0.0022    constr:    0.0000
     atom:   15    charge:    3.1184    magn:   -0.0008    constr:    0.0000
     atom:   16    charge:    2.0828    magn:    0.0047    constr:    0.0000
     atom:   17    charge:    2.0623    magn:    0.0014    constr:    0.0000
     atom:   18    charge:    3.1239    magn:   -0.0001    constr:    0.0000
     atom:   19    charge:    2.0876    magn:    0.0001    constr:    0.0000
     atom:   20    charge:    2.0847    magn:    0.0001    constr:    0.0000
     atom:   21    charge:    2.0847    magn:    0.0001    constr:    0.0000
     atom:   22    charge:    3.1199    magn:    0.0000    constr:    0.0000
     atom:   23    charge:    2.0908    magn:    0.0002    constr:    0.0000
     atom:   24    charge:    2.0754    magn:   -0.0001    constr:    0.0000
     atom:   25    charge:    2.0867    magn:    0.0000    constr:    0.0000
     atom:   26    charge:    3.1127    magn:   -0.0002    constr:    0.0000
     atom:   27    charge:    2.0802    magn:    0.0026    constr:    0.0000
     atom:   28    charge:    2.0839    magn:    0.0007    constr:    0.0000
     atom:   29    charge:    2.0860    magn:    0.0008    constr:    0.0000
     atom:   30    charge:    3.1171    magn:   -0.0008    constr:    0.0000
     atom:   31    charge:    2.0825    magn:    0.0006    constr:    0.0000
     atom:   32    charge:    2.0829    magn:    0.0065    constr:    0.0000
     atom:   33    charge:    2.0623    magn:    0.0014    constr:    0.0000
     atom:   34    charge:    3.1239    magn:   -0.0001    constr:    0.0000
     atom:   35    charge:    2.0876    magn:    0.0001    constr:    0.0000
     atom:   36    charge:    2.0847    magn:    0.0001    constr:    0.0000
     atom:   37    charge:    2.0847    magn:    0.0001    constr:    0.0000
     atom:   38    charge:    3.1200    magn:    0.0000    constr:    0.0000
     atom:   39    charge:    2.0839    magn:    0.0002    constr:    0.0000
     atom:   40    charge:    2.0757    magn:   -0.0002    constr:    0.0000
     atom:   41    charge:    2.0870    magn:   -0.0000    constr:    0.0000
     atom:   42    charge:    3.1151    magn:   -0.0002    constr:    0.0000
     atom:   43    charge:    2.0802    magn:    0.0031    constr:    0.0000
     atom:   44    charge:    2.0851    magn:    0.0009    constr:    0.0000
     atom:   45    charge:    2.0858    magn:    0.0004    constr:    0.0000
     atom:   46    charge:    3.1148    magn:   -0.0007    constr:    0.0000
     atom:   47    charge:    2.0807    magn:    0.0046    constr:    0.0000
     atom:   48    charge:    2.0837    magn:    0.0136    constr:    0.0000
     atom:   49    charge:    2.0515    magn:    0.2398    constr:    0.0000
     atom:   50    charge:    0.6674    magn:    0.0546    constr:    0.0000
     atom:   51    charge:    0.4219    magn:    0.0010    constr:    0.0000
     atom:   52    charge:    0.4114    magn:    0.0007    constr:    0.0000
     atom:   53    charge:    0.3675    magn:    0.0233    constr:    0.0000
     atom:   54    charge:    0.4237    magn:    0.0006    constr:    0.0000

     total cpu time spent up to now is     2064.6 secs

     total energy              =   -3021.14939385 Ry
     Harris-Foulkes estimate   =   -3021.14942446 Ry
     estimated scf accuracy    <       0.00023337 Ry

     total magnetization       =     1.06 Bohr mag/cell
     absolute magnetization    =     1.23 Bohr mag/cell

     iteration #  6     ecut=    40.42 Ry     beta=0.10
     Davidson diagonalization with overlap
     ethr =  5.86E-08,  avg # of iterations =  3.3

     negative rho (up, down):  1.187E-02 1.193E-02
 
     Magnetic moment per site:
     atom:    1    charge:    3.1244    magn:   -0.0002    constr:    0.0000
     atom:    2    charge:    2.0897    magn:    0.0002    constr:    0.0000
     atom:    3    charge:    3.1198    magn:   -0.0000    constr:    0.0000
     atom:    4    charge:    2.0867    magn:   -0.0001    constr:    0.0000
     atom:    5    charge:    3.1161    magn:   -0.0002    constr:    0.0000
     atom:    6    charge:    2.0795    magn:    0.0021    constr:    0.0000
     atom:    7    charge:    3.1167    magn:   -0.0053    constr:    0.0000
     atom:    8    charge:    2.0792    magn:    0.0250    constr:    0.0000
     atom:    9    charge:    3.1244    magn:   -0.0002    constr:    0.0000
     atom:   10    charge:    2.0898    magn:    0.0002    constr:    0.0000
     atom:   11    charge:    3.1198    magn:   -0.0000    constr:    0.0000
     atom:   12    charge:    2.0870    magn:   -0.0000    constr:    0.0000
     atom:   13    charge:    3.1150    magn:   -0.0002    constr:    0.0000
     atom:   14    charge:    2.0939    magn:    0.0023    constr:    0.0000
     atom:   15    charge:    3.1184    magn:   -0.0008    constr:    0.0000
     atom:   16    charge:    2.0828    magn:    0.0047    constr:    0.0000
     atom:   17    charge:    2.0624    magn:    0.0013    constr:    0.0000
     atom:   18    charge:    3.1239    magn:   -0.0001    constr:    0.0000
     atom:   19    charge:    2.0875    magn:    0.0000    constr:    0.0000
     atom:   20    charge:    2.0847    magn:    0.0001    constr:    0.0000
     atom:   21    charge:    2.0847    magn:    0.0001    constr:    0.0000
     atom:   22    charge:    3.1199    magn:    0.0000    constr:    0.0000
     atom:   23    charge:    2.0908    magn:    0.0002    constr:    0.0000
     atom:   24    charge:    2.0754    magn:   -0.0001    constr:    0.0000
     atom:   25    charge:    2.0867    magn:    0.0000    constr:    0.0000
     atom:   26    charge:    3.1127    magn:   -0.0002    constr:    0.0000
     atom:   27    charge:    2.0803    magn:    0.0026    constr:    0.0000
     atom:   28    charge:    2.0839    magn:    0.0007    constr:    0.0000
     atom:   29    charge:    2.0860    magn:    0.0008    constr:    0.0000
     atom:   30    charge:    3.1171    magn:   -0.0008    constr:    0.0000
     atom:   31    charge:    2.0825    magn:    0.0006    constr:    0.0000
     atom:   32    charge:    2.0829    magn:    0.0065    constr:    0.0000
     atom:   33    charge:    2.0624    magn:    0.0013    constr:    0.0000
     atom:   34    charge:    3.1239    magn:   -0.0001    constr:    0.0000
     atom:   35    charge:    2.0876    magn:    0.0000    constr:    0.0000
     atom:   36    charge:    2.0847    magn:    0.0001    constr:    0.0000
     atom:   37    charge:    2.0847    magn:    0.0001    constr:    0.0000
     atom:   38    charge:    3.1200    magn:    0.0000    constr:    0.0000
     atom:   39    charge:    2.0839    magn:    0.0002    constr:    0.0000
     atom:   40    charge:    2.0756    magn:   -0.0002    constr:    0.0000
     atom:   41    charge:    2.0870    magn:   -0.0000    constr:    0.0000
     atom:   42    charge:    3.1151    magn:   -0.0002    constr:    0.0000
     atom:   43    charge:    2.0803    magn:    0.0031    constr:    0.0000
     atom:   44    charge:    2.0851    magn:    0.0009    constr:    0.0000
     atom:   45    charge:    2.0858    magn:    0.0005    constr:    0.0000
     atom:   46    charge:    3.1148    magn:   -0.0007    constr:    0.0000
     atom:   47    charge:    2.0806    magn:    0.0047    constr:    0.0000
     atom:   48    charge:    2.0837    magn:    0.0137    constr:    0.0000
     atom:   49    charge:    2.0515    magn:    0.2399    constr:    0.0000
     atom:   50    charge:    0.6677    magn:    0.0545    constr:    0.0000
     atom:   51    charge:    0.4218    magn:    0.0011    constr:    0.0000
     atom:   52    charge:    0.4113    magn:    0.0007    constr:    0.0000
     atom:   53    charge:    0.3677    magn:    0.0231    constr:    0.0000
     atom:   54    charge:    0.4236    magn:    0.0006    constr:    0.0000

     total cpu time spent up to now is     2304.8 secs

     total energy              =   -3021.14939571 Ry
     Harris-Foulkes estimate   =   -3021.14940272 Ry
     estimated scf accuracy    <       0.00008689 Ry

     total magnetization       =     1.06 Bohr mag/cell
     absolute magnetization    =     1.23 Bohr mag/cell

     iteration #  7     ecut=    40.42 Ry     beta=0.10
     Davidson diagonalization with overlap
     ethr =  2.18E-08,  avg # of iterations =  3.8

     negative rho (up, down):  1.187E-02 1.193E-02
 
     Magnetic moment per site:
     atom:    1    charge:    3.1244    magn:   -0.0002    constr:    0.0000
     atom:    2    charge:    2.0897    magn:    0.0002    constr:    0.0000
     atom:    3    charge:    3.1198    magn:   -0.0000    constr:    0.0000
     atom:    4    charge:    2.0867    magn:   -0.0001    constr:    0.0000
     atom:    5    charge:    3.1161    magn:   -0.0003    constr:    0.0000
     atom:    6    charge:    2.0795    magn:    0.0021    constr:    0.0000
     atom:    7    charge:    3.1167    magn:   -0.0053    constr:    0.0000
     atom:    8    charge:    2.0793    magn:    0.0250    constr:    0.0000
     atom:    9    charge:    3.1244    magn:   -0.0002    constr:    0.0000
     atom:   10    charge:    2.0898    magn:    0.0002    constr:    0.0000
     atom:   11    charge:    3.1198    magn:   -0.0000    constr:    0.0000
     atom:   12    charge:    2.0870    magn:   -0.0000    constr:    0.0000
     atom:   13    charge:    3.1150    magn:   -0.0002    constr:    0.0000
     atom:   14    charge:    2.0939    magn:    0.0023    constr:    0.0000
     atom:   15    charge:    3.1184    magn:   -0.0008    constr:    0.0000
     atom:   16    charge:    2.0828    magn:    0.0047    constr:    0.0000
     atom:   17    charge:    2.0624    magn:    0.0012    constr:    0.0000
     atom:   18    charge:    3.1239    magn:   -0.0000    constr:    0.0000
     atom:   19    charge:    2.0875    magn:    0.0000    constr:    0.0000
     atom:   20    charge:    2.0847    magn:    0.0001    constr:    0.0000
     atom:   21    charge:    2.0847    magn:    0.0001    constr:    0.0000
     atom:   22    charge:    3.1199    magn:    0.0000    constr:    0.0000
     atom:   23    charge:    2.0908    magn:    0.0002    constr:    0.0000
     atom:   24    charge:    2.0754    magn:   -0.0001    constr:    0.0000
     atom:   25    charge:    2.0867    magn:    0.0000    constr:    0.0000
     atom:   26    charge:    3.1127    magn:   -0.0002    constr:    0.0000
     atom:   27    charge:    2.0803    magn:    0.0026    constr:    0.0000
     atom:   28    charge:    2.0839    magn:    0.0007    constr:    0.0000
     atom:   29    charge:    2.0860    magn:    0.0009    constr:    0.0000
     atom:   30    charge:    3.1171    magn:   -0.0008    constr:    0.0000
     atom:   31    charge:    2.0824    magn:    0.0006    constr:    0.0000
     atom:   32    charge:    2.0829    magn:    0.0065    constr:    0.0000
     atom:   33    charge:    2.0624    magn:    0.0012    constr:    0.0000
     atom:   34    charge:    3.1239    magn:   -0.0000    constr:    0.0000
     atom:   35    charge:    2.0876    magn:    0.0000    constr:    0.0000
     atom:   36    charge:    2.0847    magn:    0.0001    constr:    0.0000
     atom:   37    charge:    2.0847    magn:    0.0001    constr:    0.0000
     atom:   38    charge:    3.1200    magn:    0.0000    constr:    0.0000
     atom:   39    charge:    2.0839    magn:    0.0002    constr:    0.0000
     atom:   40    charge:    2.0756    magn:   -0.0002    constr:    0.0000
     atom:   41    charge:    2.0870    magn:   -0.0000    constr:    0.0000
     atom:   42    charge:    3.1151    magn:   -0.0002    constr:    0.0000
     atom:   43    charge:    2.0803    magn:    0.0031    constr:    0.0000
     atom:   44    charge:    2.0851    magn:    0.0009    constr:    0.0000
     atom:   45    charge:    2.0858    magn:    0.0005    constr:    0.0000
     atom:   46    charge:    3.1148    magn:   -0.0007    constr:    0.0000
     atom:   47    charge:    2.0806    magn:    0.0047    constr:    0.0000
     atom:   48    charge:    2.0837    magn:    0.0137    constr:    0.0000
     atom:   49    charge:    2.0516    magn:    0.2400    constr:    0.0000
     atom:   50    charge:    0.6680    magn:    0.0545    constr:    0.0000
     atom:   51    charge:    0.4218    magn:    0.0011    constr:    0.0000
     atom:   52    charge:    0.4112    magn:    0.0007    constr:    0.0000
     atom:   53    charge:    0.3676    magn:    0.0230    constr:    0.0000
     atom:   54    charge:    0.4235    magn:    0.0006    constr:    0.0000

     total cpu time spent up to now is     2556.4 secs

     total energy              =   -3021.14940005 Ry
     Harris-Foulkes estimate   =   -3021.14940217 Ry
     estimated scf accuracy    <       0.00002531 Ry

     total magnetization       =     1.06 Bohr mag/cell
     absolute magnetization    =     1.23 Bohr mag/cell

     iteration #  8     ecut=    40.42 Ry     beta=0.10
     Davidson diagonalization with overlap
     ethr =  6.36E-09,  avg # of iterations =  2.0

     negative rho (up, down):  1.187E-02 1.194E-02
 
     Magnetic moment per site:
     atom:    1    charge:    3.1244    magn:   -0.0002    constr:    0.0000
     atom:    2    charge:    2.0897    magn:    0.0002    constr:    0.0000
     atom:    3    charge:    3.1198    magn:   -0.0000    constr:    0.0000
     atom:    4    charge:    2.0867    magn:   -0.0001    constr:    0.0000
     atom:    5    charge:    3.1161    magn:   -0.0003    constr:    0.0000
     atom:    6    charge:    2.0795    magn:    0.0021    constr:    0.0000
     atom:    7    charge:    3.1167    magn:   -0.0053    constr:    0.0000
     atom:    8    charge:    2.0793    magn:    0.0250    constr:    0.0000
     atom:    9    charge:    3.1244    magn:   -0.0002    constr:    0.0000
     atom:   10    charge:    2.0898    magn:    0.0002    constr:    0.0000
     atom:   11    charge:    3.1198    magn:   -0.0000    constr:    0.0000
     atom:   12    charge:    2.0870    magn:   -0.0000    constr:    0.0000
     atom:   13    charge:    3.1150    magn:   -0.0002    constr:    0.0000
     atom:   14    charge:    2.0939    magn:    0.0023    constr:    0.0000
     atom:   15    charge:    3.1184    magn:   -0.0008    constr:    0.0000
     atom:   16    charge:    2.0828    magn:    0.0047    constr:    0.0000
     atom:   17    charge:    2.0624    magn:    0.0011    constr:    0.0000
     atom:   18    charge:    3.1240    magn:   -0.0000    constr:    0.0000
     atom:   19    charge:    2.0875    magn:    0.0000    constr:    0.0000
     atom:   20    charge:    2.0847    magn:    0.0001    constr:    0.0000
     atom:   21    charge:    2.0847    magn:    0.0001    constr:    0.0000
     atom:   22    charge:    3.1199    magn:    0.0000    constr:    0.0000
     atom:   23    charge:    2.0908    magn:    0.0003    constr:    0.0000
     atom:   24    charge:    2.0754    magn:   -0.0001    constr:    0.0000
     atom:   25    charge:    2.0867    magn:    0.0000    constr:    0.0000
     atom:   26    charge:    3.1127    magn:   -0.0003    constr:    0.0000
     atom:   27    charge:    2.0803    magn:    0.0026    constr:    0.0000
     atom:   28    charge:    2.0839    magn:    0.0007    constr:    0.0000
     atom:   29    charge:    2.0860    magn:    0.0009    constr:    0.0000
     atom:   30    charge:    3.1171    magn:   -0.0008    constr:    0.0000
     atom:   31    charge:    2.0825    magn:    0.0006    constr:    0.0000
     atom:   32    charge:    2.0829    magn:    0.0065    constr:    0.0000
     atom:   33    charge:    2.0624    magn:    0.0011    constr:    0.0000
     atom:   34    charge:    3.1239    magn:   -0.0000    constr:    0.0000
     atom:   35    charge:    2.0875    magn:    0.0000    constr:    0.0000
     atom:   36    charge:    2.0847    magn:    0.0001    constr:    0.0000
     atom:   37    charge:    2.0847    magn:    0.0001    constr:    0.0000
     atom:   38    charge:    3.1200    magn:    0.0000    constr:    0.0000
     atom:   39    charge:    2.0839    magn:    0.0002    constr:    0.0000
     atom:   40    charge:    2.0756    magn:   -0.0001    constr:    0.0000
     atom:   41    charge:    2.0870    magn:   -0.0000    constr:    0.0000
     atom:   42    charge:    3.1151    magn:   -0.0002    constr:    0.0000
     atom:   43    charge:    2.0803    magn:    0.0032    constr:    0.0000
     atom:   44    charge:    2.0851    magn:    0.0010    constr:    0.0000
     atom:   45    charge:    2.0858    magn:    0.0005    constr:    0.0000
     atom:   46    charge:    3.1147    magn:   -0.0007    constr:    0.0000
     atom:   47    charge:    2.0806    magn:    0.0047    constr:    0.0000
     atom:   48    charge:    2.0837    magn:    0.0137    constr:    0.0000
     atom:   49    charge:    2.0517    magn:    0.2400    constr:    0.0000
     atom:   50    charge:    0.6683    magn:    0.0545    constr:    0.0000
     atom:   51    charge:    0.4218    magn:    0.0011    constr:    0.0000
     atom:   52    charge:    0.4111    magn:    0.0007    constr:    0.0000
     atom:   53    charge:    0.3676    magn:    0.0230    constr:    0.0000
     atom:   54    charge:    0.4233    magn:    0.0006    constr:    0.0000

     total cpu time spent up to now is     2774.1 secs

     total energy              =   -3021.14940021 Ry
     Harris-Foulkes estimate   =   -3021.14940098 Ry
     estimated scf accuracy    <       0.00000665 Ry

     total magnetization       =     1.06 Bohr mag/cell
     absolute magnetization    =     1.23 Bohr mag/cell

     iteration #  9     ecut=    40.42 Ry     beta=0.10
     Davidson diagonalization with overlap
     ethr =  1.67E-09,  avg # of iterations =  3.8

     negative rho (up, down):  1.187E-02 1.194E-02
 
     Magnetic moment per site:
     atom:    1    charge:    3.1244    magn:   -0.0002    constr:    0.0000
     atom:    2    charge:    2.0897    magn:    0.0002    constr:    0.0000
     atom:    3    charge:    3.1198    magn:   -0.0000    constr:    0.0000
     atom:    4    charge:    2.0867    magn:   -0.0001    constr:    0.0000
     atom:    5    charge:    3.1161    magn:   -0.0003    constr:    0.0000
     atom:    6    charge:    2.0795    magn:    0.0022    constr:    0.0000
     atom:    7    charge:    3.1167    magn:   -0.0053    constr:    0.0000
     atom:    8    charge:    2.0793    magn:    0.0250    constr:    0.0000
     atom:    9    charge:    3.1244    magn:   -0.0002    constr:    0.0000
     atom:   10    charge:    2.0898    magn:    0.0002    constr:    0.0000
     atom:   11    charge:    3.1198    magn:   -0.0000    constr:    0.0000
     atom:   12    charge:    2.0870    magn:   -0.0000    constr:    0.0000
     atom:   13    charge:    3.1150    magn:   -0.0002    constr:    0.0000
     atom:   14    charge:    2.0939    magn:    0.0023    constr:    0.0000
     atom:   15    charge:    3.1184    magn:   -0.0008    constr:    0.0000
     atom:   16    charge:    2.0828    magn:    0.0047    constr:    0.0000
     atom:   17    charge:    2.0624    magn:    0.0010    constr:    0.0000
     atom:   18    charge:    3.1240    magn:   -0.0000    constr:    0.0000
     atom:   19    charge:    2.0875    magn:    0.0000    constr:    0.0000
     atom:   20    charge:    2.0847    magn:    0.0001    constr:    0.0000
     atom:   21    charge:    2.0847    magn:    0.0001    constr:    0.0000
     atom:   22    charge:    3.1199    magn:    0.0000    constr:    0.0000
     atom:   23    charge:    2.0908    magn:    0.0003    constr:    0.0000
     atom:   24    charge:    2.0754    magn:   -0.0000    constr:    0.0000
     atom:   25    charge:    2.0867    magn:    0.0000    constr:    0.0000
     atom:   26    charge:    3.1127    magn:   -0.0003    constr:    0.0000
     atom:   27    charge:    2.0802    magn:    0.0027    constr:    0.0000
     atom:   28    charge:    2.0839    magn:    0.0007    constr:    0.0000
     atom:   29    charge:    2.0860    magn:    0.0009    constr:    0.0000
     atom:   30    charge:    3.1171    magn:   -0.0008    constr:    0.0000
     atom:   31    charge:    2.0825    magn:    0.0006    constr:    0.0000
     atom:   32    charge:    2.0829    magn:    0.0065    constr:    0.0000
     atom:   33    charge:    2.0624    magn:    0.0010    constr:    0.0000
     atom:   34    charge:    3.1239    magn:   -0.0000    constr:    0.0000
     atom:   35    charge:    2.0875    magn:    0.0000    constr:    0.0000
     atom:   36    charge:    2.0847    magn:    0.0001    constr:    0.0000
     atom:   37    charge:    2.0847    magn:    0.0001    constr:    0.0000
     atom:   38    charge:    3.1200    magn:    0.0000    constr:    0.0000
     atom:   39    charge:    2.0839    magn:    0.0002    constr:    0.0000
     atom:   40    charge:    2.0756    magn:   -0.0001    constr:    0.0000
     atom:   41    charge:    2.0870    magn:   -0.0000    constr:    0.0000
     atom:   42    charge:    3.1151    magn:   -0.0002    constr:    0.0000
     atom:   43    charge:    2.0803    magn:    0.0032    constr:    0.0000
     atom:   44    charge:    2.0851    magn:    0.0010    constr:    0.0000
     atom:   45    charge:    2.0858    magn:    0.0005    constr:    0.0000
     atom:   46    charge:    3.1148    magn:   -0.0007    constr:    0.0000
     atom:   47    charge:    2.0806    magn:    0.0047    constr:    0.0000
     atom:   48    charge:    2.0837    magn:    0.0137    constr:    0.0000
     atom:   49    charge:    2.0517    magn:    0.2400    constr:    0.0000
     atom:   50    charge:    0.6683    magn:    0.0545    constr:    0.0000
     atom:   51    charge:    0.4218    magn:    0.0011    constr:    0.0000
     atom:   52    charge:    0.4111    magn:    0.0007    constr:    0.0000
     atom:   53    charge:    0.3676    magn:    0.0231    constr:    0.0000
     atom:   54    charge:    0.4233    magn:    0.0006    constr:    0.0000

     total cpu time spent up to now is     3034.1 secs

     total energy              =   -3021.14940086 Ry
     Harris-Foulkes estimate   =   -3021.14940103 Ry
     estimated scf accuracy    <       0.00000223 Ry

     total magnetization       =     1.06 Bohr mag/cell
     absolute magnetization    =     1.23 Bohr mag/cell

     iteration # 10     ecut=    40.42 Ry     beta=0.10
     Davidson diagonalization with overlap
     ethr =  5.59E-10,  avg # of iterations =  3.0

     negative rho (up, down):  1.187E-02 1.194E-02
 
     Magnetic moment per site:
     atom:    1    charge:    3.1244    magn:   -0.0002    constr:    0.0000
     atom:    2    charge:    2.0897    magn:    0.0001    constr:    0.0000
     atom:    3    charge:    3.1198    magn:   -0.0000    constr:    0.0000
     atom:    4    charge:    2.0867    magn:   -0.0001    constr:    0.0000
     atom:    5    charge:    3.1161    magn:   -0.0003    constr:    0.0000
     atom:    6    charge:    2.0795    magn:    0.0022    constr:    0.0000
     atom:    7    charge:    3.1167    magn:   -0.0053    constr:    0.0000
     atom:    8    charge:    2.0793    magn:    0.0250    constr:    0.0000
     atom:    9    charge:    3.1244    magn:   -0.0002    constr:    0.0000
     atom:   10    charge:    2.0898    magn:    0.0001    constr:    0.0000
     atom:   11    charge:    3.1198    magn:   -0.0000    constr:    0.0000
     atom:   12    charge:    2.0870    magn:   -0.0000    constr:    0.0000
     atom:   13    charge:    3.1150    magn:   -0.0002    constr:    0.0000
     atom:   14    charge:    2.0939    magn:    0.0023    constr:    0.0000
     atom:   15    charge:    3.1184    magn:   -0.0008    constr:    0.0000
     atom:   16    charge:    2.0828    magn:    0.0047    constr:    0.0000
     atom:   17    charge:    2.0625    magn:    0.0009    constr:    0.0000
     atom:   18    charge:    3.1240    magn:   -0.0000    constr:    0.0000
     atom:   19    charge:    2.0875    magn:    0.0000    constr:    0.0000
     atom:   20    charge:    2.0847    magn:    0.0001    constr:    0.0000
     atom:   21    charge:    2.0847    magn:    0.0001    constr:    0.0000
     atom:   22    charge:    3.1199    magn:    0.0000    constr:    0.0000
     atom:   23    charge:    2.0908    magn:    0.0003    constr:    0.0000
     atom:   24    charge:    2.0754    magn:   -0.0000    constr:    0.0000
     atom:   25    charge:    2.0867    magn:    0.0000    constr:    0.0000
     atom:   26    charge:    3.1127    magn:   -0.0003    constr:    0.0000
     atom:   27    charge:    2.0802    magn:    0.0027    constr:    0.0000
     atom:   28    charge:    2.0839    magn:    0.0008    constr:    0.0000
     atom:   29    charge:    2.0860    magn:    0.0009    constr:    0.0000
     atom:   30    charge:    3.1171    magn:   -0.0008    constr:    0.0000
     atom:   31    charge:    2.0825    magn:    0.0006    constr:    0.0000
     atom:   32    charge:    2.0829    magn:    0.0065    constr:    0.0000
     atom:   33    charge:    2.0624    magn:    0.0009    constr:    0.0000
     atom:   34    charge:    3.1239    magn:   -0.0000    constr:    0.0000
     atom:   35    charge:    2.0875    magn:    0.0000    constr:    0.0000
     atom:   36    charge:    2.0847    magn:    0.0001    constr:    0.0000
     atom:   37    charge:    2.0847    magn:    0.0001    constr:    0.0000
     atom:   38    charge:    3.1200    magn:    0.0000    constr:    0.0000
     atom:   39    charge:    2.0839    magn:    0.0002    constr:    0.0000
     atom:   40    charge:    2.0756    magn:   -0.0001    constr:    0.0000
     atom:   41    charge:    2.0870    magn:   -0.0000    constr:    0.0000
     atom:   42    charge:    3.1151    magn:   -0.0003    constr:    0.0000
     atom:   43    charge:    2.0803    magn:    0.0032    constr:    0.0000
     atom:   44    charge:    2.0851    magn:    0.0010    constr:    0.0000
     atom:   45    charge:    2.0858    magn:    0.0005    constr:    0.0000
     atom:   46    charge:    3.1148    magn:   -0.0007    constr:    0.0000
     atom:   47    charge:    2.0807    magn:    0.0047    constr:    0.0000
     atom:   48    charge:    2.0837    magn:    0.0138    constr:    0.0000
     atom:   49    charge:    2.0518    magn:    0.2400    constr:    0.0000
     atom:   50    charge:    0.6685    magn:    0.0545    constr:    0.0000
     atom:   51    charge:    0.4218    magn:    0.0011    constr:    0.0000
     atom:   52    charge:    0.4110    magn:    0.0007    constr:    0.0000
     atom:   53    charge:    0.3675    magn:    0.0230    constr:    0.0000
     atom:   54    charge:    0.4233    magn:    0.0006    constr:    0.0000

     total cpu time spent up to now is     3272.9 secs

     total energy              =   -3021.14940100 Ry
     Harris-Foulkes estimate   =   -3021.14940112 Ry
     estimated scf accuracy    <       0.00000078 Ry

     total magnetization       =     1.06 Bohr mag/cell
     absolute magnetization    =     1.23 Bohr mag/cell

     iteration # 11     ecut=    40.42 Ry     beta=0.10
     Davidson diagonalization with overlap
     ethr =  1.96E-10,  avg # of iterations =  4.0

     negative rho (up, down):  1.187E-02 1.194E-02
 
     Magnetic moment per site:
     atom:    1    charge:    3.1244    magn:   -0.0001    constr:    0.0000
     atom:    2    charge:    2.0897    magn:    0.0001    constr:    0.0000
     atom:    3    charge:    3.1198    magn:   -0.0000    constr:    0.0000
     atom:    4    charge:    2.0867    magn:   -0.0001    constr:    0.0000
     atom:    5    charge:    3.1161    magn:   -0.0003    constr:    0.0000
     atom:    6    charge:    2.0795    magn:    0.0022    constr:    0.0000
     atom:    7    charge:    3.1167    magn:   -0.0053    constr:    0.0000
     atom:    8    charge:    2.0793    magn:    0.0250    constr:    0.0000
     atom:    9    charge:    3.1244    magn:   -0.0001    constr:    0.0000
     atom:   10    charge:    2.0898    magn:    0.0001    constr:    0.0000
     atom:   11    charge:    3.1198    magn:   -0.0000    constr:    0.0000
     atom:   12    charge:    2.0870    magn:   -0.0000    constr:    0.0000
     atom:   13    charge:    3.1150    magn:   -0.0002    constr:    0.0000
     atom:   14    charge:    2.0939    magn:    0.0023    constr:    0.0000
     atom:   15    charge:    3.1184    magn:   -0.0008    constr:    0.0000
     atom:   16    charge:    2.0828    magn:    0.0047    constr:    0.0000
     atom:   17    charge:    2.0624    magn:    0.0007    constr:    0.0000
     atom:   18    charge:    3.1239    magn:   -0.0000    constr:    0.0000
     atom:   19    charge:    2.0875    magn:    0.0000    constr:    0.0000
     atom:   20    charge:    2.0847    magn:    0.0000    constr:    0.0000
     atom:   21    charge:    2.0847    magn:    0.0000    constr:    0.0000
     atom:   22    charge:    3.1199    magn:    0.0000    constr:    0.0000
     atom:   23    charge:    2.0908    magn:    0.0003    constr:    0.0000
     atom:   24    charge:    2.0754    magn:    0.0000    constr:    0.0000
     atom:   25    charge:    2.0867    magn:    0.0000    constr:    0.0000
     atom:   26    charge:    3.1127    magn:   -0.0003    constr:    0.0000
     atom:   27    charge:    2.0803    magn:    0.0027    constr:    0.0000
     atom:   28    charge:    2.0839    magn:    0.0008    constr:    0.0000
     atom:   29    charge:    2.0860    magn:    0.0009    constr:    0.0000
     atom:   30    charge:    3.1171    magn:   -0.0008    constr:    0.0000
     atom:   31    charge:    2.0825    magn:    0.0006    constr:    0.0000
     atom:   32    charge:    2.0829    magn:    0.0065    constr:    0.0000
     atom:   33    charge:    2.0624    magn:    0.0007    constr:    0.0000
     atom:   34    charge:    3.1239    magn:   -0.0000    constr:    0.0000
     atom:   35    charge:    2.0876    magn:    0.0000    constr:    0.0000
     atom:   36    charge:    2.0847    magn:    0.0000    constr:    0.0000
     atom:   37    charge:    2.0847    magn:    0.0000    constr:    0.0000
     atom:   38    charge:    3.1200    magn:    0.0000    constr:    0.0000
     atom:   39    charge:    2.0839    magn:    0.0002    constr:    0.0000
     atom:   40    charge:    2.0756    magn:   -0.0001    constr:    0.0000
     atom:   41    charge:    2.0870    magn:   -0.0000    constr:    0.0000
     atom:   42    charge:    3.1151    magn:   -0.0003    constr:    0.0000
     atom:   43    charge:    2.0803    magn:    0.0033    constr:    0.0000
     atom:   44    charge:    2.0851    magn:    0.0010    constr:    0.0000
     atom:   45    charge:    2.0858    magn:    0.0006    constr:    0.0000
     atom:   46    charge:    3.1148    magn:   -0.0007    constr:    0.0000
     atom:   47    charge:    2.0806    magn:    0.0047    constr:    0.0000
     atom:   48    charge:    2.0837    magn:    0.0138    constr:    0.0000
     atom:   49    charge:    2.0517    magn:    0.2400    constr:    0.0000
     atom:   50    charge:    0.6683    magn:    0.0545    constr:    0.0000
     atom:   51    charge:    0.4218    magn:    0.0011    constr:    0.0000
     atom:   52    charge:    0.4110    magn:    0.0007    constr:    0.0000
     atom:   53    charge:    0.3675    magn:    0.0231    constr:    0.0000
     atom:   54    charge:    0.4234    magn:    0.0006    constr:    0.0000

     total cpu time spent up to now is     3542.7 secs

     End of self-consistent calculation

 ------ SPIN UP ------------


          k = 0.0000 0.0000 0.0000 ( 34665 PWs)   bands (ev):

   -58.3071 -58.2721 -57.3890 -57.3833 -57.3503 -57.3126 -57.2613 -57.0926
   -57.0658 -57.0602 -57.0218 -56.9233 -56.8979 -56.8880 -56.8020 -56.7636
   -34.7523 -34.5757 -34.5469 -34.5137 -34.4187 -34.3619 -33.8840 -33.8717
   -33.7537 -33.6806 -33.6386 -33.5957 -33.5635 -33.5565 -33.5506 -33.5440
   -33.5325 -33.5176 -33.4922 -33.4909 -33.4764 -33.4747 -33.4719 -33.4532
   -33.3427 -33.3369 -33.3330 -33.3305 -33.3177 -33.2895 -33.2839 -33.2641
   -33.2437 -33.2385 -33.2379 -33.2286 -33.1993 -33.1780 -33.1429 -33.1419
   -33.1034 -33.0800 -33.0520 -33.0301 -33.0166 -32.9909 -32.9503 -32.8831
   -18.4725 -18.0396 -17.8153 -17.7149 -17.5545 -17.5329 -17.4891 -17.3871
   -17.3605 -17.2604 -17.0483 -17.0275 -17.0198 -16.9885 -16.9279 -16.8575
   -16.8384 -16.8010 -16.7432 -16.7115 -16.6925 -16.6602 -16.5958 -16.5917
   -16.4688 -16.4213 -16.4020 -16.3651 -16.3287 -16.1487 -16.0877 -15.6026
   -15.5417 -11.1401  -6.0510  -5.4997  -5.2856  -5.2057  -5.0969  -4.9949
    -4.9849  -4.9210  -4.8817  -4.7356  -4.6530  -4.6027  -4.5886  -4.5133
    -4.4320  -4.4167  -4.3555  -4.3194  -4.2360  -4.2218  -4.1991  -4.1450
    -4.0340  -4.0269  -3.9824  -3.9113  -3.8951  -3.8890  -3.8863  -3.8284
    -3.7796  -3.7546  -3.6870  -3.6346  -3.5945  -3.5634  -3.5447  -3.5309
    -3.5202  -3.4211  -3.4101  -3.3625  -3.2758  -3.2354  -3.1908  -3.0898
    -2.9243  -2.8996  -2.8539  -2.8056  -2.7486  -2.6966  -2.6749  -2.6641
    -2.6363  -2.5396  -2.4901  -2.4416  -2.3805  -2.3359  -2.2507  -2.2321
    -2.2278  -2.1629  -2.0714  -2.0440  -2.0019  -1.9621  -1.9325  -1.9016
    -1.8564  -1.7400  -1.6965  -1.6709  -1.6434  -1.6331  -1.5889  -1.5070
    -1.4235  -1.3699  -1.3554  -1.3404  -1.3165  -1.2706  -1.2267  -1.1730
    -1.1625  -1.1133  -1.1108  -1.0965  -1.0660  -0.9826  -0.8759  -0.8357
    -0.8110  -0.6959  -0.6897  -0.6268  -0.5548  -0.5135  -0.4858  -0.1892
     1.0236   1.1205   1.4153   1.6938   1.8019   1.9199   1.9673   2.0139
     2.0440   2.1314   2.2080   2.2288   2.2749   2.3938   2.4690   2.4826
     2.4899   2.5170   2.6197   2.6649   2.6699   2.6865   2.7086   2.8254
     2.8403   2.8849   2.8992   2.9522   2.9668   3.0198   3.0284   3.0500
     3.1038   3.1591   3.1974   3.1985   3.2461   3.2541   3.4097   3.4450
     3.4768   3.5189   3.5961   3.6247   3.6687   3.7127   3.8272   3.9546
     4.1023   4.1333   4.3249   4.4708   4.5929   4.7049   4.7830   4.8333
     5.0838   5.1313   5.2087   5.3518   5.3961   5.4017   5.4237   5.4313
     5.4443   5.5210   5.5532   5.6608   5.7171   5.7334   5.9046   5.9194
     5.9539   6.0734   6.0925   6.1347   6.2161   6.2939   6.4209   6.4881
     6.5410   6.5649   6.7813   6.8129   7.2132   7.9154   8.1516   8.1748
     8.3390   8.3882   8.6274   8.7051   8.7510   8.9499   9.1487   9.2449
     9.2894   9.4409   9.6174

          k = 0.0000 0.0280 0.0000 ( 34717 PWs)   bands (ev):

   -58.3048 -58.2744 -57.3873 -57.3817 -57.3526 -57.3137 -57.2609 -57.0924
   -57.0659 -57.0586 -57.0238 -56.9210 -56.8982 -56.8904 -56.7995 -56.7661
   -34.7269 -34.5737 -34.5489 -34.5075 -34.4253 -34.3889 -33.8586 -33.8462
   -33.7329 -33.6743 -33.6324 -33.5932 -33.5704 -33.5529 -33.5449 -33.5368
   -33.5318 -33.5195 -33.5162 -33.4991 -33.4914 -33.4747 -33.4665 -33.4468
   -33.3369 -33.3310 -33.3177 -33.3155 -33.3107 -33.3061 -33.2814 -33.2624
   -33.2484 -33.2403 -33.2385 -33.2280 -33.2042 -33.2013 -33.1491 -33.1359
   -33.1152 -33.0766 -33.0582 -33.0300 -33.0163 -32.9957 -32.9777 -32.9118
   -18.4141 -17.9799 -17.7654 -17.6847 -17.6092 -17.5098 -17.4401 -17.3751
   -17.3293 -17.2911 -17.0993 -17.0067 -16.9984 -16.9777 -16.9303 -16.8790
   -16.7990 -16.7766 -16.7641 -16.7389 -16.7107 -16.6854 -16.6210 -16.5693
   -16.4829 -16.4465 -16.4089 -16.3884 -16.3609 -16.1676 -16.1292 -15.6166
   -15.5672 -11.1410  -5.9656  -5.4155  -5.2063  -5.1351  -5.0269  -4.9585
    -4.9283  -4.9000  -4.8107  -4.7323  -4.6715  -4.6567  -4.5296  -4.5187
    -4.4196  -4.3798  -4.3659  -4.3261  -4.2607  -4.2157  -4.2020  -4.1803
    -4.1026  -4.0706  -4.0198  -4.0042  -3.9813  -3.9739  -3.9248  -3.8576
    -3.8173  -3.7616  -3.7566  -3.7170  -3.6586  -3.5843  -3.5537  -3.4407
    -3.4046  -3.3234  -3.3069  -3.3033  -3.2707  -3.1267  -3.1068  -2.9477
    -2.9064  -2.8852  -2.8045  -2.7511  -2.7470  -2.7239  -2.6914  -2.6543
    -2.6012  -2.5201  -2.4608  -2.4461  -2.4187  -2.2823  -2.2581  -2.2260
    -2.2150  -2.1557  -2.1474  -2.0308  -1.9865  -1.9605  -1.9283  -1.9160
    -1.8764  -1.7701  -1.7610  -1.7217  -1.6832  -1.6130  -1.5850  -1.5747
    -1.5043  -1.4627  -1.3939  -1.3804  -1.3774  -1.3606  -1.2874  -1.2743
    -1.2378  -1.1775  -1.1501  -1.0723  -0.9960  -0.9560  -0.9311  -0.8995
    -0.8790  -0.8421  -0.7322  -0.6020  -0.5756  -0.5618  -0.5418  -0.2303
     1.1563   1.1614   1.4166   1.8300   1.8743   1.8917   1.9244   2.0007
     2.0593   2.0773   2.2983   2.3066   2.3393   2.4564   2.4924   2.5129
     2.5206   2.5426   2.5474   2.5960   2.7130   2.7309   2.8009   2.8121
     2.8341   2.8984   2.9350   2.9632   2.9798   2.9927   3.0138   3.0646
     3.0849   3.1212   3.1746   3.2333   3.2458   3.3262   3.4344   3.4753
     3.5112   3.5419   3.5642   3.5872   3.6423   3.6656   3.7855   3.9067
     4.0567   4.2004   4.2812   4.5242   4.7036   4.7062   4.8131   4.9083
     5.1107   5.1717   5.2546   5.3011   5.3711   5.4106   5.4332   5.4773
     5.5054   5.5320   5.5477   5.6599   5.7031   5.7125   5.8214   5.8823
     5.9449   5.9902   6.0363   6.0496   6.1788   6.2498   6.3870   6.4323
     6.4498   6.5538   6.7245   6.8156   7.3189   7.4516   7.9906   8.0636
     8.3402   8.4945   8.5062   8.6996   8.7773   8.9886   9.1034   9.3085
     9.3691   9.4434   9.5138

          k = 0.0000 0.0560 0.0000 ( 34721 PWs)   bands (ev):

   -58.2984 -58.2809 -57.3839 -57.3765 -57.3590 -57.3159 -57.2602 -57.0919
   -57.0663 -57.0540 -57.0288 -56.9145 -56.8986 -56.8969 -56.7928 -56.7728
   -34.6571 -34.5685 -34.5540 -34.4903 -34.4620 -34.4428 -33.7888 -33.7768
   -33.6822 -33.6573 -33.6157 -33.5935 -33.5928 -33.5869 -33.5722 -33.5688
   -33.5408 -33.5318 -33.5145 -33.4961 -33.4727 -33.4680 -33.4647 -33.4126
   -33.3715 -33.3268 -33.3244 -33.3096 -33.2829 -33.2729 -33.2577 -33.2576
   -33.2563 -33.2480 -33.2449 -33.2267 -33.2188 -33.2107 -33.1664 -33.1346
   -33.1197 -33.0748 -33.0737 -33.0516 -33.0295 -33.0163 -33.0077 -32.9823
   -18.2530 -17.8152 -17.7929 -17.6355 -17.6020 -17.4119 -17.3928 -17.3747
   -17.3096 -17.2669 -17.2324 -17.0461 -16.9902 -16.9226 -16.9187 -16.9016
   -16.8434 -16.8182 -16.7296 -16.7063 -16.7007 -16.6750 -16.6253 -16.5622
   -16.5157 -16.5102 -16.4549 -16.4427 -16.4158 -16.2330 -16.2098 -15.6451
   -15.6209 -11.1429  -5.7262  -5.1827  -5.0470  -4.9902  -4.9543  -4.9180
    -4.8498  -4.8338  -4.8164  -4.7726  -4.7345  -4.5550  -4.5095  -4.4667
    -4.3950  -4.3940  -4.3523  -4.3213  -4.3068  -4.2887  -4.2511  -4.2145
    -4.2100  -4.1929  -4.1315  -4.0603  -4.0163  -3.9782  -3.9665  -3.9095
    -3.8762  -3.8164  -3.7526  -3.6491  -3.5978  -3.5397  -3.4133  -3.4059
    -3.3658  -3.2876  -3.2478  -3.1363  -3.0906  -3.0717  -3.0403  -3.0121
    -2.9688  -2.9587  -2.8276  -2.7981  -2.7407  -2.6968  -2.6515  -2.5588
    -2.4844  -2.4760  -2.4417  -2.3560  -2.3032  -2.2977  -2.2227  -2.1894
    -2.1542  -2.1402  -2.1203  -2.0878  -2.0550  -2.0112  -1.9965  -1.9706
    -1.9347  -1.8929  -1.8824  -1.8619  -1.8137  -1.7534  -1.6582  -1.6084
    -1.5960  -1.5790  -1.5135  -1.4747  -1.4521  -1.4468  -1.4325  -1.3778
    -1.2931  -1.2724  -1.2159  -1.1972  -1.0908  -1.0053  -0.9795  -0.9454
    -0.8607  -0.8373  -0.7388  -0.7170  -0.6218  -0.5834  -0.5656  -0.3337
     1.2852   1.4270   1.4996   1.7209   1.7975   1.8905   1.9612   2.0590
     2.1396   2.2753   2.2803   2.3322   2.4162   2.4853   2.5046   2.5308
     2.5718   2.6110   2.6615   2.7084   2.7519   2.7692   2.8003   2.8488
     2.8643   2.8831   2.8928   2.9627   3.0091   3.0272   3.0361   3.0629
     3.1240   3.1572   3.1805   3.2588   3.3073   3.3387   3.3855   3.4332
     3.4710   3.4866   3.5625   3.6107   3.6736   3.6856   3.7254   3.8011
     3.9235   4.1585   4.3227   4.6515   4.7419   4.8423   4.9341   5.0718
     5.0777   5.1753   5.2815   5.3330   5.4012   5.4365   5.4698   5.4989
     5.4993   5.5613   5.5810   5.6472   5.6522   5.7529   5.7713   5.8116
     5.8446   5.8667   5.8876   5.9300   6.1166   6.1575   6.2963   6.3692
     6.4234   6.4418   6.7191   6.7473   6.9969   7.2055   7.6126   7.7459
     8.1992   8.3749   8.6909   8.8204   8.8306   8.8788   9.1756   9.3414
     9.4103   9.6019   9.7089

          k = 0.0000-0.0840 0.0000 ( 34678 PWs)   bands (ev):

   -58.2903 -58.2890 -57.3823 -57.3702 -57.3659 -57.3171 -57.2598 -57.0917
   -57.0667 -57.0507 -57.0322 -56.9061 -56.9054 -56.8989 -56.7861 -56.7796
   -34.5621 -34.5612 -34.5602 -34.5596 -34.4672 -34.4661 -33.7050 -33.6918
   -33.6882 -33.6495 -33.6482 -33.6423 -33.6107 -33.5946 -33.5905 -33.5798
   -33.5392 -33.5337 -33.5140 -33.5053 -33.4698 -33.4634 -33.4015 -33.3867
   -33.3816 -33.3656 -33.3283 -33.3236 -33.3065 -33.2751 -33.2621 -33.2531
   -33.2515 -33.2510 -33.2265 -33.2240 -33.1755 -33.1512 -33.1504 -33.1424
   -33.1279 -33.1255 -33.0977 -33.0970 -33.0299 -33.0214 -33.0186 -33.0127
   -18.0279 -18.0272 -17.5954 -17.5862 -17.5125 -17.4887 -17.4884 -17.3980
   -17.2610 -17.2206 -17.1331 -17.1078 -17.0753 -17.0403 -16.8960 -16.8477
   -16.8107 -16.8103 -16.8089 -16.6775 -16.6157 -16.6123 -16.6060 -16.5820
   -16.5512 -16.5284 -16.5102 -16.4778 -16.4686 -16.2754 -16.2510 -15.6544
   -15.6544 -11.1438  -5.3866  -5.3864  -4.9139  -4.8904  -4.8894  -4.8766
    -4.8544  -4.7728  -4.7612  -4.7221  -4.6615  -4.6070  -4.5701  -4.5631
    -4.4946  -4.4719  -4.4487  -4.3945  -4.3787  -4.2686  -4.2564  -4.2486
    -4.1613  -4.1192  -4.0693  -4.0356  -3.9951  -3.9050  -3.8862  -3.8703
    -3.7811  -3.7278  -3.6772  -3.6696  -3.6514  -3.6263  -3.5989  -3.4139
    -3.3615  -3.3505  -3.1524  -3.0798  -3.0740  -3.0346  -2.9303  -2.9293
    -2.9199  -2.8524  -2.8293  -2.7941  -2.7762  -2.6958  -2.6718  -2.6461
    -2.5250  -2.5046  -2.4228  -2.4064  -2.3983  -2.3762  -2.3135  -2.2447
    -2.2297  -2.1680  -2.1215  -2.0594  -2.0083  -1.9823  -1.9782  -1.9726
    -1.9683  -1.9442  -1.8406  -1.8010  -1.7807  -1.7308  -1.6946  -1.6594
    -1.6435  -1.6125  -1.5935  -1.5195  -1.5100  -1.4677  -1.4482  -1.4251
    -1.3839  -1.3332  -1.2809  -1.1803  -1.1400  -1.1189  -1.0931  -1.0664
    -0.8406  -0.8170  -0.6197  -0.6107  -0.6056  -0.5975  -0.5486  -0.5000
     1.4814   1.4841   1.6337   1.6344   1.7133   1.7142   2.0844   2.0852
     2.1484   2.2034   2.3741   2.4088   2.4453   2.4914   2.5391   2.5468
     2.6537   2.6655   2.6749   2.6886   2.7408   2.7510   2.8088   2.8116
     2.9114   2.9465   2.9901   3.0179   3.0228   3.0258   3.0322   3.0357
     3.0430   3.2240   3.2336   3.2641   3.2966   3.3386   3.3649   3.3950
     3.4322   3.4472   3.5022   3.6244   3.6953   3.7343   3.7488   3.7910
     3.8450   4.0356   4.3751   4.7559   4.8315   4.8650   4.8657   5.0516
     5.1433   5.2234   5.3137   5.3295   5.3641   5.4072   5.4676   5.5423
     5.5640   5.5959   5.5986   5.6860   5.6987   5.7180   5.7283   5.7418
     5.7676   5.8084   5.8413   5.9422   6.0240   6.1570   6.2776   6.3847
     6.4592   6.4751   6.5851   6.6072   6.9321   6.9829   7.4519   7.6151
     8.0324   8.2337   8.7048   8.9452   9.1068   9.2065   9.3457   9.3472
     9.4419   9.6132   9.7012

[...]
    -1.7306  -1.5079  -1.4657  -1.4545  -1.4366  -1.3991  -1.3197  -1.1558
    -1.1455  -1.0889  -1.0711  -1.0555  -0.9722  -0.9119  -0.8729  -0.7885
    -0.7351  -0.7282  -0.6990  -0.6715  -0.5965  -0.5750  -0.5611   0.2927
     1.6004   1.6038   1.6164   1.6218   1.9642   1.9651   2.0940   2.0950
     2.2777   2.2985   2.3117   2.3935   2.4166   2.4865   2.5732   2.6325
     2.6545   2.6991   2.7825   2.8159   2.8726   2.9245   2.9466   2.9746
     2.9891   2.9978   3.0388   3.0967   3.1110   3.2081   3.2339   3.2428
     3.2586   3.2825   3.3398   3.3859   3.3996   3.4048   3.4614   3.4724
     3.4826   3.5104   3.5249   3.5786   3.6359   3.6536   3.7755   3.8768
     3.9120   3.9230   4.1391   4.1396   4.5896   4.6188   4.6413   4.7266
     4.8818   4.8978   4.9305   5.0807   5.1598   5.1648   5.1838   5.4455
     5.6727   5.6816   5.6925   5.9252   5.9305   5.9644   6.0154   6.0183
     6.0931   6.1047   6.1744   6.2653   6.2696   6.2776   6.3819   6.4593
     6.4990   6.6054   7.0613   7.2240   7.3363   7.3921   7.5535   7.5879
     7.7179   7.7695   7.9194   8.1091   8.2973   8.3439   8.4498   8.8665
     9.0097   9.0692   9.2154

          k =-0.0253 0.0280 0.0000 ( 34687 PWs)   bands (ev):

   -58.3050 -58.2746 -57.3870 -57.3820 -57.3526 -57.3138 -57.2618 -57.0964
   -57.0670 -57.0600 -57.0251 -56.9227 -56.9217 -56.8912 -56.8031 -56.7697
   -34.7274 -34.5740 -34.5491 -34.5069 -34.4253 -34.3891 -33.8588 -33.8483
   -33.7339 -33.6667 -33.6323 -33.5935 -33.5675 -33.5534 -33.5499 -33.5409
   -33.5331 -33.5204 -33.5187 -33.4987 -33.4924 -33.4693 -33.4684 -33.4498
   -33.3380 -33.3286 -33.3211 -33.3184 -33.3119 -33.3072 -33.2829 -33.2640
   -33.2533 -33.2404 -33.2400 -33.2313 -33.2146 -33.2045 -33.1675 -33.1366
   -33.1342 -33.0799 -33.0589 -33.0398 -33.0207 -32.9990 -32.9784 -32.9145
   -18.3703 -17.9410 -17.7757 -17.7336 -17.5228 -17.5162 -17.3751 -17.3681
   -17.3449 -17.3151 -17.1114 -17.0685 -16.9838 -16.9387 -16.8726 -16.8299
   -16.7918 -16.7502 -16.7325 -16.6689 -16.6624 -16.5827 -16.5433 -16.4849
   -16.4608 -16.4049 -16.3658 -16.3478 -16.1551 -16.1205 -15.8815 -15.6122
   -15.5635 -10.7415  -5.8411  -5.3095  -5.1434  -5.1253  -4.9935  -4.9525
    -4.9136  -4.8248  -4.6983  -4.6774  -4.6362  -4.5361  -4.4981  -4.4416
    -4.4080  -4.3134  -4.2900  -4.2498  -4.1999  -4.1818  -4.1412  -4.1269
    -4.0932  -4.0464  -4.0097  -3.9914  -3.9545  -3.9132  -3.8795  -3.7992
    -3.7844  -3.7239  -3.6915  -3.6219  -3.6038  -3.5240  -3.4601  -3.3902
    -3.3439  -3.3204  -3.2925  -3.2632  -3.2243  -3.1821  -3.1123  -3.0962
    -2.9199  -2.8826  -2.8224  -2.7777  -2.7217  -2.6860  -2.6743  -2.6173
    -2.5879  -2.5091  -2.4997  -2.4424  -2.4099  -2.3584  -2.2881  -2.2656
    -2.2134  -2.1922  -2.1044  -2.0427  -1.9595  -1.9408  -1.9164  -1.8505
    -1.8394  -1.7913  -1.7457  -1.6850  -1.6359  -1.5952  -1.5624  -1.5107
    -1.4767  -1.4358  -1.4069  -1.3807  -1.3615  -1.3462  -1.3146  -1.2909
    -1.2053  -1.1246  -1.0636  -1.0109  -0.9873  -0.9539  -0.9296  -0.8849
    -0.8433  -0.8206  -0.6319  -0.6103  -0.5859  -0.5225  -0.2655   0.3170
     1.1523   1.2459   1.4299   1.8191   1.8586   1.9258   1.9622   2.0297
     2.0407   2.1899   2.3007   2.3465   2.3880   2.4309   2.4544   2.5043
     2.5245   2.5488   2.5896   2.6500   2.6981   2.7222   2.7782   2.8323
     2.8772   2.9141   2.9307   2.9738   2.9912   3.0150   3.0411   3.0939
     3.1710   3.1915   3.2339   3.2592   3.2948   3.3370   3.4301   3.4652
     3.4953   3.5589   3.6122   3.6431   3.6641   3.7445   3.8213   3.8659
     4.0130   4.2090   4.2849   4.4362   4.6248   4.7234   4.8442   4.8614
     5.0019   5.0257   5.1129   5.1986   5.2418   5.3570   5.4609   5.5489
     5.6596   5.6951   5.7142   5.8034   5.8500   5.8835   5.9096   5.9318
     5.9671   5.9899   6.0651   6.1253   6.1754   6.2824   6.3984   6.4490
     6.4624   6.5821   6.7529   6.8092   7.3753   7.4841   7.7877   7.8889
     8.0862   8.2301   8.4883   8.5331   8.7858   8.8839   9.0799   9.3056
     9.3713   9.5258   9.6057

          k =-0.0253 0.0560 0.0000 ( 34699 PWs)   bands (ev):

   -58.2986 -58.2810 -57.3838 -57.3767 -57.3590 -57.3160 -57.2610 -57.0959
   -57.0675 -57.0553 -57.0300 -56.9232 -56.9153 -56.8976 -56.7964 -56.7765
   -34.6575 -34.5687 -34.5543 -34.4899 -34.4623 -34.4428 -33.7890 -33.7791
   -33.6831 -33.6514 -33.6156 -33.5920 -33.5880 -33.5870 -33.5756 -33.5688
   -33.5425 -33.5327 -33.5192 -33.4974 -33.4843 -33.4670 -33.4563 -33.4157
   -33.3728 -33.3259 -33.3223 -33.3137 -33.2848 -33.2753 -33.2590 -33.2588
   -33.2578 -33.2487 -33.2453 -33.2319 -33.2216 -33.2162 -33.1829 -33.1633
   -33.1204 -33.0769 -33.0755 -33.0523 -33.0368 -33.0231 -33.0111 -32.9851
   -18.2125 -17.8026 -17.7807 -17.6121 -17.6008 -17.4566 -17.3941 -17.3703
   -17.2492 -17.2420 -17.2044 -17.0585 -16.9488 -16.9199 -16.8817 -16.8410
   -16.7981 -16.7442 -16.7335 -16.7182 -16.6839 -16.5986 -16.5484 -16.5317
   -16.5005 -16.4419 -16.4116 -16.4072 -16.2170 -16.2015 -15.8803 -15.6409
   -15.6173 -10.7435  -5.6059  -5.0822  -5.0247  -4.9565  -4.9242  -4.8179
    -4.7958  -4.7584  -4.6883  -4.6740  -4.5265  -4.5098  -4.4466  -4.3960
    -4.3781  -4.3698  -4.3213  -4.2775  -4.2507  -4.2406  -4.2053  -4.1737
    -4.1323  -4.1219  -4.0552  -4.0208  -3.9927  -3.9561  -3.9287  -3.8903
    -3.8301  -3.7968  -3.6976  -3.5901  -3.5432  -3.4961  -3.4484  -3.3846
    -3.3647  -3.2912  -3.1883  -3.1607  -3.1206  -3.1120  -3.0597  -3.0247
    -2.9832  -2.9274  -2.8435  -2.7939  -2.7626  -2.7050  -2.6100  -2.5900
    -2.5249  -2.5106  -2.4576  -2.3918  -2.3764  -2.3182  -2.3007  -2.2593
    -2.1886  -2.1359  -2.1216  -2.0893  -2.0491  -2.0070  -1.9857  -1.9489
    -1.9315  -1.9063  -1.8936  -1.8467  -1.7683  -1.7028  -1.6903  -1.5942
    -1.5729  -1.5447  -1.5187  -1.4852  -1.4433  -1.4135  -1.3844  -1.3253
    -1.2900  -1.2227  -1.1553  -1.0341  -1.0047  -0.9705  -0.9378  -0.8577
    -0.7636  -0.7363  -0.7055  -0.6407  -0.6098  -0.5562  -0.3627   0.2978
     1.2866   1.4685   1.5638   1.7578   1.7732   1.9115   1.9783   2.0579
     2.2649   2.2756   2.3422   2.3785   2.4150   2.4871   2.5223   2.5478
     2.5726   2.5960   2.6535   2.7059   2.7209   2.7645   2.8070   2.8567
     2.8824   2.9173   2.9616   3.0069   3.0327   3.0461   3.0560   3.1095
     3.1590   3.1987   3.2180   3.2887   3.3175   3.3460   3.3778   3.4576
     3.5093   3.5344   3.6126   3.6341   3.6680   3.7272   3.7461   3.7998
     3.8957   4.0994   4.3920   4.5007   4.7157   4.8589   4.9099   4.9610
     4.9955   5.0898   5.1869   5.2077   5.3361   5.3879   5.4338   5.5283
     5.5643   5.5993   5.6518   5.7094   5.7388   5.8038   5.8201   5.8604
     5.9272   5.9434   5.9943   6.0899   6.1328   6.2117   6.3286   6.4313
     6.4582   6.4758   6.7183   6.7687   7.0733   7.2892   7.6705   7.8307
     8.0894   8.2322   8.3203   8.4907   8.7746   8.8941   9.0040   9.1785
     9.3719   9.5510   9.6384

          k =-0.0506 0.0280 0.0000 ( 34685 PWs)   bands (ev):

   -58.3050 -58.2746 -57.3861 -57.3829 -57.3526 -57.3138 -57.2618 -57.0964
   -57.0667 -57.0603 -57.0251 -56.9227 -56.9217 -56.8912 -56.8031 -56.7697
   -34.7282 -34.5740 -34.5491 -34.5053 -34.4253 -34.3892 -33.8592 -33.8523
   -33.7341 -33.6471 -33.6321 -33.5936 -33.5726 -33.5552 -33.5539 -33.5463
   -33.5333 -33.5278 -33.5176 -33.4986 -33.4925 -33.4696 -33.4570 -33.4509
   -33.3381 -33.3218 -33.3203 -33.3182 -33.3079 -33.3068 -33.2831 -33.2660
   -33.2633 -33.2401 -33.2394 -33.2341 -33.2147 -33.2040 -33.1635 -33.1366
   -33.1344 -33.0800 -33.0589 -33.0467 -33.0191 -32.9990 -32.9784 -32.9146
   -18.2619 -17.8638 -17.8514 -17.7008 -17.5874 -17.4553 -17.4377 -17.3441
   -17.3168 -17.2505 -17.1800 -17.0860 -16.9964 -16.9513 -16.9225 -16.8950
   -16.8103 -16.7671 -16.7559 -16.6960 -16.6329 -16.5492 -16.5227 -16.4890
   -16.4608 -16.4058 -16.3898 -16.3526 -16.1516 -16.1209 -15.8823 -15.6103
   -15.5636 -10.7413  -5.5398  -5.1870  -5.1538  -5.1207  -4.9490  -4.8694
    -4.7674  -4.7094  -4.6824  -4.6522  -4.6012  -4.5870  -4.5329  -4.4072
    -4.3629  -4.3227  -4.2413  -4.2155  -4.1797  -4.1648  -4.1481  -4.0561
    -4.0305  -4.0117  -3.9743  -3.9279  -3.8859  -3.8387  -3.8135  -3.7816
    -3.7220  -3.6694  -3.6421  -3.5915  -3.5369  -3.5051  -3.4784  -3.4452
    -3.3774  -3.3649  -3.3041  -3.2651  -3.2041  -3.1495  -3.1181  -3.0580
    -3.0095  -2.9804  -2.9018  -2.8358  -2.7578  -2.6985  -2.6891  -2.6667
    -2.6167  -2.5939  -2.5811  -2.5255  -2.5168  -2.3932  -2.3412  -2.3326
    -2.2700  -2.2009  -2.1856  -2.1590  -2.0808  -2.0105  -2.0043  -1.9430
    -1.9240  -1.8942  -1.8109  -1.7222  -1.7089  -1.6846  -1.6150  -1.5862
    -1.5239  -1.4764  -1.4540  -1.3936  -1.3790  -1.3270  -1.3115  -1.2607
    -1.2441  -1.1210  -1.0579  -1.0348  -1.0110  -0.9567  -0.9246  -0.8767
    -0.8283  -0.7967  -0.7207  -0.6820  -0.6606  -0.5364  -0.3915   0.3018
     1.1392   1.3392   1.4643   1.5651   1.9330   1.9431   1.9655   2.0573
     2.1236   2.1984   2.2532   2.3291   2.4052   2.4391   2.5277   2.5453
     2.5918   2.6501   2.6868   2.7004   2.7542   2.8277   2.8506   2.8811
     2.9397   2.9456   2.9791   2.9839   2.9905   3.1013   3.1085   3.1371
     3.1848   3.2138   3.2894   3.3096   3.3549   3.3818   3.4059   3.4543
     3.4687   3.5470   3.6014   3.6665   3.7419   3.7785   3.7984   3.8999
     3.9574   4.0607   4.1085   4.4060   4.5096   4.6553   4.7471   4.8085
     4.8409   4.9131   4.9655   5.2882   5.3286   5.4116   5.5263   5.5587
     5.6399   5.7661   5.7860   5.8529   5.8977   5.9122   5.9648   6.0543
     6.0930   6.1650   6.2495   6.3336   6.3859   6.4006   6.4425   6.4894
     6.5406   6.5511   6.7110   6.9167   7.0693   7.2177   7.5497   7.6110
     7.7224   8.2119   8.4119   8.4868   8.8649   8.9314   9.0648   9.2147
     9.4249   9.5988   9.6775

          k =-0.0506 0.0560 0.0000 ( 34596 PWs)   bands (ev):

   -58.2986 -58.2810 -57.3834 -57.3770 -57.3590 -57.3161 -57.2610 -57.0959
   -57.0673 -57.0555 -57.0300 -56.9232 -56.9153 -56.8976 -56.7964 -56.7765
   -34.6581 -34.5687 -34.5542 -34.4885 -34.4625 -34.4423 -33.7893 -33.7836
   -33.6833 -33.6356 -33.6154 -33.5912 -33.5896 -33.5869 -33.5700 -33.5688
   -33.5458 -33.5329 -33.5313 -33.4976 -33.4936 -33.4671 -33.4447 -33.4173
   -33.3731 -33.3257 -33.3113 -33.3087 -33.2874 -33.2775 -33.2603 -33.2586
   -33.2575 -33.2485 -33.2449 -33.2419 -33.2224 -33.2165 -33.1823 -33.1590
   -33.1204 -33.0770 -33.0755 -33.0522 -33.0410 -33.0237 -33.0110 -32.9850
   -18.1094 -17.8204 -17.7028 -17.6149 -17.5987 -17.5589 -17.3818 -17.3703
   -17.2201 -17.2077 -17.1188 -17.0965 -16.9789 -16.9134 -16.8689 -16.8438
   -16.8249 -16.8090 -16.7630 -16.7372 -16.7222 -16.6291 -16.5980 -16.5077
   -16.4974 -16.4395 -16.4223 -16.4120 -16.2164 -16.1980 -15.8803 -15.6397
   -15.6178 -10.7432  -5.3033  -4.9932  -4.9426  -4.9346  -4.7847  -4.7770
    -4.7179  -4.6411  -4.5279  -4.5078  -4.5020  -4.4192  -4.4050  -4.3821
    -4.3625  -4.3289  -4.3106  -4.2492  -4.2016  -4.1774  -4.1675  -4.1143
    -4.1036  -4.0585  -4.0458  -3.9944  -3.9806  -3.9047  -3.8860  -3.8293
    -3.7809  -3.7120  -3.6803  -3.6131  -3.5621  -3.5302  -3.4759  -3.4330
    -3.3945  -3.3213  -3.2626  -3.2323  -3.1348  -3.1307  -3.0814  -3.0536
    -2.9967  -2.9791  -2.9592  -2.9045  -2.8016  -2.7648  -2.7504  -2.7072
    -2.6310  -2.5885  -2.5470  -2.5042  -2.4795  -2.4155  -2.3906  -2.3709
    -2.3524  -2.2911  -2.1963  -2.1735  -2.1484  -2.1300  -2.1036  -2.0492
    -2.0142  -1.9724  -1.9455  -1.8718  -1.8494  -1.7830  -1.7323  -1.6579
    -1.5673  -1.5503  -1.5396  -1.4973  -1.4440  -1.3862  -1.3541  -1.3072
    -1.2454  -1.1763  -1.0782  -1.0228  -0.9895  -0.9042  -0.8535  -0.8461
    -0.7945  -0.7079  -0.6934  -0.6722  -0.6571  -0.5544  -0.4766   0.3001
     1.3072   1.4968   1.6455   1.6673   1.8519   2.0030   2.0316   2.0669
     2.2427   2.2554   2.3597   2.3759   2.4322   2.4609   2.5475   2.5846
     2.6498   2.6950   2.7290   2.7436   2.8108   2.8419   2.8703   2.9027
     2.9332   2.9503   3.0060   3.0411   3.0717   3.1128   3.1444   3.1900
     3.1950   3.2501   3.2841   3.3241   3.3332   3.3763   3.4157   3.4664
     3.4809   3.5485   3.5777   3.6404   3.6671   3.7444   3.8039   3.8398
     3.8824   3.9592   4.1519   4.5028   4.5959   4.6154   4.7538   4.8214
     4.8879   4.9644   5.0097   5.1860   5.3013   5.3754   5.4112   5.4433
     5.5942   5.6156   5.6674   5.7161   5.8787   5.8961   5.9866   6.0057
     6.0678   6.1080   6.1698   6.2068   6.3116   6.3361   6.4110   6.4228
     6.5401   6.6143   6.7623   6.8071   7.1786   7.3533   7.5011   7.6186
     7.9375   8.0148   8.1029   8.3720   8.6050   8.7200   8.8036   9.0376
     9.1911   9.3269   9.4326

     the Fermi energy is    -0.2920 ev

!    total energy              =   -3021.14940091 Ry
     Harris-Foulkes estimate   =   -3021.14940123 Ry
     estimated scf accuracy    <       0.00000045 Ry

     The total energy is the sum of the following terms:

     one-electron contribution =  -40436.69027439 Ry
     hartree contribution      =   20289.66842344 Ry
     xc contribution           =    -553.19343156 Ry
     ewald contribution        =   17679.08568996 Ry
     smearing contrib. (-TS)   =      -0.01980835 Ry

     total magnetization       =     1.06 Bohr mag/cell
     absolute magnetization    =     1.23 Bohr mag/cell

     convergence has been achieved in  11 iterations

     Forces acting on atoms (Ry/au):


     negative rho (up, down):  1.187E-02 1.194E-02
     atom    1 type  1   force =     0.00018503   -0.00090007   -0.10467828
     atom    2 type  2   force =     0.00014300    0.00068066    0.04004464
     atom    3 type  1   force =     0.00074886   -0.00175274   -0.02053489
     atom    4 type  2   force =    -0.00326564    0.00312411   -0.00322635
     atom    5 type  1   force =     0.00034490    0.00007779    0.00031781
     atom    6 type  2   force =    -0.00013082   -0.00010053    0.00021673
     atom    7 type  1   force =    -0.00023790   -0.00003143   -0.00033168
     atom    8 type  2   force =    -0.00012863   -0.00014538   -0.00020775
     atom    9 type  1   force =    -0.00003359    0.00056689   -0.10481266
     atom   10 type  2   force =     0.00034863   -0.00021254    0.03601594
     atom   11 type  1   force =     0.00067932    0.00183749    0.00262015
     atom   12 type  2   force =    -0.00519485   -0.00266868   -0.00519136
     atom   13 type  1   force =     0.00041346    0.00008492   -0.00026202
     atom   14 type  2   force =     0.00013134   -0.00008051   -0.00005090
     atom   15 type  1   force =    -0.00010637   -0.00002834   -0.00004257
     atom   16 type  2   force =    -0.00018761    0.00002497   -0.00038005
     atom   17 type  2   force =     0.00001174   -0.00001390    0.06656425
     atom   18 type  1   force =     0.00005890    0.00003112    0.13149575
     atom   19 type  2   force =     0.00017709   -0.00052872   -0.08520955
     atom   20 type  2   force =    -0.05792397    0.00014077   -0.03606466
     atom   21 type  2   force =     0.05781446   -0.00004789   -0.03602728
     atom   22 type  1   force =    -0.00042963    0.00074834    0.08017983
     atom   23 type  2   force =     0.00019759   -0.00005100    0.00004417
     atom   24 type  2   force =     0.00064230    0.00185827   -0.03468554
     atom   25 type  2   force =     0.00413834    0.00332610   -0.00509644
     atom   26 type  1   force =     0.00040849   -0.00005061    0.00009080
     atom   27 type  2   force =    -0.00010252   -0.00012178    0.00001889
     atom   28 type  2   force =     0.00005200   -0.00019590   -0.00002763
     atom   29 type  2   force =     0.00000373   -0.00007514    0.00006333
     atom   30 type  1   force =    -0.00025873   -0.00012672    0.00012753
     atom   31 type  2   force =     0.00011662   -0.00008754   -0.00015596
     atom   32 type  2   force =    -0.00011947   -0.00004472    0.00005990
     atom   33 type  2   force =    -0.00016685    0.00004936    0.06629889
     atom   34 type  1   force =     0.00007886   -0.00003456    0.13128038
     atom   35 type  2   force =     0.00018923   -0.00012988   -0.08482194
     atom   36 type  2   force =    -0.05781781    0.00006413   -0.03567675
     atom   37 type  2   force =     0.05799012   -0.00017492   -0.03607491
     atom   38 type  1   force =    -0.00037692   -0.00020561    0.07984746
     atom   39 type  2   force =     0.00007645   -0.00026998   -0.00008701
     atom   40 type  2   force =     0.00049012    0.00124275   -0.03529131
     atom   41 type  2   force =     0.00588551   -0.00243491   -0.00721953
     atom   42 type  1   force =     0.00024207   -0.00006813    0.00002981
     atom   43 type  2   force =    -0.00019688   -0.00010201    0.00001774
     atom   44 type  2   force =     0.00000603   -0.00015858   -0.00003732
     atom   45 type  2   force =     0.00000939   -0.00016888    0.00004914
     atom   46 type  1   force =    -0.00014710   -0.00012615    0.00011723
     atom   47 type  2   force =    -0.00009348   -0.00014270    0.00002472
     atom   48 type  2   force =    -0.00014542   -0.00000382    0.00037915
     atom   49 type  2   force =    -0.00060252   -0.00069535   -0.00045503
     atom   50 type  3   force =     0.00986845   -0.01037935    0.01937155
     atom   51 type  4   force =     0.00040775   -0.00113683    0.00065880
     atom   52 type  4   force =    -0.01268791    0.01027081   -0.01990875
     atom   53 type  4   force =     0.00023196   -0.00106683    0.00177856
     atom   54 type  4   force =    -0.00173712    0.00043415   -0.00115503

     Total force =     0.344124     Total SCF correction =     0.001698
 !ASE

     Writing output data file calc.save
 
     init_run     :     66.28s CPU     77.33s WALL (       1 calls)
     electrons    :   3023.25s CPU   3465.10s WALL (       1 calls)
     forces       :     48.53s CPU     50.84s WALL (       1 calls)

     Called by init_run:
     wfcinit      :     58.03s CPU     68.48s WALL (       1 calls)
     potinit      :      1.52s CPU      1.74s WALL (       1 calls)

     Called by electrons:
     c_bands      :   2678.89s CPU   3059.10s WALL (      11 calls)
     sum_band     :    295.53s CPU    350.99s WALL (      11 calls)
     v_of_rho     :     12.35s CPU     14.85s WALL (      12 calls)
     newd         :     40.25s CPU     44.06s WALL (      12 calls)
     mix_rho      :      0.47s CPU      0.61s WALL (      11 calls)
     vdW_energy   :      2.73s CPU      3.12s WALL (      13 calls)
     vdW_ffts     :      3.31s CPU      4.05s WALL (      26 calls)
     vdW_v        :      1.27s CPU      1.42s WALL (      13 calls)

     Called by c_bands:
     init_us_2    :      6.82s CPU      7.30s WALL (     960 calls)
     cegterg      :   2637.13s CPU   3015.30s WALL (     440 calls)

     Called by *egterg:
     h_psi        :    960.65s CPU   1250.64s WALL (    2533 calls)
     s_psi        :    167.21s CPU    172.63s WALL (    2533 calls)
     g_psi        :      4.83s CPU      4.93s WALL (    2053 calls)
     cdiaghg      :    942.02s CPU    963.40s WALL (    2493 calls)

     Called by h_psi:
     add_vuspsi   :    169.10s CPU    175.37s WALL (    2533 calls)

     General routines
     calbec       :    247.67s CPU    254.01s WALL (    3013 calls)
     fft          :      6.57s CPU      8.21s WALL (    1029 calls)
     ffts         :      0.06s CPU      0.07s WALL (      46 calls)
     fftw         :    525.93s CPU    850.62s WALL (  785084 calls)
     interpolate  :      0.37s CPU      0.53s WALL (      46 calls)
     davcio       :      0.08s CPU      2.20s WALL (      40 calls)
 
     Parallel routines
     fft_scatter  :    261.50s CPU    439.32s WALL (  786159 calls)
 
     PWSCF        : 52m19.24s CPU    59m57.35s WALL

 
   This run was terminated on:  17:51:41  26Feb2018            

=------------------------------------------------------------------------------=
   JOB DONE.
=------------------------------------------------------------------------------=
