  python dir          : /home/vossj/suncat/lib/python2.7/site-packages/espresso
  espresso dir        : /home/vossj/suncat/esdld/espresso-dynpy-beef/bin
  pseudo dir          : /home/alatimer/bin/psp/esp_psp_w_gbrvRu/
  ase-espresso py git : ffa2778-git



     Program PWSCF v.5.1rc2 (svn rev. ) starts on 10Feb2018 at 15: 5:56 

     This program is part of the open-source Quantum ESPRESSO suite
     for quantum simulation of materials; please cite
         "P. Giannozzi et al., J. Phys.:Condens. Matter 21 395502 (2009);
          URL http://www.quantum-espresso.org", 
     in publications or presentations arising from this work. More details at
     http://www.quantum-espresso.org/quote

     Parallel version (MPI), running on    16 processors
     R & G space division:  proc/nbgrp/npool/nimage =      16
     Reading input from pw.inp
     Message from routine read_cards :
     DEPRECATED: no units specified in CELL_PARAMETERS card

     Current dimensions of program PWSCF are:
     Max number of different atomic species (ntypx) = 10
     Max number of k-points (npk) =  40000
     Max angular momentum in pseudopotentials (lmaxx) =  3

     **************************************************************************
     Initializing libbeef V0.1.1 with the BEEF-vdW functional.
     Citation: Wellendorff et al., PRB 85, 235149 (2012).
     **************************************************************************


     IMPORTANT: XC functional enforced from input :
     Exchange-correlation      = BEEF ( 1  4 27 13 2)
     Any further DFT definition will be discarded
     Please, verify this is what you really want


     Subspace diagonalization in iterative solution of the eigenvalue problem:
     a serial algorithm will be used

 
     Parallelization info
     --------------------
     sticks:   dense  smooth     PW     G-vecs:    dense   smooth      PW
     Min         281     112     31                68535    17318    2565
     Max         282     113     32                68545    17369    2582
     Sum        4501    1795    503              1096637   277353   41113
 
     Generating pointlists ...
     new r_m :   0.4125 (alat units)  0.7795 (a.u.) for type    1
     new r_m :   0.3994 (alat units)  0.7547 (a.u.) for type    2
     new r_m :   0.3994 (alat units)  0.7547 (a.u.) for type    3


     bravais-lattice index     =            0
     lattice parameter (alat)  =       1.8897  a.u.
     unit-cell volume          =    7990.9933 (a.u.)^3
     number of atoms/cell      =           50
     number of atomic types    =            3
     number of electrons       =       391.00
     number of Kohn-Sham states=          295
     kinetic-energy cutoff     =      40.4243  Ry
     charge density cutoff     =     404.2426  Ry
     convergence threshold     =      7.3E-07
     mixing beta               =       0.1000
     number of iterations used =           10  plain     mixing
     Exchange-correlation      = BEEF ( 1  4 27 13 2)
     nstep                     =           50


     celldm(1)=   1.889726  celldm(2)=   0.000000  celldm(3)=   0.000000
     celldm(4)=   0.000000  celldm(5)=   0.000000  celldm(6)=   0.000000

     crystal axes: (cart. coord. in units of alat)
               a(1) = (   6.590708   0.000000   0.000000 )  
               a(2) = (   0.000000   5.950229   0.000000 )  
               a(3) = (   0.000000   0.000000  30.195235 )  

     reciprocal axes: (cart. coord. in units 2 pi/alat)
               b(1) = (  0.151729  0.000000  0.000000 )  
               b(2) = (  0.000000  0.168061  0.000000 )  
               b(3) = (  0.000000  0.000000  0.033118 )  


     PseudoPot. # 1 for Ti read from file:
     /home/alatimer/bin/psp/esp_psp_w_gbrvRu/Ti.UPF
     MD5 check sum: 8e4df49b7f0d34bbd5052bf3f5ea0213
     Pseudo is Ultrasoft, Zval = 12.0
     Generated by new atomic code, or converted to UPF format
     Using radial grid of  851 points,  6 beta functions with: 
                l(1) =   0
                l(2) =   0
                l(3) =   1
                l(4) =   1
                l(5) =   2
                l(6) =   2
     Q(r) pseudized with  8 coefficients,  rinner =    1.000   1.000   1.000
                                                       1.000   1.000

     PseudoPot. # 2 for  O read from file:
     /home/alatimer/bin/psp/esp_psp_w_gbrvRu/O.UPF
     MD5 check sum: e057bbcf3229fb5d8c36c0c92f9568b4
     Pseudo is Ultrasoft + core correction, Zval =  6.0
     Generated using "atomic" code by A. Dal Corso  v.5.0.2 svn rev. 9415
     Using radial grid of 1095 points,  4 beta functions with: 
                l(1) =   0
                l(2) =   0
                l(3) =   1
                l(4) =   1
     Q(r) pseudized with 0 coefficients 


     PseudoPot. # 3 for  H read from file:
     /home/alatimer/bin/psp/esp_psp_w_gbrvRu/H.UPF
     MD5 check sum: bd57da0722753ddfd9833a65b40bb853
     Pseudo is Ultrasoft, Zval =  1.0
     Generated using "atomic" code by A. Dal Corso  v.5.0.2 svn rev. 9415
     Using radial grid of  929 points,  2 beta functions with: 
                l(1) =   0
                l(2) =   0
     Q(r) pseudized with 0 coefficients 


     vdW kernel table read from file vdW_kernel_table
     MD5 check sum: 095c7af220d748ca6e76c0b4c6cfb241

     atomic species   valence    mass     pseudopotential
        Ti1           12.00    47.88000     Ti( 1.00)
        O1             6.00    15.99940      O( 1.00)
        H1             1.00     1.00794      H( 1.00)

     Starting magnetic structure 
     atomic species   magnetization
        Ti1          0.250
        O1           0.500
        H1           0.000

      2 Sym. Ops. (no inversion) found ( 1 have fractional translation)



   Cartesian axes

     site n.     atom                  positions (alat units)
         1           Ti1 tau(   1) = (   1.6476770   0.7437786   2.6545865  )
         2           O1  tau(   2) = (   1.6476770   2.2313359   3.9361215  )
         3           Ti1 tau(   3) = (   1.6476770   2.2313359   5.9499405  )
         4           O1  tau(   4) = (   0.3661420   0.7437786   5.9499405  )
         5           Ti1 tau(   5) = (   1.6423058   0.7993178   9.2289010  )
         6           O1  tau(   6) = (   1.6406404   2.2313359  10.4535548  )
         7           Ti1 tau(   7) = (   1.6373334   2.2313359  13.0586656  )
         8           O1  tau(   8) = (   0.3716334   0.7231912  12.7369480  )
         9           Ti1 tau(   9) = (   1.6476770   3.7188931   2.6545865  )
        10           O1  tau(  10) = (   1.6476770   5.2064503   3.9361215  )
        11           Ti1 tau(  11) = (   1.6476770   5.2064503   5.9499405  )
        12           O1  tau(  12) = (   0.3661420   3.7188931   5.9499405  )
        13           Ti1 tau(  13) = (   1.6423059   3.6633529   9.2289023  )
        14           O1  tau(  14) = (   1.6396028   5.2064504  10.5374954  )
        15           Ti1 tau(  15) = (   1.6366369   5.2064504  12.3426698  )
        16           O1  tau(  16) = (   0.3716333   3.7394800  12.7369475  )
        17           O1  tau(  17) = (   1.6476770   2.2313359   1.3730516  )
        18           Ti1 tau(  18) = (   4.9430310   2.2313359   2.6545865  )
        19           O1  tau(  19) = (   4.9430310   2.2313359   4.6684056  )
        20           O1  tau(  20) = (   6.2245660   0.7437786   2.6545865  )
        21           O1  tau(  21) = (   3.6614961   0.7437786   2.6545865  )
        22           Ti1 tau(  22) = (   4.9430310   0.7437786   5.9499405  )
        23           O1  tau(  23) = (   1.6444126   2.2313359   7.9291264  )
        24           O1  tau(  24) = (   4.9430310   2.2313359   7.2314755  )
        25           O1  tau(  25) = (   2.9292120   0.7437786   5.9499405  )
        26           Ti1 tau(  26) = (   4.9374203   2.2313360   9.4425711  )
        27           O1  tau(  27) = (   4.9384755   2.2313359  11.2756104  )
        28           O1  tau(  28) = (   6.2333856   0.7395591   9.2701299  )
        29           O1  tau(  29) = (   3.6424277   0.7403199   9.2676498  )
        30           Ti1 tau(  30) = (   4.9388558   0.7382018  12.7898683  )
        31           O1  tau(  31) = (   4.8884434   2.2313358  13.8602379  )
        32           O1  tau(  32) = (   2.8718067   0.7224686  12.6922084  )
        33           O1  tau(  33) = (   1.6476770   5.2064503   1.3730516  )
        34           Ti1 tau(  34) = (   4.9430310   5.2064503   2.6545865  )
        35           O1  tau(  35) = (   4.9430310   5.2064503   4.6684056  )
        36           O1  tau(  36) = (   6.2245660   3.7188931   2.6545865  )
        37           O1  tau(  37) = (   3.6614961   3.7188931   2.6545865  )
        38           Ti1 tau(  38) = (   4.9430310   3.7188931   5.9499405  )
        39           O1  tau(  39) = (   1.6444418   5.2064506   7.9393866  )
        40           O1  tau(  40) = (   4.9430310   5.2064503   7.2314755  )
        41           O1  tau(  41) = (   2.9292120   3.7188931   5.9499405  )
        42           Ti1 tau(  42) = (   4.9387790   5.2064503   9.4241858  )
        43           O1  tau(  43) = (   4.9379278   5.2064504  11.2756977  )
        44           O1  tau(  44) = (   6.2333855   3.7231127   9.2701299  )
        45           O1  tau(  45) = (   3.6424278   3.7223520   9.2676499  )
        46           Ti1 tau(  46) = (   4.9388558   3.7244696  12.7898683  )
        47           O1  tau(  47) = (   4.8902929   5.2064502  13.8618696  )
        48           O1  tau(  48) = (   2.8718066   3.7402036  12.6922086  )
        49           O1  tau(  49) = (   1.7618258   2.2313358  14.8494317  )
        50           H1  tau(  50) = (   2.6007197   2.2313366  15.3328018  )

     number of k points=    32  Fermi-Dirac smearing, width (Ry)=  0.0073
                       cart. coord. in units 2pi/alat
        k(    1) = (   0.0000000   0.0000000   0.0000000), wk =   0.0277778
        k(    2) = (   0.0000000   0.0280101   0.0000000), wk =   0.0555556
        k(    3) = (   0.0000000   0.0560203   0.0000000), wk =   0.0555556
        k(    4) = (   0.0000000  -0.0840304   0.0000000), wk =   0.0277778
        k(    5) = (   0.0252881   0.0000000   0.0000000), wk =   0.0555556
        k(    6) = (   0.0252881   0.0280101   0.0000000), wk =   0.1111111
        k(    7) = (   0.0252881   0.0560203   0.0000000), wk =   0.1111111
        k(    8) = (   0.0252881  -0.0840304   0.0000000), wk =   0.0555556
        k(    9) = (   0.0505763   0.0000000   0.0000000), wk =   0.0555556
        k(   10) = (   0.0505763   0.0280101   0.0000000), wk =   0.1111111
        k(   11) = (   0.0505763   0.0560203   0.0000000), wk =   0.1111111
        k(   12) = (   0.0505763  -0.0840304   0.0000000), wk =   0.0555556
        k(   13) = (  -0.0758644   0.0000000   0.0000000), wk =   0.0277778
        k(   14) = (  -0.0758644   0.0280101   0.0000000), wk =   0.0555556
        k(   15) = (  -0.0758644   0.0560203   0.0000000), wk =   0.0555556
        k(   16) = (  -0.0758644  -0.0840304   0.0000000), wk =   0.0277778
        k(   17) = (   0.0000000   0.0000000   0.0000000), wk =   0.0277778
        k(   18) = (   0.0000000   0.0280101   0.0000000), wk =   0.0555556
        k(   19) = (   0.0000000   0.0560203   0.0000000), wk =   0.0555556
        k(   20) = (   0.0000000  -0.0840304   0.0000000), wk =   0.0277778
        k(   21) = (   0.0252881   0.0000000   0.0000000), wk =   0.0555556
        k(   22) = (   0.0252881   0.0280101   0.0000000), wk =   0.1111111
        k(   23) = (   0.0252881   0.0560203   0.0000000), wk =   0.1111111
        k(   24) = (   0.0252881  -0.0840304   0.0000000), wk =   0.0555556
        k(   25) = (   0.0505763   0.0000000   0.0000000), wk =   0.0555556
        k(   26) = (   0.0505763   0.0280101   0.0000000), wk =   0.1111111
        k(   27) = (   0.0505763   0.0560203   0.0000000), wk =   0.1111111
        k(   28) = (   0.0505763  -0.0840304   0.0000000), wk =   0.0555556
        k(   29) = (  -0.0758644   0.0000000   0.0000000), wk =   0.0277778
        k(   30) = (  -0.0758644   0.0280101   0.0000000), wk =   0.0555556
        k(   31) = (  -0.0758644   0.0560203   0.0000000), wk =   0.0555556
        k(   32) = (  -0.0758644  -0.0840304   0.0000000), wk =   0.0277778

     Dense  grid:  1096637 G-vectors     FFT dimensions: (  80,  72, 375)

     Smooth grid:   277353 G-vectors     FFT dimensions: (  54,  45, 240)

     Largest allocated arrays     est. size (Mb)     dimensions
        Kohn-Sham Wavefunctions         9.81 Mb     (    2180,  295)
        NL pseudopotentials            18.43 Mb     (    2180,  554)
        Each V/rho on FFT grid          4.22 Mb     (  138240,   2)
        Each G-vector array             0.52 Mb     (   68538)
        G-vector shells                 0.25 Mb     (   33046)
     Largest temporary arrays     est. size (Mb)     dimensions
        Auxiliary wavefunctions        39.25 Mb     (    2180, 1180)
        Each subspace H/S matrix       21.25 Mb     (    1180, 1180)
        Each <psi_i|beta_j> matrix      2.49 Mb     (     554,  295)
        Arrays for rho mixing          21.09 Mb     (  138240,   10)

     Check: negative/imaginary core charge=   -0.000049    0.000000

     Initial potential from superposition of free atoms
     Check: negative starting charge=(component1):   -0.016872
     Check: negative starting charge=(component2):   -0.010150

     starting charge  374.99924, renormalised to  391.00000

     negative rho (up, down):  1.759E-02 1.058E-02


     ************************************************************************
     *
     * You are using vdW-DF for exchange-correlation in this calculation.
     * Please cite the following three references that made this development
     * possible:
     *
     *   M. Dion, H. Rydberg, E. Schroder, D. C. Langreth, and
     *   B. I. Lundqvist, Phys. Rev. Lett. 92, 246401 (2004).
     *
     *   T. Thonhauser, V. R. Cooper, S. Li, A. Puzder, P. Hyldgaard, and
     *   D. C. Langreth, Phys. Rev. B 76, 125112 (2007).
     *
     *   G. Roman-Perez and J. M. Soler, Phys. Rev. Lett. 103, 096102 (2009).
     *
     *
     * If you are using vdW-DF2, please also cite:
     *
     *   K. Lee, E. D. Murray, L. Kong, B. I. Lundqvist, and
     *   D. C. Langreth, Phys. Rev. B 82, 081101(R) (2010).
     *
     *
     * If you are calculating the stress with vdW-DF, please also cite:
     *
     *   R. Sabatini, E. Kucukbenli, B. Kolb, T. Thonhauser, and
     *   S. de Gironcoli, J. Phys.: Condens. Matter 24, 424209 (2012).
     *
     ************************************************************************

     Carrying out vdW-DF run using the following parameters:

     Nqs =      20    Nr_points =    1024   r_max =   100.000
     q_mesh =
               0.00001000     0.04494208     0.09755937     0.15916263
               0.23128650     0.31572767     0.41458969     0.53033537
               0.66584808     0.82450364     1.01025438     1.22772762
               1.48234092     1.78043706     2.12944203     2.53805004
               3.01644009     3.57652955     4.23227104     5.00000000

     Gradients computed in reciprocal space

     ************************************************************************


     Starting wfc are  293 randomized atomic wfcs +    2 random wfc

     total cpu time spent up to now is       57.4 secs

     Self-consistent Calculation

     iteration #  1     ecut=    40.42 Ry     beta=0.10
     Davidson diagonalization with overlap
     ethr =  1.00E-02,  avg # of iterations =  9.3

     negative rho (up, down):  1.722E-02 1.080E-02
 
     Magnetic moment per site:
     atom:    1    charge:    3.2053    magn:    0.7339    constr:    0.0000
     atom:    2    charge:    1.9680    magn:    0.8866    constr:    0.0000
     atom:    3    charge:    3.2088    magn:    0.7413    constr:    0.0000
     atom:    4    charge:    1.9731    magn:    0.8899    constr:    0.0000
     atom:    5    charge:    3.1877    magn:    0.7247    constr:    0.0000
     atom:    6    charge:    1.9616    magn:    0.8896    constr:    0.0000
     atom:    7    charge:    3.1849    magn:    0.7291    constr:    0.0000
     atom:    8    charge:    1.9510    magn:    0.9075    constr:    0.0000
     atom:    9    charge:    3.2053    magn:    0.7339    constr:    0.0000
     atom:   10    charge:    1.9680    magn:    0.8865    constr:    0.0000
     atom:   11    charge:    3.2076    magn:    0.7398    constr:    0.0000
     atom:   12    charge:    1.9731    magn:    0.8899    constr:    0.0000
     atom:   13    charge:    3.1877    magn:    0.7247    constr:    0.0000
     atom:   14    charge:    1.9684    magn:    0.8888    constr:    0.0000
     atom:   15    charge:    3.1853    magn:    0.7257    constr:    0.0000
     atom:   16    charge:    1.9510    magn:    0.9075    constr:    0.0000
     atom:   17    charge:    1.9561    magn:    0.8876    constr:    0.0000
     atom:   18    charge:    3.2363    magn:    0.7700    constr:    0.0000
     atom:   19    charge:    1.9652    magn:    0.8867    constr:    0.0000
     atom:   20    charge:    1.9727    magn:    0.8914    constr:    0.0000
     atom:   21    charge:    1.9727    magn:    0.8914    constr:    0.0000
     atom:   22    charge:    3.2067    magn:    0.7388    constr:    0.0000
     atom:   23    charge:    1.9746    magn:    0.8894    constr:    0.0000
     atom:   24    charge:    1.9637    magn:    0.8882    constr:    0.0000
     atom:   25    charge:    1.9731    magn:    0.8899    constr:    0.0000
     atom:   26    charge:    3.1874    magn:    0.7246    constr:    0.0000
     atom:   27    charge:    1.9537    magn:    0.8951    constr:    0.0000
     atom:   28    charge:    1.9708    magn:    0.8898    constr:    0.0000
     atom:   29    charge:    1.9687    magn:    0.8888    constr:    0.0000
     atom:   30    charge:    3.1883    magn:    0.7288    constr:    0.0000
     atom:   31    charge:    1.9238    magn:    0.9343    constr:    0.0000
     atom:   32    charge:    1.9494    magn:    0.9084    constr:    0.0000
     atom:   33    charge:    1.9561    magn:    0.8876    constr:    0.0000
     atom:   34    charge:    3.2363    magn:    0.7699    constr:    0.0000
     atom:   35    charge:    1.9651    magn:    0.8868    constr:    0.0000
     atom:   36    charge:    1.9727    magn:    0.8914    constr:    0.0000
     atom:   37    charge:    1.9727    magn:    0.8914    constr:    0.0000
     atom:   38    charge:    3.2067    magn:    0.7388    constr:    0.0000
     atom:   39    charge:    1.9709    magn:    0.8891    constr:    0.0000
     atom:   40    charge:    1.9639    magn:    0.8882    constr:    0.0000
     atom:   41    charge:    1.9731    magn:    0.8899    constr:    0.0000
     atom:   42    charge:    3.1951    magn:    0.7263    constr:    0.0000
     atom:   43    charge:    1.9540    magn:    0.8948    constr:    0.0000
     atom:   44    charge:    1.9708    magn:    0.8898    constr:    0.0000
     atom:   45    charge:    1.9687    magn:    0.8888    constr:    0.0000
     atom:   46    charge:    3.1883    magn:    0.7288    constr:    0.0000
     atom:   47    charge:    1.9299    magn:    0.9301    constr:    0.0000
     atom:   48    charge:    1.9494    magn:    0.9084    constr:    0.0000
     atom:   49    charge:    1.9282    magn:    0.9342    constr:    0.0000
     atom:   50    charge:    0.3482    magn:    0.0543    constr:    0.0000

     total cpu time spent up to now is      457.4 secs

     total energy              =   -2986.82316371 Ry
     Harris-Foulkes estimate   =   -2996.97040519 Ry
     estimated scf accuracy    <      70.75563488 Ry

     total magnetization       =    16.05 Bohr mag/cell
     absolute magnetization    =    26.34 Bohr mag/cell

     iteration #  2     ecut=    40.42 Ry     beta=0.10
     Davidson diagonalization with overlap
     ethr =  1.00E-02,  avg # of iterations =  5.1

     negative rho (up, down):  1.606E-02 1.027E-02
 
     Magnetic moment per site:
     atom:    1    charge:    3.1995    magn:    0.7257    constr:    0.0000
     atom:    2    charge:    1.9563    magn:    0.8816    constr:    0.0000
     atom:    3    charge:    3.2039    magn:    0.7333    constr:    0.0000
     atom:    4    charge:    1.9661    magn:    0.8881    constr:    0.0000
     atom:    5    charge:    3.1942    magn:    0.7235    constr:    0.0000
     atom:    6    charge:    1.9649    magn:    0.8809    constr:    0.0000
     atom:    7    charge:    3.2109    magn:    0.7214    constr:    0.0000
     atom:    8    charge:    1.9571    magn:    0.8980    constr:    0.0000
     atom:    9    charge:    3.1995    magn:    0.7257    constr:    0.0000
     atom:   10    charge:    1.9563    magn:    0.8816    constr:    0.0000
     atom:   11    charge:    3.2027    magn:    0.7319    constr:    0.0000
     atom:   12    charge:    1.9661    magn:    0.8881    constr:    0.0000
     atom:   13    charge:    3.1942    magn:    0.7235    constr:    0.0000
     atom:   14    charge:    1.9723    magn:    0.8798    constr:    0.0000
     atom:   15    charge:    3.2108    magn:    0.7184    constr:    0.0000
     atom:   16    charge:    1.9571    magn:    0.8980    constr:    0.0000
     atom:   17    charge:    1.9393    magn:    0.8773    constr:    0.0000
     atom:   18    charge:    3.2296    magn:    0.7612    constr:    0.0000
     atom:   19    charge:    1.9543    magn:    0.8824    constr:    0.0000
     atom:   20    charge:    1.9575    magn:    0.8830    constr:    0.0000
     atom:   21    charge:    1.9575    magn:    0.8830    constr:    0.0000
     atom:   22    charge:    3.2020    magn:    0.7308    constr:    0.0000
     atom:   23    charge:    1.9747    magn:    0.8818    constr:    0.0000
     atom:   24    charge:    1.9613    magn:    0.8826    constr:    0.0000
     atom:   25    charge:    1.9661    magn:    0.8881    constr:    0.0000
     atom:   26    charge:    3.1947    magn:    0.7235    constr:    0.0000
     atom:   27    charge:    1.9581    magn:    0.8860    constr:    0.0000
     atom:   28    charge:    1.9725    magn:    0.8814    constr:    0.0000
     atom:   29    charge:    1.9703    magn:    0.8804    constr:    0.0000
     atom:   30    charge:    3.2147    magn:    0.7209    constr:    0.0000
     atom:   31    charge:    1.9317    magn:    0.9244    constr:    0.0000
     atom:   32    charge:    1.9556    magn:    0.8990    constr:    0.0000
     atom:   33    charge:    1.9393    magn:    0.8773    constr:    0.0000
     atom:   34    charge:    3.2296    magn:    0.7612    constr:    0.0000
     atom:   35    charge:    1.9543    magn:    0.8824    constr:    0.0000
     atom:   36    charge:    1.9575    magn:    0.8830    constr:    0.0000
     atom:   37    charge:    1.9575    magn:    0.8830    constr:    0.0000
     atom:   38    charge:    3.2020    magn:    0.7308    constr:    0.0000
     atom:   39    charge:    1.9709    magn:    0.8816    constr:    0.0000
     atom:   40    charge:    1.9616    magn:    0.8826    constr:    0.0000
     atom:   41    charge:    1.9661    magn:    0.8881    constr:    0.0000
     atom:   42    charge:    3.2023    magn:    0.7252    constr:    0.0000
     atom:   43    charge:    1.9585    magn:    0.8857    constr:    0.0000
     atom:   44    charge:    1.9725    magn:    0.8814    constr:    0.0000
     atom:   45    charge:    1.9703    magn:    0.8804    constr:    0.0000
     atom:   46    charge:    3.2147    magn:    0.7209    constr:    0.0000
     atom:   47    charge:    1.9374    magn:    0.9203    constr:    0.0000
     atom:   48    charge:    1.9556    magn:    0.8990    constr:    0.0000
     atom:   49    charge:    1.9349    magn:    0.9247    constr:    0.0000
     atom:   50    charge:    0.3494    magn:    0.0534    constr:    0.0000

     total cpu time spent up to now is      705.6 secs

     total energy              =   -2959.92133530 Ry
     Harris-Foulkes estimate   =   -3031.35819819 Ry
     estimated scf accuracy    <    2925.63406451 Ry

     total magnetization       =    37.16 Bohr mag/cell
     absolute magnetization    =    40.11 Bohr mag/cell

     iteration #  3     ecut=    40.42 Ry     beta=0.10
     Davidson diagonalization with overlap
     ethr =  1.00E-02,  avg # of iterations =  4.6

     negative rho (up, down):  1.562E-02 1.039E-02
 
     Magnetic moment per site:
     atom:    1    charge:    3.2018    magn:    0.7054    constr:    0.0000
     atom:    2    charge:    1.9619    magn:    0.8503    constr:    0.0000
     atom:    3    charge:    3.1922    magn:    0.7008    constr:    0.0000
     atom:    4    charge:    1.9699    magn:    0.8573    constr:    0.0000
     atom:    5    charge:    3.1842    magn:    0.6922    constr:    0.0000
     atom:    6    charge:    1.9639    magn:    0.8544    constr:    0.0000
     atom:    7    charge:    3.2012    magn:    0.6892    constr:    0.0000
     atom:    8    charge:    1.9640    magn:    0.8657    constr:    0.0000
     atom:    9    charge:    3.2018    magn:    0.7054    constr:    0.0000
     atom:   10    charge:    1.9619    magn:    0.8503    constr:    0.0000
     atom:   11    charge:    3.1913    magn:    0.6994    constr:    0.0000
     atom:   12    charge:    1.9699    magn:    0.8573    constr:    0.0000
     atom:   13    charge:    3.1842    magn:    0.6922    constr:    0.0000
     atom:   14    charge:    1.9749    magn:    0.8492    constr:    0.0000
     atom:   15    charge:    3.2015    magn:    0.6863    constr:    0.0000
     atom:   16    charge:    1.9640    magn:    0.8657    constr:    0.0000
     atom:   17    charge:    1.9445    magn:    0.8468    constr:    0.0000
     atom:   18    charge:    3.2151    magn:    0.7292    constr:    0.0000
     atom:   19    charge:    1.9588    magn:    0.8511    constr:    0.0000
     atom:   20    charge:    1.9623    magn:    0.8512    constr:    0.0000
     atom:   21    charge:    1.9623    magn:    0.8512    constr:    0.0000
     atom:   22    charge:    3.1905    magn:    0.6982    constr:    0.0000
     atom:   23    charge:    1.9770    magn:    0.8513    constr:    0.0000
     atom:   24    charge:    1.9616    magn:    0.8540    constr:    0.0000
     atom:   25    charge:    1.9699    magn:    0.8573    constr:    0.0000
     atom:   26    charge:    3.1846    magn:    0.6921    constr:    0.0000
     atom:   27    charge:    1.9615    magn:    0.8560    constr:    0.0000
     atom:   28    charge:    1.9707    magn:    0.8552    constr:    0.0000
     atom:   29    charge:    1.9686    magn:    0.8543    constr:    0.0000
     atom:   30    charge:    3.2052    magn:    0.6887    constr:    0.0000
     atom:   31    charge:    1.9448    magn:    0.8908    constr:    0.0000
     atom:   32    charge:    1.9627    magn:    0.8666    constr:    0.0000
     atom:   33    charge:    1.9445    magn:    0.8468    constr:    0.0000
     atom:   34    charge:    3.2151    magn:    0.7292    constr:    0.0000
     atom:   35    charge:    1.9589    magn:    0.8510    constr:    0.0000
     atom:   36    charge:    1.9623    magn:    0.8512    constr:    0.0000
     atom:   37    charge:    1.9623    magn:    0.8512    constr:    0.0000
     atom:   38    charge:    3.1905    magn:    0.6982    constr:    0.0000
     atom:   39    charge:    1.9698    magn:    0.8545    constr:    0.0000
     atom:   40    charge:    1.9621    magn:    0.8538    constr:    0.0000
     atom:   41    charge:    1.9699    magn:    0.8573    constr:    0.0000
     atom:   42    charge:    3.1922    magn:    0.6938    constr:    0.0000
     atom:   43    charge:    1.9615    magn:    0.8558    constr:    0.0000
     atom:   44    charge:    1.9707    magn:    0.8552    constr:    0.0000
     atom:   45    charge:    1.9686    magn:    0.8543    constr:    0.0000
     atom:   46    charge:    3.2052    magn:    0.6887    constr:    0.0000
     atom:   47    charge:    1.9496    magn:    0.8869    constr:    0.0000
     atom:   48    charge:    1.9627    magn:    0.8666    constr:    0.0000
     atom:   49    charge:    1.9460    magn:    0.8914    constr:    0.0000
     atom:   50    charge:    0.3505    magn:    0.0498    constr:    0.0000

     total cpu time spent up to now is      927.1 secs

     total energy              =   -2997.95593572 Ry
     Harris-Foulkes estimate   =   -2998.05990859 Ry
     estimated scf accuracy    <      21.11806854 Ry

     total magnetization       =     7.21 Bohr mag/cell
     absolute magnetization    =    20.65 Bohr mag/cell

     iteration #  4     ecut=    40.42 Ry     beta=0.10
     Davidson diagonalization with overlap
     ethr =  5.40E-03,  avg # of iterations =  3.3

     negative rho (up, down):  1.527E-02 1.059E-02
 
     Magnetic moment per site:
     atom:    1    charge:    3.2036    magn:    0.7101    constr:    0.0000
     atom:    2    charge:    1.9611    magn:    0.8546    constr:    0.0000
     atom:    3    charge:    3.1935    magn:    0.7051    constr:    0.0000
     atom:    4    charge:    1.9693    magn:    0.8615    constr:    0.0000
     atom:    5    charge:    3.1854    magn:    0.6965    constr:    0.0000
     atom:    6    charge:    1.9635    magn:    0.8585    constr:    0.0000
     atom:    7    charge:    3.2028    magn:    0.6935    constr:    0.0000
     atom:    8    charge:    1.9634    magn:    0.8699    constr:    0.0000
     atom:    9    charge:    3.2036    magn:    0.7101    constr:    0.0000
     atom:   10    charge:    1.9612    magn:    0.8546    constr:    0.0000
     atom:   11    charge:    3.1926    magn:    0.7037    constr:    0.0000
     atom:   12    charge:    1.9693    magn:    0.8615    constr:    0.0000
     atom:   13    charge:    3.1854    magn:    0.6965    constr:    0.0000
     atom:   14    charge:    1.9745    magn:    0.8534    constr:    0.0000
     atom:   15    charge:    3.2030    magn:    0.6906    constr:    0.0000
     atom:   16    charge:    1.9634    magn:    0.8699    constr:    0.0000
     atom:   17    charge:    1.9438    magn:    0.8509    constr:    0.0000
     atom:   18    charge:    3.2170    magn:    0.7337    constr:    0.0000
     atom:   19    charge:    1.9582    magn:    0.8553    constr:    0.0000
     atom:   20    charge:    1.9616    magn:    0.8554    constr:    0.0000
     atom:   21    charge:    1.9615    magn:    0.8554    constr:    0.0000
     atom:   22    charge:    3.1917    magn:    0.7025    constr:    0.0000
     atom:   23    charge:    1.9766    magn:    0.8555    constr:    0.0000
     atom:   24    charge:    1.9612    magn:    0.8582    constr:    0.0000
     atom:   25    charge:    1.9693    magn:    0.8615    constr:    0.0000
     atom:   26    charge:    3.1859    magn:    0.6965    constr:    0.0000
     atom:   27    charge:    1.9612    magn:    0.8600    constr:    0.0000
     atom:   28    charge:    1.9702    magn:    0.8594    constr:    0.0000
     atom:   29    charge:    1.9681    magn:    0.8585    constr:    0.0000
     atom:   30    charge:    3.2067    magn:    0.6930    constr:    0.0000
     atom:   31    charge:    1.9436    magn:    0.8951    constr:    0.0000
     atom:   32    charge:    1.9621    magn:    0.8708    constr:    0.0000
     atom:   33    charge:    1.9438    magn:    0.8509    constr:    0.0000
     atom:   34    charge:    3.2170    magn:    0.7337    constr:    0.0000
     atom:   35    charge:    1.9582    magn:    0.8553    constr:    0.0000
     atom:   36    charge:    1.9616    magn:    0.8554    constr:    0.0000
     atom:   37    charge:    1.9615    magn:    0.8554    constr:    0.0000
     atom:   38    charge:    3.1917    magn:    0.7025    constr:    0.0000
     atom:   39    charge:    1.9692    magn:    0.8587    constr:    0.0000
     atom:   40    charge:    1.9616    magn:    0.8580    constr:    0.0000
     atom:   41    charge:    1.9693    magn:    0.8615    constr:    0.0000
     atom:   42    charge:    3.1934    magn:    0.6981    constr:    0.0000
     atom:   43    charge:    1.9612    magn:    0.8598    constr:    0.0000
     atom:   44    charge:    1.9702    magn:    0.8594    constr:    0.0000
     atom:   45    charge:    1.9681    magn:    0.8585    constr:    0.0000
     atom:   46    charge:    3.2067    magn:    0.6930    constr:    0.0000
     atom:   47    charge:    1.9485    magn:    0.8912    constr:    0.0000
     atom:   48    charge:    1.9621    magn:    0.8708    constr:    0.0000
     atom:   49    charge:    1.9449    magn:    0.8957    constr:    0.0000
     atom:   50    charge:    0.3504    magn:    0.0503    constr:    0.0000

     total cpu time spent up to now is     1115.2 secs

     total energy              =   -2998.21313668 Ry
     Harris-Foulkes estimate   =   -2998.25986018 Ry
     estimated scf accuracy    <      11.27817083 Ry

     total magnetization       =     1.38 Bohr mag/cell
     absolute magnetization    =    17.74 Bohr mag/cell

     iteration #  5     ecut=    40.42 Ry     beta=0.10
     Davidson diagonalization with overlap
     ethr =  2.88E-03,  avg # of iterations =  5.5

     negative rho (up, down):  1.530E-02 1.056E-02
 
     Magnetic moment per site:
     atom:    1    charge:    3.1117    magn:    0.3888    constr:    0.0000
     atom:    2    charge:    1.9994    magn:    0.5663    constr:    0.0000
     atom:    3    charge:    3.1248    magn:    0.4230    constr:    0.0000
     atom:    4    charge:    1.9999    magn:    0.5750    constr:    0.0000
     atom:    5    charge:    3.1253    magn:    0.4069    constr:    0.0000
     atom:    6    charge:    1.9769    magn:    0.5880    constr:    0.0000
     atom:    7    charge:    3.1306    magn:    0.4053    constr:    0.0000
     atom:    8    charge:    1.9844    magn:    0.5907    constr:    0.0000
     atom:    9    charge:    3.1117    magn:    0.3888    constr:    0.0000
     atom:   10    charge:    1.9997    magn:    0.5662    constr:    0.0000
     atom:   11    charge:    3.1263    magn:    0.4213    constr:    0.0000
     atom:   12    charge:    1.9999    magn:    0.5750    constr:    0.0000
     atom:   13    charge:    3.1253    magn:    0.4069    constr:    0.0000
     atom:   14    charge:    1.9910    magn:    0.5759    constr:    0.0000
     atom:   15    charge:    3.1318    magn:    0.4031    constr:    0.0000
     atom:   16    charge:    1.9844    magn:    0.5907    constr:    0.0000
     atom:   17    charge:    1.9745    magn:    0.5711    constr:    0.0000
     atom:   18    charge:    3.1033    magn:    0.4440    constr:    0.0000
     atom:   19    charge:    1.9885    magn:    0.5729    constr:    0.0000
     atom:   20    charge:    1.9989    magn:    0.5718    constr:    0.0000
     atom:   21    charge:    1.9990    magn:    0.5720    constr:    0.0000
     atom:   22    charge:    3.1262    magn:    0.4185    constr:    0.0000
     atom:   23    charge:    1.9999    magn:    0.5746    constr:    0.0000
     atom:   24    charge:    1.9821    magn:    0.5776    constr:    0.0000
     atom:   25    charge:    1.9998    magn:    0.5750    constr:    0.0000
     atom:   26    charge:    3.1278    magn:    0.4065    constr:    0.0000
     atom:   27    charge:    1.9728    magn:    0.5917    constr:    0.0000
     atom:   28    charge:    1.9912    magn:    0.5838    constr:    0.0000
     atom:   29    charge:    1.9890    magn:    0.5831    constr:    0.0000
     atom:   30    charge:    3.1353    magn:    0.4036    constr:    0.0000
     atom:   31    charge:    1.9977    magn:    0.6011    constr:    0.0000
     atom:   32    charge:    1.9840    magn:    0.5917    constr:    0.0000
     atom:   33    charge:    1.9746    magn:    0.5710    constr:    0.0000
     atom:   34    charge:    3.1037    magn:    0.4442    constr:    0.0000
     atom:   35    charge:    1.9885    magn:    0.5733    constr:    0.0000
     atom:   36    charge:    1.9989    magn:    0.5718    constr:    0.0000
     atom:   37    charge:    1.9990    magn:    0.5720    constr:    0.0000
     atom:   38    charge:    3.1262    magn:    0.4185    constr:    0.0000
     atom:   39    charge:    1.9924    magn:    0.5765    constr:    0.0000
     atom:   40    charge:    1.9824    magn:    0.5776    constr:    0.0000
     atom:   41    charge:    1.9998    magn:    0.5750    constr:    0.0000
     atom:   42    charge:    3.1350    magn:    0.4075    constr:    0.0000
     atom:   43    charge:    1.9732    magn:    0.5914    constr:    0.0000
     atom:   44    charge:    1.9912    magn:    0.5838    constr:    0.0000
     atom:   45    charge:    1.9890    magn:    0.5831    constr:    0.0000
     atom:   46    charge:    3.1353    magn:    0.4036    constr:    0.0000
     atom:   47    charge:    1.9925    magn:    0.6037    constr:    0.0000
     atom:   48    charge:    1.9840    magn:    0.5917    constr:    0.0000
     atom:   49    charge:    1.9996    magn:    0.6025    constr:    0.0000
     atom:   50    charge:    0.3594    magn:    0.0193    constr:    0.0000

     total cpu time spent up to now is     1344.6 secs

     total energy              =   -3000.94365008 Ry
     Harris-Foulkes estimate   =   -2998.21752361 Ry
     estimated scf accuracy    <      11.53427441 Ry

     total magnetization       =     1.32 Bohr mag/cell
     absolute magnetization    =    17.78 Bohr mag/cell

     iteration #  6     ecut=    40.42 Ry     beta=0.10
     Davidson diagonalization with overlap
     ethr =  2.88E-03,  avg # of iterations =  3.8

     negative rho (up, down):  1.500E-02 1.071E-02
 
     Magnetic moment per site:
     atom:    1    charge:    3.0986    magn:    0.3401    constr:    0.0000
     atom:    2    charge:    2.0015    magn:    0.5213    constr:    0.0000
     atom:    3    charge:    3.1127    magn:    0.3770    constr:    0.0000
     atom:    4    charge:    2.0011    magn:    0.5312    constr:    0.0000
     atom:    5    charge:    3.1153    magn:    0.3623    constr:    0.0000
     atom:    6    charge:    1.9774    magn:    0.5455    constr:    0.0000
     atom:    7    charge:    3.1217    magn:    0.3599    constr:    0.0000
     atom:    8    charge:    1.9873    magn:    0.5472    constr:    0.0000
     atom:    9    charge:    3.0986    magn:    0.3401    constr:    0.0000
     atom:   10    charge:    2.0017    magn:    0.5212    constr:    0.0000
     atom:   11    charge:    3.1145    magn:    0.3752    constr:    0.0000
     atom:   12    charge:    2.0011    magn:    0.5312    constr:    0.0000
     atom:   13    charge:    3.1153    magn:    0.3623    constr:    0.0000
     atom:   14    charge:    1.9929    magn:    0.5316    constr:    0.0000
     atom:   15    charge:    3.1229    magn:    0.3578    constr:    0.0000
     atom:   16    charge:    1.9873    magn:    0.5472    constr:    0.0000
     atom:   17    charge:    1.9746    magn:    0.5266    constr:    0.0000
     atom:   18    charge:    3.1081    magn:    0.4003    constr:    0.0000
     atom:   19    charge:    1.9911    magn:    0.5290    constr:    0.0000
     atom:   20    charge:    2.0026    magn:    0.5265    constr:    0.0000
     atom:   21    charge:    2.0027    magn:    0.5266    constr:    0.0000
     atom:   22    charge:    3.1148    magn:    0.3724    constr:    0.0000
     atom:   23    charge:    2.0012    magn:    0.5303    constr:    0.0000
     atom:   24    charge:    1.9816    magn:    0.5350    constr:    0.0000
     atom:   25    charge:    2.0011    magn:    0.5312    constr:    0.0000
     atom:   26    charge:    3.1179    magn:    0.3619    constr:    0.0000
     atom:   27    charge:    1.9736    magn:    0.5498    constr:    0.0000
     atom:   28    charge:    1.9928    magn:    0.5403    constr:    0.0000
     atom:   29    charge:    1.9906    magn:    0.5397    constr:    0.0000
     atom:   30    charge:    3.1262    magn:    0.3584    constr:    0.0000
     atom:   31    charge:    2.0039    magn:    0.5575    constr:    0.0000
     atom:   32    charge:    1.9873    magn:    0.5481    constr:    0.0000
     atom:   33    charge:    1.9748    magn:    0.5265    constr:    0.0000
     atom:   34    charge:    3.1084    magn:    0.4005    constr:    0.0000
     atom:   35    charge:    1.9910    magn:    0.5294    constr:    0.0000
     atom:   36    charge:    2.0026    magn:    0.5265    constr:    0.0000
     atom:   37    charge:    2.0027    magn:    0.5266    constr:    0.0000
     atom:   38    charge:    3.1148    magn:    0.3724    constr:    0.0000
     atom:   39    charge:    1.9936    magn:    0.5329    constr:    0.0000
     atom:   40    charge:    1.9819    magn:    0.5350    constr:    0.0000
     atom:   41    charge:    2.0011    magn:    0.5312    constr:    0.0000
     atom:   42    charge:    3.1251    magn:    0.3627    constr:    0.0000
     atom:   43    charge:    1.9741    magn:    0.5494    constr:    0.0000
     atom:   44    charge:    1.9928    magn:    0.5403    constr:    0.0000
     atom:   45    charge:    1.9906    magn:    0.5397    constr:    0.0000
     atom:   46    charge:    3.1262    magn:    0.3584    constr:    0.0000
     atom:   47    charge:    1.9981    magn:    0.5604    constr:    0.0000
     atom:   48    charge:    1.9873    magn:    0.5481    constr:    0.0000
     atom:   49    charge:    2.0055    magn:    0.5589    constr:    0.0000
     atom:   50    charge:    0.3612    magn:    0.0145    constr:    0.0000

     total cpu time spent up to now is     1549.4 secs

     total energy              =   -3004.81496954 Ry
     Harris-Foulkes estimate   =   -3005.17270982 Ry
     estimated scf accuracy    <     208.14476557 Ry

     total magnetization       =    21.65 Bohr mag/cell
     absolute magnetization    =    26.58 Bohr mag/cell

     iteration #  7     ecut=    40.42 Ry     beta=0.10
     Davidson diagonalization with overlap
     ethr =  2.88E-03,  avg # of iterations =  1.3

     negative rho (up, down):  1.465E-02 1.092E-02
 
     Magnetic moment per site:
     atom:    1    charge:    3.1074    magn:    0.3367    constr:    0.0000
     atom:    2    charge:    1.9955    magn:    0.5152    constr:    0.0000
     atom:    3    charge:    3.1141    magn:    0.3676    constr:    0.0000
     atom:    4    charge:    1.9968    magn:    0.5244    constr:    0.0000
     atom:    5    charge:    3.1160    magn:    0.3553    constr:    0.0000
     atom:    6    charge:    1.9752    magn:    0.5374    constr:    0.0000
     atom:    7    charge:    3.1239    magn:    0.3532    constr:    0.0000
     atom:    8    charge:    1.9857    magn:    0.5405    constr:    0.0000
     atom:    9    charge:    3.1074    magn:    0.3367    constr:    0.0000
     atom:   10    charge:    1.9958    magn:    0.5152    constr:    0.0000
     atom:   11    charge:    3.1153    magn:    0.3659    constr:    0.0000
     atom:   12    charge:    1.9968    magn:    0.5244    constr:    0.0000
     atom:   13    charge:    3.1160    magn:    0.3553    constr:    0.0000
     atom:   14    charge:    1.9918    magn:    0.5230    constr:    0.0000
     atom:   15    charge:    3.1250    magn:    0.3507    constr:    0.0000
     atom:   16    charge:    1.9857    magn:    0.5405    constr:    0.0000
     atom:   17    charge:    1.9644    magn:    0.5213    constr:    0.0000
     atom:   18    charge:    3.1235    magn:    0.4016    constr:    0.0000
     atom:   19    charge:    1.9869    magn:    0.5223    constr:    0.0000
     atom:   20    charge:    1.9964    magn:    0.5201    constr:    0.0000
     atom:   21    charge:    1.9965    magn:    0.5202    constr:    0.0000
     atom:   22    charge:    3.1162    magn:    0.3636    constr:    0.0000
     atom:   23    charge:    1.9991    magn:    0.5214    constr:    0.0000
     atom:   24    charge:    1.9781    magn:    0.5281    constr:    0.0000
     atom:   25    charge:    1.9968    magn:    0.5244    constr:    0.0000
     atom:   26    charge:    3.1182    magn:    0.3552    constr:    0.0000
     atom:   27    charge:    1.9726    magn:    0.5421    constr:    0.0000
     atom:   28    charge:    1.9899    magn:    0.5325    constr:    0.0000
     atom:   29    charge:    1.9877    magn:    0.5319    constr:    0.0000
     atom:   30    charge:    3.1281    magn:    0.3521    constr:    0.0000
     atom:   31    charge:    1.9975    magn:    0.5543    constr:    0.0000
     atom:   32    charge:    1.9858    magn:    0.5414    constr:    0.0000
     atom:   33    charge:    1.9644    magn:    0.5212    constr:    0.0000
     atom:   34    charge:    3.1234    magn:    0.4023    constr:    0.0000
     atom:   35    charge:    1.9870    magn:    0.5224    constr:    0.0000
     atom:   36    charge:    1.9964    magn:    0.5201    constr:    0.0000
     atom:   37    charge:    1.9965    magn:    0.5202    constr:    0.0000
     atom:   38    charge:    3.1162    magn:    0.3636    constr:    0.0000
     atom:   39    charge:    1.9907    magn:    0.5252    constr:    0.0000
     atom:   40    charge:    1.9784    magn:    0.5281    constr:    0.0000
     atom:   41    charge:    1.9968    magn:    0.5244    constr:    0.0000
     atom:   42    charge:    3.1254    magn:    0.3560    constr:    0.0000
     atom:   43    charge:    1.9727    magn:    0.5420    constr:    0.0000
     atom:   44    charge:    1.9899    magn:    0.5325    constr:    0.0000
     atom:   45    charge:    1.9877    magn:    0.5319    constr:    0.0000
     atom:   46    charge:    3.1281    magn:    0.3521    constr:    0.0000
     atom:   47    charge:    1.9932    magn:    0.5561    constr:    0.0000
     atom:   48    charge:    1.9858    magn:    0.5414    constr:    0.0000
     atom:   49    charge:    1.9989    magn:    0.5561    constr:    0.0000
     atom:   50    charge:    0.3619    magn:    0.0141    constr:    0.0000

     total cpu time spent up to now is     1706.8 secs

     total energy              =   -3003.65309066 Ry
     Harris-Foulkes estimate   =   -3005.02343486 Ry
     estimated scf accuracy    <     144.16049984 Ry

     total magnetization       =    19.27 Bohr mag/cell
     absolute magnetization    =    25.12 Bohr mag/cell

     iteration #  8     ecut=    40.42 Ry     beta=0.10
     Davidson diagonalization with overlap
     ethr =  2.88E-03,  avg # of iterations =  1.0

     negative rho (up, down):  1.446E-02 1.112E-02
 
     Magnetic moment per site:
     atom:    1    charge:    3.1147    magn:    0.3230    constr:    0.0000
     atom:    2    charge:    1.9857    magn:    0.5010    constr:    0.0000
     atom:    3    charge:    3.1222    magn:    0.3511    constr:    0.0000
     atom:    4    charge:    1.9873    magn:    0.5099    constr:    0.0000
     atom:    5    charge:    3.1206    magn:    0.3404    constr:    0.0000
     atom:    6    charge:    1.9693    magn:    0.5215    constr:    0.0000
     atom:    7    charge:    3.1292    magn:    0.3375    constr:    0.0000
     atom:    8    charge:    1.9787    magn:    0.5263    constr:    0.0000
     atom:    9    charge:    3.1147    magn:    0.3230    constr:    0.0000
     atom:   10    charge:    1.9861    magn:    0.5008    constr:    0.0000
     atom:   11    charge:    3.1226    magn:    0.3493    constr:    0.0000
     atom:   12    charge:    1.9873    magn:    0.5099    constr:    0.0000
     atom:   13    charge:    3.1206    magn:    0.3404    constr:    0.0000
     atom:   14    charge:    1.9848    magn:    0.5073    constr:    0.0000
     atom:   15    charge:    3.1291    magn:    0.3361    constr:    0.0000
     atom:   16    charge:    1.9787    magn:    0.5263    constr:    0.0000
     atom:   17    charge:    1.9555    magn:    0.5074    constr:    0.0000
     atom:   18    charge:    3.1368    magn:    0.4417    constr:    0.0000
     atom:   19    charge:    1.9752    magn:    0.5085    constr:    0.0000
     atom:   20    charge:    1.9858    magn:    0.5085    constr:    0.0000
     atom:   21    charge:    1.9858    magn:    0.5086    constr:    0.0000
     atom:   22    charge:    3.1245    magn:    0.3495    constr:    0.0000
     atom:   23    charge:    1.9908    magn:    0.5052    constr:    0.0000
     atom:   24    charge:    1.9686    magn:    0.5151    constr:    0.0000
     atom:   25    charge:    1.9872    magn:    0.5100    constr:    0.0000
     atom:   26    charge:    3.1222    magn:    0.3404    constr:    0.0000
     atom:   27    charge:    1.9691    magn:    0.5254    constr:    0.0000
     atom:   28    charge:    1.9815    magn:    0.5179    constr:    0.0000
     atom:   29    charge:    1.9792    magn:    0.5174    constr:    0.0000
     atom:   30    charge:    3.1332    magn:    0.3367    constr:    0.0000
     atom:   31    charge:    1.9873    magn:    0.5409    constr:    0.0000
     atom:   32    charge:    1.9784    magn:    0.5274    constr:    0.0000
     atom:   33    charge:    1.9556    magn:    0.5074    constr:    0.0000
     atom:   34    charge:    3.1370    magn:    0.4420    constr:    0.0000
     atom:   35    charge:    1.9754    magn:    0.5083    constr:    0.0000
     atom:   36    charge:    1.9858    magn:    0.5085    constr:    0.0000
     atom:   37    charge:    1.9858    magn:    0.5086    constr:    0.0000
     atom:   38    charge:    3.1245    magn:    0.3495    constr:    0.0000
     atom:   39    charge:    1.9806    magn:    0.5119    constr:    0.0000
     atom:   40    charge:    1.9693    magn:    0.5148    constr:    0.0000
     atom:   41    charge:    1.9872    magn:    0.5100    constr:    0.0000
     atom:   42    charge:    3.1297    magn:    0.3410    constr:    0.0000
     atom:   43    charge:    1.9697    magn:    0.5248    constr:    0.0000
     atom:   44    charge:    1.9815    magn:    0.5179    constr:    0.0000
     atom:   45    charge:    1.9792    magn:    0.5174    constr:    0.0000
     atom:   46    charge:    3.1332    magn:    0.3367    constr:    0.0000
     atom:   47    charge:    1.9840    magn:    0.5422    constr:    0.0000
     atom:   48    charge:    1.9784    magn:    0.5274    constr:    0.0000
     atom:   49    charge:    1.9925    magn:    0.5411    constr:    0.0000
     atom:   50    charge:    0.3638    magn:    0.0131    constr:    0.0000

     total cpu time spent up to now is     1860.8 secs

     total energy              =   -3003.10755078 Ry
     Harris-Foulkes estimate   =   -3003.91565888 Ry
     estimated scf accuracy    <      57.43607596 Ry

     total magnetization       =    15.68 Bohr mag/cell
     absolute magnetization    =    23.34 Bohr mag/cell

     iteration #  9     ecut=    40.42 Ry     beta=0.10
     Davidson diagonalization with overlap
     ethr =  2.88E-03,  avg # of iterations =  1.0

     negative rho (up, down):  1.540E-02 1.183E-02
 
     Magnetic moment per site:
     atom:    1    charge:    3.0986    magn:    0.0504    constr:    0.0000
     atom:    2    charge:    1.9619    magn:    0.2403    constr:    0.0000
     atom:    3    charge:    3.1092    magn:    0.0869    constr:    0.0000
     atom:    4    charge:    1.9608    magn:    0.2508    constr:    0.0000
     atom:    5    charge:    3.1034    magn:    0.0810    constr:    0.0000
     atom:    6    charge:    1.9494    magn:    0.2648    constr:    0.0000
     atom:    7    charge:    3.1060    magn:    0.0755    constr:    0.0000
     atom:    8    charge:    1.9573    magn:    0.2709    constr:    0.0000
     atom:    9    charge:    3.0986    magn:    0.0504    constr:    0.0000
     atom:   10    charge:    1.9622    magn:    0.2398    constr:    0.0000
     atom:   11    charge:    3.1093    magn:    0.0853    constr:    0.0000
     atom:   12    charge:    1.9608    magn:    0.2508    constr:    0.0000
     atom:   13    charge:    3.1034    magn:    0.0810    constr:    0.0000
     atom:   14    charge:    1.9618    magn:    0.2474    constr:    0.0000
     atom:   15    charge:    3.1035    magn:    0.0784    constr:    0.0000
     atom:   16    charge:    1.9573    magn:    0.2709    constr:    0.0000
     atom:   17    charge:    1.9310    magn:    0.2552    constr:    0.0000
     atom:   18    charge:    3.1187    magn:    0.3597    constr:    0.0000
     atom:   19    charge:    1.9489    magn:    0.2469    constr:    0.0000
     atom:   20    charge:    1.9630    magn:    0.2510    constr:    0.0000
     atom:   21    charge:    1.9630    magn:    0.2511    constr:    0.0000
     atom:   22    charge:    3.1095    magn:    0.0909    constr:    0.0000
     atom:   23    charge:    1.9623    magn:    0.2435    constr:    0.0000
     atom:   24    charge:    1.9406    magn:    0.2636    constr:    0.0000
     atom:   25    charge:    1.9610    magn:    0.2507    constr:    0.0000
     atom:   26    charge:    3.1041    magn:    0.0803    constr:    0.0000
     atom:   27    charge:    1.9494    magn:    0.2724    constr:    0.0000
     atom:   28    charge:    1.9577    magn:    0.2624    constr:    0.0000
     atom:   29    charge:    1.9555    magn:    0.2623    constr:    0.0000
     atom:   30    charge:    3.1106    magn:    0.0735    constr:    0.0000
     atom:   31    charge:    1.9834    magn:    0.2662    constr:    0.0000
     atom:   32    charge:    1.9567    magn:    0.2735    constr:    0.0000
     atom:   33    charge:    1.9311    magn:    0.2551    constr:    0.0000
     atom:   34    charge:    3.1162    magn:    0.3560    constr:    0.0000
     atom:   35    charge:    1.9490    magn:    0.2460    constr:    0.0000
     atom:   36    charge:    1.9630    magn:    0.2510    constr:    0.0000
     atom:   37    charge:    1.9630    magn:    0.2511    constr:    0.0000
     atom:   38    charge:    3.1095    magn:    0.0909    constr:    0.0000
     atom:   39    charge:    1.9529    magn:    0.2583    constr:    0.0000
     atom:   40    charge:    1.9415    magn:    0.2626    constr:    0.0000
     atom:   41    charge:    1.9610    magn:    0.2507    constr:    0.0000
     atom:   42    charge:    3.1120    magn:    0.0798    constr:    0.0000
     atom:   43    charge:    1.9535    magn:    0.2679    constr:    0.0000
     atom:   44    charge:    1.9577    magn:    0.2624    constr:    0.0000
     atom:   45    charge:    1.9555    magn:    0.2623    constr:    0.0000
     atom:   46    charge:    3.1106    magn:    0.0735    constr:    0.0000
     atom:   47    charge:    1.9696    magn:    0.2796    constr:    0.0000
     atom:   48    charge:    1.9567    magn:    0.2735    constr:    0.0000
     atom:   49    charge:    1.9889    magn:    0.2728    constr:    0.0000
     atom:   50    charge:    0.3796    magn:   -0.0109    constr:    0.0000

     total cpu time spent up to now is     2013.9 secs

     total energy              =   -3004.57259907 Ry
     Harris-Foulkes estimate   =   -3003.33693231 Ry
     estimated scf accuracy    <      15.23621754 Ry

     total magnetization       =     8.72 Bohr mag/cell
     absolute magnetization    =    18.38 Bohr mag/cell

     iteration # 10     ecut=    40.42 Ry     beta=0.10
     Davidson diagonalization with overlap
     ethr =  2.88E-03,  avg # of iterations =  1.0

     negative rho (up, down):  1.632E-02 1.242E-02
 
     Magnetic moment per site:
     atom:    1    charge:    3.1025    magn:   -0.0749    constr:    0.0000
     atom:    2    charge:    1.9459    magn:    0.1097    constr:    0.0000
     atom:    3    charge:    3.1075    magn:   -0.0408    constr:    0.0000
     atom:    4    charge:    1.9464    magn:    0.1195    constr:    0.0000
     atom:    5    charge:    3.0991    magn:   -0.0439    constr:    0.0000
     atom:    6    charge:    1.9368    magn:    0.1353    constr:    0.0000
     atom:    7    charge:    3.1005    magn:   -0.0514    constr:    0.0000
     atom:    8    charge:    1.9462    magn:    0.1391    constr:    0.0000
     atom:    9    charge:    3.1025    magn:   -0.0749    constr:    0.0000
     atom:   10    charge:    1.9461    magn:    0.1091    constr:    0.0000
     atom:   11    charge:    3.1069    magn:   -0.0420    constr:    0.0000
     atom:   12    charge:    1.9464    magn:    0.1195    constr:    0.0000
     atom:   13    charge:    3.0991    magn:   -0.0439    constr:    0.0000
     atom:   14    charge:    1.9491    magn:    0.1158    constr:    0.0000
     atom:   15    charge:    3.0980    magn:   -0.0464    constr:    0.0000
     atom:   16    charge:    1.9462    magn:    0.1391    constr:    0.0000
     atom:   17    charge:    1.9121    magn:    0.1347    constr:    0.0000
     atom:   18    charge:    3.1127    magn:    0.3024    constr:    0.0000
     atom:   19    charge:    1.9345    magn:    0.1144    constr:    0.0000
     atom:   20    charge:    1.9493    magn:    0.1193    constr:    0.0000
     atom:   21    charge:    1.9492    magn:    0.1194    constr:    0.0000
     atom:   22    charge:    3.1065    magn:   -0.0337    constr:    0.0000
     atom:   23    charge:    1.9464    magn:    0.1120    constr:    0.0000
     atom:   24    charge:    1.9280    magn:    0.1364    constr:    0.0000
     atom:   25    charge:    1.9465    magn:    0.1194    constr:    0.0000
     atom:   26    charge:    3.0989    magn:   -0.0450    constr:    0.0000
     atom:   27    charge:    1.9400    magn:    0.1415    constr:    0.0000
     atom:   28    charge:    1.9441    magn:    0.1333    constr:    0.0000
     atom:   29    charge:    1.9419    magn:    0.1333    constr:    0.0000
     atom:   30    charge:    3.1043    magn:   -0.0534    constr:    0.0000
     atom:   31    charge:    1.9625    magn:    0.1291    constr:    0.0000
     atom:   32    charge:    1.9461    magn:    0.1421    constr:    0.0000
     atom:   33    charge:    1.9122    magn:    0.1347    constr:    0.0000
     atom:   34    charge:    3.1118    magn:    0.2974    constr:    0.0000
     atom:   35    charge:    1.9342    magn:    0.1133    constr:    0.0000
     atom:   36    charge:    1.9493    magn:    0.1193    constr:    0.0000
     atom:   37    charge:    1.9492    magn:    0.1194    constr:    0.0000
     atom:   38    charge:    3.1065    magn:   -0.0337    constr:    0.0000
     atom:   39    charge:    1.9380    magn:    0.1311    constr:    0.0000
     atom:   40    charge:    1.9287    magn:    0.1351    constr:    0.0000
     atom:   41    charge:    1.9465    magn:    0.1194    constr:    0.0000
     atom:   42    charge:    3.1071    magn:   -0.0461    constr:    0.0000
     atom:   43    charge:    1.9438    magn:    0.1356    constr:    0.0000
     atom:   44    charge:    1.9441    magn:    0.1333    constr:    0.0000
     atom:   45    charge:    1.9419    magn:    0.1333    constr:    0.0000
     atom:   46    charge:    3.1043    magn:   -0.0534    constr:    0.0000
     atom:   47    charge:    1.9562    magn:    0.1447    constr:    0.0000
     atom:   48    charge:    1.9461    magn:    0.1421    constr:    0.0000
     atom:   49    charge:    1.9781    magn:    0.1336    constr:    0.0000
     atom:   50    charge:    0.3883    magn:   -0.0216    constr:    0.0000

     total cpu time spent up to now is     2167.1 secs

     total energy              =   -3005.42953140 Ry
     Harris-Foulkes estimate   =   -3005.16198470 Ry
     estimated scf accuracy    <       1.30255838 Ry

     total magnetization       =     1.00 Bohr mag/cell
     absolute magnetization    =     9.67 Bohr mag/cell

     iteration # 11     ecut=    40.42 Ry     beta=0.10
     Davidson diagonalization with overlap
     ethr =  3.33E-04,  avg # of iterations =  8.1

     negative rho (up, down):  1.585E-02 1.247E-02
 
     Magnetic moment per site:
     atom:    1    charge:    3.1143    magn:   -0.0673    constr:    0.0000
     atom:    2    charge:    1.9404    magn:    0.0996    constr:    0.0000
     atom:    3    charge:    3.1126    magn:   -0.0430    constr:    0.0000
     atom:    4    charge:    1.9448    magn:    0.1076    constr:    0.0000
     atom:    5    charge:    3.1049    magn:   -0.0454    constr:    0.0000
     atom:    6    charge:    1.9342    magn:    0.1237    constr:    0.0000
     atom:    7    charge:    3.1077    magn:   -0.0532    constr:    0.0000
     atom:    8    charge:    1.9438    magn:    0.1251    constr:    0.0000
     atom:    9    charge:    3.1143    magn:   -0.0673    constr:    0.0000
     atom:   10    charge:    1.9405    magn:    0.0992    constr:    0.0000
     atom:   11    charge:    3.1116    magn:   -0.0440    constr:    0.0000
     atom:   12    charge:    1.9448    magn:    0.1076    constr:    0.0000
     atom:   13    charge:    3.1049    magn:   -0.0454    constr:    0.0000
     atom:   14    charge:    1.9481    magn:    0.1035    constr:    0.0000
     atom:   15    charge:    3.1068    magn:   -0.0481    constr:    0.0000
     atom:   16    charge:    1.9438    magn:    0.1251    constr:    0.0000
     atom:   17    charge:    1.9065    magn:    0.1325    constr:    0.0000
     atom:   18    charge:    3.1227    magn:    0.2895    constr:    0.0000
     atom:   19    charge:    1.9327    magn:    0.1022    constr:    0.0000
     atom:   20    charge:    1.9441    magn:    0.1060    constr:    0.0000
     atom:   21    charge:    1.9441    magn:    0.1060    constr:    0.0000
     atom:   22    charge:    3.1115    magn:   -0.0356    constr:    0.0000
     atom:   23    charge:    1.9457    magn:    0.1007    constr:    0.0000
     atom:   24    charge:    1.9298    magn:    0.1250    constr:    0.0000
     atom:   25    charge:    1.9448    magn:    0.1075    constr:    0.0000
     atom:   26    charge:    3.1044    magn:   -0.0464    constr:    0.0000
     atom:   27    charge:    1.9376    magn:    0.1273    constr:    0.0000
     atom:   28    charge:    1.9420    magn:    0.1218    constr:    0.0000
     atom:   29    charge:    1.9399    magn:    0.1219    constr:    0.0000
     atom:   30    charge:    3.1099    magn:   -0.0545    constr:    0.0000
     atom:   31    charge:    1.9474    magn:    0.1183    constr:    0.0000
     atom:   32    charge:    1.9441    magn:    0.1280    constr:    0.0000
     atom:   33    charge:    1.9063    magn:    0.1327    constr:    0.0000
     atom:   34    charge:    3.1228    magn:    0.2850    constr:    0.0000
     atom:   35    charge:    1.9324    magn:    0.1011    constr:    0.0000
     atom:   36    charge:    1.9441    magn:    0.1060    constr:    0.0000
     atom:   37    charge:    1.9441    magn:    0.1060    constr:    0.0000
     atom:   38    charge:    3.1115    magn:   -0.0356    constr:    0.0000
     atom:   39    charge:    1.9376    magn:    0.1210    constr:    0.0000
     atom:   40    charge:    1.9305    magn:    0.1236    constr:    0.0000
     atom:   41    charge:    1.9448    magn:    0.1075    constr:    0.0000
     atom:   42    charge:    3.1124    magn:   -0.0474    constr:    0.0000
     atom:   43    charge:    1.9390    magn:    0.1217    constr:    0.0000
     atom:   44    charge:    1.9420    magn:    0.1218    constr:    0.0000
     atom:   45    charge:    1.9399    magn:    0.1219    constr:    0.0000
     atom:   46    charge:    3.1099    magn:   -0.0545    constr:    0.0000
     atom:   47    charge:    1.9480    magn:    0.1316    constr:    0.0000
     atom:   48    charge:    1.9441    magn:    0.1280    constr:    0.0000
     atom:   49    charge:    1.9657    magn:    0.1196    constr:    0.0000
     atom:   50    charge:    0.3904    magn:   -0.0200    constr:    0.0000

     total cpu time spent up to now is     2423.4 secs

     total energy              =   -3005.45815201 Ry
     Harris-Foulkes estimate   =   -3005.47605001 Ry
     estimated scf accuracy    <       1.10383017 Ry

     total magnetization       =     0.96 Bohr mag/cell
     absolute magnetization    =     7.10 Bohr mag/cell

     iteration # 12     ecut=    40.42 Ry     beta=0.10
     Davidson diagonalization with overlap
     ethr =  2.82E-04,  avg # of iterations =  1.3

     negative rho (up, down):  1.527E-02 1.241E-02
 
     Magnetic moment per site:
     atom:    1    charge:    3.1185    magn:   -0.0583    constr:    0.0000
     atom:    2    charge:    1.9405    magn:    0.0914    constr:    0.0000
     atom:    3    charge:    3.1133    magn:   -0.0413    constr:    0.0000
     atom:    4    charge:    1.9471    magn:    0.0974    constr:    0.0000
     atom:    5    charge:    3.1072    magn:   -0.0435    constr:    0.0000
     atom:    6    charge:    1.9366    magn:    0.1133    constr:    0.0000
     atom:    7    charge:    3.1099    magn:   -0.0506    constr:    0.0000
     atom:    8    charge:    1.9449    magn:    0.1129    constr:    0.0000
     atom:    9    charge:    3.1185    magn:   -0.0583    constr:    0.0000
     atom:   10    charge:    1.9406    magn:    0.0910    constr:    0.0000
     atom:   11    charge:    3.1124    magn:   -0.0422    constr:    0.0000
     atom:   12    charge:    1.9471    magn:    0.0974    constr:    0.0000
     atom:   13    charge:    3.1072    magn:   -0.0435    constr:    0.0000
     atom:   14    charge:    1.9509    magn:    0.0929    constr:    0.0000
     atom:   15    charge:    3.1106    magn:   -0.0463    constr:    0.0000
     atom:   16    charge:    1.9449    magn:    0.1129    constr:    0.0000
     atom:   17    charge:    1.9078    magn:    0.1320    constr:    0.0000
     atom:   18    charge:    3.1289    magn:    0.2569    constr:    0.0000
     atom:   19    charge:    1.9360    magn:    0.0922    constr:    0.0000
     atom:   20    charge:    1.9446    magn:    0.0943    constr:    0.0000
     atom:   21    charge:    1.9446    magn:    0.0943    constr:    0.0000
     atom:   22    charge:    3.1129    magn:   -0.0345    constr:    0.0000
     atom:   23    charge:    1.9495    magn:    0.0910    constr:    0.0000
     atom:   24    charge:    1.9342    magn:    0.1145    constr:    0.0000
     atom:   25    charge:    1.9471    magn:    0.0974    constr:    0.0000
     atom:   26    charge:    3.1063    magn:   -0.0443    constr:    0.0000
     atom:   27    charge:    1.9386    magn:    0.1151    constr:    0.0000
     atom:   28    charge:    1.9448    magn:    0.1115    constr:    0.0000
     atom:   29    charge:    1.9426    magn:    0.1116    constr:    0.0000
     atom:   30    charge:    3.1113    magn:   -0.0513    constr:    0.0000
     atom:   31    charge:    1.9424    magn:    0.1109    constr:    0.0000
     atom:   32    charge:    1.9455    magn:    0.1155    constr:    0.0000
     atom:   33    charge:    1.9079    magn:    0.1320    constr:    0.0000
     atom:   34    charge:    3.1294    magn:    0.2534    constr:    0.0000
     atom:   35    charge:    1.9359    magn:    0.0913    constr:    0.0000
     atom:   36    charge:    1.9446    magn:    0.0943    constr:    0.0000
     atom:   37    charge:    1.9446    magn:    0.0943    constr:    0.0000
     atom:   38    charge:    3.1129    magn:   -0.0345    constr:    0.0000
     atom:   39    charge:    1.9417    magn:    0.1114    constr:    0.0000
     atom:   40    charge:    1.9347    magn:    0.1132    constr:    0.0000
     atom:   41    charge:    1.9471    magn:    0.0974    constr:    0.0000
     atom:   42    charge:    3.1140    magn:   -0.0452    constr:    0.0000
     atom:   43    charge:    1.9378    magn:    0.1103    constr:    0.0000
     atom:   44    charge:    1.9448    magn:    0.1115    constr:    0.0000
     atom:   45    charge:    1.9426    magn:    0.1116    constr:    0.0000
     atom:   46    charge:    3.1113    magn:   -0.0513    constr:    0.0000
     atom:   47    charge:    1.9456    magn:    0.1210    constr:    0.0000
     atom:   48    charge:    1.9455    magn:    0.1155    constr:    0.0000
     atom:   49    charge:    1.9593    magn:    0.1086    constr:    0.0000
     atom:   50    charge:    0.3919    magn:   -0.0179    constr:    0.0000

     total cpu time spent up to now is     2581.8 secs

     total energy              =   -3005.49477082 Ry
     Harris-Foulkes estimate   =   -3005.48590927 Ry
     estimated scf accuracy    <       0.89802569 Ry

     total magnetization       =     0.96 Bohr mag/cell
     absolute magnetization    =     6.38 Bohr mag/cell

     iteration # 13     ecut=    40.42 Ry     beta=0.10
     Davidson diagonalization with overlap
     ethr =  2.30E-04,  avg # of iterations =  1.7

     negative rho (up, down):  1.493E-02 1.240E-02
 
     Magnetic moment per site:
     atom:    1    charge:    3.1212    magn:   -0.0565    constr:    0.0000
     atom:    2    charge:    1.9396    magn:    0.0818    constr:    0.0000
     atom:    3    charge:    3.1156    magn:   -0.0434    constr:    0.0000
     atom:    4    charge:    1.9459    magn:    0.0866    constr:    0.0000
     atom:    5    charge:    3.1092    magn:   -0.0452    constr:    0.0000
     atom:    6    charge:    1.9376    magn:    0.1012    constr:    0.0000
     atom:    7    charge:    3.1113    magn:   -0.0516    constr:    0.0000
     atom:    8    charge:    1.9440    magn:    0.1003    constr:    0.0000
     atom:    9    charge:    3.1212    magn:   -0.0565    constr:    0.0000
     atom:   10    charge:    1.9396    magn:    0.0814    constr:    0.0000
     atom:   11    charge:    3.1147    magn:   -0.0444    constr:    0.0000
     atom:   12    charge:    1.9459    magn:    0.0866    constr:    0.0000
     atom:   13    charge:    3.1092    magn:   -0.0452    constr:    0.0000
     atom:   14    charge:    1.9505    magn:    0.0811    constr:    0.0000
     atom:   15    charge:    3.1122    magn:   -0.0477    constr:    0.0000
     atom:   16    charge:    1.9440    magn:    0.1003    constr:    0.0000
     atom:   17    charge:    1.9096    magn:    0.1259    constr:    0.0000
     atom:   18    charge:    3.1325    magn:    0.2285    constr:    0.0000
     atom:   19    charge:    1.9365    magn:    0.0810    constr:    0.0000
     atom:   20    charge:    1.9445    magn:    0.0819    constr:    0.0000
     atom:   21    charge:    1.9445    magn:    0.0819    constr:    0.0000
     atom:   22    charge:    3.1152    magn:   -0.0371    constr:    0.0000
     atom:   23    charge:    1.9493    magn:    0.0798    constr:    0.0000
     atom:   24    charge:    1.9329    magn:    0.1033    constr:    0.0000
     atom:   25    charge:    1.9459    magn:    0.0865    constr:    0.0000
     atom:   26    charge:    3.1080    magn:   -0.0458    constr:    0.0000
     atom:   27    charge:    1.9381    magn:    0.1025    constr:    0.0000
     atom:   28    charge:    1.9452    magn:    0.0994    constr:    0.0000
     atom:   29    charge:    1.9430    magn:    0.0995    constr:    0.0000
     atom:   30    charge:    3.1129    magn:   -0.0520    constr:    0.0000
     atom:   31    charge:    1.9410    magn:    0.1011    constr:    0.0000
     atom:   32    charge:    1.9445    magn:    0.1026    constr:    0.0000
     atom:   33    charge:    1.9091    magn:    0.1263    constr:    0.0000
     atom:   34    charge:    3.1329    magn:    0.2257    constr:    0.0000
     atom:   35    charge:    1.9364    magn:    0.0802    constr:    0.0000
     atom:   36    charge:    1.9445    magn:    0.0819    constr:    0.0000
     atom:   37    charge:    1.9445    magn:    0.0819    constr:    0.0000
     atom:   38    charge:    3.1152    magn:   -0.0371    constr:    0.0000
     atom:   39    charge:    1.9420    magn:    0.0999    constr:    0.0000
     atom:   40    charge:    1.9333    magn:    0.1021    constr:    0.0000
     atom:   41    charge:    1.9459    magn:    0.0865    constr:    0.0000
     atom:   42    charge:    3.1155    magn:   -0.0467    constr:    0.0000
     atom:   43    charge:    1.9371    magn:    0.0982    constr:    0.0000
     atom:   44    charge:    1.9452    magn:    0.0994    constr:    0.0000
     atom:   45    charge:    1.9430    magn:    0.0995    constr:    0.0000
     atom:   46    charge:    3.1129    magn:   -0.0520    constr:    0.0000
     atom:   47    charge:    1.9437    magn:    0.1096    constr:    0.0000
     atom:   48    charge:    1.9445    magn:    0.1026    constr:    0.0000
     atom:   49    charge:    1.9565    magn:    0.0973    constr:    0.0000
     atom:   50    charge:    0.3929    magn:   -0.0166    constr:    0.0000

     total cpu time spent up to now is     2744.1 secs

     total energy              =   -3005.52946706 Ry
     Harris-Foulkes estimate   =   -3005.50157667 Ry
     estimated scf accuracy    <       0.70333492 Ry

     total magnetization       =     0.96 Bohr mag/cell
     absolute magnetization    =     5.86 Bohr mag/cell

     iteration # 14     ecut=    40.42 Ry     beta=0.10
     Davidson diagonalization with overlap
     ethr =  1.80E-04,  avg # of iterations =  2.3

     negative rho (up, down):  1.455E-02 1.241E-02
 
     Magnetic moment per site:
     atom:    1    charge:    3.1211    magn:   -0.0494    constr:    0.0000
     atom:    2    charge:    1.9431    magn:    0.0690    constr:    0.0000
     atom:    3    charge:    3.1161    magn:   -0.0414    constr:    0.0000
     atom:    4    charge:    1.9487    magn:    0.0719    constr:    0.0000
     atom:    5    charge:    3.1103    magn:   -0.0432    constr:    0.0000
     atom:    6    charge:    1.9410    magn:    0.0852    constr:    0.0000
     atom:    7    charge:    3.1111    magn:   -0.0481    constr:    0.0000
     atom:    8    charge:    1.9451    magn:    0.0830    constr:    0.0000
     atom:    9    charge:    3.1211    magn:   -0.0494    constr:    0.0000
     atom:   10    charge:    1.9432    magn:    0.0687    constr:    0.0000
     atom:   11    charge:    3.1156    magn:   -0.0424    constr:    0.0000
     atom:   12    charge:    1.9487    magn:    0.0719    constr:    0.0000
     atom:   13    charge:    3.1103    magn:   -0.0432    constr:    0.0000
     atom:   14    charge:    1.9522    magn:    0.0657    constr:    0.0000
     atom:   15    charge:    3.1128    magn:   -0.0453    constr:    0.0000
     atom:   16    charge:    1.9451    magn:    0.0830    constr:    0.0000
     atom:   17    charge:    1.9139    magn:    0.1215    constr:    0.0000
     atom:   18    charge:    3.1342    magn:    0.1727    constr:    0.0000
     atom:   19    charge:    1.9411    magn:    0.0664    constr:    0.0000
     atom:   20    charge:    1.9482    magn:    0.0651    constr:    0.0000
     atom:   21    charge:    1.9482    magn:    0.0652    constr:    0.0000
     atom:   22    charge:    3.1160    magn:   -0.0365    constr:    0.0000
     atom:   23    charge:    1.9525    magn:    0.0656    constr:    0.0000
     atom:   24    charge:    1.9352    magn:    0.0877    constr:    0.0000
     atom:   25    charge:    1.9486    magn:    0.0719    constr:    0.0000
     atom:   26    charge:    3.1090    magn:   -0.0436    constr:    0.0000
     atom:   27    charge:    1.9392    magn:    0.0856    constr:    0.0000
     atom:   28    charge:    1.9484    magn:    0.0833    constr:    0.0000
     atom:   29    charge:    1.9462    magn:    0.0834    constr:    0.0000
     atom:   30    charge:    3.1133    magn:   -0.0481    constr:    0.0000
     atom:   31    charge:    1.9437    magn:    0.0888    constr:    0.0000
     atom:   32    charge:    1.9456    magn:    0.0849    constr:    0.0000
     atom:   33    charge:    1.9141    magn:    0.1214    constr:    0.0000
     atom:   34    charge:    3.1345    magn:    0.1711    constr:    0.0000
     atom:   35    charge:    1.9411    magn:    0.0657    constr:    0.0000
     atom:   36    charge:    1.9482    magn:    0.0651    constr:    0.0000
     atom:   37    charge:    1.9482    magn:    0.0652    constr:    0.0000
     atom:   38    charge:    3.1160    magn:   -0.0365    constr:    0.0000
     atom:   39    charge:    1.9458    magn:    0.0844    constr:    0.0000
     atom:   40    charge:    1.9354    magn:    0.0867    constr:    0.0000
     atom:   41    charge:    1.9486    magn:    0.0719    constr:    0.0000
     atom:   42    charge:    3.1163    magn:   -0.0443    constr:    0.0000
     atom:   43    charge:    1.9378    magn:    0.0824    constr:    0.0000
     atom:   44    charge:    1.9484    magn:    0.0833    constr:    0.0000
     atom:   45    charge:    1.9462    magn:    0.0834    constr:    0.0000
     atom:   46    charge:    3.1133    magn:   -0.0481    constr:    0.0000
     atom:   47    charge:    1.9452    magn:    0.0942    constr:    0.0000
     atom:   48    charge:    1.9456    magn:    0.0849    constr:    0.0000
     atom:   49    charge:    1.9560    magn:    0.0820    constr:    0.0000
     atom:   50    charge:    0.3939    magn:   -0.0140    constr:    0.0000

     total cpu time spent up to now is     2914.2 secs

     total energy              =   -3005.53455816 Ry
     Harris-Foulkes estimate   =   -3005.53146778 Ry
     estimated scf accuracy    <       0.80233665 Ry

     total magnetization       =     0.96 Bohr mag/cell
     absolute magnetization    =     5.42 Bohr mag/cell

     iteration # 15     ecut=    40.42 Ry     beta=0.10
     Davidson diagonalization with overlap
     ethr =  1.80E-04,  avg # of iterations =  1.5

     negative rho (up, down):  1.451E-02 1.268E-02
 
     Magnetic moment per site:
     atom:    1    charge:    3.1257    magn:   -0.0327    constr:    0.0000
     atom:    2    charge:    1.9449    magn:    0.0518    constr:    0.0000
     atom:    3    charge:    3.1208    magn:   -0.0328    constr:    0.0000
     atom:    4    charge:    1.9498    magn:    0.0518    constr:    0.0000
     atom:    5    charge:    3.1147    magn:   -0.0345    constr:    0.0000
     atom:    6    charge:    1.9423    magn:    0.0622    constr:    0.0000
     atom:    7    charge:    3.1142    magn:   -0.0371    constr:    0.0000
     atom:    8    charge:    1.9441    magn:    0.0582    constr:    0.0000
     atom:    9    charge:    3.1257    magn:   -0.0327    constr:    0.0000
     atom:   10    charge:    1.9451    magn:    0.0516    constr:    0.0000
     atom:   11    charge:    3.1205    magn:   -0.0336    constr:    0.0000
     atom:   12    charge:    1.9498    magn:    0.0518    constr:    0.0000
     atom:   13    charge:    3.1147    magn:   -0.0345    constr:    0.0000
     atom:   14    charge:    1.9514    magn:    0.0445    constr:    0.0000
     atom:   15    charge:    3.1164    magn:   -0.0356    constr:    0.0000
     atom:   16    charge:    1.9441    magn:    0.0582    constr:    0.0000
     atom:   17    charge:    1.9179    magn:    0.1172    constr:    0.0000
     atom:   18    charge:    3.1378    magn:    0.0903    constr:    0.0000
     atom:   19    charge:    1.9434    magn:    0.0459    constr:    0.0000
     atom:   20    charge:    1.9500    magn:    0.0416    constr:    0.0000
     atom:   21    charge:    1.9500    magn:    0.0416    constr:    0.0000
     atom:   22    charge:    3.1201    magn:   -0.0299    constr:    0.0000
     atom:   23    charge:    1.9534    magn:    0.0465    constr:    0.0000
     atom:   24    charge:    1.9361    magn:    0.0661    constr:    0.0000
     atom:   25    charge:    1.9498    magn:    0.0517    constr:    0.0000
     atom:   26    charge:    3.1133    magn:   -0.0345    constr:    0.0000
     atom:   27    charge:    1.9385    magn:    0.0611    constr:    0.0000
     atom:   28    charge:    1.9494    magn:    0.0601    constr:    0.0000
     atom:   29    charge:    1.9472    magn:    0.0602    constr:    0.0000
     atom:   30    charge:    3.1174    magn:   -0.0367    constr:    0.0000
     atom:   31    charge:    1.9446    magn:    0.0707    constr:    0.0000
     atom:   32    charge:    1.9443    magn:    0.0594    constr:    0.0000
[...]
    -4.3154  -4.2817  -4.2119  -4.1728  -4.1631  -4.1453  -4.0414  -4.0338
    -3.9707  -3.9345  -3.7051  -3.6907  -3.6394  -3.6051  -3.5573  -3.5461
    -3.4522  -3.4292  -3.3588  -3.3281  -3.3190  -3.3030  -3.2247  -3.1296
    -3.0766  -3.0729  -3.0171  -3.0100  -2.9770  -2.9440  -2.9212  -2.8324
    -2.8009  -2.7439  -2.6428  -2.6119  -2.6083  -2.5370  -2.5096  -2.4860
    -2.4676  -2.4291  -2.3297  -2.3238  -2.2711  -2.2553  -2.2376  -2.1802
    -2.1801  -2.0803  -2.0476  -1.9860  -1.9610  -1.8403  -1.7711  -1.7129
    -1.6887  -1.6740  -1.6540  -1.5781  -1.4099  -1.3938  -1.3244  -1.2983
    -1.2919  -1.2619  -1.1372  -1.1084  -1.0772  -0.9752  -0.9092  -0.8959
    -0.8143  -0.8085  -0.7529  -0.7514   1.3354   1.3367   1.4573   1.4587
     1.7439   1.7440   1.8509   1.8524   2.0269   2.0274   2.1248   2.2212
     2.2771   2.2834   2.3840   2.4387   2.4499   2.4519   2.5153   2.5653
     2.5664   2.5845   2.6413   2.6495   2.7455   2.7498   2.7817   2.7926
     2.8357   2.8702   2.9268   2.9799   2.9987   3.0005   3.0291   3.0549
     3.0641   3.1524   3.1858   3.1944   3.2359   3.2656   3.3328   3.3374
     3.3922   3.3927   3.4838   3.6091   3.6602   3.6726   4.1198   4.1201
     4.2912   4.5625   4.5636   4.6593   4.7143   4.7651   4.8234   4.8273
     4.9284   4.9563   4.9961   4.9989   5.4169   5.4589   5.4720   5.6007
     5.6888   5.7054   5.7532   5.7643   5.7807   5.8346   5.8497   5.9339
     5.9788   6.0727   6.2037   6.2407   6.3332   6.3564   6.6392   6.8825
     7.1380   7.1640   7.6023   7.6181   7.9500   7.9570   8.0434   8.1212
     8.4403   8.4522   8.5585   8.6925   9.1519   9.1780   9.3022

          k =-0.0759 0.0000 0.0000 ( 34758 PWs)   bands (ev):

   -58.5094 -58.4744 -57.5985 -57.5698 -57.5631 -57.4870 -57.4735 -57.4340
   -57.3367 -57.3054 -57.2679 -57.2322 -57.1238 -57.0885 -57.0181 -56.9801
   -34.9559 -34.7782 -34.7495 -34.7126 -34.6211 -34.5641 -34.0990 -34.0626
   -34.0166 -33.8516 -33.8195 -33.7960 -33.7938 -33.7880 -33.7579 -33.7572
   -33.7429 -33.7296 -33.7047 -33.7043 -33.6757 -33.6714 -33.6654 -33.6607
   -33.6552 -33.6438 -33.6213 -33.5909 -33.5554 -33.5548 -33.5422 -33.5269
   -33.5002 -33.4923 -33.4692 -33.4496 -33.4367 -33.4364 -33.4174 -33.3893
   -33.3421 -33.2953 -33.2619 -33.2525 -33.2268 -33.2071 -33.1510 -33.0993
   -18.4451 -18.2289 -18.1225 -18.0626 -17.9597 -17.8589 -17.6751 -17.5929
   -17.5709 -17.5201 -17.4319 -17.3902 -17.2501 -17.2451 -17.2298 -17.2149
   -17.1336 -17.0413 -16.9830 -16.9573 -16.8235 -16.8128 -16.7731 -16.6704
   -16.6610 -16.6349 -16.6221 -16.5924 -16.4998 -16.3472 -16.2881 -15.7946
   -15.7374  -5.9745  -5.6365  -5.5539  -5.4679  -5.3972  -5.1426  -5.1173
    -5.0637  -5.0034  -4.9748  -4.8109  -4.7527  -4.7438  -4.7361  -4.6097
    -4.5982  -4.4629  -4.4267  -4.3735  -4.2855  -4.2788  -4.2013  -4.2003
    -4.1184  -4.1033  -4.0825  -3.9886  -3.9727  -3.9676  -3.9378  -3.8544
    -3.8091  -3.7922  -3.7871  -3.7627  -3.7004  -3.6933  -3.6507  -3.6186
    -3.5209  -3.4920  -3.4719  -3.3171  -3.2299  -3.2196  -3.1816  -3.1372
    -3.0860  -2.9997  -2.9959  -2.9295  -2.9275  -2.8986  -2.8905  -2.8393
    -2.8017  -2.7458  -2.6708  -2.6643  -2.5844  -2.5432  -2.4893  -2.4514
    -2.3520  -2.3268  -2.2565  -2.1622  -2.1396  -1.9878  -1.9686  -1.9394
    -1.9271  -1.9088  -1.8288  -1.8134  -1.6918  -1.6785  -1.6773  -1.6177
    -1.5672  -1.5234  -1.4583  -1.4364  -1.3823  -1.3796  -1.3650  -1.3579
    -1.3400  -1.2750  -1.2557  -1.1163  -1.1050  -1.0687  -0.9152  -0.9080
    -0.8953  -0.8875  -0.8761  -0.7002   0.8654   1.0799   1.2028   1.2096
     1.5841   1.7132   1.7500   1.7999   1.8451   1.8800   1.9795   2.1216
     2.1471   2.2681   2.3332   2.3571   2.3966   2.4289   2.4564   2.4661
     2.5042   2.5072   2.6209   2.6654   2.7152   2.7285   2.7657   2.8130
     2.8300   2.8419   2.9428   2.9622   2.9659   2.9661   2.9850   3.0325
     3.0377   3.0953   3.1448   3.1816   3.2346   3.2997   3.3688   3.4316
     3.5270   3.6120   3.6274   3.6507   3.7572   3.7580   3.8010   4.1550
     4.1749   4.3075   4.3704   4.4980   4.6162   4.8112   4.8838   4.9197
     4.9624   5.2712   5.3488   5.4970   5.5274   5.5921   5.6066   5.6823
     5.7101   5.7612   5.8305   5.9229   5.9987   6.1060   6.1319   6.2860
     6.2991   6.3179   6.3406   6.3415   6.3608   6.4641   6.5028   6.5960
     6.6824   6.8204   7.2407   7.4160   8.0155   8.1293   8.2067   8.5738
     8.7677   8.8990   9.1049   9.2031   9.3741   9.7866   9.9138

          k =-0.0759 0.0280 0.0000 ( 34680 PWs)   bands (ev):

   -58.5071 -58.4767 -57.5962 -57.5689 -57.5655 -57.4879 -57.4714 -57.4361
   -57.3353 -57.3068 -57.2657 -57.2345 -57.1215 -57.0909 -57.0155 -56.9827
   -34.9304 -34.7763 -34.7514 -34.7064 -34.6272 -34.5912 -34.0734 -34.0376
   -33.9933 -33.8455 -33.8147 -33.7956 -33.7902 -33.7695 -33.7602 -33.7589
   -33.7429 -33.7313 -33.7129 -33.7096 -33.6880 -33.6804 -33.6701 -33.6700
   -33.6530 -33.6403 -33.6210 -33.5876 -33.5748 -33.5329 -33.5206 -33.5173
   -33.5004 -33.4898 -33.4669 -33.4503 -33.4424 -33.4388 -33.4372 -33.4147
   -33.3362 -33.2919 -33.2590 -33.2586 -33.2289 -33.2118 -33.1782 -33.1278
   -18.3887 -18.2271 -18.0970 -18.0139 -17.9140 -17.8497 -17.6499 -17.6439
   -17.5300 -17.5229 -17.4061 -17.3677 -17.2828 -17.2051 -17.1981 -17.1829
   -17.1142 -17.0293 -17.0109 -16.9700 -16.8601 -16.8518 -16.7890 -16.6879
   -16.6870 -16.6811 -16.6269 -16.6070 -16.5380 -16.3672 -16.3293 -15.8091
   -15.7637  -5.9733  -5.5401  -5.4099  -5.3952  -5.3262  -5.0408  -5.0215
    -4.9817  -4.8795  -4.8745  -4.8547  -4.8240  -4.7279  -4.6363  -4.5537
    -4.5495  -4.4797  -4.4479  -4.4282  -4.3572  -4.3317  -4.3283  -4.2027
    -4.1641  -4.1525  -4.1353  -4.0348  -4.0056  -3.9688  -3.9255  -3.9159
    -3.8503  -3.8475  -3.7594  -3.7448  -3.6995  -3.6449  -3.6241  -3.5933
    -3.5477  -3.4428  -3.3784  -3.2889  -3.2247  -3.1821  -3.1376  -3.1154
    -3.0694  -3.0457  -3.0158  -2.9757  -2.9272  -2.8971  -2.8769  -2.8101
    -2.7879  -2.7451  -2.7146  -2.6954  -2.5886  -2.5691  -2.4549  -2.4178
    -2.3811  -2.3273  -2.2867  -2.2704  -2.2374  -2.1789  -2.1457  -2.0487
    -2.0129  -1.9264  -1.8863  -1.8368  -1.7993  -1.7848  -1.7233  -1.6890
    -1.6174  -1.5862  -1.5443  -1.5227  -1.4096  -1.3618  -1.3325  -1.2908
    -1.2794  -1.2081  -1.1595  -1.1095  -1.0659  -1.0389  -1.0198  -0.9106
    -0.8881  -0.8490  -0.8406  -0.6579   0.9347   1.1561   1.2503   1.2787
     1.6770   1.7781   1.7830   1.8120   1.8990   1.9409   1.9792   2.1156
     2.1856   2.2970   2.3348   2.3435   2.4447   2.4558   2.4800   2.5146
     2.5279   2.5457   2.6841   2.7206   2.7258   2.7426   2.7648   2.7751
     2.7890   2.8401   2.9286   2.9573   2.9729   2.9734   2.9933   3.0370
     3.0777   3.1023   3.2068   3.2146   3.2277   3.3324   3.3653   3.4224
     3.4921   3.5831   3.6003   3.6252   3.6944   3.7232   3.7772   4.1784
     4.2215   4.3016   4.3676   4.6180   4.6260   4.6363   4.9062   4.9171
     4.9765   5.2908   5.3479   5.3484   5.4054   5.4791   5.5982   5.6174
     5.6551   5.6925   5.7904   5.9724   6.0167   6.0570   6.1489   6.1833
     6.2026   6.2601   6.2611   6.3761   6.4439   6.4509   6.5168   6.5954
     6.8104   6.9509   7.3587   7.4001   7.5426   8.1226   8.2286   8.5628
     9.0243   9.0908   9.2001   9.3328   9.3431   9.3773   9.4811

          k =-0.0759 0.0560 0.0000 ( 34616 PWs)   bands (ev):

   -58.5007 -58.4831 -57.5897 -57.5720 -57.5669 -57.4899 -57.4662 -57.4414
   -57.3320 -57.3101 -57.2597 -57.2405 -57.1150 -57.0974 -57.0086 -56.9896
   -34.8603 -34.7710 -34.7565 -34.6898 -34.6646 -34.6440 -34.0030 -33.9702
   -33.9334 -33.8287 -33.8125 -33.8030 -33.7957 -33.7824 -33.7822 -33.7641
   -33.7489 -33.7379 -33.7214 -33.7094 -33.7087 -33.6834 -33.6714 -33.6671
   -33.6575 -33.6208 -33.6145 -33.6115 -33.5796 -33.5183 -33.5042 -33.4896
   -33.4893 -33.4805 -33.4696 -33.4608 -33.4587 -33.4480 -33.4446 -33.4312
   -33.3200 -33.2888 -33.2752 -33.2520 -33.2518 -33.2351 -33.2243 -33.1980
   -18.2333 -18.2243 -18.0295 -17.9095 -17.8340 -17.7998 -17.7958 -17.5883
   -17.5681 -17.4182 -17.3942 -17.3271 -17.2132 -17.1751 -17.1156 -17.1053
   -17.0727 -17.0564 -17.0383 -17.0237 -16.9471 -16.9165 -16.8401 -16.7960
   -16.7276 -16.7128 -16.6427 -16.6362 -16.6282 -16.4340 -16.4027 -15.8389
   -15.8181  -5.9715  -5.2693  -5.2046  -5.1458  -5.0170  -5.0067  -5.0001
    -4.9197  -4.7706  -4.7101  -4.6369  -4.6188  -4.5973  -4.5782  -4.5383
    -4.5105  -4.4998  -4.4257  -4.4002  -4.3746  -4.3472  -4.3169  -4.2832
    -4.2789  -4.2604  -4.2398  -4.1848  -4.1253  -4.0512  -3.9660  -3.9270
    -3.8384  -3.8116  -3.7970  -3.7662  -3.7324  -3.6801  -3.5602  -3.5069
    -3.4578  -3.4126  -3.3720  -3.3558  -3.3245  -3.2813  -3.2685  -3.2013
    -3.1593  -3.1565  -2.9790  -2.9227  -2.9204  -2.8972  -2.8897  -2.8248
    -2.7939  -2.7766  -2.7439  -2.7049  -2.6476  -2.6241  -2.5904  -2.5489
    -2.4535  -2.4317  -2.4006  -2.3511  -2.3259  -2.3121  -2.2352  -2.1320
    -2.1191  -2.0795  -2.0563  -1.9096  -1.8974  -1.7845  -1.7647  -1.7486
    -1.7341  -1.6648  -1.6192  -1.5273  -1.4811  -1.4003  -1.3221  -1.2597
    -1.2175  -1.2026  -1.1569  -1.0555  -0.9835  -0.9367  -0.9190  -0.9021
    -0.8648  -0.8457  -0.8100  -0.7354   1.1362   1.3050   1.3553   1.4913
     1.6943   1.8509   1.8671   1.8920   1.9175   2.0229   2.1045   2.1369
     2.2088   2.2720   2.3404   2.3970   2.4726   2.4769   2.5231   2.5898
     2.6130   2.6579   2.6675   2.6961   2.7044   2.7419   2.8208   2.8287
     2.8614   2.8855   2.9482   2.9702   3.0211   3.0359   3.0481   3.0718
     3.0958   3.1523   3.1772   3.2011   3.2743   3.2851   3.2927   3.3992
     3.4398   3.4847   3.5855   3.6039   3.6463   3.6802   3.7795   4.2395
     4.2605   4.3067   4.3874   4.4108   4.6916   4.7434   4.8046   4.8662
     4.9783   5.0372   5.0854   5.1560   5.3920   5.4579   5.4875   5.6108
     5.6441   5.7787   5.8165   5.8773   5.9148   5.9350   5.9576   6.1018
     6.1055   6.1572   6.2988   6.3165   6.3955   6.4646   6.6390   6.8511
     6.9263   7.1300   7.3044   7.6105   7.7885   7.9219   8.1991   8.2937
     8.4851   8.5074   8.6229   8.7617   9.0532   9.2659   9.4290

          k =-0.0759-0.0840 0.0000 ( 34556 PWs)   bands (ev):

   -58.4928 -58.4911 -57.5809 -57.5809 -57.5659 -57.4909 -57.4625 -57.4451
   -57.3299 -57.3122 -57.2542 -57.2460 -57.1062 -57.1062 -57.0000 -56.9983
   -34.7647 -34.7642 -34.7626 -34.7626 -34.6677 -34.6662 -33.9060 -33.9056
   -33.9003 -33.8856 -33.8479 -33.8055 -33.8055 -33.7940 -33.7780 -33.7751
   -33.7690 -33.7602 -33.7289 -33.6987 -33.6938 -33.6745 -33.6730 -33.6659
   -33.6589 -33.6261 -33.5861 -33.5680 -33.5669 -33.5593 -33.5496 -33.5218
   -33.4851 -33.4822 -33.4779 -33.4669 -33.4526 -33.4526 -33.3513 -33.3509
   -33.3466 -33.3366 -33.2978 -33.2974 -33.2440 -33.2429 -33.2380 -33.2310
   -18.2231 -18.0181 -18.0178 -17.9479 -17.9459 -17.7049 -17.6618 -17.6607
   -17.6587 -17.3889 -17.2614 -17.2530 -17.2504 -17.1604 -17.1536 -17.0998
   -17.0598 -17.0129 -16.9963 -16.9835 -16.9821 -16.9780 -16.9729 -16.7737
   -16.7517 -16.7382 -16.7356 -16.6462 -16.6439 -16.4672 -16.4447 -15.8503
   -15.8502  -5.9707  -5.0884  -5.0787  -5.0102  -5.0081  -4.8762  -4.8759
    -4.8727  -4.8669  -4.6226  -4.6179  -4.6137  -4.5505  -4.4883  -4.4175
    -4.4153  -4.4138  -4.3804  -4.3659  -4.3516  -4.3404  -4.3224  -4.2736
    -4.2702  -4.2417  -4.2400  -4.2237  -4.1138  -4.0597  -3.9970  -3.9768
    -3.9423  -3.8669  -3.8535  -3.8507  -3.7352  -3.6560  -3.6450  -3.6410
    -3.5168  -3.5145  -3.3610  -3.3587  -3.3481  -3.3132  -3.2437  -3.2089
    -3.1427  -3.1166  -3.0593  -3.0492  -3.0168  -3.0024  -2.9826  -2.9034
    -2.8563  -2.7643  -2.7270  -2.6836  -2.6422  -2.6118  -2.5782  -2.5568
    -2.5278  -2.4544  -2.4286  -2.4225  -2.3916  -2.3394  -2.2828  -2.2511
    -2.1376  -2.0673  -2.0540  -2.0431  -1.9252  -1.8580  -1.8438  -1.6990
    -1.6590  -1.6322  -1.6190  -1.5941  -1.3527  -1.3108  -1.2956  -1.2851
    -1.2551  -1.2057  -1.1291  -1.0406  -0.9823  -0.9487  -0.9349  -0.9002
    -0.8777  -0.8416  -0.7729  -0.7596   1.3991   1.4031   1.4147   1.4205
     1.7622   1.7629   1.8907   1.8925   2.0423   2.0996   2.1024   2.1562
     2.2288   2.2579   2.3523   2.4248   2.4326   2.5009   2.5343   2.5868
     2.5970   2.6299   2.7540   2.7567   2.7684   2.7848   2.8024   2.8317
     2.8801   2.9051   2.9471   3.0360   3.0393   3.0423   3.0649   3.0802
     3.1568   3.1904   3.1914   3.2291   3.2543   3.2785   3.2931   3.2956
     3.3592   3.3843   3.5347   3.6112   3.6833   3.6847   3.9381   3.9386
     4.3354   4.4216   4.4477   4.5069   4.6243   4.6555   4.6984   4.7559
     4.9555   4.9734   4.9821   4.9862   5.4674   5.4711   5.4891   5.7021
     5.7295   5.7318   5.7989   5.8139   5.8917   5.8960   5.9399   6.0372
     6.0815   6.0889   6.1657   6.2325   6.2917   6.3898   6.7692   7.1248
     7.4110   7.4228   7.4700   7.5319   7.7082   7.7115   7.8504   7.9336
     8.2710   8.2741   8.4459   8.5831   9.0560   9.0797   9.1872

     the Fermi energy is    -0.4917 ev

!    total energy              =   -3005.52982058 Ry
     Harris-Foulkes estimate   =   -3005.52981459 Ry
     estimated scf accuracy    <       0.00000040 Ry

     The total energy is the sum of the following terms:

     one-electron contribution =  -41015.32380219 Ry
     hartree contribution      =   20573.41807659 Ry
     xc contribution           =    -546.73099677 Ry
     ewald contribution        =   17983.12655963 Ry
     smearing contrib. (-TS)   =      -0.01965785 Ry

     total magnetization       =     0.00 Bohr mag/cell
     absolute magnetization    =     0.02 Bohr mag/cell

     convergence has been achieved in  40 iterations

     Forces acting on atoms (Ry/au):


     negative rho (up, down):  1.350E-02 1.350E-02
     atom    1 type  1   force =     0.00001993   -0.00109787   -0.10418439
     atom    2 type  2   force =     0.00003997    0.00000000    0.03810095
     atom    3 type  1   force =    -0.00011304    0.00000000   -0.02283124
     atom    4 type  2   force =    -0.00613518    0.00312311   -0.00582927
     atom    5 type  1   force =     0.00029992    0.00037110   -0.00085119
     atom    6 type  2   force =    -0.00037273    0.00000000   -0.00002092
     atom    7 type  1   force =     0.00103277    0.00000000   -0.00075181
     atom    8 type  2   force =     0.00015263    0.00024016   -0.00017106
     atom    9 type  1   force =     0.00001993    0.00109787   -0.10418439
     atom   10 type  2   force =     0.00003015    0.00000000    0.03425386
     atom   11 type  1   force =    -0.00011336    0.00000000    0.01130800
     atom   12 type  2   force =    -0.00613518   -0.00312311   -0.00582927
     atom   13 type  1   force =     0.00029992   -0.00037110   -0.00085119
     atom   14 type  2   force =    -0.00072777    0.00000000   -0.00104474
     atom   15 type  1   force =     0.00046219    0.00000000    0.00128267
     atom   16 type  2   force =     0.00015263   -0.00024016   -0.00017106
     atom   17 type  2   force =     0.00004399    0.00000000    0.06644787
     atom   18 type  1   force =     0.00014172    0.00000000    0.13059354
     atom   19 type  2   force =    -0.00015539    0.00000000   -0.08411568
     atom   20 type  2   force =    -0.05789320    0.00015484   -0.03634203
     atom   21 type  2   force =     0.05804403    0.00016968   -0.03625018
     atom   22 type  1   force =    -0.00003460    0.00087056    0.07795938
     atom   23 type  2   force =    -0.00015889    0.00000000    0.00136978
     atom   24 type  2   force =    -0.00017298    0.00000000   -0.03627872
     atom   25 type  2   force =     0.00592213    0.00307978   -0.00551501
     atom   26 type  1   force =    -0.00035555    0.00000000    0.00027146
     atom   27 type  2   force =     0.00034549    0.00000000    0.00149507
     atom   28 type  2   force =    -0.00017022    0.00033856   -0.00038543
     atom   29 type  2   force =    -0.00034649    0.00015422    0.00006300
     atom   30 type  1   force =    -0.00004555    0.00065465    0.00072676
     atom   31 type  2   force =    -0.00030107    0.00000000   -0.00020440
     atom   32 type  2   force =     0.00034594   -0.00037607   -0.00008021
     atom   33 type  2   force =    -0.00000684    0.00000000    0.06647152
     atom   34 type  1   force =     0.00011481    0.00000000    0.13039700
     atom   35 type  2   force =    -0.00012717    0.00000000   -0.08356781
     atom   36 type  2   force =    -0.05789320   -0.00015484   -0.03634203
     atom   37 type  2   force =     0.05804403   -0.00016968   -0.03625018
     atom   38 type  1   force =    -0.00003460   -0.00087056    0.07795938
     atom   39 type  2   force =    -0.00007476    0.00000000   -0.00022919
     atom   40 type  2   force =     0.00007984    0.00000000   -0.03528842
     atom   41 type  2   force =     0.00592213   -0.00307978   -0.00551501
     atom   42 type  1   force =    -0.00054742    0.00000000    0.00093548
     atom   43 type  2   force =     0.00040574    0.00000000    0.00164092
     atom   44 type  2   force =    -0.00017022   -0.00033856   -0.00038543
     atom   45 type  2   force =    -0.00034649   -0.00015422    0.00006300
     atom   46 type  1   force =    -0.00004555   -0.00065465    0.00072676
     atom   47 type  2   force =     0.00162367    0.00000000    0.00056922
     atom   48 type  2   force =     0.00034594    0.00037607   -0.00008021
     atom   49 type  2   force =     0.00016204    0.00000000    0.00131866
     atom   50 type  3   force =    -0.00157409    0.00000000   -0.00040384

     Total force =     0.340155     Total SCF correction =     0.002195
 !ASE

     Writing output data file calc.save
 
     init_run     :     48.72s CPU     56.95s WALL (       1 calls)
     electrons    :   6765.48s CPU   7660.84s WALL (       1 calls)
     forces       :     41.93s CPU     44.10s WALL (       1 calls)

     Called by init_run:
     wfcinit      :     41.18s CPU     48.66s WALL (       1 calls)
     potinit      :      1.85s CPU      2.13s WALL (       1 calls)

     Called by electrons:
     c_bands      :   5701.01s CPU   6423.86s WALL (      40 calls)
     sum_band     :    887.78s CPU   1041.41s WALL (      40 calls)
     v_of_rho     :     41.65s CPU     49.44s WALL (      41 calls)
     newd         :    135.86s CPU    146.45s WALL (      41 calls)
     mix_rho      :      2.16s CPU      2.77s WALL (      40 calls)
     vdW_energy   :      8.79s CPU      9.98s WALL (      42 calls)
     vdW_ffts     :     10.32s CPU     12.76s WALL (      84 calls)
     vdW_v        :      3.99s CPU      4.58s WALL (      42 calls)

     Called by c_bands:
     init_us_2    :     18.27s CPU     19.64s WALL (    2624 calls)
     cegterg      :   5581.12s CPU   6298.19s WALL (    1280 calls)

     Called by *egterg:
     h_psi        :   2329.90s CPU   2829.49s WALL (    5330 calls)
     s_psi        :    396.39s CPU    410.22s WALL (    5330 calls)
     g_psi        :     11.01s CPU     11.23s WALL (    4018 calls)
     cdiaghg      :   1614.13s CPU   1651.15s WALL (    5298 calls)

     Called by h_psi:
     add_vuspsi   :    399.45s CPU    412.39s WALL (    5330 calls)

     General routines
     calbec       :    605.00s CPU    618.27s WALL (    6642 calls)
     fft          :     21.82s CPU     27.00s WALL (    3380 calls)
     ffts         :      0.19s CPU      0.25s WALL (     162 calls)
     fftw         :   1351.91s CPU   1960.11s WALL ( 1983124 calls)
     interpolate  :      1.26s CPU      1.84s WALL (     162 calls)
     davcio       :      0.08s CPU      2.36s WALL (      32 calls)
 
     Parallel routines
     fft_scatter  :    666.58s CPU   1040.54s WALL ( 1986666 calls)
 
     PWSCF        :     1h54m CPU        2h 9m WALL

 
   This run was terminated on:  17:15:22  10Feb2018            

=------------------------------------------------------------------------------=
   JOB DONE.
=------------------------------------------------------------------------------=
