  python dir          : /home/vossj/suncat/lib/python2.7/site-packages/espresso
  espresso dir        : /home/vossj/suncat/esdld/espresso-dynpy-beef/bin
  pseudo dir          : /home/alatimer/bin/psp/esp_psp_w_gbrvRu/
  ase-espresso py git : ffa2778-git



     Program PWSCF v.5.1rc2 (svn rev. ) starts on 10Mar2018 at 15: 1:30 

     This program is part of the open-source Quantum ESPRESSO suite
     for quantum simulation of materials; please cite
         "P. Giannozzi et al., J. Phys.:Condens. Matter 21 395502 (2009);
          URL http://www.quantum-espresso.org", 
     in publications or presentations arising from this work. More details at
     http://www.quantum-espresso.org/quote

     Parallel version (MPI), running on    16 processors
     R & G space division:  proc/nbgrp/npool/nimage =      16
     Reading input from pw.inp
     Message from routine read_cards :
     DEPRECATED: no units specified in CELL_PARAMETERS card

     Current dimensions of program PWSCF are:
     Max number of different atomic species (ntypx) = 10
     Max number of k-points (npk) =  40000
     Max angular momentum in pseudopotentials (lmaxx) =  3

     **************************************************************************
     Initializing libbeef V0.1.1 with the BEEF-vdW functional.
     Citation: Wellendorff et al., PRB 85, 235149 (2012).
     **************************************************************************


     IMPORTANT: XC functional enforced from input :
     Exchange-correlation      = BEEF ( 1  4 27 13 2)
     Any further DFT definition will be discarded
     Please, verify this is what you really want


     Subspace diagonalization in iterative solution of the eigenvalue problem:
     a serial algorithm will be used

 
     Parallelization info
     --------------------
     sticks:   dense  smooth     PW     G-vecs:    dense   smooth      PW
     Min         281     112     31                68535    17318    2565
     Max         282     113     32                68545    17369    2582
     Sum        4501    1795    503              1096637   277353   41113
 
     Generating pointlists ...
     new r_m :   0.4125 (alat units)  0.7795 (a.u.) for type    1
     new r_m :   0.4125 (alat units)  0.7795 (a.u.) for type    2
     new r_m :   0.4125 (alat units)  0.7795 (a.u.) for type    3


     bravais-lattice index     =            0
     lattice parameter (alat)  =       1.8897  a.u.
     unit-cell volume          =    7990.9933 (a.u.)^3
     number of atoms/cell      =           51
     number of atomic types    =            3
     number of electrons       =       400.00
     number of Kohn-Sham states=          300
     kinetic-energy cutoff     =      40.4243  Ry
     charge density cutoff     =     404.2426  Ry
     convergence threshold     =      7.3E-07
     mixing beta               =       0.1000
     number of iterations used =           10  plain     mixing
     Exchange-correlation      = BEEF ( 1  4 27 13 2)
     nstep                     =           50


     celldm(1)=   1.889726  celldm(2)=   0.000000  celldm(3)=   0.000000
     celldm(4)=   0.000000  celldm(5)=   0.000000  celldm(6)=   0.000000

     crystal axes: (cart. coord. in units of alat)
               a(1) = (   6.590708   0.000000   0.000000 )  
               a(2) = (   0.000000   5.950229   0.000000 )  
               a(3) = (   0.000000   0.000000  30.195235 )  

     reciprocal axes: (cart. coord. in units 2 pi/alat)
               b(1) = (  0.151729  0.000000  0.000000 )  
               b(2) = (  0.000000  0.168061  0.000000 )  
               b(3) = (  0.000000  0.000000  0.033118 )  


     PseudoPot. # 1 for Ti read from file:
     /home/alatimer/bin/psp/esp_psp_w_gbrvRu/Ti.UPF
     MD5 check sum: 8e4df49b7f0d34bbd5052bf3f5ea0213
     Pseudo is Ultrasoft, Zval = 12.0
     Generated by new atomic code, or converted to UPF format
     Using radial grid of  851 points,  6 beta functions with: 
                l(1) =   0
                l(2) =   0
                l(3) =   1
                l(4) =   1
                l(5) =   2
                l(6) =   2
     Q(r) pseudized with  8 coefficients,  rinner =    1.000   1.000   1.000
                                                       1.000   1.000

     PseudoPot. # 2 for  O read from file:
     /home/alatimer/bin/psp/esp_psp_w_gbrvRu/O.UPF
     MD5 check sum: e057bbcf3229fb5d8c36c0c92f9568b4
     Pseudo is Ultrasoft + core correction, Zval =  6.0
     Generated using "atomic" code by A. Dal Corso  v.5.0.2 svn rev. 9415
     Using radial grid of 1095 points,  4 beta functions with: 
                l(1) =   0
                l(2) =   0
                l(3) =   1
                l(4) =   1
     Q(r) pseudized with 0 coefficients 


     PseudoPot. # 3 for  N read from file:
     /home/alatimer/bin/psp/esp_psp_w_gbrvRu/N.UPF
     MD5 check sum: ed8b6a90f28a53b7d71920e7015d2dd6
     Pseudo is Ultrasoft + core correction, Zval =  5.0
     Generated using "atomic" code by A. Dal Corso  v.5.0.2 svn rev. 9415
     Using radial grid of 1085 points,  4 beta functions with: 
                l(1) =   0
                l(2) =   0
                l(3) =   1
                l(4) =   1
     Q(r) pseudized with 0 coefficients 


     vdW kernel table read from file vdW_kernel_table
     MD5 check sum: 095c7af220d748ca6e76c0b4c6cfb241

     atomic species   valence    mass     pseudopotential
        Ti1           12.00    47.88000     Ti( 1.00)
        O1             6.00    15.99940      O( 1.00)
        N1             5.00    14.00670      N( 1.00)

     Starting magnetic structure 
     atomic species   magnetization
        Ti1          0.250
        O1           0.500
        N1           0.600

     No symmetry found



   Cartesian axes

     site n.     atom                  positions (alat units)
         1           Ti1 tau(   1) = (   1.6476770   0.7437786   2.6545865  )
         2           O1  tau(   2) = (   1.6476770   2.2313359   3.9361215  )
         3           Ti1 tau(   3) = (   1.6476770   2.2313359   5.9499405  )
         4           O1  tau(   4) = (   0.3661420   0.7437786   5.9499405  )
         5           Ti1 tau(   5) = (   1.5280591   0.7315068   9.1973351  )
         6           O1  tau(   6) = (   1.6613943   2.1836906  10.6091769  )
         7           Ti1 tau(   7) = (   1.6665780   2.2096385  12.4157880  )
         8           O1  tau(   8) = (   0.4439715   0.7264440  12.7601561  )
         9           Ti1 tau(   9) = (   1.6476770   3.7188931   2.6545865  )
        10           O1  tau(  10) = (   1.6476770   5.2064503   3.9361215  )
        11           Ti1 tau(  11) = (   1.6476770   5.2064503   5.9499405  )
        12           O1  tau(  12) = (   0.3661420   3.7188931   5.9499405  )
        13           Ti1 tau(  13) = (   1.5319291   3.7072436   9.2118370  )
        14           O1  tau(  14) = (   1.6575607   5.2126413  10.6087893  )
        15           Ti1 tau(  15) = (   1.6606453   5.1916961  12.4165775  )
        16           O1  tau(  16) = (   0.4123725   3.7022030  12.5882193  )
        17           O1  tau(  17) = (   1.6476770   2.2313359   1.3730516  )
        18           Ti1 tau(  18) = (   4.9430310   2.2313359   2.6545865  )
        19           O1  tau(  19) = (   4.9430310   2.2313359   4.6684056  )
        20           O1  tau(  20) = (   6.2245660   0.7437786   2.6545865  )
        21           O1  tau(  21) = (   3.6614961   0.7437786   2.6545865  )
        22           Ti1 tau(  22) = (   4.9430310   0.7437786   5.9499405  )
        23           O1  tau(  23) = (   1.6517842   2.2287041   8.0298356  )
        24           O1  tau(  24) = (   4.9430310   2.2313359   7.2314755  )
        25           O1  tau(  25) = (   2.9292120   0.7437786   5.9499405  )
        26           Ti1 tau(  26) = (   4.8605205   2.2076595   9.4238065  )
        27           O1  tau(  27) = (   4.9553550   2.1639423  11.2756624  )
        28           O1  tau(  28) = (   6.2690671   0.7288246   9.2688367  )
        29           O1  tau(  29) = (   3.6660957   0.7249325   9.2867299  )
        30           Ti1 tau(  30) = (   4.9284588   0.7282168  12.7798302  )
        31           O1  tau(  31) = (   4.9953437   2.2216212  13.8477397  )
        32           O1  tau(  32) = (   2.9112183   0.7266397  12.7651274  )
        33           O1  tau(  33) = (   1.6476770   5.2064503   1.3730516  )
        34           Ti1 tau(  34) = (   4.9430310   5.2064503   2.6545865  )
        35           O1  tau(  35) = (   4.9430310   5.2064503   4.6684056  )
        36           O1  tau(  36) = (   6.2245660   3.7188931   2.6545865  )
        37           O1  tau(  37) = (   3.6614961   3.7188931   2.6545865  )
        38           Ti1 tau(  38) = (   4.9430310   3.7188931   5.9499405  )
        39           O1  tau(  39) = (   1.6524867   5.1852222   8.0294571  )
        40           O1  tau(  40) = (   4.9430310   5.2064503   7.2314755  )
        41           O1  tau(  41) = (   2.9292120   3.7188931   5.9499405  )
        42           Ti1 tau(  42) = (   4.8610151   5.1886528   9.4241876  )
        43           O1  tau(  43) = (   4.9550983   5.2107439  11.2753448  )
        44           O1  tau(  44) = (   6.2713562   3.7024388   9.3047907  )
        45           O1  tau(  45) = (   3.6650622   3.7005085   9.3135888  )
        46           Ti1 tau(  46) = (   5.0160509   3.7038162  12.7585864  )
        47           O1  tau(  47) = (   4.9984032   5.1727849  13.8485277  )
        48           O1  tau(  48) = (   2.9655234   3.7049164  12.5317472  )
        49           O1  tau(  49) = (   2.2548149   3.7063572  14.5693114  )
        50           N1  tau(  50) = (   2.4020298   3.6667063  16.9651815  )
        51           N1  tau(  51) = (   2.1125646   3.6919273  15.8611024  )

     number of k points=    40  Fermi-Dirac smearing, width (Ry)=  0.0073
                       cart. coord. in units 2pi/alat
        k(    1) = (   0.0000000   0.0000000   0.0000000), wk =   0.0277778
        k(    2) = (   0.0000000   0.0280101   0.0000000), wk =   0.0555556
        k(    3) = (   0.0000000   0.0560203   0.0000000), wk =   0.0555556
        k(    4) = (   0.0000000  -0.0840304   0.0000000), wk =   0.0277778
        k(    5) = (   0.0252881   0.0000000   0.0000000), wk =   0.0555556
        k(    6) = (   0.0252881   0.0280101   0.0000000), wk =   0.0555556
        k(    7) = (   0.0252881   0.0560203   0.0000000), wk =   0.0555556
        k(    8) = (   0.0252881  -0.0840304   0.0000000), wk =   0.0555556
        k(    9) = (   0.0505763   0.0000000   0.0000000), wk =   0.0555556
        k(   10) = (   0.0505763   0.0280101   0.0000000), wk =   0.0555556
        k(   11) = (   0.0505763   0.0560203   0.0000000), wk =   0.0555556
        k(   12) = (   0.0505763  -0.0840304   0.0000000), wk =   0.0555556
        k(   13) = (  -0.0758644   0.0000000   0.0000000), wk =   0.0277778
        k(   14) = (  -0.0758644   0.0280101   0.0000000), wk =   0.0555556
        k(   15) = (  -0.0758644   0.0560203   0.0000000), wk =   0.0555556
        k(   16) = (  -0.0758644  -0.0840304   0.0000000), wk =   0.0277778
        k(   17) = (  -0.0252881   0.0280101   0.0000000), wk =   0.0555556
        k(   18) = (  -0.0252881   0.0560203   0.0000000), wk =   0.0555556
        k(   19) = (  -0.0505763   0.0280101   0.0000000), wk =   0.0555556
        k(   20) = (  -0.0505763   0.0560203   0.0000000), wk =   0.0555556
        k(   21) = (   0.0000000   0.0000000   0.0000000), wk =   0.0277778
        k(   22) = (   0.0000000   0.0280101   0.0000000), wk =   0.0555556
        k(   23) = (   0.0000000   0.0560203   0.0000000), wk =   0.0555556
        k(   24) = (   0.0000000  -0.0840304   0.0000000), wk =   0.0277778
        k(   25) = (   0.0252881   0.0000000   0.0000000), wk =   0.0555556
        k(   26) = (   0.0252881   0.0280101   0.0000000), wk =   0.0555556
        k(   27) = (   0.0252881   0.0560203   0.0000000), wk =   0.0555556
        k(   28) = (   0.0252881  -0.0840304   0.0000000), wk =   0.0555556
        k(   29) = (   0.0505763   0.0000000   0.0000000), wk =   0.0555556
        k(   30) = (   0.0505763   0.0280101   0.0000000), wk =   0.0555556
        k(   31) = (   0.0505763   0.0560203   0.0000000), wk =   0.0555556
        k(   32) = (   0.0505763  -0.0840304   0.0000000), wk =   0.0555556
        k(   33) = (  -0.0758644   0.0000000   0.0000000), wk =   0.0277778
        k(   34) = (  -0.0758644   0.0280101   0.0000000), wk =   0.0555556
        k(   35) = (  -0.0758644   0.0560203   0.0000000), wk =   0.0555556
        k(   36) = (  -0.0758644  -0.0840304   0.0000000), wk =   0.0277778
        k(   37) = (  -0.0252881   0.0280101   0.0000000), wk =   0.0555556
        k(   38) = (  -0.0252881   0.0560203   0.0000000), wk =   0.0555556
        k(   39) = (  -0.0505763   0.0280101   0.0000000), wk =   0.0555556
        k(   40) = (  -0.0505763   0.0560203   0.0000000), wk =   0.0555556

     Dense  grid:  1096637 G-vectors     FFT dimensions: (  80,  72, 375)

     Smooth grid:   277353 G-vectors     FFT dimensions: (  54,  45, 240)

     Largest allocated arrays     est. size (Mb)     dimensions
        Kohn-Sham Wavefunctions         9.98 Mb     (    2180,  300)
        NL pseudopotentials            18.89 Mb     (    2180,  568)
        Each V/rho on FFT grid          4.22 Mb     (  138240,   2)
        Each G-vector array             0.52 Mb     (   68538)
        G-vector shells                 0.25 Mb     (   33046)
     Largest temporary arrays     est. size (Mb)     dimensions
        Auxiliary wavefunctions        39.92 Mb     (    2180, 1200)
        Each subspace H/S matrix       21.97 Mb     (    1200, 1200)
        Each <psi_i|beta_j> matrix      2.60 Mb     (     568,  300)
        Arrays for rho mixing          21.09 Mb     (  138240,   10)

     Check: negative/imaginary core charge=   -0.000049    0.000000

     The initial density is read from file :
     ./calc.save/charge-density.dat


     negative rho (up, down):  1.158E-02 1.158E-02


     ************************************************************************
     *
     * You are using vdW-DF for exchange-correlation in this calculation.
     * Please cite the following three references that made this development
     * possible:
     *
     *   M. Dion, H. Rydberg, E. Schroder, D. C. Langreth, and
     *   B. I. Lundqvist, Phys. Rev. Lett. 92, 246401 (2004).
     *
     *   T. Thonhauser, V. R. Cooper, S. Li, A. Puzder, P. Hyldgaard, and
     *   D. C. Langreth, Phys. Rev. B 76, 125112 (2007).
     *
     *   G. Roman-Perez and J. M. Soler, Phys. Rev. Lett. 103, 096102 (2009).
     *
     *
     * If you are using vdW-DF2, please also cite:
     *
     *   K. Lee, E. D. Murray, L. Kong, B. I. Lundqvist, and
     *   D. C. Langreth, Phys. Rev. B 82, 081101(R) (2010).
     *
     *
     * If you are calculating the stress with vdW-DF, please also cite:
     *
     *   R. Sabatini, E. Kucukbenli, B. Kolb, T. Thonhauser, and
     *   S. de Gironcoli, J. Phys.: Condens. Matter 24, 424209 (2012).
     *
     ************************************************************************

     Carrying out vdW-DF run using the following parameters:

     Nqs =      20    Nr_points =    1024   r_max =   100.000
     q_mesh =
               0.00001000     0.04494208     0.09755937     0.15916263
               0.23128650     0.31572767     0.41458969     0.53033537
               0.66584808     0.82450364     1.01025438     1.22772762
               1.48234092     1.78043706     2.12944203     2.53805004
               3.01644009     3.57652955     4.23227104     5.00000000

     Gradients computed in reciprocal space

     ************************************************************************


     Starting wfc are  300 randomized atomic wfcs

     total cpu time spent up to now is       73.2 secs

     Self-consistent Calculation

     iteration #  1     ecut=    40.42 Ry     beta=0.10
     Davidson diagonalization with overlap
     ethr =  1.00E-05,  avg # of iterations = 14.8

     negative rho (up, down):  1.157E-02 1.157E-02
 
     Magnetic moment per site:
     atom:    1    charge:    3.1250    magn:   -0.0002    constr:    0.0000
     atom:    2    charge:    2.0894    magn:    0.0001    constr:    0.0000
     atom:    3    charge:    3.1196    magn:   -0.0001    constr:    0.0000
     atom:    4    charge:    2.0870    magn:    0.0000    constr:    0.0000
     atom:    5    charge:    3.1170    magn:   -0.0001    constr:    0.0000
     atom:    6    charge:    2.0916    magn:    0.0001    constr:    0.0000
     atom:    7    charge:    3.1186    magn:   -0.0000    constr:    0.0000
     atom:    8    charge:    2.0817    magn:    0.0001    constr:    0.0000
     atom:    9    charge:    3.1250    magn:   -0.0002    constr:    0.0000
     atom:   10    charge:    2.0894    magn:    0.0001    constr:    0.0000
     atom:   11    charge:    3.1196    magn:   -0.0001    constr:    0.0000
     atom:   12    charge:    2.0870    magn:    0.0000    constr:    0.0000
     atom:   13    charge:    3.1148    magn:   -0.0001    constr:    0.0000
     atom:   14    charge:    2.0911    magn:    0.0001    constr:    0.0000
     atom:   15    charge:    3.1195    magn:   -0.0000    constr:    0.0000
     atom:   16    charge:    2.0886    magn:    0.0001    constr:    0.0000
     atom:   17    charge:    2.0624    magn:    0.0004    constr:    0.0000
     atom:   18    charge:    3.1239    magn:   -0.0000    constr:    0.0000
     atom:   19    charge:    2.0878    magn:   -0.0000    constr:    0.0000
     atom:   20    charge:    2.0847    magn:   -0.0001    constr:    0.0000
     atom:   21    charge:    2.0847    magn:   -0.0001    constr:    0.0000
     atom:   22    charge:    3.1197    magn:   -0.0000    constr:    0.0000
     atom:   23    charge:    2.0908    magn:    0.0001    constr:    0.0000
     atom:   24    charge:    2.0777    magn:    0.0001    constr:    0.0000
     atom:   25    charge:    2.0869    magn:    0.0000    constr:    0.0000
     atom:   26    charge:    3.1165    magn:   -0.0001    constr:    0.0000
     atom:   27    charge:    2.0824    magn:    0.0002    constr:    0.0000
     atom:   28    charge:    2.0879    magn:    0.0001    constr:    0.0000
     atom:   29    charge:    2.0877    magn:    0.0001    constr:    0.0000
     atom:   30    charge:    3.1168    magn:   -0.0001    constr:    0.0000
     atom:   31    charge:    2.0814    magn:    0.0003    constr:    0.0000
     atom:   32    charge:    2.0841    magn:    0.0001    constr:    0.0000
     atom:   33    charge:    2.0624    magn:    0.0004    constr:    0.0000
     atom:   34    charge:    3.1239    magn:   -0.0000    constr:    0.0000
     atom:   35    charge:    2.0878    magn:   -0.0000    constr:    0.0000
     atom:   36    charge:    2.0847    magn:   -0.0001    constr:    0.0000
     atom:   37    charge:    2.0847    magn:   -0.0001    constr:    0.0000
     atom:   38    charge:    3.1197    magn:   -0.0000    constr:    0.0000
     atom:   39    charge:    2.0912    magn:    0.0001    constr:    0.0000
     atom:   40    charge:    2.0777    magn:    0.0001    constr:    0.0000
     atom:   41    charge:    2.0869    magn:    0.0000    constr:    0.0000
     atom:   42    charge:    3.1181    magn:   -0.0001    constr:    0.0000
     atom:   43    charge:    2.0838    magn:    0.0002    constr:    0.0000
     atom:   44    charge:    2.0865    magn:    0.0001    constr:    0.0000
     atom:   45    charge:    2.0871    magn:    0.0001    constr:    0.0000
     atom:   46    charge:    3.1171    magn:   -0.0001    constr:    0.0000
     atom:   47    charge:    2.0795    magn:    0.0003    constr:    0.0000
     atom:   48    charge:    2.0828    magn:    0.0002    constr:    0.0000
     atom:   49    charge:    2.0518    magn:   -0.0000    constr:    0.0000
     atom:   50    charge:    1.2558    magn:   -0.0000    constr:    0.0000
     atom:   51    charge:    1.2811    magn:    0.0000    constr:    0.0000

     total cpu time spent up to now is      831.6 secs

     total energy              =   -3044.96349036 Ry
     Harris-Foulkes estimate   =   -3044.97041130 Ry
     estimated scf accuracy    <       0.04782629 Ry

     total magnetization       =     0.00 Bohr mag/cell
     absolute magnetization    =     0.01 Bohr mag/cell

     iteration #  2     ecut=    40.42 Ry     beta=0.10
     Davidson diagonalization with overlap
     ethr =  1.20E-05,  avg # of iterations =  2.0

     negative rho (up, down):  1.156E-02 1.156E-02
 
     Magnetic moment per site:
     atom:    1    charge:    3.1250    magn:   -0.0001    constr:    0.0000
     atom:    2    charge:    2.0894    magn:    0.0001    constr:    0.0000
     atom:    3    charge:    3.1196    magn:   -0.0000    constr:    0.0000
     atom:    4    charge:    2.0870    magn:    0.0000    constr:    0.0000
     atom:    5    charge:    3.1170    magn:   -0.0000    constr:    0.0000
     atom:    6    charge:    2.0917    magn:    0.0001    constr:    0.0000
     atom:    7    charge:    3.1185    magn:   -0.0000    constr:    0.0000
     atom:    8    charge:    2.0817    magn:    0.0001    constr:    0.0000
     atom:    9    charge:    3.1250    magn:   -0.0001    constr:    0.0000
     atom:   10    charge:    2.0894    magn:    0.0001    constr:    0.0000
     atom:   11    charge:    3.1196    magn:   -0.0000    constr:    0.0000
     atom:   12    charge:    2.0870    magn:    0.0000    constr:    0.0000
     atom:   13    charge:    3.1148    magn:   -0.0000    constr:    0.0000
     atom:   14    charge:    2.0911    magn:    0.0001    constr:    0.0000
     atom:   15    charge:    3.1194    magn:   -0.0000    constr:    0.0000
     atom:   16    charge:    2.0887    magn:    0.0001    constr:    0.0000
     atom:   17    charge:    2.0624    magn:    0.0003    constr:    0.0000
     atom:   18    charge:    3.1239    magn:   -0.0000    constr:    0.0000
     atom:   19    charge:    2.0878    magn:   -0.0000    constr:    0.0000
     atom:   20    charge:    2.0847    magn:   -0.0001    constr:    0.0000
     atom:   21    charge:    2.0847    magn:   -0.0001    constr:    0.0000
     atom:   22    charge:    3.1197    magn:   -0.0000    constr:    0.0000
     atom:   23    charge:    2.0909    magn:    0.0001    constr:    0.0000
     atom:   24    charge:    2.0777    magn:    0.0001    constr:    0.0000
     atom:   25    charge:    2.0869    magn:    0.0000    constr:    0.0000
     atom:   26    charge:    3.1165    magn:   -0.0001    constr:    0.0000
     atom:   27    charge:    2.0824    magn:    0.0002    constr:    0.0000
     atom:   28    charge:    2.0879    magn:    0.0001    constr:    0.0000
     atom:   29    charge:    2.0878    magn:    0.0001    constr:    0.0000
     atom:   30    charge:    3.1168    magn:   -0.0001    constr:    0.0000
     atom:   31    charge:    2.0812    magn:    0.0002    constr:    0.0000
     atom:   32    charge:    2.0841    magn:    0.0001    constr:    0.0000
     atom:   33    charge:    2.0624    magn:    0.0003    constr:    0.0000
     atom:   34    charge:    3.1239    magn:   -0.0000    constr:    0.0000
     atom:   35    charge:    2.0878    magn:   -0.0000    constr:    0.0000
     atom:   36    charge:    2.0847    magn:   -0.0001    constr:    0.0000
     atom:   37    charge:    2.0847    magn:   -0.0001    constr:    0.0000
     atom:   38    charge:    3.1197    magn:   -0.0000    constr:    0.0000
     atom:   39    charge:    2.0912    magn:    0.0001    constr:    0.0000
     atom:   40    charge:    2.0777    magn:    0.0001    constr:    0.0000
     atom:   41    charge:    2.0869    magn:    0.0000    constr:    0.0000
     atom:   42    charge:    3.1181    magn:   -0.0001    constr:    0.0000
     atom:   43    charge:    2.0838    magn:    0.0002    constr:    0.0000
     atom:   44    charge:    2.0865    magn:    0.0001    constr:    0.0000
     atom:   45    charge:    2.0871    magn:    0.0001    constr:    0.0000
     atom:   46    charge:    3.1171    magn:   -0.0001    constr:    0.0000
     atom:   47    charge:    2.0793    magn:    0.0002    constr:    0.0000
     atom:   48    charge:    2.0823    magn:    0.0001    constr:    0.0000
     atom:   49    charge:    2.0501    magn:   -0.0000    constr:    0.0000
     atom:   50    charge:    1.2517    magn:   -0.0000    constr:    0.0000
     atom:   51    charge:    1.2846    magn:    0.0000    constr:    0.0000

     total cpu time spent up to now is     1021.7 secs

     total energy              =   -3044.95316824 Ry
     Harris-Foulkes estimate   =   -3044.96407829 Ry
     estimated scf accuracy    <       0.02844736 Ry

     total magnetization       =     0.00 Bohr mag/cell
     absolute magnetization    =     0.01 Bohr mag/cell

     iteration #  3     ecut=    40.42 Ry     beta=0.10
     Davidson diagonalization with overlap
     ethr =  7.11E-06,  avg # of iterations =  2.5

     negative rho (up, down):  1.156E-02 1.156E-02
 
     Magnetic moment per site:
     atom:    1    charge:    3.1251    magn:   -0.0001    constr:    0.0000
     atom:    2    charge:    2.0894    magn:    0.0001    constr:    0.0000
     atom:    3    charge:    3.1196    magn:   -0.0000    constr:    0.0000
     atom:    4    charge:    2.0870    magn:    0.0000    constr:    0.0000
     atom:    5    charge:    3.1170    magn:   -0.0000    constr:    0.0000
     atom:    6    charge:    2.0918    magn:    0.0000    constr:    0.0000
     atom:    7    charge:    3.1183    magn:   -0.0000    constr:    0.0000
     atom:    8    charge:    2.0813    magn:    0.0000    constr:    0.0000
     atom:    9    charge:    3.1251    magn:   -0.0001    constr:    0.0000
     atom:   10    charge:    2.0894    magn:    0.0001    constr:    0.0000
     atom:   11    charge:    3.1196    magn:   -0.0000    constr:    0.0000
     atom:   12    charge:    2.0870    magn:    0.0000    constr:    0.0000
     atom:   13    charge:    3.1148    magn:   -0.0000    constr:    0.0000
     atom:   14    charge:    2.0912    magn:    0.0000    constr:    0.0000
     atom:   15    charge:    3.1192    magn:   -0.0000    constr:    0.0000
     atom:   16    charge:    2.0881    magn:    0.0000    constr:    0.0000
     atom:   17    charge:    2.0623    magn:    0.0003    constr:    0.0000
     atom:   18    charge:    3.1239    magn:   -0.0000    constr:    0.0000
     atom:   19    charge:    2.0878    magn:   -0.0000    constr:    0.0000
     atom:   20    charge:    2.0847    magn:   -0.0000    constr:    0.0000
     atom:   21    charge:    2.0847    magn:   -0.0000    constr:    0.0000
     atom:   22    charge:    3.1197    magn:   -0.0000    constr:    0.0000
     atom:   23    charge:    2.0909    magn:    0.0000    constr:    0.0000
     atom:   24    charge:    2.0777    magn:    0.0000    constr:    0.0000
     atom:   25    charge:    2.0869    magn:    0.0000    constr:    0.0000
     atom:   26    charge:    3.1165    magn:   -0.0000    constr:    0.0000
     atom:   27    charge:    2.0824    magn:    0.0001    constr:    0.0000
     atom:   28    charge:    2.0879    magn:    0.0001    constr:    0.0000
     atom:   29    charge:    2.0878    magn:    0.0001    constr:    0.0000
     atom:   30    charge:    3.1167    magn:   -0.0001    constr:    0.0000
     atom:   31    charge:    2.0814    magn:    0.0002    constr:    0.0000
     atom:   32    charge:    2.0844    magn:    0.0000    constr:    0.0000
     atom:   33    charge:    2.0623    magn:    0.0003    constr:    0.0000
     atom:   34    charge:    3.1239    magn:   -0.0000    constr:    0.0000
     atom:   35    charge:    2.0878    magn:   -0.0000    constr:    0.0000
     atom:   36    charge:    2.0847    magn:   -0.0000    constr:    0.0000
     atom:   37    charge:    2.0847    magn:   -0.0000    constr:    0.0000
     atom:   38    charge:    3.1197    magn:   -0.0000    constr:    0.0000
     atom:   39    charge:    2.0912    magn:    0.0000    constr:    0.0000
     atom:   40    charge:    2.0777    magn:    0.0000    constr:    0.0000
     atom:   41    charge:    2.0869    magn:    0.0000    constr:    0.0000
     atom:   42    charge:    3.1181    magn:   -0.0000    constr:    0.0000
     atom:   43    charge:    2.0838    magn:    0.0001    constr:    0.0000
     atom:   44    charge:    2.0864    magn:    0.0001    constr:    0.0000
     atom:   45    charge:    2.0872    magn:    0.0001    constr:    0.0000
     atom:   46    charge:    3.1171    magn:   -0.0001    constr:    0.0000
     atom:   47    charge:    2.0795    magn:    0.0002    constr:    0.0000
     atom:   48    charge:    2.0836    magn:    0.0001    constr:    0.0000
     atom:   49    charge:    2.0492    magn:   -0.0000    constr:    0.0000
     atom:   50    charge:    1.2535    magn:   -0.0000    constr:    0.0000
     atom:   51    charge:    1.2824    magn:    0.0000    constr:    0.0000

     total cpu time spent up to now is     1222.5 secs

     total energy              =   -3044.95225580 Ry
     Harris-Foulkes estimate   =   -3044.95530085 Ry
     estimated scf accuracy    <       0.00663235 Ry

     total magnetization       =     0.00 Bohr mag/cell
     absolute magnetization    =     0.00 Bohr mag/cell

     iteration #  4     ecut=    40.42 Ry     beta=0.10
     Davidson diagonalization with overlap
     ethr =  1.66E-06,  avg # of iterations =  5.3

     negative rho (up, down):  1.156E-02 1.156E-02
 
     Magnetic moment per site:
     atom:    1    charge:    3.1250    magn:   -0.0001    constr:    0.0000
     atom:    2    charge:    2.0894    magn:    0.0001    constr:    0.0000
     atom:    3    charge:    3.1196    magn:   -0.0000    constr:    0.0000
     atom:    4    charge:    2.0870    magn:    0.0000    constr:    0.0000
     atom:    5    charge:    3.1170    magn:   -0.0000    constr:    0.0000
     atom:    6    charge:    2.0917    magn:    0.0000    constr:    0.0000
     atom:    7    charge:    3.1184    magn:   -0.0000    constr:    0.0000
     atom:    8    charge:    2.0813    magn:    0.0000    constr:    0.0000
     atom:    9    charge:    3.1250    magn:   -0.0001    constr:    0.0000
     atom:   10    charge:    2.0894    magn:    0.0001    constr:    0.0000
     atom:   11    charge:    3.1196    magn:   -0.0000    constr:    0.0000
     atom:   12    charge:    2.0870    magn:    0.0000    constr:    0.0000
     atom:   13    charge:    3.1148    magn:   -0.0000    constr:    0.0000
     atom:   14    charge:    2.0912    magn:    0.0000    constr:    0.0000
     atom:   15    charge:    3.1193    magn:   -0.0000    constr:    0.0000
     atom:   16    charge:    2.0880    magn:    0.0000    constr:    0.0000
     atom:   17    charge:    2.0623    magn:    0.0002    constr:    0.0000
     atom:   18    charge:    3.1239    magn:   -0.0000    constr:    0.0000
     atom:   19    charge:    2.0878    magn:   -0.0000    constr:    0.0000
     atom:   20    charge:    2.0847    magn:   -0.0000    constr:    0.0000
     atom:   21    charge:    2.0847    magn:   -0.0000    constr:    0.0000
     atom:   22    charge:    3.1197    magn:   -0.0000    constr:    0.0000
     atom:   23    charge:    2.0908    magn:    0.0000    constr:    0.0000
     atom:   24    charge:    2.0778    magn:    0.0000    constr:    0.0000
     atom:   25    charge:    2.0869    magn:    0.0000    constr:    0.0000
     atom:   26    charge:    3.1165    magn:   -0.0000    constr:    0.0000
     atom:   27    charge:    2.0824    magn:    0.0001    constr:    0.0000
     atom:   28    charge:    2.0879    magn:    0.0001    constr:    0.0000
     atom:   29    charge:    2.0877    magn:    0.0000    constr:    0.0000
     atom:   30    charge:    3.1168    magn:   -0.0001    constr:    0.0000
     atom:   31    charge:    2.0815    magn:    0.0002    constr:    0.0000
     atom:   32    charge:    2.0844    magn:    0.0000    constr:    0.0000
     atom:   33    charge:    2.0623    magn:    0.0002    constr:    0.0000
     atom:   34    charge:    3.1239    magn:   -0.0000    constr:    0.0000
     atom:   35    charge:    2.0878    magn:   -0.0000    constr:    0.0000
     atom:   36    charge:    2.0847    magn:   -0.0000    constr:    0.0000
     atom:   37    charge:    2.0847    magn:   -0.0000    constr:    0.0000
     atom:   38    charge:    3.1197    magn:   -0.0000    constr:    0.0000
     atom:   39    charge:    2.0912    magn:    0.0000    constr:    0.0000
     atom:   40    charge:    2.0778    magn:    0.0000    constr:    0.0000
     atom:   41    charge:    2.0869    magn:    0.0000    constr:    0.0000
     atom:   42    charge:    3.1181    magn:   -0.0000    constr:    0.0000
     atom:   43    charge:    2.0838    magn:    0.0001    constr:    0.0000
     atom:   44    charge:    2.0865    magn:    0.0001    constr:    0.0000
     atom:   45    charge:    2.0871    magn:    0.0000    constr:    0.0000
     atom:   46    charge:    3.1172    magn:   -0.0001    constr:    0.0000
     atom:   47    charge:    2.0796    magn:    0.0002    constr:    0.0000
     atom:   48    charge:    2.0839    magn:    0.0001    constr:    0.0000
     atom:   49    charge:    2.0506    magn:   -0.0000    constr:    0.0000
     atom:   50    charge:    1.2546    magn:   -0.0000    constr:    0.0000
     atom:   51    charge:    1.2805    magn:    0.0000    constr:    0.0000

     total cpu time spent up to now is     1466.0 secs

     total energy              =   -3044.95259464 Ry
     Harris-Foulkes estimate   =   -3044.95291983 Ry
     estimated scf accuracy    <       0.00088792 Ry

     total magnetization       =     0.00 Bohr mag/cell
     absolute magnetization    =     0.00 Bohr mag/cell

     iteration #  5     ecut=    40.42 Ry     beta=0.10
     Davidson diagonalization with overlap
     ethr =  2.22E-07,  avg # of iterations =  3.0

     negative rho (up, down):  1.157E-02 1.157E-02
 
     Magnetic moment per site:
     atom:    1    charge:    3.1250    magn:   -0.0001    constr:    0.0000
     atom:    2    charge:    2.0894    magn:    0.0001    constr:    0.0000
     atom:    3    charge:    3.1196    magn:   -0.0000    constr:    0.0000
     atom:    4    charge:    2.0870    magn:    0.0000    constr:    0.0000
     atom:    5    charge:    3.1170    magn:   -0.0000    constr:    0.0000
     atom:    6    charge:    2.0917    magn:    0.0000    constr:    0.0000
     atom:    7    charge:    3.1184    magn:   -0.0000    constr:    0.0000
     atom:    8    charge:    2.0815    magn:    0.0000    constr:    0.0000
     atom:    9    charge:    3.1250    magn:   -0.0001    constr:    0.0000
     atom:   10    charge:    2.0894    magn:    0.0001    constr:    0.0000
     atom:   11    charge:    3.1196    magn:   -0.0000    constr:    0.0000
     atom:   12    charge:    2.0870    magn:    0.0000    constr:    0.0000
     atom:   13    charge:    3.1148    magn:   -0.0000    constr:    0.0000
     atom:   14    charge:    2.0911    magn:    0.0000    constr:    0.0000
     atom:   15    charge:    3.1194    magn:   -0.0000    constr:    0.0000
     atom:   16    charge:    2.0881    magn:    0.0000    constr:    0.0000
     atom:   17    charge:    2.0624    magn:    0.0002    constr:    0.0000
     atom:   18    charge:    3.1239    magn:   -0.0000    constr:    0.0000
     atom:   19    charge:    2.0878    magn:   -0.0000    constr:    0.0000
     atom:   20    charge:    2.0847    magn:   -0.0000    constr:    0.0000
     atom:   21    charge:    2.0847    magn:   -0.0000    constr:    0.0000
     atom:   22    charge:    3.1197    magn:   -0.0000    constr:    0.0000
     atom:   23    charge:    2.0909    magn:    0.0000    constr:    0.0000
     atom:   24    charge:    2.0777    magn:    0.0000    constr:    0.0000
     atom:   25    charge:    2.0869    magn:    0.0000    constr:    0.0000
     atom:   26    charge:    3.1165    magn:   -0.0000    constr:    0.0000
     atom:   27    charge:    2.0824    magn:    0.0001    constr:    0.0000
     atom:   28    charge:    2.0879    magn:    0.0000    constr:    0.0000
     atom:   29    charge:    2.0877    magn:    0.0000    constr:    0.0000
     atom:   30    charge:    3.1168    magn:   -0.0001    constr:    0.0000
     atom:   31    charge:    2.0816    magn:    0.0001    constr:    0.0000
     atom:   32    charge:    2.0843    magn:    0.0000    constr:    0.0000
     atom:   33    charge:    2.0624    magn:    0.0002    constr:    0.0000
     atom:   34    charge:    3.1239    magn:   -0.0000    constr:    0.0000
     atom:   35    charge:    2.0878    magn:   -0.0000    constr:    0.0000
     atom:   36    charge:    2.0847    magn:   -0.0000    constr:    0.0000
     atom:   37    charge:    2.0847    magn:   -0.0000    constr:    0.0000
     atom:   38    charge:    3.1197    magn:   -0.0000    constr:    0.0000
     atom:   39    charge:    2.0912    magn:    0.0000    constr:    0.0000
     atom:   40    charge:    2.0777    magn:    0.0000    constr:    0.0000
     atom:   41    charge:    2.0869    magn:    0.0000    constr:    0.0000
     atom:   42    charge:    3.1181    magn:   -0.0000    constr:    0.0000
     atom:   43    charge:    2.0838    magn:    0.0001    constr:    0.0000
     atom:   44    charge:    2.0865    magn:    0.0000    constr:    0.0000
     atom:   45    charge:    2.0871    magn:    0.0000    constr:    0.0000
     atom:   46    charge:    3.1171    magn:   -0.0001    constr:    0.0000
     atom:   47    charge:    2.0797    magn:    0.0001    constr:    0.0000
     atom:   48    charge:    2.0836    magn:    0.0001    constr:    0.0000
     atom:   49    charge:    2.0516    magn:    0.0000    constr:    0.0000
     atom:   50    charge:    1.2551    magn:   -0.0000    constr:    0.0000
     atom:   51    charge:    1.2798    magn:    0.0000    constr:    0.0000

     total cpu time spent up to now is     1673.3 secs

     total energy              =   -3044.95262750 Ry
     Harris-Foulkes estimate   =   -3044.95267850 Ry
     estimated scf accuracy    <       0.00017458 Ry

     total magnetization       =     0.00 Bohr mag/cell
     absolute magnetization    =     0.00 Bohr mag/cell

     iteration #  6     ecut=    40.42 Ry     beta=0.10
     Davidson diagonalization with overlap
     ethr =  4.36E-08,  avg # of iterations =  3.0

     negative rho (up, down):  1.157E-02 1.157E-02
 
     Magnetic moment per site:
     atom:    1    charge:    3.1250    magn:   -0.0001    constr:    0.0000
     atom:    2    charge:    2.0894    magn:    0.0000    constr:    0.0000
     atom:    3    charge:    3.1196    magn:   -0.0000    constr:    0.0000
     atom:    4    charge:    2.0870    magn:    0.0000    constr:    0.0000
     atom:    5    charge:    3.1170    magn:   -0.0000    constr:    0.0000
     atom:    6    charge:    2.0917    magn:    0.0000    constr:    0.0000
     atom:    7    charge:    3.1184    magn:   -0.0000    constr:    0.0000
     atom:    8    charge:    2.0816    magn:    0.0000    constr:    0.0000
     atom:    9    charge:    3.1250    magn:   -0.0001    constr:    0.0000
     atom:   10    charge:    2.0894    magn:    0.0000    constr:    0.0000
     atom:   11    charge:    3.1196    magn:   -0.0000    constr:    0.0000
     atom:   12    charge:    2.0870    magn:    0.0000    constr:    0.0000
     atom:   13    charge:    3.1148    magn:   -0.0000    constr:    0.0000
     atom:   14    charge:    2.0912    magn:    0.0000    constr:    0.0000
     atom:   15    charge:    3.1194    magn:   -0.0000    constr:    0.0000
     atom:   16    charge:    2.0883    magn:    0.0000    constr:    0.0000
     atom:   17    charge:    2.0624    magn:    0.0002    constr:    0.0000
     atom:   18    charge:    3.1239    magn:   -0.0000    constr:    0.0000
     atom:   19    charge:    2.0878    magn:   -0.0000    constr:    0.0000
     atom:   20    charge:    2.0847    magn:   -0.0000    constr:    0.0000
     atom:   21    charge:    2.0847    magn:   -0.0000    constr:    0.0000
     atom:   22    charge:    3.1197    magn:   -0.0000    constr:    0.0000
     atom:   23    charge:    2.0909    magn:    0.0000    constr:    0.0000
     atom:   24    charge:    2.0777    magn:    0.0000    constr:    0.0000
     atom:   25    charge:    2.0869    magn:    0.0000    constr:    0.0000
     atom:   26    charge:    3.1165    magn:   -0.0000    constr:    0.0000
     atom:   27    charge:    2.0823    magn:    0.0001    constr:    0.0000
     atom:   28    charge:    2.0879    magn:    0.0000    constr:    0.0000
     atom:   29    charge:    2.0877    magn:    0.0000    constr:    0.0000
     atom:   30    charge:    3.1168    magn:   -0.0001    constr:    0.0000
     atom:   31    charge:    2.0816    magn:    0.0001    constr:    0.0000
     atom:   32    charge:    2.0842    magn:    0.0000    constr:    0.0000
     atom:   33    charge:    2.0624    magn:    0.0002    constr:    0.0000
     atom:   34    charge:    3.1239    magn:   -0.0000    constr:    0.0000
     atom:   35    charge:    2.0878    magn:   -0.0000    constr:    0.0000
     atom:   36    charge:    2.0847    magn:   -0.0000    constr:    0.0000
     atom:   37    charge:    2.0847    magn:   -0.0000    constr:    0.0000
     atom:   38    charge:    3.1197    magn:   -0.0000    constr:    0.0000
     atom:   39    charge:    2.0912    magn:    0.0000    constr:    0.0000
     atom:   40    charge:    2.0777    magn:    0.0000    constr:    0.0000
     atom:   41    charge:    2.0869    magn:    0.0000    constr:    0.0000
     atom:   42    charge:    3.1181    magn:   -0.0000    constr:    0.0000
     atom:   43    charge:    2.0837    magn:    0.0001    constr:    0.0000
     atom:   44    charge:    2.0865    magn:    0.0000    constr:    0.0000
     atom:   45    charge:    2.0871    magn:    0.0000    constr:    0.0000
     atom:   46    charge:    3.1171    magn:   -0.0001    constr:    0.0000
     atom:   47    charge:    2.0797    magn:    0.0001    constr:    0.0000
     atom:   48    charge:    2.0833    magn:    0.0001    constr:    0.0000
     atom:   49    charge:    2.0514    magn:    0.0000    constr:    0.0000
     atom:   50    charge:    1.2552    magn:   -0.0000    constr:    0.0000
     atom:   51    charge:    1.2802    magn:    0.0000    constr:    0.0000

     total cpu time spent up to now is     1880.3 secs

     total energy              =   -3044.95262558 Ry
     Harris-Foulkes estimate   =   -3044.95264196 Ry
     estimated scf accuracy    <       0.00006458 Ry

     total magnetization       =     0.00 Bohr mag/cell
     absolute magnetization    =     0.00 Bohr mag/cell

     iteration #  7     ecut=    40.42 Ry     beta=0.10
     Davidson diagonalization with overlap
     ethr =  1.61E-08,  avg # of iterations =  2.0

     negative rho (up, down):  1.157E-02 1.157E-02
 
     Magnetic moment per site:
     atom:    1    charge:    3.1250    magn:   -0.0000    constr:    0.0000
     atom:    2    charge:    2.0894    magn:    0.0000    constr:    0.0000
     atom:    3    charge:    3.1196    magn:   -0.0000    constr:    0.0000
     atom:    4    charge:    2.0870    magn:    0.0000    constr:    0.0000
     atom:    5    charge:    3.1170    magn:   -0.0000    constr:    0.0000
     atom:    6    charge:    2.0917    magn:    0.0000    constr:    0.0000
     atom:    7    charge:    3.1185    magn:   -0.0000    constr:    0.0000
     atom:    8    charge:    2.0816    magn:    0.0000    constr:    0.0000
     atom:    9    charge:    3.1250    magn:   -0.0000    constr:    0.0000
     atom:   10    charge:    2.0894    magn:    0.0000    constr:    0.0000
     atom:   11    charge:    3.1196    magn:   -0.0000    constr:    0.0000
     atom:   12    charge:    2.0870    magn:    0.0000    constr:    0.0000
     atom:   13    charge:    3.1148    magn:   -0.0000    constr:    0.0000
     atom:   14    charge:    2.0911    magn:    0.0000    constr:    0.0000
     atom:   15    charge:    3.1194    magn:   -0.0000    constr:    0.0000
     atom:   16    charge:    2.0884    magn:    0.0000    constr:    0.0000
     atom:   17    charge:    2.0624    magn:    0.0001    constr:    0.0000
     atom:   18    charge:    3.1239    magn:   -0.0000    constr:    0.0000
     atom:   19    charge:    2.0878    magn:   -0.0000    constr:    0.0000
     atom:   20    charge:    2.0847    magn:   -0.0000    constr:    0.0000
     atom:   21    charge:    2.0847    magn:   -0.0000    constr:    0.0000
     atom:   22    charge:    3.1197    magn:   -0.0000    constr:    0.0000
     atom:   23    charge:    2.0909    magn:    0.0000    constr:    0.0000
     atom:   24    charge:    2.0777    magn:    0.0000    constr:    0.0000
     atom:   25    charge:    2.0869    magn:    0.0000    constr:    0.0000
     atom:   26    charge:    3.1165    magn:   -0.0000    constr:    0.0000
     atom:   27    charge:    2.0824    magn:    0.0001    constr:    0.0000
     atom:   28    charge:    2.0879    magn:    0.0000    constr:    0.0000
     atom:   29    charge:    2.0877    magn:    0.0000    constr:    0.0000
     atom:   30    charge:    3.1168    magn:   -0.0000    constr:    0.0000
     atom:   31    charge:    2.0815    magn:    0.0001    constr:    0.0000
     atom:   32    charge:    2.0842    magn:    0.0000    constr:    0.0000
     atom:   33    charge:    2.0624    magn:    0.0001    constr:    0.0000
     atom:   34    charge:    3.1239    magn:   -0.0000    constr:    0.0000
     atom:   35    charge:    2.0878    magn:   -0.0000    constr:    0.0000
     atom:   36    charge:    2.0847    magn:   -0.0000    constr:    0.0000
     atom:   37    charge:    2.0847    magn:   -0.0000    constr:    0.0000
     atom:   38    charge:    3.1197    magn:   -0.0000    constr:    0.0000
     atom:   39    charge:    2.0912    magn:    0.0000    constr:    0.0000
     atom:   40    charge:    2.0777    magn:    0.0000    constr:    0.0000
     atom:   41    charge:    2.0869    magn:    0.0000    constr:    0.0000
     atom:   42    charge:    3.1181    magn:   -0.0000    constr:    0.0000
     atom:   43    charge:    2.0838    magn:    0.0001    constr:    0.0000
     atom:   44    charge:    2.0865    magn:    0.0000    constr:    0.0000
     atom:   45    charge:    2.0871    magn:    0.0000    constr:    0.0000
     atom:   46    charge:    3.1171    magn:   -0.0000    constr:    0.0000
     atom:   47    charge:    2.0796    magn:    0.0001    constr:    0.0000
     atom:   48    charge:    2.0833    magn:    0.0000    constr:    0.0000
     atom:   49    charge:    2.0515    magn:    0.0000    constr:    0.0000
     atom:   50    charge:    1.2553    magn:   -0.0000    constr:    0.0000
     atom:   51    charge:    1.2802    magn:    0.0000    constr:    0.0000

     total cpu time spent up to now is     2073.2 secs

     total energy              =   -3044.95262447 Ry
     Harris-Foulkes estimate   =   -3044.95262968 Ry
     estimated scf accuracy    <       0.00001879 Ry

     total magnetization       =     0.00 Bohr mag/cell
     absolute magnetization    =     0.00 Bohr mag/cell

     iteration #  8     ecut=    40.42 Ry     beta=0.10
     Davidson diagonalization with overlap
     ethr =  4.70E-09,  avg # of iterations =  3.0

     negative rho (up, down):  1.157E-02 1.157E-02
 
     Magnetic moment per site:
     atom:    1    charge:    3.1250    magn:   -0.0000    constr:    0.0000
     atom:    2    charge:    2.0894    magn:    0.0000    constr:    0.0000
     atom:    3    charge:    3.1196    magn:   -0.0000    constr:    0.0000
     atom:    4    charge:    2.0870    magn:    0.0000    constr:    0.0000
     atom:    5    charge:    3.1170    magn:   -0.0000    constr:    0.0000
     atom:    6    charge:    2.0917    magn:    0.0000    constr:    0.0000
     atom:    7    charge:    3.1185    magn:   -0.0000    constr:    0.0000
     atom:    8    charge:    2.0816    magn:    0.0000    constr:    0.0000
     atom:    9    charge:    3.1250    magn:   -0.0000    constr:    0.0000
     atom:   10    charge:    2.0894    magn:    0.0000    constr:    0.0000
     atom:   11    charge:    3.1196    magn:   -0.0000    constr:    0.0000
     atom:   12    charge:    2.0870    magn:    0.0000    constr:    0.0000
     atom:   13    charge:    3.1148    magn:   -0.0000    constr:    0.0000
     atom:   14    charge:    2.0911    magn:    0.0000    constr:    0.0000
     atom:   15    charge:    3.1194    magn:   -0.0000    constr:    0.0000
     atom:   16    charge:    2.0884    magn:    0.0000    constr:    0.0000
     atom:   17    charge:    2.0624    magn:    0.0001    constr:    0.0000
     atom:   18    charge:    3.1239    magn:   -0.0000    constr:    0.0000
     atom:   19    charge:    2.0878    magn:   -0.0000    constr:    0.0000
     atom:   20    charge:    2.0847    magn:   -0.0000    constr:    0.0000
     atom:   21    charge:    2.0847    magn:   -0.0000    constr:    0.0000
     atom:   22    charge:    3.1197    magn:   -0.0000    constr:    0.0000
     atom:   23    charge:    2.0909    magn:    0.0000    constr:    0.0000
     atom:   24    charge:    2.0777    magn:    0.0000    constr:    0.0000
     atom:   25    charge:    2.0869    magn:    0.0000    constr:    0.0000
     atom:   26    charge:    3.1165    magn:   -0.0000    constr:    0.0000
     atom:   27    charge:    2.0824    magn:    0.0000    constr:    0.0000
     atom:   28    charge:    2.0879    magn:    0.0000    constr:    0.0000
     atom:   29    charge:    2.0877    magn:    0.0000    constr:    0.0000
     atom:   30    charge:    3.1168    magn:   -0.0000    constr:    0.0000
     atom:   31    charge:    2.0815    magn:    0.0001    constr:    0.0000
     atom:   32    charge:    2.0842    magn:    0.0000    constr:    0.0000
     atom:   33    charge:    2.0624    magn:    0.0001    constr:    0.0000
     atom:   34    charge:    3.1239    magn:   -0.0000    constr:    0.0000
     atom:   35    charge:    2.0878    magn:   -0.0000    constr:    0.0000
     atom:   36    charge:    2.0847    magn:   -0.0000    constr:    0.0000
     atom:   37    charge:    2.0847    magn:   -0.0000    constr:    0.0000
     atom:   38    charge:    3.1197    magn:   -0.0000    constr:    0.0000
     atom:   39    charge:    2.0912    magn:    0.0000    constr:    0.0000
     atom:   40    charge:    2.0777    magn:    0.0000    constr:    0.0000
     atom:   41    charge:    2.0869    magn:    0.0000    constr:    0.0000
     atom:   42    charge:    3.1181    magn:   -0.0000    constr:    0.0000
     atom:   43    charge:    2.0838    magn:    0.0000    constr:    0.0000
     atom:   44    charge:    2.0865    magn:    0.0000    constr:    0.0000
     atom:   45    charge:    2.0871    magn:    0.0000    constr:    0.0000
     atom:   46    charge:    3.1171    magn:   -0.0000    constr:    0.0000
     atom:   47    charge:    2.0796    magn:    0.0001    constr:    0.0000
     atom:   48    charge:    2.0834    magn:    0.0000    constr:    0.0000
     atom:   49    charge:    2.0513    magn:    0.0000    constr:    0.0000
     atom:   50    charge:    1.2553    magn:   -0.0000    constr:    0.0000
     atom:   51    charge:    1.2803    magn:    0.0000    constr:    0.0000

     total cpu time spent up to now is     2282.1 secs

     total energy              =   -3044.95262606 Ry
     Harris-Foulkes estimate   =   -3044.95262641 Ry
     estimated scf accuracy    <       0.00000326 Ry

     total magnetization       =     0.00 Bohr mag/cell
     absolute magnetization    =     0.00 Bohr mag/cell

     iteration #  9     ecut=    40.42 Ry     beta=0.10
     Davidson diagonalization with overlap
     ethr =  8.15E-10,  avg # of iterations =  2.0

     negative rho (up, down):  1.157E-02 1.157E-02
 
     Magnetic moment per site:
     atom:    1    charge:    3.1250    magn:   -0.0000    constr:    0.0000
     atom:    2    charge:    2.0894    magn:    0.0000    constr:    0.0000
     atom:    3    charge:    3.1196    magn:   -0.0000    constr:    0.0000
     atom:    4    charge:    2.0870    magn:    0.0000    constr:    0.0000
     atom:    5    charge:    3.1170    magn:   -0.0000    constr:    0.0000
     atom:    6    charge:    2.0917    magn:    0.0000    constr:    0.0000
     atom:    7    charge:    3.1185    magn:   -0.0000    constr:    0.0000
     atom:    8    charge:    2.0816    magn:    0.0000    constr:    0.0000
     atom:    9    charge:    3.1250    magn:   -0.0000    constr:    0.0000
     atom:   10    charge:    2.0894    magn:    0.0000    constr:    0.0000
     atom:   11    charge:    3.1196    magn:   -0.0000    constr:    0.0000
     atom:   12    charge:    2.0870    magn:    0.0000    constr:    0.0000
     atom:   13    charge:    3.1148    magn:   -0.0000    constr:    0.0000
     atom:   14    charge:    2.0911    magn:    0.0000    constr:    0.0000
     atom:   15    charge:    3.1194    magn:   -0.0000    constr:    0.0000
     atom:   16    charge:    2.0883    magn:    0.0000    constr:    0.0000
     atom:   17    charge:    2.0624    magn:    0.0001    constr:    0.0000
     atom:   18    charge:    3.1239    magn:   -0.0000    constr:    0.0000
     atom:   19    charge:    2.0878    magn:   -0.0000    constr:    0.0000
     atom:   20    charge:    2.0847    magn:   -0.0000    constr:    0.0000
     atom:   21    charge:    2.0847    magn:   -0.0000    constr:    0.0000
     atom:   22    charge:    3.1197    magn:   -0.0000    constr:    0.0000
     atom:   23    charge:    2.0909    magn:    0.0000    constr:    0.0000
     atom:   24    charge:    2.0777    magn:    0.0000    constr:    0.0000
     atom:   25    charge:    2.0869    magn:    0.0000    constr:    0.0000
     atom:   26    charge:    3.1165    magn:   -0.0000    constr:    0.0000
     atom:   27    charge:    2.0824    magn:    0.0000    constr:    0.0000
     atom:   28    charge:    2.0879    magn:    0.0000    constr:    0.0000
     atom:   29    charge:    2.0877    magn:    0.0000    constr:    0.0000
     atom:   30    charge:    3.1168    magn:   -0.0000    constr:    0.0000
     atom:   31    charge:    2.0815    magn:    0.0001    constr:    0.0000
     atom:   32    charge:    2.0842    magn:    0.0000    constr:    0.0000
     atom:   33    charge:    2.0624    magn:    0.0001    constr:    0.0000
     atom:   34    charge:    3.1239    magn:   -0.0000    constr:    0.0000
     atom:   35    charge:    2.0878    magn:   -0.0000    constr:    0.0000
     atom:   36    charge:    2.0847    magn:   -0.0000    constr:    0.0000
     atom:   37    charge:    2.0847    magn:   -0.0000    constr:    0.0000
     atom:   38    charge:    3.1197    magn:   -0.0000    constr:    0.0000
     atom:   39    charge:    2.0912    magn:    0.0000    constr:    0.0000
     atom:   40    charge:    2.0777    magn:    0.0000    constr:    0.0000
     atom:   41    charge:    2.0869    magn:    0.0000    constr:    0.0000
     atom:   42    charge:    3.1181    magn:   -0.0000    constr:    0.0000
     atom:   43    charge:    2.0838    magn:    0.0000    constr:    0.0000
     atom:   44    charge:    2.0865    magn:    0.0000    constr:    0.0000
     atom:   45    charge:    2.0871    magn:    0.0000    constr:    0.0000
     atom:   46    charge:    3.1171    magn:   -0.0000    constr:    0.0000
     atom:   47    charge:    2.0796    magn:    0.0001    constr:    0.0000
     atom:   48    charge:    2.0834    magn:    0.0000    constr:    0.0000
     atom:   49    charge:    2.0513    magn:    0.0000    constr:    0.0000
     atom:   50    charge:    1.2553    magn:   -0.0000    constr:    0.0000
     atom:   51    charge:    1.2803    magn:    0.0000    constr:    0.0000

     total cpu time spent up to now is     2475.1 secs

     total energy              =   -3044.95262631 Ry
     Harris-Foulkes estimate   =   -3044.95262630 Ry
     estimated scf accuracy    <       0.00000103 Ry

     total magnetization       =     0.00 Bohr mag/cell
     absolute magnetization    =     0.00 Bohr mag/cell

     iteration # 10     ecut=    40.42 Ry     beta=0.10
     Davidson diagonalization with overlap
     ethr =  2.58E-10,  avg # of iterations =  2.0

     negative rho (up, down):  1.157E-02 1.157E-02
 
     Magnetic moment per site:
     atom:    1    charge:    3.1250    magn:   -0.0000    constr:    0.0000
     atom:    2    charge:    2.0894    magn:    0.0000    constr:    0.0000
     atom:    3    charge:    3.1196    magn:   -0.0000    constr:    0.0000
     atom:    4    charge:    2.0870    magn:    0.0000    constr:    0.0000
     atom:    5    charge:    3.1170    magn:   -0.0000    constr:    0.0000
     atom:    6    charge:    2.0917    magn:    0.0000    constr:    0.0000
     atom:    7    charge:    3.1184    magn:   -0.0000    constr:    0.0000
     atom:    8    charge:    2.0815    magn:    0.0000    constr:    0.0000
     atom:    9    charge:    3.1250    magn:   -0.0000    constr:    0.0000
     atom:   10    charge:    2.0894    magn:    0.0000    constr:    0.0000
     atom:   11    charge:    3.1196    magn:   -0.0000    constr:    0.0000
     atom:   12    charge:    2.0870    magn:    0.0000    constr:    0.0000
     atom:   13    charge:    3.1148    magn:   -0.0000    constr:    0.0000
     atom:   14    charge:    2.0912    magn:    0.0000    constr:    0.0000
     atom:   15    charge:    3.1194    magn:   -0.0000    constr:    0.0000
     atom:   16    charge:    2.0883    magn:    0.0000    constr:    0.0000
     atom:   17    charge:    2.0624    magn:    0.0000    constr:    0.0000
     atom:   18    charge:    3.1239    magn:   -0.0000    constr:    0.0000
     atom:   19    charge:    2.0878    magn:   -0.0000    constr:    0.0000
     atom:   20    charge:    2.0847    magn:   -0.0000    constr:    0.0000
     atom:   21    charge:    2.0847    magn:   -0.0000    constr:    0.0000
     atom:   22    charge:    3.1197    magn:   -0.0000    constr:    0.0000
     atom:   23    charge:    2.0909    magn:    0.0000    constr:    0.0000
     atom:   24    charge:    2.0777    magn:    0.0000    constr:    0.0000
     atom:   25    charge:    2.0869    magn:    0.0000    constr:    0.0000
     atom:   26    charge:    3.1165    magn:   -0.0000    constr:    0.0000
     atom:   27    charge:    2.0824    magn:    0.0000    constr:    0.0000
     atom:   28    charge:    2.0879    magn:    0.0000    constr:    0.0000
     atom:   29    charge:    2.0877    magn:    0.0000    constr:    0.0000
     atom:   30    charge:    3.1168    magn:   -0.0000    constr:    0.0000
     atom:   31    charge:    2.0815    magn:    0.0000    constr:    0.0000
     atom:   32    charge:    2.0843    magn:    0.0000    constr:    0.0000
     atom:   33    charge:    2.0624    magn:    0.0000    constr:    0.0000
     atom:   34    charge:    3.1239    magn:   -0.0000    constr:    0.0000
     atom:   35    charge:    2.0878    magn:   -0.0000    constr:    0.0000
     atom:   36    charge:    2.0847    magn:   -0.0000    constr:    0.0000
     atom:   37    charge:    2.0847    magn:   -0.0000    constr:    0.0000
     atom:   38    charge:    3.1197    magn:   -0.0000    constr:    0.0000
     atom:   39    charge:    2.0912    magn:    0.0000    constr:    0.0000
     atom:   40    charge:    2.0777    magn:    0.0000    constr:    0.0000
     atom:   41    charge:    2.0869    magn:    0.0000    constr:    0.0000
     atom:   42    charge:    3.1181    magn:   -0.0000    constr:    0.0000
     atom:   43    charge:    2.0838    magn:    0.0000    constr:    0.0000
     atom:   44    charge:    2.0864    magn:    0.0000    constr:    0.0000
     atom:   45    charge:    2.0871    magn:    0.0000    constr:    0.0000
     atom:   46    charge:    3.1171    magn:   -0.0000    constr:    0.0000
     atom:   47    charge:    2.0796    magn:    0.0000    constr:    0.0000
     atom:   48    charge:    2.0834    magn:    0.0000    constr:    0.0000
     atom:   49    charge:    2.0513    magn:    0.0000    constr:    0.0000
     atom:   50    charge:    1.2553    magn:   -0.0000    constr:    0.0000
     atom:   51    charge:    1.2803    magn:    0.0000    constr:    0.0000

     total cpu time spent up to now is     2666.9 secs

     End of self-consistent calculation

 ------ SPIN UP ------------


          k = 0.0000 0.0000 0.0000 ( 34665 PWs)   bands (ev):

   -57.8293 -57.7943 -57.5208 -57.4652 -57.3980 -57.3617 -57.2851 -57.2498
   -57.1874 -57.1521 -57.1246 -57.0893 -56.8894 -56.8180 -56.2913 -56.2560
   -34.2656 -34.1104 -34.0819 -34.0677 -34.0308 -33.9365 -33.8758 -33.8735
   -33.8353 -33.7786 -33.7413 -33.7311 -33.7270 -33.6957 -33.6787 -33.6761
   -33.6570 -33.6470 -33.6274 -33.5636 -33.5344 -33.4690 -33.4665 -33.4458
   -33.4388 -33.4362 -33.3935 -33.3904 -33.3855 -33.3674 -33.3630 -33.3427
   -33.3205 -33.3146 -33.2864 -33.2813 -33.2560 -33.1509 -33.1460 -33.0902
   -33.0452 -32.9441 -32.7100 -32.6425 -32.6164 -32.5140 -32.4222 -32.3140
   -24.1522 -20.8754 -18.1841 -17.9819 -17.7592 -17.6371 -17.5040 -17.5020
   -17.2196 -17.1982 -17.1546 -17.0609 -17.0592 -17.0162 -17.0014 -16.9287
   -16.8804 -16.8689 -16.8484 -16.8069 -16.7432 -16.6971 -16.5806 -16.5559
   -16.5277 -16.5191 -16.4286 -16.3183 -16.2829 -16.2512 -16.1139 -16.0836
   -14.8735 -14.7887  -9.7869  -7.4065  -7.4016  -5.9888  -5.5757  -5.5181
    -5.3685  -5.3603  -5.3021  -5.0059  -4.9451  -4.5960  -4.5912  -4.5557
    -4.5476  -4.4994  -4.3739  -4.2779  -4.2301  -4.2125  -4.1763  -4.1744
    -4.1689  -4.1622  -4.0974  -4.0924  -4.0170  -3.9931  -3.9632  -3.9215
    -3.8873  -3.8160  -3.7806  -3.7563  -3.7274  -3.6503  -3.6293  -3.5525
    -3.5503  -3.5260  -3.4574  -3.3390  -3.2091  -3.1743  -3.0684  -3.0113
    -2.9511  -2.8847  -2.8213  -2.7981  -2.7495  -2.7486  -2.7318  -2.6049
    -2.5689  -2.5139  -2.4412  -2.4054  -2.3776  -2.3596  -2.3298  -2.2899
    -2.2800  -2.2552  -2.2178  -2.1843  -2.1710  -2.0546  -1.9985  -1.9010
    -1.7562  -1.7540  -1.7300  -1.6852  -1.6607  -1.6488  -1.5715  -1.5550
    -1.4497  -1.4405  -1.4197  -1.4098  -1.3890  -1.2915  -1.2413  -1.2298
    -1.2079  -1.1401  -1.0795  -1.0240  -0.9247  -0.7509  -0.7205  -0.7165
    -0.6542  -0.5280  -0.3779  -0.2414  -0.1800  -0.0147   0.1120   0.1271
     1.5127   1.5415   1.8259   1.8607   1.8749   1.8927   2.0613   2.0815
     2.1156   2.2316   2.3513   2.3652   2.4011   2.4170   2.4198   2.4565
     2.4836   2.5212   2.5569   2.6345   2.6608   2.6704   2.7514   2.7952
     2.8592   2.8872   2.9797   2.9883   2.9893   3.0101   3.0579   3.0745
     3.0865   3.0896   3.0982   3.1330   3.2291   3.2711   3.2916   3.2976
     3.3473   3.3770   3.4100   3.5244   3.5268   3.6633   3.8713   3.9746
     3.9789   4.0368   4.0627   4.1731   4.2464   4.4534   4.5345   4.6508
     4.8993   4.9484   5.0056   5.1319   5.1997   5.3839   5.3889   5.4155
     5.4885   5.5768   5.6206   5.6302   5.7076   5.7246   5.7310   5.7605
     5.9155   5.9595   6.0049   6.0115   6.0908   6.1356   6.2037   6.2131
     6.4679   6.6160   6.7642   6.7799   6.8747   7.1573   7.2794   7.3909
     7.9408   7.9905   8.1618   8.4297   8.6978   8.9091   8.9221   8.9534
     9.2164   9.2600   9.2811   9.3554

          k = 0.0000 0.0280 0.0000 ( 34717 PWs)   bands (ev):

   -57.8270 -57.7967 -57.5193 -57.4668 -57.3957 -57.3640 -57.2828 -57.2522
   -57.1851 -57.1545 -57.1223 -57.0916 -56.8882 -56.8193 -56.2889 -56.2584
   -34.2403 -34.1084 -34.0838 -34.0419 -34.0246 -33.9430 -33.9028 -33.8484
   -33.8289 -33.7547 -33.7439 -33.7354 -33.7259 -33.6963 -33.6807 -33.6773
   -33.6533 -33.6230 -33.6210 -33.5566 -33.5431 -33.4944 -33.4644 -33.4555
   -33.4406 -33.4302 -33.4126 -33.3864 -33.3673 -33.3664 -33.3617 -33.3491
   -33.3201 -33.3196 -33.3116 -33.2831 -33.2815 -33.1503 -33.1429 -33.0908
   -33.0496 -32.9723 -32.6843 -32.6408 -32.6183 -32.5079 -32.4285 -32.3415
   -24.1522 -20.8753 -18.1225 -17.9239 -17.7063 -17.5837 -17.4831 -17.4551
   -17.2374 -17.1967 -17.1679 -17.1270 -17.0642 -17.0128 -16.9898 -16.9144
   -16.9001 -16.8528 -16.8370 -16.8071 -16.7739 -16.7546 -16.6048 -16.5492
   -16.5256 -16.5071 -16.4582 -16.3144 -16.3006 -16.2687 -16.1390 -16.1262
   -14.8834 -14.8120  -9.7868  -7.4064  -7.4030  -5.9878  -5.4876  -5.4338
    -5.2909  -5.2805  -5.2248  -4.8879  -4.8700  -4.6205  -4.5909  -4.5224
    -4.4951  -4.4613  -4.3252  -4.2995  -4.2956  -4.2457  -4.2395  -4.2019
    -4.1643  -4.1512  -4.1154  -4.1029  -4.0856  -4.0600  -4.0163  -3.9938
    -3.9363  -3.9305  -3.8689  -3.8103  -3.7440  -3.7287  -3.7083  -3.5742
    -3.4933  -3.4766  -3.3856  -3.3151  -3.1350  -3.0899  -2.9975  -2.9569
    -2.8306  -2.7922  -2.7623  -2.7564  -2.6781  -2.6468  -2.6396  -2.6214
    -2.5761  -2.5650  -2.5264  -2.4582  -2.4207  -2.3511  -2.3290  -2.2876
    -2.2421  -2.2253  -2.2042  -2.1291  -2.0574  -2.0239  -1.9468  -1.8789
    -1.8482  -1.8273  -1.7964  -1.7755  -1.7068  -1.6806  -1.6387  -1.6046
    -1.5649  -1.5081  -1.4702  -1.4156  -1.3966  -1.3646  -1.2847  -1.2444
    -1.1979  -1.1607  -1.0741  -1.0393  -0.9543  -0.9194  -0.8525  -0.7677
    -0.7383  -0.5430  -0.4188  -0.2355  -0.2303  -0.0039   0.0666   0.0915
     1.5982   1.6452   1.8554   1.8634   1.9176   1.9950   2.0392   2.1068
     2.1650   2.2601   2.3141   2.3671   2.3700   2.4126   2.4343   2.4510
     2.4777   2.5134   2.5580   2.5848   2.6579   2.7147   2.7622   2.7766
     2.8173   2.8691   2.9312   2.9488   2.9811   3.0117   3.0368   3.0654
     3.0852   3.0956   3.1814   3.1921   3.2476   3.3052   3.3275   3.3778
     3.4101   3.4605   3.4954   3.5009   3.5605   3.6301   3.8216   3.9372
     3.9827   4.0490   4.1250   4.1537   4.1782   4.3962   4.5912   4.7489
     4.9054   5.0244   5.1035   5.1997   5.2039   5.4000   5.4227   5.4733
     5.4840   5.5569   5.5915   5.6157   5.6633   5.6880   5.7275   5.8152
     5.8610   5.9232   5.9708   6.0098   6.0184   6.0268   6.1102   6.2855
     6.4486   6.5394   6.7158   6.7831   6.8032   7.0633   7.3357   7.3777
     7.6916   7.9766   8.1097   8.2954   8.4116   8.7218   9.0105   9.0239
     9.0783   9.3010   9.3613   9.4105

          k = 0.0000 0.0560 0.0000 ( 34721 PWs)   bands (ev):

   -57.8206 -57.8031 -57.5160 -57.4701 -57.3895 -57.3702 -57.2763 -57.2587
   -57.1787 -57.1609 -57.1159 -57.0981 -56.8855 -56.8220 -56.2825 -56.2649
   -34.1705 -34.1031 -34.0888 -34.0076 -33.9758 -33.9713 -33.9604 -33.8129
   -33.7826 -33.7727 -33.7593 -33.7233 -33.7136 -33.7000 -33.6821 -33.6786
   -33.6035 -33.5834 -33.5834 -33.5544 -33.5455 -33.5371 -33.4859 -33.4795
   -33.4590 -33.4453 -33.4138 -33.3878 -33.3820 -33.3669 -33.3641 -33.3600
   -33.3472 -33.3327 -33.3108 -33.3081 -33.2729 -33.1496 -33.1392 -33.0921
   -33.0630 -33.0400 -32.6360 -32.6230 -32.6135 -32.4913 -32.4454 -32.4156
   -24.1522 -20.8751 -17.9511 -17.7638 -17.5666 -17.4557 -17.4348 -17.4298
   -17.3270 -17.2986 -17.1881 -17.0852 -17.0851 -17.0524 -17.0292 -16.9889
   -16.8696 -16.8678 -16.8576 -16.8217 -16.7583 -16.6923 -16.6690 -16.6262
   -16.5390 -16.4797 -16.4533 -16.3376 -16.3281 -16.2875 -16.2510 -16.1888
   -14.9009 -14.8623  -9.7866  -7.4071  -7.4049  -5.9861  -5.2450  -5.1983
    -5.0836  -5.0513  -5.0162  -4.7447  -4.6708  -4.6346  -4.5596  -4.5492
    -4.5213  -4.5058  -4.4764  -4.3978  -4.3657  -4.3591  -4.3350  -4.3307
    -4.2638  -4.2263  -4.2050  -4.1540  -4.1402  -4.1012  -4.0753  -4.0242
    -3.9621  -3.9343  -3.8643  -3.7889  -3.7327  -3.6101  -3.5830  -3.4885
    -3.4262  -3.3936  -3.3735  -3.2757  -3.1778  -3.0249  -2.9826  -2.9694
    -2.9396  -2.8858  -2.7883  -2.7375  -2.6872  -2.6527  -2.6072  -2.4748
    -2.4616  -2.4542  -2.4206  -2.3968  -2.3465  -2.3101  -2.2860  -2.2826
    -2.2109  -2.1878  -2.1070  -2.0748  -2.0512  -2.0438  -2.0171  -1.9925
    -1.9479  -1.9095  -1.8737  -1.7900  -1.7251  -1.6909  -1.6767  -1.6630
    -1.6495  -1.5792  -1.5254  -1.5090  -1.4883  -1.4516  -1.3793  -1.3638
    -1.2878  -1.2477  -1.1741  -1.1475  -1.0717  -1.0055  -0.9357  -0.9056
    -0.8051  -0.7216  -0.6051  -0.4012  -0.0494   0.0067   0.0376   0.0407
     1.7350   1.8782   1.8975   1.9771   2.0063   2.0490   2.1281   2.1923
     2.2138   2.2503   2.2534   2.2690   2.2891   2.3489   2.3720   2.4564
     2.5084   2.5157   2.5501   2.6406   2.6591   2.7294   2.7469   2.7901
     2.7975   2.8187   2.8400   2.9339   2.9513   3.0037   3.0762   3.0878
     3.1001   3.1639   3.1838   3.2144   3.3158   3.3564   3.4023   3.4264
     3.4795   3.5486   3.6085   3.6597   3.6804   3.7147   3.7354   3.8419
     3.9760   3.9892   4.0050   4.0973   4.2313   4.3141   4.7133   4.8371
     5.0236   5.1642   5.2463   5.2945   5.3241   5.3930   5.4276   5.4692
     5.5195   5.5913   5.6043   5.6128   5.6362   5.6863   5.7196   5.7331
     5.7487   5.7875   5.8238   5.8891   5.9755   6.0172   6.1893   6.3004
     6.3741   6.4109   6.6363   6.6447   6.7922   6.9133   7.0257   7.2606
     7.5474   7.6755   7.7777   8.2753   8.4342   8.6026   8.8883   9.0397
     9.2149   9.3471   9.4454   9.5902

          k = 0.0000-0.0840 0.0000 ( 34678 PWs)   bands (ev):

   -57.8119 -57.8118 -57.5142 -57.4720 -57.3837 -57.3760 -57.2676 -57.2674
   -57.1712 -57.1684 -57.1080 -57.1060 -56.8841 -56.8234 -56.2737 -56.2737
   -34.0960 -34.0959 -34.0739 -34.0738 -33.9841 -33.9841 -33.8886 -33.8558
   -33.7960 -33.7777 -33.7255 -33.7184 -33.7032 -33.6857 -33.6790 -33.6675
   -33.5843 -33.5842 -33.5806 -33.5734 -33.5095 -33.5090 -33.4875 -33.4851
   -33.4633 -33.4556 -33.4522 -33.4518 -33.3914 -33.3891 -33.3627 -33.3596
   -33.3509 -33.3489 -33.3043 -33.3025 -33.2049 -33.1719 -33.1463 -33.0959
   -33.0920 -33.0600 -32.6295 -32.6295 -32.5156 -32.5155 -32.4683 -32.4683
   -24.1521 -20.8750 -17.7132 -17.7015 -17.5432 -17.5425 -17.4281 -17.4094
   -17.2540 -17.2477 -17.1863 -17.1857 -17.1520 -17.1487 -16.9716 -16.9715
   -16.9485 -16.9444 -16.7862 -16.7546 -16.7293 -16.7242 -16.6524 -16.6455
   -16.5590 -16.5148 -16.3853 -16.3837 -16.3385 -16.3374 -16.2569 -16.2558
   -14.8991 -14.8991  -9.7865  -7.4083  -7.4049  -5.9852  -4.9340  -4.9312
    -4.8650  -4.8649  -4.8143  -4.7991  -4.7727  -4.7657  -4.7303  -4.7068
    -4.5361  -4.5178  -4.5037  -4.5014  -4.4315  -4.4299  -4.4255  -4.4228
    -4.2676  -4.2281  -4.1654  -4.1641  -4.1517  -4.1300  -4.0178  -3.9610
    -3.9601  -3.9244  -3.8487  -3.8056  -3.6626  -3.6239  -3.4711  -3.4597
    -3.3048  -3.2976  -3.2344  -3.1601  -3.1389  -3.1103  -2.9732  -2.9545
    -2.9423  -2.8856  -2.8675  -2.8207  -2.7217  -2.6920  -2.6747  -2.6571
    -2.6318  -2.6239  -2.5800  -2.4638  -2.4465  -2.4230  -2.1660  -2.1310
    -2.1084  -2.0601  -2.0217  -1.9876  -1.9422  -1.9417  -1.9357  -1.8859
    -1.8782  -1.8729  -1.8559  -1.7998  -1.7854  -1.7177  -1.6388  -1.6382
    -1.5990  -1.5811  -1.5644  -1.5630  -1.5546  -1.5507  -1.5299  -1.4299
    -1.3817  -1.2715  -1.2583  -1.2303  -1.1367  -1.1314  -1.1073  -1.1030
    -0.6917  -0.6460  -0.6046  -0.6020   0.0064   0.0067   0.0435   0.0438
     1.9000   1.9037   1.9976   2.0026   2.0926   2.0929   2.0963   2.1182
     2.2149   2.2149   2.2190   2.2341   2.3298   2.3730   2.4212   2.4257
     2.4653   2.5163   2.5211   2.5858   2.5868   2.7400   2.7530   2.8149
     2.8221   2.8559   2.8966   2.9384   2.9661   2.9861   3.0370   3.0590
     3.0682   3.1955   3.2439   3.3159   3.3228   3.3237   3.3253   3.4338
     3.6101   3.6128   3.6799   3.6934   3.7212   3.7800   3.7814   3.8611
     3.9154   3.9180   3.9813   3.9817   4.1316   4.4008   4.7854   4.8103
     5.1466   5.1623   5.2803   5.3174   5.3759   5.3759   5.4852   5.5109
     5.5440   5.5614   5.5764   5.6328   5.6512   5.6961   5.6978   5.7014
     5.7494   5.8246   5.8402   5.8648   5.9948   6.0043   6.0338   6.1141
     6.4119   6.4172   6.5481   6.5866   6.8550   6.8655   6.9736   6.9924
     7.4977   7.5051   7.6401   8.1971   8.3349   8.6667   9.0418   9.1360
     9.3717   9.4352   9.6058   9.6558

          k = 0.0253 0.0000 0.0000 ( 34707 PWs)   bands (ev):

   -57.8293 -57.7943 -57.5208 -57.4652 -57.3980 -57.3617 -57.2851 -57.2498
   -57.1875 -57.1521 -57.1247 -57.0893 -56.8894 -56.8180 -56.2913 -56.2560
   -34.2659 -34.1104 -34.0819 -34.0678 -34.0301 -33.9366 -33.8758 -33.8742
   -33.8353 -33.7800 -33.7410 -33.7307 -33.7262 -33.6967 -33.6873 -33.6790
   -33.6571 -33.6332 -33.6256 -33.5580 -33.5349 -33.4691 -33.4664 -33.4455
   -33.4389 -33.4364 -33.3939 -33.3930 -33.3854 -33.3729 -33.3618 -33.3427
   -33.3204 -33.3144 -33.2866 -33.2813 -33.2561 -33.1520 -33.1461 -33.0902
   -33.0453 -32.9442 -32.7099 -32.6435 -32.6159 -32.5140 -32.4223 -32.3141
   -24.1522 -20.8753 -18.1559 -17.9404 -17.7187 -17.5992 -17.5034 -17.4986
   -17.2762 -17.2385 -17.1538 -17.0692 -17.0605 -17.0531 -17.0260 -16.9685
   -16.9232 -16.9049 -16.8274 -16.7966 -16.7116 -16.6160 -16.6143 -16.5286
   -16.5260 -16.5240 -16.4715 -16.3187 -16.2733 -16.2518 -16.1133 -16.0836
   -14.8724 -14.7886  -9.7862  -7.4063  -7.4018  -5.9883  -5.5458  -5.4019
    -5.2594  -5.2465  -5.1945  -4.9977  -4.9438  -4.7892  -4.5876  -4.5746
    -4.5234  -4.5003  -4.4520  -4.4441  -4.3416  -4.2062  -4.1960  -4.1741
    -4.0981  -4.0822  -4.0766  -3.9938  -3.9771  -3.9445  -3.8833  -3.8483
    -3.8411  -3.8187  -3.7816  -3.7373  -3.7090  -3.6275  -3.5876  -3.4960
    -3.4671  -3.4310  -3.3424  -3.2677  -3.2251  -3.1629  -3.1425  -3.0443
    -3.0274  -2.9212  -2.8951  -2.7877  -2.7641  -2.7310  -2.7075  -2.6825
    -2.6582  -2.6155  -2.5089  -2.4947  -2.4572  -2.3798  -2.3673  -2.3230
    -2.2613  -2.2235  -2.2177  -2.1301  -2.1050  -2.0367  -1.9419  -1.9011
    -1.8100  -1.7844  -1.7605  -1.7343  -1.7117  -1.6387  -1.6174  -1.5030
    -1.4929  -1.4833  -1.4403  -1.4121  -1.3784  -1.3474  -1.2789  -1.2633
    -1.2372  -1.1250  -1.1031  -1.0034  -0.9672  -0.9064  -0.8188  -0.7790
    -0.6991  -0.5718  -0.3723  -0.2696  -0.2097  -0.0288   0.0695   0.0705
     1.5299   1.5969   1.8740   1.8916   1.9830   2.0025   2.0499   2.1289
     2.2095   2.2392   2.3087   2.3167   2.3614   2.4082   2.4115   2.4437
     2.4449   2.4757   2.5292   2.5652   2.6045   2.6674   2.6965   2.8205
     2.8363   2.8921   2.9902   2.9962   3.0041   3.0703   3.0812   3.0910
     3.1418   3.1825   3.1995   3.2340   3.2760   3.2906   3.3274   3.3797
     3.3878   3.4262   3.4583   3.4889   3.5865   3.6091   3.8021   3.8810
     4.0311   4.0554   4.0690   4.1665   4.2313   4.4069   4.6401   4.6767
     4.7612   4.9207   4.9351   4.9856   5.0054   5.0693   5.2209   5.4897
     5.5625   5.6297   5.7220   5.7332   5.7891   5.8267   5.9375   5.9487
     5.9769   6.0302   6.0329   6.0652   6.1287   6.1434   6.2440   6.3101
     6.4822   6.6311   6.7377   6.7718   6.8786   7.1169   7.1572   7.3320
     7.7039   8.0339   8.1555   8.3427   8.4052   8.7485   8.8400   8.9285
     8.9759   9.2494   9.2875   9.4202

          k = 0.0253 0.0280 0.0000 ( 34687 PWs)   bands (ev):

   -57.8270 -57.7967 -57.5193 -57.4668 -57.3957 -57.3640 -57.2828 -57.2522
   -57.1851 -57.1545 -57.1223 -57.0916 -56.8882 -56.8193 -56.2889 -56.2584
   -34.2406 -34.1085 -34.0837 -34.0420 -34.0239 -33.9429 -33.9028 -33.8490
   -33.8290 -33.7560 -33.7439 -33.7351 -33.7248 -33.6967 -33.6840 -33.6807
   -33.6537 -33.6193 -33.6141 -33.5512 -33.5432 -33.4945 -33.4643 -33.4541
   -33.4406 -33.4303 -33.4134 -33.3895 -33.3708 -33.3669 -33.3612 -33.3491
   -33.3201 -33.3196 -33.3117 -33.2831 -33.2814 -33.1512 -33.1430 -33.0909
   -33.0496 -32.9723 -32.6842 -32.6417 -32.6177 -32.5079 -32.4285 -32.3415
   -24.1522 -20.8752 -18.0957 -17.8833 -17.6673 -17.5473 -17.4826 -17.4499
   -17.2605 -17.2397 -17.2125 -17.0907 -17.0675 -17.0488 -16.9973 -16.9600
   -16.9319 -16.8668 -16.8462 -16.8300 -16.7558 -16.6666 -16.6366 -16.5528
   -16.5152 -16.5046 -16.4883 -16.3141 -16.2915 -16.2692 -16.1387 -16.1266
   -14.8823 -14.8120  -9.7861  -7.4061  -7.4032  -5.9873  -5.4614  -5.3170
    -5.1795  -5.1676  -5.1164  -4.8825  -4.8685  -4.7358  -4.5775  -4.5283
    -4.4818  -4.4521  -4.4216  -4.3622  -4.3295  -4.2926  -4.2312  -4.2015
    -4.1606  -4.1290  -4.0974  -4.0792  -4.0401  -3.9796  -3.9678  -3.9358
    -3.9204  -3.8630  -3.8513  -3.7637  -3.7431  -3.6881  -3.6828  -3.4881
    -3.4589  -3.3947  -3.3440  -3.2840  -3.1693  -3.1128  -3.0745  -2.9359
    -2.8518  -2.8236  -2.8016  -2.7902  -2.7536  -2.6819  -2.6362  -2.6200
    -2.5964  -2.5814  -2.5539  -2.5214  -2.4620  -2.3995  -2.3585  -2.3319
    -2.2714  -2.2532  -2.2005  -2.1058  -2.0689  -2.0389  -1.9993  -1.9138
    -1.8825  -1.8589  -1.7960  -1.7695  -1.7459  -1.7245  -1.6699  -1.6291
    -1.5741  -1.5172  -1.4882  -1.4686  -1.4250  -1.3846  -1.3337  -1.2382
    -1.2130  -1.2072  -1.0623  -1.0038  -0.9833  -0.9150  -0.8939  -0.8771
    -0.7906  -0.5819  -0.4300  -0.2883  -0.2242   0.0006   0.0425   0.0515
     1.5914   1.7180   1.8865   1.8965   2.0121   2.0285   2.1303   2.1647
     2.2262   2.2714   2.3081   2.3226   2.3618   2.3795   2.4024   2.4083
     2.4777   2.5089   2.5417   2.5775   2.6061   2.6249   2.7645   2.8006
     2.8397   2.8840   2.9689   2.9782   2.9875   2.9926   3.0468   3.0850
     3.1611   3.2143   3.2539   3.2616   3.2927   3.3066   3.3662   3.4120
     3.4520   3.4795   3.5102   3.5265   3.5747   3.6208   3.7575   3.8793
     4.0127   4.0431   4.0838   4.1618   4.2159   4.3562   4.6825   4.7631
     4.8134   4.9326   4.9785   5.0231   5.0327   5.1335   5.2809   5.5183
     5.5565   5.5921   5.6380   5.7199   5.7339   5.8143   5.8730   5.9173
     5.9500   5.9917   6.0195   6.0324   6.0439   6.0863   6.2900   6.3116
     6.4677   6.5470   6.7340   6.7688   6.8085   7.0539   7.1764   7.3897
     7.5732   8.0093   8.1441   8.2337   8.3211   8.5227   8.5769   8.8403
     9.0217   9.2880   9.4038   9.4778

          k = 0.0253 0.0560 0.0000 ( 34699 PWs)   bands (ev):

   -57.8206 -57.8031 -57.5160 -57.4701 -57.3895 -57.3702 -57.2763 -57.2587
   -57.1787 -57.1609 -57.1159 -57.0981 -56.8855 -56.8220 -56.2825 -56.2649
   -34.1707 -34.1031 -34.0888 -34.0070 -33.9758 -33.9714 -33.9602 -33.8130
   -33.7829 -33.7729 -33.7594 -33.7225 -33.7136 -33.7002 -33.6837 -33.6799
   -33.6023 -33.5839 -33.5832 -33.5509 -33.5453 -33.5328 -33.4867 -33.4763
   -33.4590 -33.4454 -33.4138 -33.3879 -33.3839 -33.3674 -33.3669 -33.3611
   -33.3473 -33.3334 -33.3108 -33.3080 -33.2728 -33.1502 -33.1392 -33.0924
   -33.0631 -33.0399 -32.6366 -32.6228 -32.6134 -32.4913 -32.4454 -32.4156
   -24.1521 -20.8750 -17.9287 -17.7267 -17.5337 -17.4497 -17.4269 -17.4054
   -17.3180 -17.3012 -17.1917 -17.1283 -17.0904 -17.0386 -17.0133 -16.9965
   -16.9058 -16.8977 -16.8631 -16.8150 -16.7789 -16.7408 -16.6896 -16.5984
   -16.5821 -16.4743 -16.4390 -16.3308 -16.3257 -16.2885 -16.2517 -16.1884
   -14.9003 -14.8625  -9.7859  -7.4071  -7.4048  -5.9857  -5.2303  -5.0825
    -4.9704  -4.9419  -4.9103  -4.7390  -4.6702  -4.6542  -4.5377  -4.5305
    -4.5105  -4.5021  -4.4001  -4.3606  -4.3545  -4.3240  -4.2935  -4.2763
    -4.2319  -4.2171  -4.1977  -4.1621  -4.0943  -4.0795  -4.0684  -4.0138
    -3.9780  -3.9217  -3.8527  -3.8146  -3.7308  -3.6376  -3.5497  -3.4777
    -3.4395  -3.4210  -3.3838  -3.2070  -3.1773  -3.0391  -2.9957  -2.9767
    -2.9455  -2.8712  -2.7990  -2.7690  -2.7134  -2.6750  -2.6297  -2.5851
    -2.5638  -2.5215  -2.4766  -2.4610  -2.4192  -2.4013  -2.3202  -2.2776
    -2.2621  -2.2342  -2.1778  -2.1410  -2.0963  -2.0826  -2.0185  -2.0043
    -1.9537  -1.9317  -1.8770  -1.8431  -1.8270  -1.7847  -1.7314  -1.6990
    -1.6707  -1.5943  -1.5721  -1.4999  -1.4762  -1.4270  -1.3866  -1.3510
    -1.2641  -1.2362  -1.1661  -1.1003  -1.0763  -0.9758  -0.9511  -0.8833
    -0.8266  -0.7420  -0.6108  -0.4124  -0.0480  -0.0073   0.0178   0.0409
     1.7313   1.9041   1.9224   2.0449   2.0497   2.0726   2.1573   2.1705
[...]
    -2.6769  -2.6348  -2.6266  -2.6165  -2.5829  -2.5464  -2.5110  -2.4939
    -2.4933  -2.4263  -2.3893  -2.3732  -2.3401  -2.3092  -2.2657  -2.2630
    -2.2400  -2.1507  -2.1478  -2.1448  -2.0202  -1.9790  -1.8312  -1.8051
    -1.7413  -1.6941  -1.4395  -1.3956  -1.3300  -1.3288  -1.1726  -1.1584
    -1.1515  -1.1497  -1.1243  -1.0937  -1.0487  -0.9164  -0.8964  -0.7682
    -0.7537  -0.7409  -0.6721  -0.6711  -0.0691  -0.0691   0.0685   0.0688
     1.9811   1.9913   2.0369   2.0445   2.0669   2.0703   2.0812   2.0847
     2.3505   2.3620   2.3690   2.3792   2.4455   2.4506   2.4851   2.5176
     2.5507   2.5538   2.5542   2.6178   2.7177   2.8306   2.8437   2.8612
     2.8719   2.9471   3.0222   3.0977   3.1032   3.1563   3.1863   3.2521
     3.2637   3.2796   3.3278   3.3556   3.3898   3.3930   3.4364   3.4636
     3.5529   3.5702   3.6679   3.7237   3.7873   3.8097   3.8116   3.8124
     3.9430   3.9480   3.9678   3.9678   4.2926   4.5407   4.6540   4.6545
     4.7092   4.7312   4.7686   4.7772   4.7787   4.8009   5.0701   5.1005
     5.2237   5.2559   5.6142   5.6307   5.8051   5.8192   5.9374   6.0419
     6.1655   6.2029   6.2098   6.2396   6.4214   6.4697   6.4899   6.5254
     6.5268   6.5621   6.7027   6.7035   6.7597   6.7612   7.0467   7.1195
     7.6491   7.6952   7.8096   7.8184   8.0424   8.1004   8.3353   8.4038
     8.5442   8.6033   8.6905   9.1807

          k =-0.0253 0.0280 0.0000 ( 34687 PWs)   bands (ev):

   -57.8270 -57.7967 -57.5194 -57.4668 -57.3957 -57.3641 -57.2828 -57.2522
   -57.1851 -57.1545 -57.1224 -57.0917 -56.8883 -56.8194 -56.2891 -56.2585
   -34.2406 -34.1085 -34.0838 -34.0420 -34.0240 -33.9429 -33.9028 -33.8490
   -33.8290 -33.7560 -33.7439 -33.7352 -33.7248 -33.6968 -33.6841 -33.6807
   -33.6537 -33.6193 -33.6141 -33.5513 -33.5433 -33.4945 -33.4644 -33.4542
   -33.4407 -33.4303 -33.4135 -33.3896 -33.3708 -33.3671 -33.3612 -33.3491
   -33.3202 -33.3197 -33.3117 -33.2832 -33.2815 -33.1513 -33.1431 -33.0910
   -33.0497 -32.9724 -32.6844 -32.6418 -32.6179 -32.5081 -32.4287 -32.3416
   -24.1522 -20.8752 -18.0956 -17.8833 -17.6672 -17.5473 -17.4825 -17.4496
   -17.2605 -17.2400 -17.2125 -17.0907 -17.0677 -17.0488 -16.9978 -16.9600
   -16.9319 -16.8667 -16.8462 -16.8295 -16.7548 -16.6665 -16.6368 -16.5529
   -16.5152 -16.5044 -16.4882 -16.3140 -16.2914 -16.2691 -16.1386 -16.1265
   -14.8820 -14.8117  -9.7861  -7.4062  -7.4031  -5.9873  -5.4613  -5.3170
    -5.1792  -5.1672  -5.1164  -4.8828  -4.8686  -4.7365  -4.5763  -4.5287
    -4.4817  -4.4521  -4.4221  -4.3622  -4.3298  -4.2924  -4.2336  -4.2012
    -4.1609  -4.1294  -4.0975  -4.0792  -4.0392  -3.9798  -3.9674  -3.9366
    -3.9197  -3.8629  -3.8529  -3.7635  -3.7432  -3.6883  -3.6819  -3.4865
    -3.4575  -3.3923  -3.3421  -3.2851  -3.1687  -3.1128  -3.0746  -2.9373
    -2.8525  -2.8203  -2.8016  -2.7909  -2.7544  -2.6817  -2.6366  -2.6173
    -2.5992  -2.5806  -2.5539  -2.5218  -2.4638  -2.3991  -2.3565  -2.3330
    -2.2696  -2.2531  -2.2016  -2.1087  -2.0691  -2.0381  -1.9989  -1.9193
    -1.8798  -1.8610  -1.7989  -1.7681  -1.7468  -1.7232  -1.6697  -1.6292
    -1.5708  -1.5146  -1.4883  -1.4666  -1.4258  -1.3851  -1.3356  -1.2384
    -1.2160  -1.2079  -1.0624  -1.0011  -0.9806  -0.9173  -0.8935  -0.8740
    -0.7911  -0.5821  -0.4299  -0.2882  -0.2241   0.0008   0.0428   0.0518
     1.5914   1.7180   1.8864   1.8969   2.0123   2.0302   2.1309   2.1666
     2.2286   2.2704   2.3069   2.3183   2.3636   2.3788   2.4024   2.4105
     2.4760   2.5092   2.5419   2.5779   2.6059   2.6250   2.7612   2.8002
     2.8410   2.8839   2.9675   2.9769   2.9869   2.9920   3.0475   3.0832
     3.1628   3.2165   3.2546   3.2618   3.2928   3.3064   3.3660   3.4087
     3.4540   3.4810   3.5101   3.5265   3.5734   3.6210   3.7576   3.8792
     4.0126   4.0428   4.0840   4.1618   4.2154   4.3561   4.6826   4.7599
     4.8155   4.9320   4.9774   5.0221   5.0329   5.1331   5.2798   5.5180
     5.5554   5.5925   5.6383   5.7196   5.7338   5.8128   5.8789   5.9193
     5.9487   5.9908   6.0186   6.0324   6.0442   6.0860   6.2899   6.3112
     6.4692   6.5472   6.7336   6.7687   6.8084   7.0539   7.1813   7.3891
     7.5726   8.0093   8.1476   8.2289   8.3199   8.5228   8.5746   8.8414
     9.0226   9.2855   9.4072   9.4757

          k =-0.0253 0.0560 0.0000 ( 34699 PWs)   bands (ev):

   -57.8206 -57.8031 -57.5161 -57.4701 -57.3896 -57.3702 -57.2764 -57.2587
   -57.1788 -57.1609 -57.1160 -57.0982 -56.8857 -56.8221 -56.2827 -56.2650
   -34.1707 -34.1031 -34.0889 -34.0071 -33.9759 -33.9714 -33.9602 -33.8130
   -33.7830 -33.7730 -33.7594 -33.7226 -33.7136 -33.7003 -33.6837 -33.6799
   -33.6022 -33.5839 -33.5836 -33.5509 -33.5453 -33.5328 -33.4867 -33.4764
   -33.4590 -33.4454 -33.4139 -33.3880 -33.3839 -33.3674 -33.3669 -33.3611
   -33.3474 -33.3334 -33.3109 -33.3081 -33.2729 -33.1503 -33.1394 -33.0925
   -33.0632 -33.0401 -32.6368 -32.6229 -32.6136 -32.4915 -32.4456 -32.4158
   -24.1521 -20.8750 -17.9285 -17.7267 -17.5336 -17.4498 -17.4269 -17.4053
   -17.3175 -17.3012 -17.1917 -17.1283 -17.0909 -17.0385 -17.0133 -16.9982
   -16.9058 -16.8975 -16.8621 -16.8129 -16.7794 -16.7407 -16.6902 -16.5982
   -16.5821 -16.4742 -16.4389 -16.3307 -16.3256 -16.2884 -16.2517 -16.1883
   -14.9000 -14.8621  -9.7858  -7.4072  -7.4047  -5.9857  -5.2302  -5.0825
    -4.9693  -4.9415  -4.9103  -4.7386  -4.6704  -4.6552  -4.5386  -4.5325
    -4.5094  -4.5016  -4.4021  -4.3616  -4.3542  -4.3238  -4.2915  -4.2760
    -4.2320  -4.2178  -4.1971  -4.1626  -4.0940  -4.0813  -4.0686  -4.0147
    -3.9786  -3.9218  -3.8530  -3.8138  -3.7306  -3.6364  -3.5509  -3.4739
    -3.4381  -3.4190  -3.3814  -3.2076  -3.1794  -3.0383  -2.9955  -2.9765
    -2.9441  -2.8714  -2.7975  -2.7699  -2.7141  -2.6749  -2.6302  -2.5848
    -2.5634  -2.5208  -2.4770  -2.4617  -2.4185  -2.4020  -2.3206  -2.2788
    -2.2624  -2.2354  -2.1784  -2.1422  -2.0957  -2.0850  -2.0174  -2.0030
    -1.9563  -1.9340  -1.8802  -1.8439  -1.8247  -1.7844  -1.7290  -1.7009
    -1.6678  -1.5934  -1.5718  -1.4967  -1.4749  -1.4304  -1.3875  -1.3496
    -1.2645  -1.2358  -1.1647  -1.0998  -1.0761  -0.9756  -0.9505  -0.8847
    -0.8268  -0.7413  -0.6106  -0.4125  -0.0478  -0.0071   0.0181   0.0411
     1.7312   1.9049   1.9223   2.0449   2.0492   2.0748   2.1602   2.1709
     2.2436   2.2616   2.2818   2.2991   2.3448   2.3895   2.4182   2.4576
     2.5111   2.5546   2.5729   2.6413   2.6580   2.6748   2.7343   2.7776
     2.7985   2.8136   2.8630   2.8729   2.9814   3.0477   3.1150   3.1347
     3.1922   3.2029   3.2356   3.2663   3.3157   3.3512   3.4033   3.4298
     3.4968   3.5239   3.6301   3.6581   3.6924   3.7273   3.7488   3.8145
     3.9323   3.9703   4.0065   4.1361   4.2010   4.3578   4.7714   4.8399
     4.9836   5.0191   5.0924   5.1098   5.1334   5.2228   5.3198   5.4248
     5.4545   5.5222   5.5891   5.6210   5.7115   5.7257   5.7874   5.8175
     5.8736   5.9004   5.9446   6.0074   6.0464   6.2186   6.2423   6.3618
     6.4096   6.4502   6.6469   6.6497   6.8325   6.9090   7.0638   7.2834
     7.4093   7.7301   7.8436   8.1119   8.3693   8.5591   8.6361   8.9069
     9.0229   9.0652   9.3016   9.3924

          k =-0.0506 0.0280 0.0000 ( 34685 PWs)   bands (ev):

   -57.8270 -57.7967 -57.5194 -57.4668 -57.3957 -57.3641 -57.2828 -57.2522
   -57.1852 -57.1545 -57.1224 -57.0917 -56.8883 -56.8194 -56.2891 -56.2585
   -34.2413 -34.1085 -34.0838 -34.0422 -34.0226 -33.9429 -33.9029 -33.8503
   -33.8291 -33.7586 -33.7440 -33.7349 -33.7238 -33.6983 -33.6911 -33.6807
   -33.6545 -33.6159 -33.6007 -33.5437 -33.5391 -33.4947 -33.4641 -33.4517
   -33.4407 -33.4305 -33.4165 -33.3961 -33.3801 -33.3663 -33.3597 -33.3491
   -33.3202 -33.3198 -33.3118 -33.2831 -33.2814 -33.1534 -33.1432 -33.0911
   -33.0497 -32.9725 -32.6843 -32.6437 -32.6169 -32.5080 -32.4287 -32.3416
   -24.1522 -20.8750 -18.0371 -17.7846 -17.5740 -17.4846 -17.4809 -17.4062
   -17.3467 -17.2634 -17.2489 -17.1189 -17.0967 -17.0703 -17.0668 -17.0072
   -16.9880 -16.9751 -16.8761 -16.7683 -16.7256 -16.6779 -16.5928 -16.5760
   -16.5430 -16.4973 -16.4673 -16.3129 -16.2801 -16.2702 -16.1384 -16.1275
   -14.8800 -14.8117  -9.7847  -7.4059  -7.4033  -5.9865  -5.4450  -5.0234
    -4.9506  -4.9399  -4.8702  -4.8462  -4.8266  -4.7849  -4.6477  -4.5860
    -4.5691  -4.5164  -4.4575  -4.3666  -4.3191  -4.2330  -4.1817  -4.1616
    -4.1425  -4.1327  -4.0609  -4.0174  -3.9841  -3.9573  -3.9162  -3.8910
    -3.8707  -3.8355  -3.7889  -3.7294  -3.7127  -3.5944  -3.4585  -3.4233
    -3.3985  -3.3411  -3.3118  -3.2610  -3.1933  -3.1106  -3.0655  -3.0095
    -2.9393  -2.9127  -2.8688  -2.8586  -2.8121  -2.7564  -2.7417  -2.6899
    -2.6466  -2.6208  -2.5945  -2.5462  -2.5061  -2.4826  -2.4363  -2.4128
    -2.3487  -2.3176  -2.2360  -2.2084  -2.1431  -2.1127  -2.0992  -2.0552
    -2.0040  -1.9424  -1.9120  -1.8818  -1.8544  -1.7863  -1.7003  -1.6443
    -1.6089  -1.5770  -1.5030  -1.4764  -1.4352  -1.4135  -1.3314  -1.2770
    -1.1942  -1.1533  -1.0424  -1.0300  -0.9618  -0.9326  -0.9008  -0.8643
    -0.8245  -0.6620  -0.4616  -0.4077  -0.2110  -0.0283   0.0024   0.0159
     1.5759   1.7820   1.9134   1.9322   1.9504   2.0265   2.0594   2.1350
     2.2338   2.2495   2.2895   2.3500   2.3984   2.4418   2.4449   2.4672
     2.5138   2.5289   2.5769   2.5993   2.6535   2.7549   2.8131   2.8204
     2.8619   2.9165   2.9384   3.0036   3.0109   3.0574   3.1324   3.1548
     3.2231   3.2534   3.2813   3.3019   3.3660   3.3866   3.4327   3.4677
     3.4890   3.5223   3.5359   3.5801   3.6280   3.6802   3.7289   3.8144
     3.9229   4.0219   4.1259   4.1397   4.2752   4.3467   4.5177   4.6268
     4.6483   4.6748   4.8413   4.8952   4.9863   5.3047   5.3859   5.4668
     5.5135   5.5684   5.6475   5.7015   5.7282   5.7446   5.8765   5.9250
     5.9746   6.0149   6.2539   6.2691   6.3067   6.3641   6.4251   6.5104
     6.5362   6.6231   6.6793   6.7319   6.8187   6.9625   7.0210   7.3972
     7.4832   7.6979   7.8181   8.0751   8.3200   8.4059   8.5272   8.9178
     9.0917   9.1686   9.3789   9.4696

          k =-0.0506 0.0560 0.0000 ( 34596 PWs)   bands (ev):

   -57.8206 -57.8031 -57.5161 -57.4701 -57.3896 -57.3702 -57.2763 -57.2587
   -57.1788 -57.1609 -57.1160 -57.0982 -56.8857 -56.8221 -56.2827 -56.2650
   -34.1713 -34.1031 -34.0888 -34.0059 -33.9760 -33.9716 -33.9598 -33.8130
   -33.7836 -33.7734 -33.7594 -33.7214 -33.7135 -33.7008 -33.6860 -33.6823
   -33.5994 -33.5850 -33.5837 -33.5450 -33.5440 -33.5225 -33.4894 -33.4701
   -33.4589 -33.4454 -33.4140 -33.3882 -33.3873 -33.3748 -33.3669 -33.3631
   -33.3476 -33.3347 -33.3109 -33.3079 -33.2727 -33.1515 -33.1395 -33.0931
   -33.0631 -33.0399 -32.6379 -32.6225 -32.6135 -32.4915 -32.4456 -32.4157
   -24.1521 -20.8749 -17.8803 -17.6335 -17.4596 -17.4388 -17.4199 -17.3470
   -17.3070 -17.2754 -17.2036 -17.1699 -17.0996 -17.0797 -17.0146 -16.9920
   -16.9896 -16.9215 -16.9115 -16.8492 -16.8078 -16.7813 -16.7134 -16.6677
   -16.5668 -16.4638 -16.4199 -16.3212 -16.3199 -16.2912 -16.2533 -16.1878
   -14.8988 -14.8625  -9.7844  -7.4072  -7.4043  -5.9850  -5.2222  -4.7889
    -4.7385  -4.7298  -4.6921  -4.6552  -4.6451  -4.6079  -4.5038  -4.4848
    -4.4601  -4.4432  -4.3517  -4.2991  -4.2823  -4.2772  -4.2357  -4.2150
    -4.1905  -4.1783  -4.1641  -4.1374  -4.0841  -4.0470  -4.0361  -4.0063
    -3.9511  -3.8909  -3.8255  -3.7899  -3.6870  -3.6583  -3.5146  -3.4901
    -3.4722  -3.4039  -3.3853  -3.2051  -3.1167  -3.0826  -3.0317  -2.9913
    -2.9524  -2.9162  -2.8927  -2.8607  -2.8060  -2.7708  -2.7179  -2.7104
    -2.6365  -2.6230  -2.5953  -2.5186  -2.4891  -2.4716  -2.4517  -2.4286
    -2.4050  -2.3624  -2.2935  -2.2808  -2.2560  -2.2305  -2.1843  -2.1664
    -2.0974  -2.0593  -2.0281  -1.9871  -1.9412  -1.8603  -1.7914  -1.7765
    -1.7084  -1.6084  -1.5349  -1.4884  -1.4561  -1.3770  -1.3403  -1.2350
    -1.1801  -1.1422  -1.0983  -1.0368  -0.9922  -0.9298  -0.9166  -0.8419
    -0.8047  -0.7904  -0.6644  -0.4717  -0.0596  -0.0225  -0.0091   0.0469
     1.7341   1.9287   1.9512   2.0103   2.0673   2.1078   2.1156   2.1706
     2.2172   2.2653   2.3773   2.4127   2.4221   2.4494   2.4672   2.4820
     2.5091   2.5933   2.6123   2.6408   2.6630   2.7155   2.7864   2.8153
     2.8866   2.9000   2.9399   2.9702   3.0183   3.0572   3.1840   3.2103
     3.2254   3.2608   3.3029   3.3212   3.3635   3.3826   3.3959   3.4606
     3.5349   3.5662   3.6047   3.6833   3.7356   3.7658   3.7755   3.7918
     3.8349   3.9666   4.0187   4.1454   4.2087   4.4462   4.6416   4.6730
     4.7442   4.7469   4.8928   4.9963   5.0685   5.1367   5.2058   5.2309
     5.3030   5.4600   5.5692   5.6326   5.7197   5.7402   5.8285   5.9681
     6.0117   6.1114   6.1626   6.2080   6.2512   6.3003   6.4639   6.4847
     6.5482   6.5875   6.6589   6.6776   6.8396   6.9017   7.0276   7.3174
     7.3253   7.7504   7.7879   8.0226   8.1042   8.1801   8.5841   8.6777
     8.8413   8.9132   9.1469   9.3681

     the Fermi energy is     0.8604 ev

!    total energy              =   -3044.95262645 Ry
     Harris-Foulkes estimate   =   -3044.95262635 Ry
     estimated scf accuracy    <       0.00000039 Ry

     The total energy is the sum of the following terms:

     one-electron contribution =  -40854.97342151 Ry
     hartree contribution      =   20499.73565854 Ry
     xc contribution           =    -557.14472530 Ry
     ewald contribution        =   17867.43006766 Ry
     smearing contrib. (-TS)   =      -0.00020584 Ry

     total magnetization       =     0.00 Bohr mag/cell
     absolute magnetization    =     0.00 Bohr mag/cell

     convergence has been achieved in  10 iterations

     Forces acting on atoms (Ry/au):


     negative rho (up, down):  1.157E-02 1.157E-02
     atom    1 type  1   force =    -0.00008113    0.00030669   -0.13602651
     atom    2 type  2   force =     0.00010495   -0.00008176    0.07521530
     atom    3 type  1   force =     0.00126939    0.00108812   -0.05992255
     atom    4 type  2   force =     0.00661380   -0.00006823    0.00969566
     atom    5 type  1   force =    -0.00131580   -0.00014323   -0.00012124
     atom    6 type  2   force =    -0.00177496   -0.00345637   -0.00887920
     atom    7 type  1   force =     0.01060903    0.00773299   -0.01594244
     atom    8 type  2   force =     0.00060070   -0.00012732    0.00055305
     atom    9 type  1   force =     0.00013307    0.00035366   -0.13609785
     atom   10 type  2   force =     0.00016939   -0.00003284    0.07515826
     atom   11 type  1   force =     0.00126295   -0.00086103   -0.06005053
     atom   12 type  2   force =     0.00605369   -0.00010764    0.00855991
     atom   13 type  1   force =     0.00010155   -0.00015648   -0.00044497
     atom   14 type  2   force =    -0.00195558    0.00287939   -0.00895213
     atom   15 type  1   force =     0.01077186   -0.00755308   -0.01618987
     atom   16 type  2   force =     0.00687784    0.00008598    0.01031669
     atom   17 type  2   force =    -0.00002355   -0.00005784    0.08003066
     atom   18 type  1   force =    -0.00006121    0.00022831    0.11906180
     atom   19 type  2   force =     0.00039393    0.00018839   -0.06808328
     atom   20 type  2   force =    -0.06269510    0.00004955   -0.03208621
     atom   21 type  2   force =     0.06274707    0.00015035   -0.03255741
     atom   22 type  1   force =    -0.00049008   -0.00012267    0.06425121
     atom   23 type  2   force =     0.00015519    0.00060221   -0.00260580
     atom   24 type  2   force =     0.00049711    0.00003798   -0.02239448
     atom   25 type  2   force =    -0.00645216   -0.00025631    0.00825117
     atom   26 type  1   force =    -0.00010278   -0.00005931    0.00251218
     atom   27 type  2   force =     0.00247539   -0.00140333   -0.00248371
     atom   28 type  2   force =    -0.00000213   -0.00001689   -0.00146389
     atom   29 type  2   force =     0.00009977   -0.00005316   -0.00053586
     atom   30 type  1   force =     0.00568826    0.00036216   -0.00042925
     atom   31 type  2   force =    -0.00205340    0.00158319    0.00089875
     atom   32 type  2   force =     0.00151060   -0.00009406    0.00172504
     atom   33 type  2   force =    -0.00000033    0.00015197    0.08009874
     atom   34 type  1   force =    -0.00007632    0.00023328    0.11907267
     atom   35 type  2   force =     0.00035887    0.00032617   -0.06803503
     atom   36 type  2   force =    -0.06269264    0.00009872   -0.03229380
     atom   37 type  2   force =     0.06285624    0.00017249   -0.03204943
     atom   38 type  1   force =    -0.00069175    0.00000969    0.06408443
     atom   39 type  2   force =     0.00019210   -0.00080443   -0.00258888
     atom   40 type  2   force =     0.00060749   -0.00227369   -0.02254667
     atom   41 type  2   force =    -0.00619440   -0.00030915    0.00765344
     atom   42 type  1   force =    -0.00008849   -0.00008216    0.00251669
     atom   43 type  2   force =     0.00252711    0.00138917   -0.00250913
     atom   44 type  2   force =     0.00038846   -0.00012740   -0.00072136
     atom   45 type  2   force =    -0.00024804   -0.00006164   -0.00093459
     atom   46 type  1   force =    -0.01866624    0.00042688   -0.00464899
     atom   47 type  2   force =    -0.00205765   -0.00145475    0.00091946
     atom   48 type  2   force =    -0.00030518   -0.00044075   -0.02664580
     atom   49 type  2   force =    -0.05580195    0.00071403    0.17322520
     atom   50 type  3   force =    -0.04400211    0.00231075   -0.05655562
     atom   51 type  3   force =     0.08276718   -0.00127660   -0.04900382

     Total force =     0.430698     Total SCF correction =     0.001480
 !ASE

     Writing output data file calc.save
 
     init_run     :     55.61s CPU     72.74s WALL (       1 calls)
     electrons    :   2081.08s CPU   2594.06s WALL (       1 calls)
     forces       :     40.49s CPU     42.19s WALL (       1 calls)

     Called by init_run:
     wfcinit      :     47.67s CPU     63.71s WALL (       1 calls)
     potinit      :      1.31s CPU      1.58s WALL (       1 calls)

     Called by electrons:
     c_bands      :   1799.33s CPU   2241.89s WALL (      10 calls)
     sum_band     :    236.41s CPU    300.38s WALL (      10 calls)
     v_of_rho     :     10.93s CPU     13.87s WALL (      11 calls)
     newd         :     38.09s CPU     41.75s WALL (      11 calls)
     mix_rho      :      0.37s CPU      0.56s WALL (      10 calls)
     vdW_energy   :      1.97s CPU      2.40s WALL (      12 calls)
     vdW_ffts     :      2.98s CPU      3.90s WALL (      24 calls)
     vdW_v        :      1.09s CPU      1.35s WALL (      12 calls)

     Called by c_bands:
     init_us_2    :      5.87s CPU      6.46s WALL (     880 calls)
     cegterg      :   1761.82s CPU   2202.16s WALL (     400 calls)

     Called by *egterg:
     h_psi        :    742.52s CPU   1107.68s WALL (    2023 calls)
     s_psi        :     93.06s CPU     97.53s WALL (    2023 calls)
     g_psi        :      4.89s CPU      5.02s WALL (    1583 calls)
     cdiaghg      :    583.05s CPU    596.19s WALL (    1983 calls)

     Called by h_psi:
     add_vuspsi   :     93.66s CPU     98.45s WALL (    2023 calls)

     General routines
     calbec       :    142.39s CPU    146.29s WALL (    2463 calls)
     fft          :      5.92s CPU      7.90s WALL (     948 calls)
     ffts         :      0.06s CPU      0.10s WALL (      42 calls)
     fftw         :    492.41s CPU    893.94s WALL (  722270 calls)
     interpolate  :      0.33s CPU      0.57s WALL (      42 calls)
     davcio       :      0.15s CPU      2.90s WALL (      40 calls)
 
     Parallel routines
     fft_scatter  :    267.03s CPU    475.23s WALL (  723260 calls)
 
     PWSCF        : 36m18.32s CPU    45m13.73s WALL

 
   This run was terminated on:  15:46:43  10Mar2018            

=------------------------------------------------------------------------------=
   JOB DONE.
=------------------------------------------------------------------------------=
