  python dir          : /home/vossj/suncat/lib/python2.7/site-packages/espresso
  espresso dir        : /home/vossj/suncat/esdld/espresso-dynpy-beef/bin
  pseudo dir          : /home/alatimer/bin/psp/esp_psp_w_gbrvRu/
  ase-espresso py git : ffa2778-git



     Program PWSCF v.5.1rc2 (svn rev. ) starts on 25Feb2018 at 19:42:46 

     This program is part of the open-source Quantum ESPRESSO suite
     for quantum simulation of materials; please cite
         "P. Giannozzi et al., J. Phys.:Condens. Matter 21 395502 (2009);
          URL http://www.quantum-espresso.org", 
     in publications or presentations arising from this work. More details at
     http://www.quantum-espresso.org/quote

     Parallel version (MPI), running on    16 processors
     R & G space division:  proc/nbgrp/npool/nimage =      16
     Reading input from pw.inp
     Message from routine read_cards :
     DEPRECATED: no units specified in CELL_PARAMETERS card

     Current dimensions of program PWSCF are:
     Max number of different atomic species (ntypx) = 10
     Max number of k-points (npk) =  40000
     Max angular momentum in pseudopotentials (lmaxx) =  3

     **************************************************************************
     Initializing libbeef V0.1.1 with the BEEF-vdW functional.
     Citation: Wellendorff et al., PRB 85, 235149 (2012).
     **************************************************************************


     IMPORTANT: XC functional enforced from input :
     Exchange-correlation      = BEEF ( 1  4 27 13 2)
     Any further DFT definition will be discarded
     Please, verify this is what you really want


     Subspace diagonalization in iterative solution of the eigenvalue problem:
     a serial algorithm will be used

 
     Parallelization info
     --------------------
     sticks:   dense  smooth     PW     G-vecs:    dense   smooth      PW
     Min         281     112     31                68535    17318    2565
     Max         282     113     32                68545    17369    2582
     Sum        4501    1795    503              1096637   277353   41113
 
     Generating pointlists ...
     new r_m :   0.4125 (alat units)  0.7795 (a.u.) for type    1
     new r_m :   0.4125 (alat units)  0.7795 (a.u.) for type    2
     new r_m :   0.4125 (alat units)  0.7795 (a.u.) for type    3
     new r_m :   0.4125 (alat units)  0.7795 (a.u.) for type    4


     bravais-lattice index     =            0
     lattice parameter (alat)  =       1.8897  a.u.
     unit-cell volume          =    7990.9933 (a.u.)^3
     number of atoms/cell      =           54
     number of atomic types    =            4
     number of electrons       =       398.00
     number of Kohn-Sham states=          299
     kinetic-energy cutoff     =      40.4243  Ry
     charge density cutoff     =     404.2426  Ry
     convergence threshold     =      7.3E-07
     mixing beta               =       0.1000
     number of iterations used =           10  plain     mixing
     Exchange-correlation      = BEEF ( 1  4 27 13 2)
     nstep                     =           50


     celldm(1)=   1.889726  celldm(2)=   0.000000  celldm(3)=   0.000000
     celldm(4)=   0.000000  celldm(5)=   0.000000  celldm(6)=   0.000000

     crystal axes: (cart. coord. in units of alat)
               a(1) = (   6.590708   0.000000   0.000000 )  
               a(2) = (   0.000000   5.950229   0.000000 )  
               a(3) = (   0.000000   0.000000  30.195235 )  

     reciprocal axes: (cart. coord. in units 2 pi/alat)
               b(1) = (  0.151729  0.000000  0.000000 )  
               b(2) = (  0.000000  0.168061  0.000000 )  
               b(3) = (  0.000000  0.000000  0.033118 )  


     PseudoPot. # 1 for Ti read from file:
     /home/alatimer/bin/psp/esp_psp_w_gbrvRu/Ti.UPF
     MD5 check sum: 8e4df49b7f0d34bbd5052bf3f5ea0213
     Pseudo is Ultrasoft, Zval = 12.0
     Generated by new atomic code, or converted to UPF format
     Using radial grid of  851 points,  6 beta functions with: 
                l(1) =   0
                l(2) =   0
                l(3) =   1
                l(4) =   1
                l(5) =   2
                l(6) =   2
     Q(r) pseudized with  8 coefficients,  rinner =    1.000   1.000   1.000
                                                       1.000   1.000

     PseudoPot. # 2 for  O read from file:
     /home/alatimer/bin/psp/esp_psp_w_gbrvRu/O.UPF
     MD5 check sum: e057bbcf3229fb5d8c36c0c92f9568b4
     Pseudo is Ultrasoft + core correction, Zval =  6.0
     Generated using "atomic" code by A. Dal Corso  v.5.0.2 svn rev. 9415
     Using radial grid of 1095 points,  4 beta functions with: 
                l(1) =   0
                l(2) =   0
                l(3) =   1
                l(4) =   1
     Q(r) pseudized with 0 coefficients 


     PseudoPot. # 3 for  C read from file:
     /home/alatimer/bin/psp/esp_psp_w_gbrvRu/C.UPF
     MD5 check sum: ab446d787031eba755f1d5ee46644bb0
     Pseudo is Ultrasoft + core correction, Zval =  4.0
     Generated using "atomic" code by A. Dal Corso  v.5.0.2 svn rev. 9415
     Using radial grid of 1073 points,  4 beta functions with: 
                l(1) =   0
                l(2) =   0
                l(3) =   1
                l(4) =   1
     Q(r) pseudized with 0 coefficients 


     PseudoPot. # 4 for  H read from file:
     /home/alatimer/bin/psp/esp_psp_w_gbrvRu/H.UPF
     MD5 check sum: bd57da0722753ddfd9833a65b40bb853
     Pseudo is Ultrasoft, Zval =  1.0
     Generated using "atomic" code by A. Dal Corso  v.5.0.2 svn rev. 9415
     Using radial grid of  929 points,  2 beta functions with: 
                l(1) =   0
                l(2) =   0
     Q(r) pseudized with 0 coefficients 


     vdW kernel table read from file vdW_kernel_table
     MD5 check sum: 095c7af220d748ca6e76c0b4c6cfb241

     atomic species   valence    mass     pseudopotential
        Ti1           12.00    47.88000     Ti( 1.00)
        O1             6.00    15.99940      O( 1.00)
        C1             4.00    12.01100      C( 1.00)
        H1             1.00     1.00794      H( 1.00)

     Starting magnetic structure 
     atomic species   magnetization
        Ti1          0.250
        O1           0.500
        C1           0.750
        H1           0.000

     No symmetry found



   Cartesian axes

     site n.     atom                  positions (alat units)
         1           Ti1 tau(   1) = (   1.6476770   0.7437786   2.6545865  )
         2           O1  tau(   2) = (   1.6476770   2.2313359   3.9361215  )
         3           Ti1 tau(   3) = (   1.6476770   2.2313359   5.9499405  )
         4           O1  tau(   4) = (   0.3661420   0.7437786   5.9499405  )
         5           Ti1 tau(   5) = (   1.6407309   0.9134410   9.3139491  )
         6           O1  tau(   6) = (   1.6648823   2.2608486  10.4895904  )
         7           Ti1 tau(   7) = (   1.7578240   2.2899216  13.0472362  )
         8           O1  tau(   8) = (   0.4801583   0.7600008  12.7739736  )
         9           Ti1 tau(   9) = (   1.6476770   3.7188931   2.6545865  )
        10           O1  tau(  10) = (   1.6476770   5.2064503   3.9361215  )
        11           Ti1 tau(  11) = (   1.6476770   5.2064503   5.9499405  )
        12           O1  tau(  12) = (   0.3661420   3.7188931   5.9499405  )
        13           Ti1 tau(  13) = (   1.6336050   3.7786827   9.1566831  )
        14           O1  tau(  14) = (   1.6678212   5.2513959  10.5409436  )
        15           Ti1 tau(  15) = (   1.7144009   5.2558216  12.3462911  )
        16           O1  tau(  16) = (   0.4635505   3.7986228  12.7318280  )
        17           O1  tau(  17) = (   1.6476770   2.2313359   1.3730516  )
        18           Ti1 tau(  18) = (   4.9430310   2.2313359   2.6545865  )
        19           O1  tau(  19) = (   4.9430310   2.2313359   4.6684056  )
        20           O1  tau(  20) = (   6.2245660   0.7437786   2.6545865  )
        21           O1  tau(  21) = (   3.6614961   0.7437786   2.6545865  )
        22           Ti1 tau(  22) = (   4.9430310   0.7437786   5.9499405  )
        23           O1  tau(  23) = (   1.6683653   2.2752577   7.9427336  )
        24           O1  tau(  24) = (   4.9430310   2.2313359   7.2314755  )
        25           O1  tau(  25) = (   2.9292120   0.7437786   5.9499405  )
        26           Ti1 tau(  26) = (   4.9404121   2.2664794   9.4552217  )
        27           O1  tau(  27) = (   5.0099888   2.2616732  11.2946145  )
        28           O1  tau(  28) = (   6.2612001   0.7714827   9.2659748  )
        29           O1  tau(  29) = (   3.6791272   0.7744986   9.2965846  )
        30           Ti1 tau(  30) = (   5.0117873   0.7976728  12.8161605  )
        31           O1  tau(  31) = (   4.9963122   2.2836652  13.8750618  )
        32           O1  tau(  32) = (   2.9819382   0.7448324  12.7109220  )
        33           O1  tau(  33) = (   1.6476770   5.2064503   1.3730516  )
        34           Ti1 tau(  34) = (   4.9430310   5.2064503   2.6545865  )
        35           O1  tau(  35) = (   4.9430310   5.2064503   4.6684056  )
        36           O1  tau(  36) = (   6.2245660   3.7188931   2.6545865  )
        37           O1  tau(  37) = (   3.6614961   3.7188931   2.6545865  )
        38           Ti1 tau(  38) = (   4.9430310   3.7188931   5.9499405  )
        39           O1  tau(  39) = (   1.6664207   5.2035600   7.9365221  )
        40           O1  tau(  40) = (   4.9430310   5.2064503   7.2314755  )
        41           O1  tau(  41) = (   2.9292120   3.7188931   5.9499405  )
        42           Ti1 tau(  42) = (   4.9524353   5.2460635   9.4426343  )
        43           O1  tau(  43) = (   5.0107556   5.2394944  11.2927493  )
        44           O1  tau(  44) = (   6.2663940   3.7551737   9.2646230  )
        45           O1  tau(  45) = (   3.6780957   3.7542261   9.2971476  )
        46           Ti1 tau(  46) = (   5.0587989   3.7766986  12.8010349  )
        47           O1  tau(  47) = (   5.0196089   5.2502198  13.8813978  )
        48           O1  tau(  48) = (   2.9624133   3.7943242  12.7299881  )
        49           O1  tau(  49) = (   1.7427453   2.2233568  14.8370015  )
        50           C1  tau(  50) = (   2.7196098   4.2826273  16.2318421  )
        51           H1  tau(  51) = (   3.3037454   4.9255546  15.5827400  )
        52           H1  tau(  52) = (   3.3286606   3.7870117  16.9822022  )
        53           H1  tau(  53) = (   2.3125587   3.4026405  15.5729816  )
        54           H1  tau(  54) = (   1.8391288   4.7650601  16.6448379  )

     number of k points=    40  Fermi-Dirac smearing, width (Ry)=  0.0073
                       cart. coord. in units 2pi/alat
        k(    1) = (   0.0000000   0.0000000   0.0000000), wk =   0.0277778
        k(    2) = (   0.0000000   0.0280101   0.0000000), wk =   0.0555556
        k(    3) = (   0.0000000   0.0560203   0.0000000), wk =   0.0555556
        k(    4) = (   0.0000000  -0.0840304   0.0000000), wk =   0.0277778
        k(    5) = (   0.0252881   0.0000000   0.0000000), wk =   0.0555556
        k(    6) = (   0.0252881   0.0280101   0.0000000), wk =   0.0555556
        k(    7) = (   0.0252881   0.0560203   0.0000000), wk =   0.0555556
        k(    8) = (   0.0252881  -0.0840304   0.0000000), wk =   0.0555556
        k(    9) = (   0.0505763   0.0000000   0.0000000), wk =   0.0555556
        k(   10) = (   0.0505763   0.0280101   0.0000000), wk =   0.0555556
        k(   11) = (   0.0505763   0.0560203   0.0000000), wk =   0.0555556
        k(   12) = (   0.0505763  -0.0840304   0.0000000), wk =   0.0555556
        k(   13) = (  -0.0758644   0.0000000   0.0000000), wk =   0.0277778
        k(   14) = (  -0.0758644   0.0280101   0.0000000), wk =   0.0555556
        k(   15) = (  -0.0758644   0.0560203   0.0000000), wk =   0.0555556
        k(   16) = (  -0.0758644  -0.0840304   0.0000000), wk =   0.0277778
        k(   17) = (  -0.0252881   0.0280101   0.0000000), wk =   0.0555556
        k(   18) = (  -0.0252881   0.0560203   0.0000000), wk =   0.0555556
        k(   19) = (  -0.0505763   0.0280101   0.0000000), wk =   0.0555556
        k(   20) = (  -0.0505763   0.0560203   0.0000000), wk =   0.0555556
        k(   21) = (   0.0000000   0.0000000   0.0000000), wk =   0.0277778
        k(   22) = (   0.0000000   0.0280101   0.0000000), wk =   0.0555556
        k(   23) = (   0.0000000   0.0560203   0.0000000), wk =   0.0555556
        k(   24) = (   0.0000000  -0.0840304   0.0000000), wk =   0.0277778
        k(   25) = (   0.0252881   0.0000000   0.0000000), wk =   0.0555556
        k(   26) = (   0.0252881   0.0280101   0.0000000), wk =   0.0555556
        k(   27) = (   0.0252881   0.0560203   0.0000000), wk =   0.0555556
        k(   28) = (   0.0252881  -0.0840304   0.0000000), wk =   0.0555556
        k(   29) = (   0.0505763   0.0000000   0.0000000), wk =   0.0555556
        k(   30) = (   0.0505763   0.0280101   0.0000000), wk =   0.0555556
        k(   31) = (   0.0505763   0.0560203   0.0000000), wk =   0.0555556
        k(   32) = (   0.0505763  -0.0840304   0.0000000), wk =   0.0555556
        k(   33) = (  -0.0758644   0.0000000   0.0000000), wk =   0.0277778
        k(   34) = (  -0.0758644   0.0280101   0.0000000), wk =   0.0555556
        k(   35) = (  -0.0758644   0.0560203   0.0000000), wk =   0.0555556
        k(   36) = (  -0.0758644  -0.0840304   0.0000000), wk =   0.0277778
        k(   37) = (  -0.0252881   0.0280101   0.0000000), wk =   0.0555556
        k(   38) = (  -0.0252881   0.0560203   0.0000000), wk =   0.0555556
        k(   39) = (  -0.0505763   0.0280101   0.0000000), wk =   0.0555556
        k(   40) = (  -0.0505763   0.0560203   0.0000000), wk =   0.0555556

     Dense  grid:  1096637 G-vectors     FFT dimensions: (  80,  72, 375)

     Smooth grid:   277353 G-vectors     FFT dimensions: (  54,  45, 240)

     Largest allocated arrays     est. size (Mb)     dimensions
        Kohn-Sham Wavefunctions         9.95 Mb     (    2180,  299)
        NL pseudopotentials            18.89 Mb     (    2180,  568)
        Each V/rho on FFT grid          4.22 Mb     (  138240,   2)
        Each G-vector array             0.52 Mb     (   68538)
        G-vector shells                 0.25 Mb     (   33046)
     Largest temporary arrays     est. size (Mb)     dimensions
        Auxiliary wavefunctions        39.78 Mb     (    2180, 1196)
        Each subspace H/S matrix       21.83 Mb     (    1196, 1196)
        Each <psi_i|beta_j> matrix      2.59 Mb     (     568,  299)
        Arrays for rho mixing          21.09 Mb     (  138240,   10)

     Check: negative/imaginary core charge=   -0.000049    0.000000

     The initial density is read from file :
     ./calc.save/charge-density.dat


     negative rho (up, down):  1.189E-02 1.196E-02


     ************************************************************************
     *
     * You are using vdW-DF for exchange-correlation in this calculation.
     * Please cite the following three references that made this development
     * possible:
     *
     *   M. Dion, H. Rydberg, E. Schroder, D. C. Langreth, and
     *   B. I. Lundqvist, Phys. Rev. Lett. 92, 246401 (2004).
     *
     *   T. Thonhauser, V. R. Cooper, S. Li, A. Puzder, P. Hyldgaard, and
     *   D. C. Langreth, Phys. Rev. B 76, 125112 (2007).
     *
     *   G. Roman-Perez and J. M. Soler, Phys. Rev. Lett. 103, 096102 (2009).
     *
     *
     * If you are using vdW-DF2, please also cite:
     *
     *   K. Lee, E. D. Murray, L. Kong, B. I. Lundqvist, and
     *   D. C. Langreth, Phys. Rev. B 82, 081101(R) (2010).
     *
     *
     * If you are calculating the stress with vdW-DF, please also cite:
     *
     *   R. Sabatini, E. Kucukbenli, B. Kolb, T. Thonhauser, and
     *   S. de Gironcoli, J. Phys.: Condens. Matter 24, 424209 (2012).
     *
     ************************************************************************

     Carrying out vdW-DF run using the following parameters:

     Nqs =      20    Nr_points =    1024   r_max =   100.000
     q_mesh =
               0.00001000     0.04494208     0.09755937     0.15916263
               0.23128650     0.31572767     0.41458969     0.53033537
               0.66584808     0.82450364     1.01025438     1.22772762
               1.48234092     1.78043706     2.12944203     2.53805004
               3.01644009     3.57652955     4.23227104     5.00000000

     Gradients computed in reciprocal space

     ************************************************************************


     Starting wfc are  300 randomized atomic wfcs

     total cpu time spent up to now is       75.6 secs

     Self-consistent Calculation

     iteration #  1     ecut=    40.42 Ry     beta=0.10
     Davidson diagonalization with overlap
     ethr =  1.00E-05,  avg # of iterations = 14.9

     negative rho (up, down):  1.189E-02 1.196E-02
 
     Magnetic moment per site:
     atom:    1    charge:    3.1244    magn:   -0.0003    constr:    0.0000
     atom:    2    charge:    2.0897    magn:    0.0003    constr:    0.0000
     atom:    3    charge:    3.1198    magn:   -0.0000    constr:    0.0000
     atom:    4    charge:    2.0867    magn:   -0.0001    constr:    0.0000
     atom:    5    charge:    3.1161    magn:   -0.0002    constr:    0.0000
     atom:    6    charge:    2.0795    magn:    0.0020    constr:    0.0000
     atom:    7    charge:    3.1165    magn:   -0.0053    constr:    0.0000
     atom:    8    charge:    2.0803    magn:    0.0246    constr:    0.0000
     atom:    9    charge:    3.1244    magn:   -0.0003    constr:    0.0000
     atom:   10    charge:    2.0898    magn:    0.0003    constr:    0.0000
     atom:   11    charge:    3.1198    magn:   -0.0000    constr:    0.0000
     atom:   12    charge:    2.0871    magn:   -0.0000    constr:    0.0000
     atom:   13    charge:    3.1150    magn:   -0.0002    constr:    0.0000
     atom:   14    charge:    2.0939    magn:    0.0022    constr:    0.0000
     atom:   15    charge:    3.1184    magn:   -0.0008    constr:    0.0000
     atom:   16    charge:    2.0820    magn:    0.0047    constr:    0.0000
     atom:   17    charge:    2.0624    magn:    0.0018    constr:    0.0000
     atom:   18    charge:    3.1239    magn:   -0.0001    constr:    0.0000
     atom:   19    charge:    2.0876    magn:    0.0001    constr:    0.0000
     atom:   20    charge:    2.0847    magn:    0.0002    constr:    0.0000
     atom:   21    charge:    2.0847    magn:    0.0002    constr:    0.0000
     atom:   22    charge:    3.1199    magn:    0.0000    constr:    0.0000
     atom:   23    charge:    2.0908    magn:    0.0002    constr:    0.0000
     atom:   24    charge:    2.0754    magn:   -0.0002    constr:    0.0000
     atom:   25    charge:    2.0868    magn:    0.0000    constr:    0.0000
     atom:   26    charge:    3.1127    magn:   -0.0002    constr:    0.0000
     atom:   27    charge:    2.0803    magn:    0.0025    constr:    0.0000
     atom:   28    charge:    2.0839    magn:    0.0006    constr:    0.0000
     atom:   29    charge:    2.0861    magn:    0.0008    constr:    0.0000
     atom:   30    charge:    3.1174    magn:   -0.0008    constr:    0.0000
     atom:   31    charge:    2.0825    magn:    0.0006    constr:    0.0000
     atom:   32    charge:    2.0837    magn:    0.0065    constr:    0.0000
     atom:   33    charge:    2.0624    magn:    0.0018    constr:    0.0000
     atom:   34    charge:    3.1239    magn:   -0.0001    constr:    0.0000
     atom:   35    charge:    2.0876    magn:    0.0001    constr:    0.0000
     atom:   36    charge:    2.0847    magn:    0.0002    constr:    0.0000
     atom:   37    charge:    2.0847    magn:    0.0002    constr:    0.0000
     atom:   38    charge:    3.1200    magn:    0.0000    constr:    0.0000
     atom:   39    charge:    2.0839    magn:    0.0002    constr:    0.0000
     atom:   40    charge:    2.0757    magn:   -0.0003    constr:    0.0000
     atom:   41    charge:    2.0870    magn:   -0.0000    constr:    0.0000
     atom:   42    charge:    3.1151    magn:   -0.0002    constr:    0.0000
     atom:   43    charge:    2.0803    magn:    0.0030    constr:    0.0000
     atom:   44    charge:    2.0851    magn:    0.0008    constr:    0.0000
     atom:   45    charge:    2.0858    magn:    0.0004    constr:    0.0000
     atom:   46    charge:    3.1145    magn:   -0.0007    constr:    0.0000
     atom:   47    charge:    2.0807    magn:    0.0046    constr:    0.0000
     atom:   48    charge:    2.0831    magn:    0.0135    constr:    0.0000
     atom:   49    charge:    2.0480    magn:    0.2363    constr:    0.0000
     atom:   50    charge:    0.6709    magn:    0.0550    constr:    0.0000
     atom:   51    charge:    0.4221    magn:    0.0009    constr:    0.0000
     atom:   52    charge:    0.4227    magn:    0.0008    constr:    0.0000
     atom:   53    charge:    0.3659    magn:    0.0235    constr:    0.0000
     atom:   54    charge:    0.4232    magn:    0.0006    constr:    0.0000

     total cpu time spent up to now is     1018.3 secs

     total energy              =   -3021.17743749 Ry
     Harris-Foulkes estimate   =   -3021.19152475 Ry
     estimated scf accuracy    <       0.09708073 Ry

     total magnetization       =     1.06 Bohr mag/cell
     absolute magnetization    =     1.23 Bohr mag/cell

     iteration #  2     ecut=    40.42 Ry     beta=0.10
     Davidson diagonalization with overlap
     ethr =  2.44E-05,  avg # of iterations =  1.2

     negative rho (up, down):  1.189E-02 1.196E-02
 
     Magnetic moment per site:
     atom:    1    charge:    3.1244    magn:   -0.0003    constr:    0.0000
     atom:    2    charge:    2.0898    magn:    0.0003    constr:    0.0000
     atom:    3    charge:    3.1198    magn:   -0.0000    constr:    0.0000
     atom:    4    charge:    2.0867    magn:   -0.0001    constr:    0.0000
     atom:    5    charge:    3.1161    magn:   -0.0003    constr:    0.0000
     atom:    6    charge:    2.0795    magn:    0.0020    constr:    0.0000
     atom:    7    charge:    3.1162    magn:   -0.0052    constr:    0.0000
     atom:    8    charge:    2.0807    magn:    0.0243    constr:    0.0000
     atom:    9    charge:    3.1244    magn:   -0.0003    constr:    0.0000
     atom:   10    charge:    2.0900    magn:    0.0003    constr:    0.0000
     atom:   11    charge:    3.1198    magn:   -0.0000    constr:    0.0000
     atom:   12    charge:    2.0870    magn:   -0.0000    constr:    0.0000
     atom:   13    charge:    3.1150    magn:   -0.0002    constr:    0.0000
     atom:   14    charge:    2.0938    magn:    0.0022    constr:    0.0000
     atom:   15    charge:    3.1185    magn:   -0.0008    constr:    0.0000
     atom:   16    charge:    2.0815    magn:    0.0049    constr:    0.0000
     atom:   17    charge:    2.0631    magn:    0.0016    constr:    0.0000
     atom:   18    charge:    3.1240    magn:   -0.0001    constr:    0.0000
     atom:   19    charge:    2.0875    magn:    0.0001    constr:    0.0000
     atom:   20    charge:    2.0848    magn:    0.0001    constr:    0.0000
     atom:   21    charge:    2.0848    magn:    0.0001    constr:    0.0000
     atom:   22    charge:    3.1199    magn:    0.0000    constr:    0.0000
     atom:   23    charge:    2.0907    magn:    0.0002    constr:    0.0000
     atom:   24    charge:    2.0752    magn:   -0.0001    constr:    0.0000
     atom:   25    charge:    2.0867    magn:    0.0000    constr:    0.0000
     atom:   26    charge:    3.1126    magn:   -0.0002    constr:    0.0000
     atom:   27    charge:    2.0801    magn:    0.0025    constr:    0.0000
     atom:   28    charge:    2.0837    magn:    0.0006    constr:    0.0000
     atom:   29    charge:    2.0859    magn:    0.0008    constr:    0.0000
     atom:   30    charge:    3.1173    magn:   -0.0008    constr:    0.0000
     atom:   31    charge:    2.0827    magn:    0.0006    constr:    0.0000
     atom:   32    charge:    2.0841    magn:    0.0067    constr:    0.0000
     atom:   33    charge:    2.0631    magn:    0.0016    constr:    0.0000
     atom:   34    charge:    3.1240    magn:   -0.0001    constr:    0.0000
     atom:   35    charge:    2.0875    magn:    0.0001    constr:    0.0000
     atom:   36    charge:    2.0848    magn:    0.0001    constr:    0.0000
     atom:   37    charge:    2.0848    magn:    0.0001    constr:    0.0000
     atom:   38    charge:    3.1200    magn:    0.0000    constr:    0.0000
     atom:   39    charge:    2.0838    magn:    0.0002    constr:    0.0000
     atom:   40    charge:    2.0755    magn:   -0.0002    constr:    0.0000
     atom:   41    charge:    2.0870    magn:   -0.0000    constr:    0.0000
     atom:   42    charge:    3.1151    magn:   -0.0002    constr:    0.0000
     atom:   43    charge:    2.0801    magn:    0.0030    constr:    0.0000
     atom:   44    charge:    2.0849    magn:    0.0009    constr:    0.0000
     atom:   45    charge:    2.0857    magn:    0.0004    constr:    0.0000
     atom:   46    charge:    3.1145    magn:   -0.0007    constr:    0.0000
     atom:   47    charge:    2.0809    magn:    0.0046    constr:    0.0000
     atom:   48    charge:    2.0829    magn:    0.0131    constr:    0.0000
     atom:   49    charge:    2.0513    magn:    0.2365    constr:    0.0000
     atom:   50    charge:    0.6704    magn:    0.0554    constr:    0.0000
     atom:   51    charge:    0.4224    magn:    0.0010    constr:    0.0000
     atom:   52    charge:    0.4230    magn:    0.0008    constr:    0.0000
     atom:   53    charge:    0.3617    magn:    0.0242    constr:    0.0000
     atom:   54    charge:    0.4235    magn:    0.0006    constr:    0.0000

     total cpu time spent up to now is     1216.2 secs

     total energy              =   -3021.14686387 Ry
     Harris-Foulkes estimate   =   -3021.17816816 Ry
     estimated scf accuracy    <       0.06490107 Ry

     total magnetization       =     1.06 Bohr mag/cell
     absolute magnetization    =     1.23 Bohr mag/cell

     iteration #  3     ecut=    40.42 Ry     beta=0.10
     Davidson diagonalization with overlap
     ethr =  1.63E-05,  avg # of iterations =  3.3

     negative rho (up, down):  1.189E-02 1.196E-02
 
     Magnetic moment per site:
     atom:    1    charge:    3.1244    magn:   -0.0003    constr:    0.0000
     atom:    2    charge:    2.0896    magn:    0.0003    constr:    0.0000
     atom:    3    charge:    3.1198    magn:   -0.0000    constr:    0.0000
     atom:    4    charge:    2.0867    magn:   -0.0001    constr:    0.0000
     atom:    5    charge:    3.1161    magn:   -0.0003    constr:    0.0000
     atom:    6    charge:    2.0796    magn:    0.0020    constr:    0.0000
     atom:    7    charge:    3.1163    magn:   -0.0053    constr:    0.0000
     atom:    8    charge:    2.0804    magn:    0.0243    constr:    0.0000
     atom:    9    charge:    3.1244    magn:   -0.0003    constr:    0.0000
     atom:   10    charge:    2.0898    magn:    0.0003    constr:    0.0000
     atom:   11    charge:    3.1198    magn:   -0.0000    constr:    0.0000
     atom:   12    charge:    2.0871    magn:   -0.0000    constr:    0.0000
     atom:   13    charge:    3.1150    magn:   -0.0002    constr:    0.0000
     atom:   14    charge:    2.0939    magn:    0.0022    constr:    0.0000
     atom:   15    charge:    3.1185    magn:   -0.0008    constr:    0.0000
     atom:   16    charge:    2.0819    magn:    0.0049    constr:    0.0000
     atom:   17    charge:    2.0622    magn:    0.0016    constr:    0.0000
     atom:   18    charge:    3.1240    magn:   -0.0001    constr:    0.0000
     atom:   19    charge:    2.0875    magn:    0.0001    constr:    0.0000
     atom:   20    charge:    2.0847    magn:    0.0001    constr:    0.0000
     atom:   21    charge:    2.0847    magn:    0.0001    constr:    0.0000
     atom:   22    charge:    3.1199    magn:    0.0000    constr:    0.0000
     atom:   23    charge:    2.0908    magn:    0.0002    constr:    0.0000
     atom:   24    charge:    2.0754    magn:   -0.0001    constr:    0.0000
     atom:   25    charge:    2.0867    magn:    0.0000    constr:    0.0000
     atom:   26    charge:    3.1126    magn:   -0.0002    constr:    0.0000
     atom:   27    charge:    2.0803    magn:    0.0025    constr:    0.0000
     atom:   28    charge:    2.0839    magn:    0.0006    constr:    0.0000
     atom:   29    charge:    2.0860    magn:    0.0008    constr:    0.0000
     atom:   30    charge:    3.1172    magn:   -0.0008    constr:    0.0000
     atom:   31    charge:    2.0827    magn:    0.0006    constr:    0.0000
     atom:   32    charge:    2.0839    magn:    0.0067    constr:    0.0000
     atom:   33    charge:    2.0622    magn:    0.0016    constr:    0.0000
     atom:   34    charge:    3.1239    magn:   -0.0001    constr:    0.0000
     atom:   35    charge:    2.0875    magn:    0.0001    constr:    0.0000
     atom:   36    charge:    2.0847    magn:    0.0001    constr:    0.0000
     atom:   37    charge:    2.0847    magn:    0.0001    constr:    0.0000
     atom:   38    charge:    3.1200    magn:    0.0000    constr:    0.0000
     atom:   39    charge:    2.0839    magn:    0.0002    constr:    0.0000
     atom:   40    charge:    2.0756    magn:   -0.0002    constr:    0.0000
     atom:   41    charge:    2.0870    magn:   -0.0000    constr:    0.0000
     atom:   42    charge:    3.1151    magn:   -0.0002    constr:    0.0000
     atom:   43    charge:    2.0803    magn:    0.0030    constr:    0.0000
     atom:   44    charge:    2.0851    magn:    0.0009    constr:    0.0000
     atom:   45    charge:    2.0859    magn:    0.0005    constr:    0.0000
     atom:   46    charge:    3.1146    magn:   -0.0007    constr:    0.0000
     atom:   47    charge:    2.0809    magn:    0.0046    constr:    0.0000
     atom:   48    charge:    2.0832    magn:    0.0131    constr:    0.0000
     atom:   49    charge:    2.0517    magn:    0.2367    constr:    0.0000
     atom:   50    charge:    0.6705    magn:    0.0554    constr:    0.0000
     atom:   51    charge:    0.4225    magn:    0.0010    constr:    0.0000
     atom:   52    charge:    0.4230    magn:    0.0008    constr:    0.0000
     atom:   53    charge:    0.3614    magn:    0.0242    constr:    0.0000
     atom:   54    charge:    0.4235    magn:    0.0006    constr:    0.0000

     total cpu time spent up to now is     1460.9 secs

     total energy              =   -3021.14990284 Ry
     Harris-Foulkes estimate   =   -3021.15428598 Ry
     estimated scf accuracy    <       0.04838932 Ry

     total magnetization       =     1.05 Bohr mag/cell
     absolute magnetization    =     1.22 Bohr mag/cell

     iteration #  4     ecut=    40.42 Ry     beta=0.10
     Davidson diagonalization with overlap
     ethr =  1.22E-05,  avg # of iterations =  1.0

     negative rho (up, down):  1.189E-02 1.196E-02
 
     Magnetic moment per site:
     atom:    1    charge:    3.1244    magn:   -0.0003    constr:    0.0000
     atom:    2    charge:    2.0897    magn:    0.0002    constr:    0.0000
     atom:    3    charge:    3.1198    magn:   -0.0000    constr:    0.0000
     atom:    4    charge:    2.0868    magn:   -0.0001    constr:    0.0000
     atom:    5    charge:    3.1161    magn:   -0.0003    constr:    0.0000
     atom:    6    charge:    2.0795    magn:    0.0020    constr:    0.0000
     atom:    7    charge:    3.1167    magn:   -0.0054    constr:    0.0000
     atom:    8    charge:    2.0780    magn:    0.0250    constr:    0.0000
     atom:    9    charge:    3.1244    magn:   -0.0003    constr:    0.0000
     atom:   10    charge:    2.0899    magn:    0.0003    constr:    0.0000
     atom:   11    charge:    3.1198    magn:   -0.0000    constr:    0.0000
     atom:   12    charge:    2.0871    magn:   -0.0000    constr:    0.0000
     atom:   13    charge:    3.1150    magn:   -0.0002    constr:    0.0000
     atom:   14    charge:    2.0939    magn:    0.0023    constr:    0.0000
     atom:   15    charge:    3.1184    magn:   -0.0008    constr:    0.0000
     atom:   16    charge:    2.0834    magn:    0.0049    constr:    0.0000
     atom:   17    charge:    2.0623    magn:    0.0015    constr:    0.0000
     atom:   18    charge:    3.1239    magn:   -0.0001    constr:    0.0000
     atom:   19    charge:    2.0876    magn:    0.0001    constr:    0.0000
     atom:   20    charge:    2.0847    magn:    0.0001    constr:    0.0000
     atom:   21    charge:    2.0847    magn:    0.0001    constr:    0.0000
     atom:   22    charge:    3.1199    magn:    0.0000    constr:    0.0000
     atom:   23    charge:    2.0909    magn:    0.0002    constr:    0.0000
     atom:   24    charge:    2.0755    magn:   -0.0001    constr:    0.0000
     atom:   25    charge:    2.0868    magn:    0.0000    constr:    0.0000
     atom:   26    charge:    3.1127    magn:   -0.0002    constr:    0.0000
     atom:   27    charge:    2.0802    magn:    0.0026    constr:    0.0000
     atom:   28    charge:    2.0839    magn:    0.0007    constr:    0.0000
     atom:   29    charge:    2.0860    magn:    0.0008    constr:    0.0000
     atom:   30    charge:    3.1168    magn:   -0.0008    constr:    0.0000
     atom:   31    charge:    2.0826    magn:    0.0006    constr:    0.0000
     atom:   32    charge:    2.0821    magn:    0.0069    constr:    0.0000
     atom:   33    charge:    2.0622    magn:    0.0015    constr:    0.0000
     atom:   34    charge:    3.1239    magn:   -0.0001    constr:    0.0000
     atom:   35    charge:    2.0876    magn:    0.0001    constr:    0.0000
     atom:   36    charge:    2.0847    magn:    0.0001    constr:    0.0000
     atom:   37    charge:    2.0847    magn:    0.0001    constr:    0.0000
     atom:   38    charge:    3.1200    magn:    0.0000    constr:    0.0000
     atom:   39    charge:    2.0840    magn:    0.0002    constr:    0.0000
     atom:   40    charge:    2.0758    magn:   -0.0002    constr:    0.0000
     atom:   41    charge:    2.0871    magn:   -0.0000    constr:    0.0000
     atom:   42    charge:    3.1151    magn:   -0.0002    constr:    0.0000
     atom:   43    charge:    2.0802    magn:    0.0031    constr:    0.0000
     atom:   44    charge:    2.0852    magn:    0.0009    constr:    0.0000
     atom:   45    charge:    2.0859    magn:    0.0005    constr:    0.0000
     atom:   46    charge:    3.1150    magn:   -0.0007    constr:    0.0000
     atom:   47    charge:    2.0806    magn:    0.0046    constr:    0.0000
     atom:   48    charge:    2.0843    magn:    0.0130    constr:    0.0000
     atom:   49    charge:    2.0506    magn:    0.2379    constr:    0.0000
     atom:   50    charge:    0.6713    magn:    0.0549    constr:    0.0000
     atom:   51    charge:    0.4224    magn:    0.0009    constr:    0.0000
     atom:   52    charge:    0.4230    magn:    0.0007    constr:    0.0000
     atom:   53    charge:    0.3623    magn:    0.0237    constr:    0.0000
     atom:   54    charge:    0.4234    magn:    0.0005    constr:    0.0000

     total cpu time spent up to now is     1655.0 secs

     total energy              =   -3021.14950718 Ry
     Harris-Foulkes estimate   =   -3021.15187179 Ry
     estimated scf accuracy    <       0.01037491 Ry

     total magnetization       =     1.07 Bohr mag/cell
     absolute magnetization    =     1.24 Bohr mag/cell

     iteration #  5     ecut=    40.42 Ry     beta=0.10
     Davidson diagonalization with overlap
     ethr =  2.61E-06,  avg # of iterations =  4.3

     negative rho (up, down):  1.189E-02 1.196E-02
 
     Magnetic moment per site:
     atom:    1    charge:    3.1244    magn:   -0.0002    constr:    0.0000
     atom:    2    charge:    2.0897    magn:    0.0002    constr:    0.0000
     atom:    3    charge:    3.1198    magn:   -0.0000    constr:    0.0000
     atom:    4    charge:    2.0867    magn:   -0.0001    constr:    0.0000
     atom:    5    charge:    3.1161    magn:   -0.0003    constr:    0.0000
     atom:    6    charge:    2.0795    magn:    0.0020    constr:    0.0000
     atom:    7    charge:    3.1167    magn:   -0.0055    constr:    0.0000
     atom:    8    charge:    2.0778    magn:    0.0252    constr:    0.0000
     atom:    9    charge:    3.1244    magn:   -0.0002    constr:    0.0000
     atom:   10    charge:    2.0898    magn:    0.0003    constr:    0.0000
     atom:   11    charge:    3.1198    magn:   -0.0000    constr:    0.0000
     atom:   12    charge:    2.0871    magn:   -0.0000    constr:    0.0000
     atom:   13    charge:    3.1150    magn:   -0.0002    constr:    0.0000
     atom:   14    charge:    2.0939    magn:    0.0023    constr:    0.0000
     atom:   15    charge:    3.1184    magn:   -0.0008    constr:    0.0000
     atom:   16    charge:    2.0837    magn:    0.0048    constr:    0.0000
     atom:   17    charge:    2.0624    magn:    0.0014    constr:    0.0000
     atom:   18    charge:    3.1239    magn:   -0.0001    constr:    0.0000
     atom:   19    charge:    2.0875    magn:    0.0001    constr:    0.0000
     atom:   20    charge:    2.0847    magn:    0.0001    constr:    0.0000
     atom:   21    charge:    2.0847    magn:    0.0001    constr:    0.0000
     atom:   22    charge:    3.1199    magn:    0.0000    constr:    0.0000
     atom:   23    charge:    2.0908    magn:    0.0002    constr:    0.0000
     atom:   24    charge:    2.0754    magn:   -0.0001    constr:    0.0000
     atom:   25    charge:    2.0867    magn:    0.0000    constr:    0.0000
     atom:   26    charge:    3.1127    magn:   -0.0002    constr:    0.0000
     atom:   27    charge:    2.0803    magn:    0.0026    constr:    0.0000
     atom:   28    charge:    2.0839    magn:    0.0007    constr:    0.0000
     atom:   29    charge:    2.0860    magn:    0.0008    constr:    0.0000
     atom:   30    charge:    3.1168    magn:   -0.0008    constr:    0.0000
     atom:   31    charge:    2.0826    magn:    0.0006    constr:    0.0000
     atom:   32    charge:    2.0820    magn:    0.0069    constr:    0.0000
     atom:   33    charge:    2.0624    magn:    0.0014    constr:    0.0000
     atom:   34    charge:    3.1239    magn:   -0.0001    constr:    0.0000
     atom:   35    charge:    2.0875    magn:    0.0001    constr:    0.0000
     atom:   36    charge:    2.0847    magn:    0.0001    constr:    0.0000
     atom:   37    charge:    2.0847    magn:    0.0001    constr:    0.0000
     atom:   38    charge:    3.1200    magn:    0.0000    constr:    0.0000
     atom:   39    charge:    2.0839    magn:    0.0002    constr:    0.0000
     atom:   40    charge:    2.0756    magn:   -0.0002    constr:    0.0000
     atom:   41    charge:    2.0870    magn:   -0.0000    constr:    0.0000
     atom:   42    charge:    3.1151    magn:   -0.0002    constr:    0.0000
     atom:   43    charge:    2.0803    magn:    0.0031    constr:    0.0000
     atom:   44    charge:    2.0851    magn:    0.0009    constr:    0.0000
     atom:   45    charge:    2.0859    magn:    0.0005    constr:    0.0000
     atom:   46    charge:    3.1150    magn:   -0.0007    constr:    0.0000
     atom:   47    charge:    2.0806    magn:    0.0046    constr:    0.0000
     atom:   48    charge:    2.0845    magn:    0.0130    constr:    0.0000
     atom:   49    charge:    2.0505    magn:    0.2384    constr:    0.0000
     atom:   50    charge:    0.6716    magn:    0.0546    constr:    0.0000
     atom:   51    charge:    0.4224    magn:    0.0009    constr:    0.0000
     atom:   52    charge:    0.4230    magn:    0.0007    constr:    0.0000
     atom:   53    charge:    0.3630    magn:    0.0234    constr:    0.0000
     atom:   54    charge:    0.4234    magn:    0.0005    constr:    0.0000

     total cpu time spent up to now is     1909.4 secs

     total energy              =   -3021.14998098 Ry
     Harris-Foulkes estimate   =   -3021.15024192 Ry
     estimated scf accuracy    <       0.00170266 Ry

     total magnetization       =     1.05 Bohr mag/cell
     absolute magnetization    =     1.23 Bohr mag/cell

     iteration #  6     ecut=    40.42 Ry     beta=0.10
     Davidson diagonalization with overlap
     ethr =  4.28E-07,  avg # of iterations =  3.0

     negative rho (up, down):  1.189E-02 1.196E-02
 
     Magnetic moment per site:
     atom:    1    charge:    3.1244    magn:   -0.0002    constr:    0.0000
     atom:    2    charge:    2.0897    magn:    0.0002    constr:    0.0000
     atom:    3    charge:    3.1198    magn:   -0.0000    constr:    0.0000
     atom:    4    charge:    2.0867    magn:   -0.0001    constr:    0.0000
     atom:    5    charge:    3.1161    magn:   -0.0003    constr:    0.0000
     atom:    6    charge:    2.0795    magn:    0.0020    constr:    0.0000
     atom:    7    charge:    3.1167    magn:   -0.0056    constr:    0.0000
     atom:    8    charge:    2.0787    magn:    0.0255    constr:    0.0000
     atom:    9    charge:    3.1244    magn:   -0.0002    constr:    0.0000
     atom:   10    charge:    2.0898    magn:    0.0002    constr:    0.0000
     atom:   11    charge:    3.1198    magn:   -0.0000    constr:    0.0000
     atom:   12    charge:    2.0870    magn:   -0.0000    constr:    0.0000
     atom:   13    charge:    3.1150    magn:   -0.0002    constr:    0.0000
     atom:   14    charge:    2.0939    magn:    0.0023    constr:    0.0000
     atom:   15    charge:    3.1183    magn:   -0.0008    constr:    0.0000
     atom:   16    charge:    2.0833    magn:    0.0048    constr:    0.0000
     atom:   17    charge:    2.0624    magn:    0.0013    constr:    0.0000
     atom:   18    charge:    3.1239    magn:   -0.0001    constr:    0.0000
     atom:   19    charge:    2.0875    magn:    0.0001    constr:    0.0000
     atom:   20    charge:    2.0847    magn:    0.0001    constr:    0.0000
     atom:   21    charge:    2.0847    magn:    0.0001    constr:    0.0000
     atom:   22    charge:    3.1199    magn:    0.0000    constr:    0.0000
     atom:   23    charge:    2.0908    magn:    0.0002    constr:    0.0000
     atom:   24    charge:    2.0753    magn:   -0.0001    constr:    0.0000
     atom:   25    charge:    2.0867    magn:    0.0000    constr:    0.0000
     atom:   26    charge:    3.1127    magn:   -0.0002    constr:    0.0000
     atom:   27    charge:    2.0803    magn:    0.0026    constr:    0.0000
     atom:   28    charge:    2.0839    magn:    0.0007    constr:    0.0000
     atom:   29    charge:    2.0860    magn:    0.0008    constr:    0.0000
     atom:   30    charge:    3.1171    magn:   -0.0008    constr:    0.0000
     atom:   31    charge:    2.0823    magn:    0.0006    constr:    0.0000
     atom:   32    charge:    2.0824    magn:    0.0070    constr:    0.0000
     atom:   33    charge:    2.0624    magn:    0.0013    constr:    0.0000
     atom:   34    charge:    3.1239    magn:   -0.0001    constr:    0.0000
     atom:   35    charge:    2.0876    magn:    0.0000    constr:    0.0000
     atom:   36    charge:    2.0847    magn:    0.0001    constr:    0.0000
     atom:   37    charge:    2.0847    magn:    0.0001    constr:    0.0000
     atom:   38    charge:    3.1200    magn:    0.0000    constr:    0.0000
     atom:   39    charge:    2.0839    magn:    0.0002    constr:    0.0000
     atom:   40    charge:    2.0756    magn:   -0.0002    constr:    0.0000
     atom:   41    charge:    2.0870    magn:   -0.0000    constr:    0.0000
     atom:   42    charge:    3.1151    magn:   -0.0002    constr:    0.0000
     atom:   43    charge:    2.0803    magn:    0.0031    constr:    0.0000
     atom:   44    charge:    2.0850    magn:    0.0009    constr:    0.0000
     atom:   45    charge:    2.0858    magn:    0.0005    constr:    0.0000
     atom:   46    charge:    3.1148    magn:   -0.0007    constr:    0.0000
     atom:   47    charge:    2.0804    magn:    0.0047    constr:    0.0000
     atom:   48    charge:    2.0840    magn:    0.0132    constr:    0.0000
     atom:   49    charge:    2.0501    magn:    0.2396    constr:    0.0000
     atom:   50    charge:    0.6718    magn:    0.0540    constr:    0.0000
     atom:   51    charge:    0.4222    magn:    0.0009    constr:    0.0000
     atom:   52    charge:    0.4228    magn:    0.0007    constr:    0.0000
     atom:   53    charge:    0.3647    magn:    0.0231    constr:    0.0000
     atom:   54    charge:    0.4233    magn:    0.0005    constr:    0.0000

     total cpu time spent up to now is     2136.8 secs

     total energy              =   -3021.14991604 Ry
     Harris-Foulkes estimate   =   -3021.15005212 Ry
     estimated scf accuracy    <       0.00054673 Ry

     total magnetization       =     1.06 Bohr mag/cell
     absolute magnetization    =     1.23 Bohr mag/cell

     iteration #  7     ecut=    40.42 Ry     beta=0.10
     Davidson diagonalization with overlap
     ethr =  1.37E-07,  avg # of iterations =  2.2

     negative rho (up, down):  1.190E-02 1.196E-02
 
     Magnetic moment per site:
     atom:    1    charge:    3.1244    magn:   -0.0002    constr:    0.0000
     atom:    2    charge:    2.0897    magn:    0.0002    constr:    0.0000
     atom:    3    charge:    3.1198    magn:   -0.0000    constr:    0.0000
     atom:    4    charge:    2.0867    magn:   -0.0001    constr:    0.0000
     atom:    5    charge:    3.1161    magn:   -0.0003    constr:    0.0000
     atom:    6    charge:    2.0795    magn:    0.0020    constr:    0.0000
     atom:    7    charge:    3.1167    magn:   -0.0057    constr:    0.0000
     atom:    8    charge:    2.0790    magn:    0.0258    constr:    0.0000
     atom:    9    charge:    3.1244    magn:   -0.0002    constr:    0.0000
     atom:   10    charge:    2.0898    magn:    0.0002    constr:    0.0000
     atom:   11    charge:    3.1198    magn:   -0.0000    constr:    0.0000
     atom:   12    charge:    2.0870    magn:   -0.0000    constr:    0.0000
     atom:   13    charge:    3.1150    magn:   -0.0002    constr:    0.0000
     atom:   14    charge:    2.0939    magn:    0.0023    constr:    0.0000
     atom:   15    charge:    3.1183    magn:   -0.0008    constr:    0.0000
     atom:   16    charge:    2.0830    magn:    0.0048    constr:    0.0000
     atom:   17    charge:    2.0624    magn:    0.0012    constr:    0.0000
     atom:   18    charge:    3.1239    magn:   -0.0000    constr:    0.0000
     atom:   19    charge:    2.0876    magn:    0.0000    constr:    0.0000
     atom:   20    charge:    2.0847    magn:    0.0001    constr:    0.0000
     atom:   21    charge:    2.0847    magn:    0.0001    constr:    0.0000
     atom:   22    charge:    3.1199    magn:    0.0000    constr:    0.0000
     atom:   23    charge:    2.0908    magn:    0.0002    constr:    0.0000
     atom:   24    charge:    2.0754    magn:   -0.0001    constr:    0.0000
     atom:   25    charge:    2.0867    magn:    0.0000    constr:    0.0000
     atom:   26    charge:    3.1127    magn:   -0.0002    constr:    0.0000
     atom:   27    charge:    2.0803    magn:    0.0027    constr:    0.0000
     atom:   28    charge:    2.0839    magn:    0.0007    constr:    0.0000
     atom:   29    charge:    2.0860    magn:    0.0009    constr:    0.0000
     atom:   30    charge:    3.1171    magn:   -0.0008    constr:    0.0000
     atom:   31    charge:    2.0823    magn:    0.0006    constr:    0.0000
     atom:   32    charge:    2.0826    magn:    0.0071    constr:    0.0000
     atom:   33    charge:    2.0624    magn:    0.0013    constr:    0.0000
     atom:   34    charge:    3.1239    magn:   -0.0000    constr:    0.0000
     atom:   35    charge:    2.0876    magn:    0.0000    constr:    0.0000
     atom:   36    charge:    2.0847    magn:    0.0001    constr:    0.0000
     atom:   37    charge:    2.0847    magn:    0.0001    constr:    0.0000
     atom:   38    charge:    3.1200    magn:    0.0000    constr:    0.0000
     atom:   39    charge:    2.0839    magn:    0.0002    constr:    0.0000
     atom:   40    charge:    2.0756    magn:   -0.0002    constr:    0.0000
     atom:   41    charge:    2.0870    magn:   -0.0000    constr:    0.0000
     atom:   42    charge:    3.1151    magn:   -0.0002    constr:    0.0000
     atom:   43    charge:    2.0803    magn:    0.0032    constr:    0.0000
     atom:   44    charge:    2.0851    magn:    0.0009    constr:    0.0000
     atom:   45    charge:    2.0858    magn:    0.0005    constr:    0.0000
     atom:   46    charge:    3.1148    magn:   -0.0007    constr:    0.0000
     atom:   47    charge:    2.0804    magn:    0.0048    constr:    0.0000
     atom:   48    charge:    2.0838    magn:    0.0132    constr:    0.0000
     atom:   49    charge:    2.0499    magn:    0.2406    constr:    0.0000
     atom:   50    charge:    0.6717    magn:    0.0536    constr:    0.0000
     atom:   51    charge:    0.4221    magn:    0.0009    constr:    0.0000
     atom:   52    charge:    0.4228    magn:    0.0007    constr:    0.0000
     atom:   53    charge:    0.3661    magn:    0.0229    constr:    0.0000
     atom:   54    charge:    0.4232    magn:    0.0005    constr:    0.0000

     total cpu time spent up to now is     2356.4 secs

     total energy              =   -3021.14992357 Ry
     Harris-Foulkes estimate   =   -3021.14995801 Ry
     estimated scf accuracy    <       0.00020962 Ry

     total magnetization       =     1.06 Bohr mag/cell
     absolute magnetization    =     1.23 Bohr mag/cell

     iteration #  8     ecut=    40.42 Ry     beta=0.10
     Davidson diagonalization with overlap
     ethr =  5.27E-08,  avg # of iterations =  2.5

     negative rho (up, down):  1.190E-02 1.196E-02
 
     Magnetic moment per site:
     atom:    1    charge:    3.1244    magn:   -0.0002    constr:    0.0000
     atom:    2    charge:    2.0897    magn:    0.0002    constr:    0.0000
     atom:    3    charge:    3.1198    magn:   -0.0000    constr:    0.0000
     atom:    4    charge:    2.0867    magn:   -0.0001    constr:    0.0000
     atom:    5    charge:    3.1161    magn:   -0.0003    constr:    0.0000
     atom:    6    charge:    2.0795    magn:    0.0021    constr:    0.0000
     atom:    7    charge:    3.1167    magn:   -0.0057    constr:    0.0000
     atom:    8    charge:    2.0792    magn:    0.0260    constr:    0.0000
     atom:    9    charge:    3.1244    magn:   -0.0002    constr:    0.0000
     atom:   10    charge:    2.0898    magn:    0.0002    constr:    0.0000
     atom:   11    charge:    3.1198    magn:   -0.0000    constr:    0.0000
     atom:   12    charge:    2.0871    magn:   -0.0000    constr:    0.0000
     atom:   13    charge:    3.1150    magn:   -0.0002    constr:    0.0000
     atom:   14    charge:    2.0939    magn:    0.0023    constr:    0.0000
     atom:   15    charge:    3.1184    magn:   -0.0008    constr:    0.0000
     atom:   16    charge:    2.0828    magn:    0.0048    constr:    0.0000
     atom:   17    charge:    2.0624    magn:    0.0011    constr:    0.0000
     atom:   18    charge:    3.1240    magn:   -0.0000    constr:    0.0000
     atom:   19    charge:    2.0875    magn:    0.0000    constr:    0.0000
     atom:   20    charge:    2.0847    magn:    0.0001    constr:    0.0000
     atom:   21    charge:    2.0847    magn:    0.0001    constr:    0.0000
     atom:   22    charge:    3.1199    magn:    0.0000    constr:    0.0000
     atom:   23    charge:    2.0908    magn:    0.0002    constr:    0.0000
     atom:   24    charge:    2.0754    magn:   -0.0001    constr:    0.0000
     atom:   25    charge:    2.0867    magn:    0.0000    constr:    0.0000
     atom:   26    charge:    3.1127    magn:   -0.0003    constr:    0.0000
     atom:   27    charge:    2.0803    magn:    0.0027    constr:    0.0000
     atom:   28    charge:    2.0839    magn:    0.0007    constr:    0.0000
     atom:   29    charge:    2.0860    magn:    0.0009    constr:    0.0000
     atom:   30    charge:    3.1171    magn:   -0.0008    constr:    0.0000
     atom:   31    charge:    2.0824    magn:    0.0006    constr:    0.0000
     atom:   32    charge:    2.0829    magn:    0.0071    constr:    0.0000
     atom:   33    charge:    2.0624    magn:    0.0011    constr:    0.0000
     atom:   34    charge:    3.1239    magn:   -0.0000    constr:    0.0000
     atom:   35    charge:    2.0875    magn:    0.0000    constr:    0.0000
     atom:   36    charge:    2.0847    magn:    0.0001    constr:    0.0000
     atom:   37    charge:    2.0847    magn:    0.0001    constr:    0.0000
     atom:   38    charge:    3.1200    magn:    0.0000    constr:    0.0000
     atom:   39    charge:    2.0839    magn:    0.0002    constr:    0.0000
     atom:   40    charge:    2.0756    magn:   -0.0001    constr:    0.0000
     atom:   41    charge:    2.0870    magn:   -0.0000    constr:    0.0000
     atom:   42    charge:    3.1151    magn:   -0.0002    constr:    0.0000
     atom:   43    charge:    2.0803    magn:    0.0032    constr:    0.0000
     atom:   44    charge:    2.0851    magn:    0.0010    constr:    0.0000
     atom:   45    charge:    2.0859    magn:    0.0005    constr:    0.0000
     atom:   46    charge:    3.1148    magn:   -0.0007    constr:    0.0000
     atom:   47    charge:    2.0805    magn:    0.0048    constr:    0.0000
     atom:   48    charge:    2.0837    magn:    0.0133    constr:    0.0000
     atom:   49    charge:    2.0502    magn:    0.2414    constr:    0.0000
     atom:   50    charge:    0.6713    magn:    0.0532    constr:    0.0000
     atom:   51    charge:    0.4221    magn:    0.0009    constr:    0.0000
     atom:   52    charge:    0.4227    magn:    0.0007    constr:    0.0000
     atom:   53    charge:    0.3670    magn:    0.0228    constr:    0.0000
     atom:   54    charge:    0.4231    magn:    0.0006    constr:    0.0000

     total cpu time spent up to now is     2578.0 secs

     total energy              =   -3021.14993849 Ry
     Harris-Foulkes estimate   =   -3021.14993979 Ry
     estimated scf accuracy    <       0.00005875 Ry

     total magnetization       =     1.06 Bohr mag/cell
     absolute magnetization    =     1.23 Bohr mag/cell

     iteration #  9     ecut=    40.42 Ry     beta=0.10
     Davidson diagonalization with overlap
     ethr =  1.48E-08,  avg # of iterations =  3.0

     negative rho (up, down):  1.190E-02 1.196E-02
 
     Magnetic moment per site:
     atom:    1    charge:    3.1244    magn:   -0.0002    constr:    0.0000
     atom:    2    charge:    2.0897    magn:    0.0002    constr:    0.0000
     atom:    3    charge:    3.1198    magn:   -0.0000    constr:    0.0000
     atom:    4    charge:    2.0867    magn:   -0.0001    constr:    0.0000
     atom:    5    charge:    3.1161    magn:   -0.0003    constr:    0.0000
     atom:    6    charge:    2.0795    magn:    0.0021    constr:    0.0000
     atom:    7    charge:    3.1168    magn:   -0.0058    constr:    0.0000
     atom:    8    charge:    2.0794    magn:    0.0262    constr:    0.0000
     atom:    9    charge:    3.1244    magn:   -0.0002    constr:    0.0000
     atom:   10    charge:    2.0898    magn:    0.0002    constr:    0.0000
     atom:   11    charge:    3.1198    magn:   -0.0000    constr:    0.0000
     atom:   12    charge:    2.0870    magn:   -0.0000    constr:    0.0000
     atom:   13    charge:    3.1150    magn:   -0.0002    constr:    0.0000
     atom:   14    charge:    2.0939    magn:    0.0023    constr:    0.0000
     atom:   15    charge:    3.1184    magn:   -0.0008    constr:    0.0000
     atom:   16    charge:    2.0828    magn:    0.0048    constr:    0.0000
     atom:   17    charge:    2.0625    magn:    0.0010    constr:    0.0000
     atom:   18    charge:    3.1240    magn:   -0.0000    constr:    0.0000
     atom:   19    charge:    2.0875    magn:    0.0000    constr:    0.0000
     atom:   20    charge:    2.0847    magn:    0.0001    constr:    0.0000
     atom:   21    charge:    2.0847    magn:    0.0001    constr:    0.0000
     atom:   22    charge:    3.1199    magn:    0.0000    constr:    0.0000
     atom:   23    charge:    2.0908    magn:    0.0002    constr:    0.0000
     atom:   24    charge:    2.0754    magn:   -0.0000    constr:    0.0000
     atom:   25    charge:    2.0867    magn:    0.0000    constr:    0.0000
     atom:   26    charge:    3.1127    magn:   -0.0003    constr:    0.0000
     atom:   27    charge:    2.0803    magn:    0.0027    constr:    0.0000
     atom:   28    charge:    2.0839    magn:    0.0008    constr:    0.0000
     atom:   29    charge:    2.0860    magn:    0.0009    constr:    0.0000
     atom:   30    charge:    3.1171    magn:   -0.0008    constr:    0.0000
     atom:   31    charge:    2.0825    magn:    0.0006    constr:    0.0000
     atom:   32    charge:    2.0830    magn:    0.0072    constr:    0.0000
     atom:   33    charge:    2.0624    magn:    0.0010    constr:    0.0000
     atom:   34    charge:    3.1239    magn:   -0.0000    constr:    0.0000
     atom:   35    charge:    2.0875    magn:    0.0000    constr:    0.0000
     atom:   36    charge:    2.0847    magn:    0.0001    constr:    0.0000
     atom:   37    charge:    2.0847    magn:    0.0001    constr:    0.0000
     atom:   38    charge:    3.1200    magn:    0.0000    constr:    0.0000
     atom:   39    charge:    2.0839    magn:    0.0002    constr:    0.0000
     atom:   40    charge:    2.0756    magn:   -0.0001    constr:    0.0000
     atom:   41    charge:    2.0870    magn:   -0.0000    constr:    0.0000
     atom:   42    charge:    3.1151    magn:   -0.0002    constr:    0.0000
     atom:   43    charge:    2.0803    magn:    0.0033    constr:    0.0000
     atom:   44    charge:    2.0851    magn:    0.0010    constr:    0.0000
     atom:   45    charge:    2.0858    magn:    0.0005    constr:    0.0000
     atom:   46    charge:    3.1147    magn:   -0.0007    constr:    0.0000
     atom:   47    charge:    2.0806    magn:    0.0048    constr:    0.0000
     atom:   48    charge:    2.0836    magn:    0.0133    constr:    0.0000
     atom:   49    charge:    2.0503    magn:    0.2421    constr:    0.0000
     atom:   50    charge:    0.6711    magn:    0.0530    constr:    0.0000
     atom:   51    charge:    0.4221    magn:    0.0009    constr:    0.0000
     atom:   52    charge:    0.4227    magn:    0.0007    constr:    0.0000
     atom:   53    charge:    0.3674    magn:    0.0228    constr:    0.0000
     atom:   54    charge:    0.4231    magn:    0.0006    constr:    0.0000

     total cpu time spent up to now is     2810.8 secs

     total energy              =   -3021.14994782 Ry
     Harris-Foulkes estimate   =   -3021.14994340 Ry
     estimated scf accuracy    <       0.00001742 Ry

     total magnetization       =     1.06 Bohr mag/cell
     absolute magnetization    =     1.23 Bohr mag/cell

     iteration # 10     ecut=    40.42 Ry     beta=0.10
     Davidson diagonalization with overlap
     ethr =  4.38E-09,  avg # of iterations =  3.0

     negative rho (up, down):  1.190E-02 1.196E-02
 
     Magnetic moment per site:
     atom:    1    charge:    3.1244    magn:   -0.0002    constr:    0.0000
     atom:    2    charge:    2.0897    magn:    0.0001    constr:    0.0000
     atom:    3    charge:    3.1198    magn:   -0.0000    constr:    0.0000
     atom:    4    charge:    2.0867    magn:   -0.0001    constr:    0.0000
     atom:    5    charge:    3.1161    magn:   -0.0003    constr:    0.0000
     atom:    6    charge:    2.0795    magn:    0.0021    constr:    0.0000
     atom:    7    charge:    3.1167    magn:   -0.0059    constr:    0.0000
     atom:    8    charge:    2.0793    magn:    0.0263    constr:    0.0000
     atom:    9    charge:    3.1244    magn:   -0.0002    constr:    0.0000
     atom:   10    charge:    2.0898    magn:    0.0002    constr:    0.0000
     atom:   11    charge:    3.1198    magn:   -0.0000    constr:    0.0000
     atom:   12    charge:    2.0870    magn:   -0.0000    constr:    0.0000
     atom:   13    charge:    3.1150    magn:   -0.0002    constr:    0.0000
     atom:   14    charge:    2.0939    magn:    0.0023    constr:    0.0000
     atom:   15    charge:    3.1184    magn:   -0.0008    constr:    0.0000
     atom:   16    charge:    2.0828    magn:    0.0048    constr:    0.0000
     atom:   17    charge:    2.0624    magn:    0.0010    constr:    0.0000
     atom:   18    charge:    3.1239    magn:   -0.0000    constr:    0.0000
     atom:   19    charge:    2.0875    magn:    0.0000    constr:    0.0000
     atom:   20    charge:    2.0847    magn:    0.0001    constr:    0.0000
     atom:   21    charge:    2.0847    magn:    0.0001    constr:    0.0000
     atom:   22    charge:    3.1199    magn:    0.0000    constr:    0.0000
     atom:   23    charge:    2.0908    magn:    0.0002    constr:    0.0000
     atom:   24    charge:    2.0754    magn:   -0.0000    constr:    0.0000
     atom:   25    charge:    2.0867    magn:    0.0000    constr:    0.0000
     atom:   26    charge:    3.1127    magn:   -0.0003    constr:    0.0000
     atom:   27    charge:    2.0803    magn:    0.0028    constr:    0.0000
     atom:   28    charge:    2.0839    magn:    0.0008    constr:    0.0000
     atom:   29    charge:    2.0860    magn:    0.0009    constr:    0.0000
     atom:   30    charge:    3.1172    magn:   -0.0008    constr:    0.0000
     atom:   31    charge:    2.0825    magn:    0.0006    constr:    0.0000
     atom:   32    charge:    2.0829    magn:    0.0072    constr:    0.0000
     atom:   33    charge:    2.0624    magn:    0.0010    constr:    0.0000
     atom:   34    charge:    3.1239    magn:   -0.0000    constr:    0.0000
     atom:   35    charge:    2.0875    magn:    0.0000    constr:    0.0000
     atom:   36    charge:    2.0847    magn:    0.0001    constr:    0.0000
     atom:   37    charge:    2.0847    magn:    0.0001    constr:    0.0000
     atom:   38    charge:    3.1200    magn:    0.0000    constr:    0.0000
     atom:   39    charge:    2.0839    magn:    0.0002    constr:    0.0000
     atom:   40    charge:    2.0756    magn:   -0.0001    constr:    0.0000
     atom:   41    charge:    2.0870    magn:   -0.0000    constr:    0.0000
     atom:   42    charge:    3.1151    magn:   -0.0002    constr:    0.0000
     atom:   43    charge:    2.0803    magn:    0.0033    constr:    0.0000
     atom:   44    charge:    2.0851    magn:    0.0010    constr:    0.0000
     atom:   45    charge:    2.0858    magn:    0.0006    constr:    0.0000
     atom:   46    charge:    3.1147    magn:   -0.0007    constr:    0.0000
     atom:   47    charge:    2.0806    magn:    0.0048    constr:    0.0000
     atom:   48    charge:    2.0837    magn:    0.0133    constr:    0.0000
     atom:   49    charge:    2.0504    magn:    0.2424    constr:    0.0000
     atom:   50    charge:    0.6710    magn:    0.0529    constr:    0.0000
     atom:   51    charge:    0.4221    magn:    0.0009    constr:    0.0000
     atom:   52    charge:    0.4227    magn:    0.0007    constr:    0.0000
     atom:   53    charge:    0.3675    magn:    0.0228    constr:    0.0000
     atom:   54    charge:    0.4231    magn:    0.0006    constr:    0.0000

     total cpu time spent up to now is     3048.5 secs

     total energy              =   -3021.14995138 Ry
     Harris-Foulkes estimate   =   -3021.14994960 Ry
     estimated scf accuracy    <       0.00000749 Ry

     total magnetization       =     1.06 Bohr mag/cell
     absolute magnetization    =     1.23 Bohr mag/cell

     iteration # 11     ecut=    40.42 Ry     beta=0.10
     Davidson diagonalization with overlap
     ethr =  1.88E-09,  avg # of iterations =  1.9

     negative rho (up, down):  1.190E-02 1.196E-02
 
     Magnetic moment per site:
     atom:    1    charge:    3.1244    magn:   -0.0001    constr:    0.0000
     atom:    2    charge:    2.0897    magn:    0.0001    constr:    0.0000
     atom:    3    charge:    3.1198    magn:   -0.0000    constr:    0.0000
     atom:    4    charge:    2.0867    magn:   -0.0001    constr:    0.0000
     atom:    5    charge:    3.1161    magn:   -0.0003    constr:    0.0000
     atom:    6    charge:    2.0795    magn:    0.0021    constr:    0.0000
     atom:    7    charge:    3.1167    magn:   -0.0060    constr:    0.0000
     atom:    8    charge:    2.0792    magn:    0.0265    constr:    0.0000
     atom:    9    charge:    3.1244    magn:   -0.0001    constr:    0.0000
     atom:   10    charge:    2.0898    magn:    0.0001    constr:    0.0000
     atom:   11    charge:    3.1198    magn:   -0.0000    constr:    0.0000
     atom:   12    charge:    2.0870    magn:   -0.0000    constr:    0.0000
     atom:   13    charge:    3.1150    magn:   -0.0002    constr:    0.0000
     atom:   14    charge:    2.0939    magn:    0.0023    constr:    0.0000
     atom:   15    charge:    3.1184    magn:   -0.0008    constr:    0.0000
     atom:   16    charge:    2.0828    magn:    0.0048    constr:    0.0000
     atom:   17    charge:    2.0624    magn:    0.0009    constr:    0.0000
     atom:   18    charge:    3.1239    magn:   -0.0000    constr:    0.0000
     atom:   19    charge:    2.0875    magn:    0.0000    constr:    0.0000
     atom:   20    charge:    2.0847    magn:    0.0001    constr:    0.0000
     atom:   21    charge:    2.0847    magn:    0.0001    constr:    0.0000
     atom:   22    charge:    3.1199    magn:    0.0000    constr:    0.0000
     atom:   23    charge:    2.0908    magn:    0.0003    constr:    0.0000
     atom:   24    charge:    2.0754    magn:   -0.0000    constr:    0.0000
     atom:   25    charge:    2.0867    magn:   -0.0000    constr:    0.0000
     atom:   26    charge:    3.1127    magn:   -0.0003    constr:    0.0000
     atom:   27    charge:    2.0802    magn:    0.0028    constr:    0.0000
     atom:   28    charge:    2.0839    magn:    0.0008    constr:    0.0000
     atom:   29    charge:    2.0860    magn:    0.0009    constr:    0.0000
     atom:   30    charge:    3.1171    magn:   -0.0008    constr:    0.0000
     atom:   31    charge:    2.0825    magn:    0.0006    constr:    0.0000
     atom:   32    charge:    2.0829    magn:    0.0073    constr:    0.0000
     atom:   33    charge:    2.0624    magn:    0.0009    constr:    0.0000
     atom:   34    charge:    3.1239    magn:   -0.0000    constr:    0.0000
     atom:   35    charge:    2.0876    magn:    0.0000    constr:    0.0000
     atom:   36    charge:    2.0847    magn:    0.0001    constr:    0.0000
     atom:   37    charge:    2.0847    magn:    0.0001    constr:    0.0000
     atom:   38    charge:    3.1200    magn:    0.0000    constr:    0.0000
     atom:   39    charge:    2.0839    magn:    0.0002    constr:    0.0000
     atom:   40    charge:    2.0756    magn:   -0.0001    constr:    0.0000
     atom:   41    charge:    2.0870    magn:   -0.0000    constr:    0.0000
     atom:   42    charge:    3.1151    magn:   -0.0003    constr:    0.0000
     atom:   43    charge:    2.0803    magn:    0.0033    constr:    0.0000
     atom:   44    charge:    2.0851    magn:    0.0010    constr:    0.0000
     atom:   45    charge:    2.0858    magn:    0.0006    constr:    0.0000
     atom:   46    charge:    3.1148    magn:   -0.0007    constr:    0.0000
     atom:   47    charge:    2.0806    magn:    0.0049    constr:    0.0000
     atom:   48    charge:    2.0837    magn:    0.0134    constr:    0.0000
     atom:   49    charge:    2.0505    magn:    0.2432    constr:    0.0000
     atom:   50    charge:    0.6711    magn:    0.0526    constr:    0.0000
     atom:   51    charge:    0.4221    magn:    0.0009    constr:    0.0000
     atom:   52    charge:    0.4228    magn:    0.0007    constr:    0.0000
     atom:   53    charge:    0.3675    magn:    0.0228    constr:    0.0000
     atom:   54    charge:    0.4231    magn:    0.0006    constr:    0.0000

     total cpu time spent up to now is     3257.5 secs

     total energy              =   -3021.14995391 Ry
     Harris-Foulkes estimate   =   -3021.14995159 Ry
     estimated scf accuracy    <       0.00000404 Ry

     total magnetization       =     1.06 Bohr mag/cell
     absolute magnetization    =     1.23 Bohr mag/cell

     iteration # 12     ecut=    40.42 Ry     beta=0.10
     Davidson diagonalization with overlap
     ethr =  1.01E-09,  avg # of iterations =  3.0

     negative rho (up, down):  1.190E-02 1.196E-02
 
     Magnetic moment per site:
     atom:    1    charge:    3.1244    magn:   -0.0001    constr:    0.0000
     atom:    2    charge:    2.0897    magn:    0.0001    constr:    0.0000
     atom:    3    charge:    3.1198    magn:   -0.0000    constr:    0.0000
     atom:    4    charge:    2.0867    magn:   -0.0001    constr:    0.0000
     atom:    5    charge:    3.1161    magn:   -0.0003    constr:    0.0000
     atom:    6    charge:    2.0795    magn:    0.0022    constr:    0.0000
     atom:    7    charge:    3.1167    magn:   -0.0060    constr:    0.0000
     atom:    8    charge:    2.0793    magn:    0.0267    constr:    0.0000
     atom:    9    charge:    3.1244    magn:   -0.0001    constr:    0.0000
     atom:   10    charge:    2.0898    magn:    0.0001    constr:    0.0000
     atom:   11    charge:    3.1198    magn:   -0.0000    constr:    0.0000
     atom:   12    charge:    2.0870    magn:   -0.0000    constr:    0.0000
     atom:   13    charge:    3.1150    magn:   -0.0002    constr:    0.0000
     atom:   14    charge:    2.0939    magn:    0.0023    constr:    0.0000
     atom:   15    charge:    3.1184    magn:   -0.0008    constr:    0.0000
     atom:   16    charge:    2.0828    magn:    0.0048    constr:    0.0000
     atom:   17    charge:    2.0624    magn:    0.0008    constr:    0.0000
     atom:   18    charge:    3.1239    magn:   -0.0000    constr:    0.0000
     atom:   19    charge:    2.0875    magn:    0.0000    constr:    0.0000
     atom:   20    charge:    2.0847    magn:    0.0001    constr:    0.0000
     atom:   21    charge:    2.0847    magn:    0.0001    constr:    0.0000
     atom:   22    charge:    3.1199    magn:    0.0000    constr:    0.0000
     atom:   23    charge:    2.0908    magn:    0.0003    constr:    0.0000
     atom:   24    charge:    2.0754    magn:   -0.0000    constr:    0.0000
     atom:   25    charge:    2.0867    magn:   -0.0000    constr:    0.0000
     atom:   26    charge:    3.1127    magn:   -0.0003    constr:    0.0000
     atom:   27    charge:    2.0803    magn:    0.0028    constr:    0.0000
     atom:   28    charge:    2.0839    magn:    0.0008    constr:    0.0000
     atom:   29    charge:    2.0860    magn:    0.0009    constr:    0.0000
     atom:   30    charge:    3.1171    magn:   -0.0008    constr:    0.0000
     atom:   31    charge:    2.0825    magn:    0.0006    constr:    0.0000
     atom:   32    charge:    2.0829    magn:    0.0073    constr:    0.0000
     atom:   33    charge:    2.0624    magn:    0.0008    constr:    0.0000
     atom:   34    charge:    3.1239    magn:   -0.0000    constr:    0.0000
     atom:   35    charge:    2.0876    magn:    0.0000    constr:    0.0000
     atom:   36    charge:    2.0847    magn:    0.0001    constr:    0.0000
     atom:   37    charge:    2.0847    magn:    0.0001    constr:    0.0000
     atom:   38    charge:    3.1200    magn:    0.0000    constr:    0.0000
     atom:   39    charge:    2.0839    magn:    0.0002    constr:    0.0000
     atom:   40    charge:    2.0756    magn:   -0.0001    constr:    0.0000
     atom:   41    charge:    2.0870    magn:   -0.0000    constr:    0.0000
     atom:   42    charge:    3.1151    magn:   -0.0003    constr:    0.0000
     atom:   43    charge:    2.0803    magn:    0.0034    constr:    0.0000
     atom:   44    charge:    2.0851    magn:    0.0011    constr:    0.0000
     atom:   45    charge:    2.0858    magn:    0.0006    constr:    0.0000
     atom:   46    charge:    3.1148    magn:   -0.0007    constr:    0.0000
     atom:   47    charge:    2.0806    magn:    0.0049    constr:    0.0000
     atom:   48    charge:    2.0837    magn:    0.0134    constr:    0.0000
     atom:   49    charge:    2.0506    magn:    0.2435    constr:    0.0000
     atom:   50    charge:    0.6711    magn:    0.0525    constr:    0.0000
     atom:   51    charge:    0.4221    magn:    0.0010    constr:    0.0000
     atom:   52    charge:    0.4228    magn:    0.0007    constr:    0.0000
     atom:   53    charge:    0.3676    magn:    0.0228    constr:    0.0000
     atom:   54    charge:    0.4231    magn:    0.0006    constr:    0.0000

     total cpu time spent up to now is     3498.6 secs

     total energy              =   -3021.14995559 Ry
     Harris-Foulkes estimate   =   -3021.14995467 Ry
     estimated scf accuracy    <       0.00000224 Ry

     total magnetization       =     1.06 Bohr mag/cell
     absolute magnetization    =     1.23 Bohr mag/cell

     iteration # 13     ecut=    40.42 Ry     beta=0.10
     Davidson diagonalization with overlap
     ethr =  5.63E-10,  avg # of iterations =  2.6

     negative rho (up, down):  1.190E-02 1.196E-02
 
     Magnetic moment per site:
     atom:    1    charge:    3.1244    magn:   -0.0001    constr:    0.0000
     atom:    2    charge:    2.0897    magn:    0.0001    constr:    0.0000
     atom:    3    charge:    3.1198    magn:   -0.0000    constr:    0.0000
     atom:    4    charge:    2.0867    magn:   -0.0001    constr:    0.0000
     atom:    5    charge:    3.1161    magn:   -0.0003    constr:    0.0000
     atom:    6    charge:    2.0795    magn:    0.0022    constr:    0.0000
     atom:    7    charge:    3.1167    magn:   -0.0061    constr:    0.0000
     atom:    8    charge:    2.0792    magn:    0.0268    constr:    0.0000
     atom:    9    charge:    3.1244    magn:   -0.0001    constr:    0.0000
     atom:   10    charge:    2.0898    magn:    0.0001    constr:    0.0000
     atom:   11    charge:    3.1198    magn:   -0.0000    constr:    0.0000
     atom:   12    charge:    2.0871    magn:   -0.0000    constr:    0.0000
     atom:   13    charge:    3.1150    magn:   -0.0002    constr:    0.0000
     atom:   14    charge:    2.0939    magn:    0.0024    constr:    0.0000
     atom:   15    charge:    3.1184    magn:   -0.0008    constr:    0.0000
     atom:   16    charge:    2.0829    magn:    0.0048    constr:    0.0000
     atom:   17    charge:    2.0624    magn:    0.0006    constr:    0.0000
     atom:   18    charge:    3.1239    magn:   -0.0000    constr:    0.0000
     atom:   19    charge:    2.0875    magn:    0.0000    constr:    0.0000
     atom:   20    charge:    2.0847    magn:    0.0000    constr:    0.0000
     atom:   21    charge:    2.0847    magn:    0.0000    constr:    0.0000
     atom:   22    charge:    3.1199    magn:    0.0000    constr:    0.0000
     atom:   23    charge:    2.0908    magn:    0.0003    constr:    0.0000
     atom:   24    charge:    2.0754    magn:    0.0000    constr:    0.0000
     atom:   25    charge:    2.0868    magn:   -0.0000    constr:    0.0000
     atom:   26    charge:    3.1127    magn:   -0.0003    constr:    0.0000
     atom:   27    charge:    2.0803    magn:    0.0029    constr:    0.0000
     atom:   28    charge:    2.0839    magn:    0.0009    constr:    0.0000
     atom:   29    charge:    2.0860    magn:    0.0010    constr:    0.0000
     atom:   30    charge:    3.1171    magn:   -0.0009    constr:    0.0000
     atom:   31    charge:    2.0825    magn:    0.0006    constr:    0.0000
     atom:   32    charge:    2.0829    magn:    0.0074    constr:    0.0000
     atom:   33    charge:    2.0624    magn:    0.0006    constr:    0.0000
     atom:   34    charge:    3.1239    magn:   -0.0000    constr:    0.0000
     atom:   35    charge:    2.0876    magn:    0.0000    constr:    0.0000
     atom:   36    charge:    2.0847    magn:    0.0000    constr:    0.0000
     atom:   37    charge:    2.0847    magn:    0.0000    constr:    0.0000
     atom:   38    charge:    3.1200    magn:    0.0000    constr:    0.0000
     atom:   39    charge:    2.0839    magn:    0.0002    constr:    0.0000
     atom:   40    charge:    2.0757    magn:   -0.0001    constr:    0.0000
     atom:   41    charge:    2.0870    magn:   -0.0000    constr:    0.0000
     atom:   42    charge:    3.1151    magn:   -0.0003    constr:    0.0000
     atom:   43    charge:    2.0803    magn:    0.0034    constr:    0.0000
     atom:   44    charge:    2.0851    magn:    0.0011    constr:    0.0000
     atom:   45    charge:    2.0858    magn:    0.0006    constr:    0.0000
     atom:   46    charge:    3.1148    magn:   -0.0007    constr:    0.0000
     atom:   47    charge:    2.0806    magn:    0.0049    constr:    0.0000
     atom:   48    charge:    2.0837    magn:    0.0135    constr:    0.0000
     atom:   49    charge:    2.0506    magn:    0.2440    constr:    0.0000
     atom:   50    charge:    0.6711    magn:    0.0523    constr:    0.0000
     atom:   51    charge:    0.4221    magn:    0.0010    constr:    0.0000
     atom:   52    charge:    0.4228    magn:    0.0007    constr:    0.0000
     atom:   53    charge:    0.3675    magn:    0.0229    constr:    0.0000
     atom:   54    charge:    0.4231    magn:    0.0007    constr:    0.0000

     total cpu time spent up to now is     3725.2 secs

     End of self-consistent calculation

 ------ SPIN UP ------------


          k = 0.0000 0.0000 0.0000 ( 34665 PWs)   bands (ev):

   -58.3160 -58.2809 -57.3983 -57.3926 -57.3595 -57.3220 -57.2710 -57.1053
   -57.0755 -57.0697 -57.0313 -56.9323 -56.9058 -56.8970 -56.8113 -56.7726
   -34.7611 -34.5845 -34.5558 -34.5225 -34.4275 -34.3707 -33.8932 -33.8811
   -33.7635 -33.6899 -33.6478 -33.6051 -33.5729 -33.5658 -33.5599 -33.5533
   -33.5425 -33.5270 -33.5015 -33.5009 -33.4868 -33.4860 -33.4813 -33.4648
   -33.3517 -33.3460 -33.3426 -33.3403 -33.3297 -33.2992 -33.2933 -33.2730
   -33.2533 -33.2474 -33.2473 -33.2381 -33.2042 -33.1874 -33.1525 -33.1509
   -33.1139 -33.0892 -33.0609 -33.0399 -33.0257 -33.0000 -32.9592 -32.8922
   -18.4812 -18.0491 -17.8255 -17.7235 -17.5649 -17.5416 -17.5000 -17.3961
   -17.3705 -17.2691 -17.0579 -17.0368 -17.0287 -16.9901 -16.9277 -16.8669
   -16.8471 -16.8107 -16.7524 -16.7263 -16.7034 -16.6720 -16.6054 -16.6010
   -16.4781 -16.4313 -16.4114 -16.3786 -16.3382 -16.1578 -16.0963 -15.6110
   -15.5501 -11.1494  -6.0597  -5.5090  -5.2951  -5.2149  -5.1066  -5.0034
    -4.9944  -4.8905  -4.8614  -4.7404  -4.6620  -4.6114  -4.5976  -4.5209
    -4.4395  -4.4260  -4.3647  -4.3289  -4.2442  -4.2307  -4.2057  -4.1547
    -4.0440  -4.0376  -3.9918  -3.9226  -3.9045  -3.8984  -3.8957  -3.8339
    -3.7890  -3.7645  -3.6761  -3.6482  -3.6322  -3.5929  -3.5536  -3.5396
    -3.5242  -3.4312  -3.4206  -3.3733  -3.2847  -3.2433  -3.1987  -3.0986
    -2.9322  -2.9089  -2.8652  -2.8148  -2.7580  -2.7057  -2.6837  -2.6717
    -2.6464  -2.5483  -2.4878  -2.4512  -2.3897  -2.3487  -2.2563  -2.2408
    -2.2384  -2.1725  -2.0807  -2.0535  -2.0214  -1.9718  -1.9424  -1.9133
    -1.8663  -1.7497  -1.7055  -1.6849  -1.6535  -1.6429  -1.6031  -1.5202
    -1.4343  -1.3800  -1.3653  -1.3509  -1.3257  -1.2805  -1.2371  -1.1834
    -1.1720  -1.1216  -1.1213  -1.1104  -1.0772  -0.9933  -0.8852  -0.8494
    -0.8204  -0.7047  -0.7001  -0.6355  -0.5632  -0.5234  -0.4957  -0.1994
     1.0149   1.1117   1.4066   1.6845   1.7929   1.9111   1.9578   2.0050
[...]
    -1.7406  -1.5147  -1.4743  -1.4632  -1.4463  -1.4071  -1.3279  -1.1730
    -1.1547  -1.0974  -1.0811  -1.0658  -0.9847  -0.9217  -0.8833  -0.7979
    -0.7440  -0.7372  -0.7072  -0.6809  -0.6026  -0.5839  -0.5694   0.2706
     1.5916   1.5951   1.6076   1.6130   1.9555   1.9563   2.0853   2.0863
     2.2678   2.2889   2.3023   2.3840   2.4067   2.4768   2.5637   2.6230
     2.6451   2.6897   2.7731   2.8065   2.8627   2.9120   2.9365   2.9652
     2.9790   2.9887   3.0298   3.0874   3.1012   3.1992   3.2248   3.2335
     3.2493   3.2729   3.3306   3.3767   3.3901   3.3956   3.4510   3.4642
     3.4737   3.5015   3.5160   3.5672   3.6256   3.6448   3.7658   3.8675
     3.9018   3.9138   4.1304   4.1308   4.5797   4.6095   4.6319   4.7170
     4.8700   4.8886   4.9203   5.0705   5.1505   5.1555   5.1745   5.4320
     5.6635   5.6724   5.6832   5.9165   5.9218   5.9549   6.0069   6.0093
     6.0838   6.0956   6.1656   6.2579   6.2605   6.2703   6.3727   6.4496
     6.4897   6.5954   7.0850   7.2504   7.3555   7.4085   7.5573   7.5920
     7.7241   7.7758   7.9345   8.1166   8.3030   8.3529   8.4611   8.8750
     9.0191   9.0748   9.2211

          k =-0.0253 0.0280 0.0000 ( 34687 PWs)   bands (ev):

   -58.3138 -58.2834 -57.3963 -57.3913 -57.3618 -57.3231 -57.2715 -57.1092
   -57.0768 -57.0695 -57.0346 -56.9336 -56.9305 -56.9000 -56.8125 -56.7789
   -34.7362 -34.5828 -34.5578 -34.5157 -34.4341 -34.3979 -33.8680 -33.8576
   -33.7437 -33.6760 -33.6416 -33.6029 -33.5768 -33.5626 -33.5592 -33.5504
   -33.5431 -33.5298 -33.5280 -33.5081 -33.5027 -33.4804 -33.4787 -33.4620
   -33.3479 -33.3383 -33.3331 -33.3272 -33.3215 -33.3169 -33.2924 -33.2728
   -33.2630 -33.2496 -33.2492 -33.2409 -33.2239 -33.2140 -33.1784 -33.1464
   -33.1455 -33.0892 -33.0677 -33.0497 -33.0301 -33.0082 -32.9873 -32.9237
   -18.3790 -17.9505 -17.7844 -17.7434 -17.5315 -17.5255 -17.3855 -17.3771
   -17.3543 -17.3248 -17.1209 -17.0781 -16.9931 -16.9481 -16.8820 -16.8393
   -16.8012 -16.7618 -16.7417 -16.6783 -16.6718 -16.5944 -16.5526 -16.4941
   -16.4701 -16.4140 -16.3763 -16.3582 -16.1635 -16.1286 -15.8525 -15.6212
   -15.5725 -10.7668  -5.8498  -5.3189  -5.1526  -5.1351  -5.0023  -4.9620
    -4.9226  -4.8365  -4.7071  -4.6867  -4.6455  -4.5453  -4.5072  -4.4510
    -4.4170  -4.3225  -4.2993  -4.2577  -4.2077  -4.1895  -4.1507  -4.1356
    -4.1010  -4.0488  -4.0058  -3.9830  -3.9600  -3.9214  -3.8665  -3.8090
    -3.7893  -3.7332  -3.6908  -3.6316  -3.5966  -3.5574  -3.5012  -3.4002
    -3.3525  -3.3292  -3.2961  -3.2721  -3.2335  -3.1900  -3.1208  -3.1050
    -2.9281  -2.8908  -2.8309  -2.7867  -2.7309  -2.6947  -2.6826  -2.6263
    -2.5969  -2.5178  -2.5085  -2.4518  -2.4128  -2.3685  -2.2972  -2.2759
    -2.2210  -2.2006  -2.1130  -2.0519  -1.9660  -1.9496  -1.9241  -1.8591
    -1.8481  -1.8008  -1.7557  -1.6946  -1.6459  -1.6048  -1.5730  -1.5215
    -1.4873  -1.4449  -1.4172  -1.3965  -1.3703  -1.3558  -1.3252  -1.3042
    -1.2155  -1.1341  -1.0686  -1.0199  -0.9972  -0.9637  -0.9387  -0.8940
    -0.8528  -0.8302  -0.6401  -0.6193  -0.5943  -0.5307  -0.2742   0.2947
     1.1435   1.2372   1.4212   1.8104   1.8498   1.9171   1.9533   2.0205
     2.0313   2.1803   2.2909   2.3368   2.3786   2.4201   2.4444   2.4948
     2.5152   2.5393   2.5803   2.6407   2.6882   2.7134   2.7685   2.8230
     2.8677   2.9047   2.9212   2.9636   2.9820   3.0050   3.0313   3.0841
     3.1616   3.1820   3.2245   3.2495   3.2850   3.3277   3.4212   3.4556
     3.4858   3.5493   3.6029   3.6331   3.6546   3.7349   3.8107   3.8567
     4.0036   4.1994   4.2756   4.4274   4.6159   4.7140   4.8351   4.8517
     4.9928   5.0163   5.1032   5.1894   5.2331   5.3480   5.4523   5.5398
     5.6654   5.6867   5.7149   5.7938   5.8415   5.8741   5.9001   5.9222
     5.9584   5.9801   6.0567   6.1272   6.1653   6.2744   6.3895   6.4398
     6.4532   6.5764   6.7504   6.8067   7.3831   7.4778   7.8045   7.8971
     8.1008   8.2460   8.4865   8.5378   8.7930   8.9027   9.0901   9.3100
     9.3787   9.5364   9.6181

          k =-0.0253 0.0560 0.0000 ( 34699 PWs)   bands (ev):

   -58.3074 -58.2898 -57.3931 -57.3859 -57.3682 -57.3254 -57.2707 -57.1087
   -57.0773 -57.0648 -57.0395 -56.9341 -56.9241 -56.9065 -56.8059 -56.7856
   -34.6663 -34.5775 -34.5631 -34.4987 -34.4711 -34.4516 -33.7982 -33.7884
   -33.6929 -33.6607 -33.6248 -33.6013 -33.5973 -33.5964 -33.5850 -33.5781
   -33.5518 -33.5428 -33.5285 -33.5079 -33.4939 -33.4778 -33.4659 -33.4283
   -33.3828 -33.3357 -33.3320 -33.3262 -33.2943 -33.2848 -33.2683 -33.2679
   -33.2673 -33.2575 -33.2541 -33.2416 -33.2309 -33.2259 -33.1947 -33.1741
   -33.1292 -33.0862 -33.0843 -33.0611 -33.0467 -33.0325 -33.0203 -32.9943
   -18.2213 -17.8113 -17.7902 -17.6220 -17.6096 -17.4656 -17.4031 -17.3795
   -17.2590 -17.2522 -17.2147 -17.0679 -16.9582 -16.9294 -16.8911 -16.8514
   -16.8080 -16.7536 -16.7429 -16.7277 -16.6935 -16.6104 -16.5578 -16.5409
   -16.5099 -16.4517 -16.4215 -16.4177 -16.2251 -16.2099 -15.8512 -15.6499
   -15.6263 -10.7687  -5.6146  -5.0915  -5.0335  -4.9658  -4.9340  -4.8267
    -4.8047  -4.7680  -4.6976  -4.6853  -4.5358  -4.5193  -4.4560  -4.4049
    -4.3872  -4.3790  -4.3305  -4.2866  -4.2598  -4.2498  -4.2122  -4.1807
    -4.1421  -4.1294  -4.0601  -4.0202  -4.0010  -3.9493  -3.9172  -3.8983
    -3.8345  -3.7984  -3.6893  -3.5920  -3.5629  -3.5389  -3.4641  -3.3944
    -3.3720  -3.3000  -3.1977  -3.1697  -3.1274  -3.1204  -3.0682  -3.0338
    -2.9916  -2.9363  -2.8515  -2.8020  -2.7712  -2.7134  -2.6176  -2.5940
    -2.5337  -2.5204  -2.4646  -2.4011  -2.3856  -2.3273  -2.3099  -2.2693
    -2.1994  -2.1451  -2.1308  -2.0988  -2.0569  -2.0165  -1.9949  -1.9575
    -1.9402  -1.9153  -1.9027  -1.8524  -1.7762  -1.7130  -1.6992  -1.6044
    -1.5832  -1.5542  -1.5287  -1.4959  -1.4533  -1.4255  -1.3974  -1.3390
    -1.3014  -1.2332  -1.1644  -1.0426  -1.0123  -0.9801  -0.9471  -0.8668
    -0.7718  -0.7450  -0.7144  -0.6497  -0.6179  -0.5651  -0.3714   0.2753
     1.2778   1.4598   1.5551   1.7490   1.7645   1.9028   1.9696   2.0485
     2.2562   2.2663   2.3324   2.3690   2.4052   2.4776   2.5124   2.5380
     2.5629   2.5861   2.6432   2.6959   2.7114   2.7548   2.7976   2.8462
     2.8732   2.9077   2.9514   2.9969   3.0232   3.0367   3.0467   3.0999
     3.1498   3.1896   3.2087   3.2787   3.3080   3.3367   3.3685   3.4486
     3.4995   3.5250   3.6026   3.6247   3.6589   3.7174   3.7369   3.7906
     3.8864   4.0892   4.3826   4.4919   4.7067   4.8496   4.9011   4.9513
     4.9860   5.0795   5.1773   5.1980   5.3260   5.3778   5.4246   5.5195
     5.5553   5.5894   5.6426   5.7002   5.7294   5.7944   5.8109   5.8510
     5.9184   5.9345   6.0075   6.0805   6.1237   6.2042   6.3210   6.4248
     6.4551   6.4721   6.7125   6.7622   7.0816   7.3111   7.6808   7.8375
     8.1120   8.2393   8.3285   8.4982   8.7846   8.9022   9.0016   9.1977
     9.3793   9.5525   9.6524

          k =-0.0506 0.0280 0.0000 ( 34685 PWs)   bands (ev):

   -58.3138 -58.2834 -57.3954 -57.3921 -57.3618 -57.3232 -57.2715 -57.1092
   -57.0764 -57.0699 -57.0346 -56.9336 -56.9305 -56.9000 -56.8125 -56.7789
   -34.7370 -34.5827 -34.5578 -34.5141 -34.4341 -34.3980 -33.8684 -33.8617
   -33.7439 -33.6564 -33.6414 -33.6030 -33.5819 -33.5646 -33.5632 -33.5556
   -33.5433 -33.5372 -33.5268 -33.5080 -33.5029 -33.4813 -33.4667 -33.4630
   -33.3481 -33.3328 -33.3300 -33.3271 -33.3184 -33.3166 -33.2926 -33.2748
   -33.2730 -33.2496 -33.2482 -33.2437 -33.2241 -33.2135 -33.1745 -33.1465
   -33.1454 -33.0893 -33.0677 -33.0566 -33.0286 -33.0081 -32.9873 -32.9237
   -18.2707 -17.8725 -17.8610 -17.7103 -17.5967 -17.4642 -17.4469 -17.3530
   -17.3265 -17.2613 -17.1893 -17.0957 -17.0060 -16.9606 -16.9319 -16.9046
   -16.8221 -16.7764 -16.7653 -16.7053 -16.6422 -16.5585 -16.5342 -16.4982
   -16.4703 -16.4150 -16.4008 -16.3621 -16.1601 -16.1291 -15.8532 -15.6193
   -15.5726 -10.7666  -5.5485  -5.1961  -5.1626  -5.1305  -4.9583  -4.8783
    -4.7767  -4.7189  -4.6918  -4.6609  -4.6106  -4.5972  -4.5433  -4.4164
    -4.3716  -4.3329  -4.2501  -4.2236  -4.1881  -4.1732  -4.1573  -4.0646
    -4.0267  -4.0042  -3.9751  -3.9193  -3.8906  -3.8478  -3.8208  -3.7769
    -3.7317  -3.6785  -3.6385  -3.5934  -3.5573  -3.5415  -3.4942  -3.4625
    -3.3878  -3.3748  -3.3061  -3.2739  -3.2129  -3.1574  -3.1270  -3.0675
    -3.0192  -2.9899  -2.9104  -2.8434  -2.7667  -2.7077  -2.6986  -2.6749
    -2.6259  -2.6026  -2.5901  -2.5354  -2.5265  -2.3966  -2.3512  -2.3420
    -2.2781  -2.2102  -2.1949  -2.1665  -2.0895  -2.0191  -2.0132  -1.9501
    -1.9336  -1.9039  -1.8173  -1.7309  -1.7179  -1.6942  -1.6257  -1.5988
    -1.5343  -1.4916  -1.4647  -1.4022  -1.3884  -1.3361  -1.3204  -1.2705
    -1.2569  -1.1317  -1.0672  -1.0437  -1.0201  -0.9661  -0.9342  -0.8854
    -0.8378  -0.8062  -0.7257  -0.6909  -0.6694  -0.5448  -0.4005   0.2788
     1.1304   1.3305   1.4556   1.5563   1.9240   1.9340   1.9568   2.0485
     2.1141   2.1887   2.2435   2.3195   2.3950   2.4294   2.5188   2.5354
     2.5825   2.6398   2.6765   2.6914   2.7447   2.8184   2.8415   2.8718
     2.9299   2.9359   2.9687   2.9745   2.9803   3.0924   3.0988   3.1274
     3.1753   3.2042   3.2802   3.3006   3.3455   3.3720   3.3968   3.4450
     3.4591   3.5378   3.5921   3.6571   3.7317   3.7693   3.7889   3.8899
     3.9468   4.0509   4.0997   4.3969   4.5003   4.6449   4.7372   4.7989
     4.8319   4.9035   4.9566   5.2791   5.3201   5.4020   5.5173   5.5496
     5.6309   5.7564   5.7765   5.8433   5.8901   5.9025   5.9739   6.0503
     6.0842   6.1559   6.2404   6.3250   6.3775   6.4025   6.4346   6.4801
     6.5312   6.5420   6.7034   6.9245   7.0866   7.2247   7.5432   7.6163
     7.7346   8.2292   8.4182   8.5002   8.8646   8.9469   9.0706   9.2291
     9.4288   9.6106   9.6766

          k =-0.0506 0.0560 0.0000 ( 34596 PWs)   bands (ev):

   -58.3074 -58.2898 -57.3927 -57.3863 -57.3682 -57.3254 -57.2707 -57.1087
   -57.0771 -57.0650 -57.0396 -56.9341 -56.9241 -56.9065 -56.8059 -56.7856
   -34.6669 -34.5775 -34.5630 -34.4973 -34.4713 -34.4511 -33.7985 -33.7929
   -33.6931 -33.6449 -33.6247 -33.6005 -33.5989 -33.5962 -33.5793 -33.5780
   -33.5551 -33.5429 -33.5407 -33.5081 -33.5032 -33.4779 -33.4543 -33.4299
   -33.3832 -33.3355 -33.3235 -33.3185 -33.2969 -33.2870 -33.2691 -33.2681
   -33.2670 -33.2574 -33.2537 -33.2515 -33.2316 -33.2262 -33.1943 -33.1696
   -33.1292 -33.0863 -33.0843 -33.0610 -33.0509 -33.0331 -33.0202 -32.9941
   -18.1181 -17.8291 -17.7125 -17.6240 -17.6075 -17.5684 -17.3913 -17.3794
   -17.2296 -17.2173 -17.1292 -17.1063 -16.9884 -16.9228 -16.8782 -16.8538
   -16.8344 -16.8193 -16.7727 -16.7470 -16.7316 -16.6405 -16.6074 -16.5170
   -16.5070 -16.4495 -16.4325 -16.4214 -16.2245 -16.2065 -15.8511 -15.6487
   -15.6267 -10.7685  -5.3120  -5.0023  -4.9518  -4.9440  -4.7936  -4.7858
    -4.7271  -4.6499  -4.5375  -4.5174  -4.5115  -4.4284  -4.4153  -4.3916
    -4.3717  -4.3382  -4.3197  -4.2574  -4.2103  -4.1867  -4.1743  -4.1220
    -4.1125  -4.0592  -4.0471  -3.9983  -3.9815  -3.9096  -3.8751  -3.8338
    -3.7864  -3.7135  -3.6725  -3.6218  -3.5791  -3.5582  -3.5059  -3.4419
    -3.4044  -3.3311  -3.2711  -3.2415  -3.1439  -3.1376  -3.0897  -3.0609
    -3.0056  -2.9879  -2.9683  -2.9100  -2.8095  -2.7733  -2.7590  -2.7169
    -2.6403  -2.5983  -2.5546  -2.5119  -2.4889  -2.4249  -2.3993  -2.3792
    -2.3621  -2.3007  -2.2066  -2.1823  -2.1583  -2.1398  -2.1132  -2.0585
    -2.0234  -1.9816  -1.9526  -1.8773  -1.8577  -1.7919  -1.7422  -1.6684
    -1.5778  -1.5593  -1.5494  -1.5065  -1.4543  -1.3955  -1.3638  -1.3180
    -1.2580  -1.1895  -1.0885  -1.0314  -0.9982  -0.9148  -0.8618  -0.8544
    -0.8060  -0.7164  -0.7012  -0.6791  -0.6660  -0.5632  -0.4853   0.2776
     1.2984   1.4881   1.6368   1.6586   1.8432   1.9943   2.0228   2.0576
     2.2337   2.2459   2.3498   2.3663   2.4227   2.4512   2.5380   2.5744
     2.6407   2.6853   2.7194   2.7340   2.8012   2.8318   2.8607   2.8931
     2.9224   2.9405   2.9965   3.0320   3.0615   3.1031   3.1350   3.1810
     3.1860   3.2406   3.2748   3.3148   3.3240   3.3665   3.4063   3.4572
     3.4721   3.5392   3.5675   3.6305   3.6580   3.7356   3.7936   3.8300
     3.8734   3.9490   4.1431   4.4931   4.5866   4.6066   4.7437   4.8110
     4.8788   4.9548   5.0001   5.1766   5.2917   5.3653   5.4002   5.4319
     5.5851   5.6083   5.6580   5.7071   5.8697   5.8869   5.9777   5.9967
     6.0587   6.0987   6.1614   6.2010   6.3124   6.3297   6.4086   6.4147
     6.5318   6.6070   6.7669   6.8006   7.1970   7.3675   7.5183   7.6300
     7.9437   8.0221   8.1120   8.3916   8.6124   8.7297   8.8098   9.0459
     9.1996   9.3276   9.4363

     the Fermi energy is    -0.3011 ev

!    total energy              =   -3021.14995861 Ry
     Harris-Foulkes estimate   =   -3021.14995582 Ry
     estimated scf accuracy    <       0.00000057 Ry

     The total energy is the sum of the following terms:

     one-electron contribution =  -40437.96324534 Ry
     hartree contribution      =   20290.22625066 Ry
     xc contribution           =    -553.20434389 Ry
     ewald contribution        =   17679.81121956 Ry
     smearing contrib. (-TS)   =      -0.01983959 Ry

     total magnetization       =     1.06 Bohr mag/cell
     absolute magnetization    =     1.23 Bohr mag/cell

     convergence has been achieved in  13 iterations

     Forces acting on atoms (Ry/au):


     negative rho (up, down):  1.190E-02 1.196E-02
     atom    1 type  1   force =     0.00019521   -0.00084226   -0.10474923
     atom    2 type  2   force =     0.00016381    0.00073365    0.03998115
     atom    3 type  1   force =     0.00075601   -0.00171443   -0.02057046
     atom    4 type  2   force =    -0.00325748    0.00320845   -0.00322423
     atom    5 type  1   force =     0.00037595    0.00023457    0.00024104
     atom    6 type  2   force =    -0.00014598   -0.00014325    0.00031094
     atom    7 type  1   force =    -0.00021148   -0.00164488   -0.00037032
     atom    8 type  2   force =    -0.00016996   -0.00029403   -0.00043680
     atom    9 type  1   force =     0.00000019    0.00062699   -0.10483779
     atom   10 type  2   force =     0.00037041   -0.00009772    0.03596341
     atom   11 type  1   force =     0.00066448    0.00189957    0.00258889
     atom   12 type  2   force =    -0.00517692   -0.00257538   -0.00518043
     atom   13 type  1   force =     0.00042685    0.00010619   -0.00027507
     atom   14 type  2   force =    -0.00000296    0.00000037    0.00019482
     atom   15 type  1   force =     0.00030305    0.00004054    0.00007433
     atom   16 type  2   force =     0.00025537   -0.00024534    0.00050155
     atom   17 type  2   force =     0.00002968    0.00004688    0.06662044
     atom   18 type  1   force =     0.00006452    0.00007875    0.13141059
     atom   19 type  2   force =     0.00016922   -0.00048558   -0.08522255
     atom   20 type  2   force =    -0.05790735    0.00031463   -0.03605073
     atom   21 type  2   force =     0.05781303   -0.00004870   -0.03605591
     atom   22 type  1   force =    -0.00042331    0.00084188    0.08016738
     atom   23 type  2   force =     0.00026486    0.00001975    0.00004883
     atom   24 type  2   force =     0.00065237    0.00177921   -0.03460375
     atom   25 type  2   force =     0.00416375    0.00340217   -0.00514239
     atom   26 type  1   force =     0.00046686    0.00001696    0.00009029
     atom   27 type  2   force =    -0.00000760   -0.00007564    0.00008059
     atom   28 type  2   force =     0.00009192   -0.00011934   -0.00003558
     atom   29 type  2   force =    -0.00003879   -0.00005368    0.00006896
     atom   30 type  1   force =    -0.00050779   -0.00011894    0.00037637
     atom   31 type  2   force =     0.00003275    0.00001130   -0.00022755
     atom   32 type  2   force =     0.00002249   -0.00038995   -0.00051823
     atom   33 type  2   force =    -0.00015022    0.00011825    0.06637218
     atom   34 type  1   force =     0.00008691    0.00002989    0.13116866
     atom   35 type  2   force =     0.00021600   -0.00009814   -0.08481163
     atom   36 type  2   force =    -0.05780159    0.00020687   -0.03572918
     atom   37 type  2   force =     0.05799763   -0.00009647   -0.03612247
     atom   38 type  1   force =    -0.00036195   -0.00008054    0.07979383
     atom   39 type  2   force =     0.00009465   -0.00019157   -0.00007542
     atom   40 type  2   force =     0.00053320    0.00127107   -0.03524784
     atom   41 type  2   force =     0.00585049   -0.00235616   -0.00721539
     atom   42 type  1   force =     0.00023490   -0.00003626   -0.00002002
     atom   43 type  2   force =    -0.00014113    0.00001253    0.00005328
     atom   44 type  2   force =     0.00002816   -0.00014374    0.00004112
     atom   45 type  2   force =     0.00001154   -0.00005763    0.00010632
     atom   46 type  1   force =    -0.00020788   -0.00005394    0.00024192
     atom   47 type  2   force =     0.00007679   -0.00016470   -0.00003979
     atom   48 type  2   force =    -0.00045998   -0.00010617    0.00104132
     atom   49 type  2   force =    -0.00119110   -0.00039205   -0.00174050
     atom   50 type  3   force =    -0.00303878   -0.00491244   -0.00298005
     atom   51 type  4   force =    -0.00085574   -0.00033886    0.00009772
     atom   52 type  4   force =    -0.00055843    0.00051084    0.00041000
     atom   53 type  4   force =     0.00071826    0.00227024    0.00317366
     atom   54 type  4   force =    -0.00051489    0.00009625    0.00026371

     Total force =     0.342346     Total SCF correction =     0.002850
 !ASE

     Writing output data file calc.save
 
     init_run     :     64.81s CPU     75.14s WALL (       1 calls)
     electrons    :   3244.91s CPU   3649.82s WALL (       1 calls)
     forces       :     49.25s CPU     50.58s WALL (       1 calls)

     Called by init_run:
     wfcinit      :     56.88s CPU     66.40s WALL (       1 calls)
     potinit      :      1.34s CPU      1.64s WALL (       1 calls)

     Called by electrons:
     c_bands      :   2833.23s CPU   3171.11s WALL (      13 calls)
     sum_band     :    352.82s CPU    413.70s WALL (      13 calls)
     v_of_rho     :     14.68s CPU     17.43s WALL (      14 calls)
     newd         :     47.44s CPU     51.06s WALL (      14 calls)
     mix_rho      :      0.58s CPU      0.74s WALL (      13 calls)
     vdW_energy   :      3.25s CPU      3.69s WALL (      15 calls)
     vdW_ffts     :      3.84s CPU      4.76s WALL (      30 calls)
     vdW_v        :      1.48s CPU      1.74s WALL (      15 calls)

     Called by c_bands:
     init_us_2    :      8.04s CPU      8.62s WALL (    1120 calls)
     cegterg      :   2784.98s CPU   3120.61s WALL (     520 calls)

     Called by *egterg:
     h_psi        :   1094.06s CPU   1337.92s WALL (    2400 calls)
     s_psi        :    189.12s CPU    195.48s WALL (    2400 calls)
     g_psi        :      5.52s CPU      5.62s WALL (    1840 calls)
     cdiaghg      :    871.43s CPU    891.61s WALL (    2360 calls)

     Called by h_psi:
     add_vuspsi   :    191.02s CPU    197.68s WALL (    2400 calls)

     General routines
     calbec       :    285.03s CPU    290.61s WALL (    2960 calls)
     fft          :      8.14s CPU      9.92s WALL (    1191 calls)
     ffts         :      0.08s CPU      0.10s WALL (      54 calls)
     fftw         :    612.09s CPU    897.88s WALL (  907118 calls)
     interpolate  :      0.49s CPU      0.69s WALL (      54 calls)
     davcio       :      0.04s CPU      1.48s WALL (      40 calls)
 
     Parallel routines
     fft_scatter  :    303.07s CPU    477.02s WALL (  908363 calls)
 
     PWSCF        :     0h56m CPU        1h 2m WALL

 
   This run was terminated on:  20:45:45  25Feb2018            

=------------------------------------------------------------------------------=
   JOB DONE.
=------------------------------------------------------------------------------=
