  python dir          : /home/vossj/suncat/lib/python2.7/site-packages/espresso
  espresso dir        : /home/vossj/suncat/esdld/espresso-dynpy-beef/bin
  pseudo dir          : /home/alatimer/bin/psp/esp_psp_w_gbrvRu/
  ase-espresso py git : ffa2778-git



     Program PWSCF v.5.1rc2 (svn rev. ) starts on 10Mar2018 at  8:55:15 

     This program is part of the open-source Quantum ESPRESSO suite
     for quantum simulation of materials; please cite
         "P. Giannozzi et al., J. Phys.:Condens. Matter 21 395502 (2009);
          URL http://www.quantum-espresso.org", 
     in publications or presentations arising from this work. More details at
     http://www.quantum-espresso.org/quote

     Parallel version (MPI), running on    16 processors
     R & G space division:  proc/nbgrp/npool/nimage =      16
     Reading input from pw.inp
     Message from routine read_cards :
     DEPRECATED: no units specified in CELL_PARAMETERS card

     Current dimensions of program PWSCF are:
     Max number of different atomic species (ntypx) = 10
     Max number of k-points (npk) =  40000
     Max angular momentum in pseudopotentials (lmaxx) =  3

     **************************************************************************
     Initializing libbeef V0.1.1 with the BEEF-vdW functional.
     Citation: Wellendorff et al., PRB 85, 235149 (2012).
     **************************************************************************


     IMPORTANT: XC functional enforced from input :
     Exchange-correlation      = BEEF ( 1  4 27 13 2)
     Any further DFT definition will be discarded
     Please, verify this is what you really want


     Subspace diagonalization in iterative solution of the eigenvalue problem:
     a serial algorithm will be used

 
     Parallelization info
     --------------------
     sticks:   dense  smooth     PW     G-vecs:    dense   smooth      PW
     Min         281     112     31                68535    17318    2565
     Max         282     113     32                68545    17369    2582
     Sum        4501    1795    503              1096637   277353   41113
 
     Generating pointlists ...
     new r_m :   0.4125 (alat units)  0.7795 (a.u.) for type    1
     new r_m :   0.4125 (alat units)  0.7795 (a.u.) for type    2
     new r_m :   0.4125 (alat units)  0.7795 (a.u.) for type    3


     bravais-lattice index     =            0
     lattice parameter (alat)  =       1.8897  a.u.
     unit-cell volume          =    7990.9933 (a.u.)^3
     number of atoms/cell      =           51
     number of atomic types    =            3
     number of electrons       =       400.00
     number of Kohn-Sham states=          300
     kinetic-energy cutoff     =      40.4243  Ry
     charge density cutoff     =     404.2426  Ry
     convergence threshold     =      7.3E-07
     mixing beta               =       0.1000
     number of iterations used =           10  plain     mixing
     Exchange-correlation      = BEEF ( 1  4 27 13 2)
     nstep                     =           50


     celldm(1)=   1.889726  celldm(2)=   0.000000  celldm(3)=   0.000000
     celldm(4)=   0.000000  celldm(5)=   0.000000  celldm(6)=   0.000000

     crystal axes: (cart. coord. in units of alat)
               a(1) = (   6.590708   0.000000   0.000000 )  
               a(2) = (   0.000000   5.950229   0.000000 )  
               a(3) = (   0.000000   0.000000  30.195235 )  

     reciprocal axes: (cart. coord. in units 2 pi/alat)
               b(1) = (  0.151729  0.000000  0.000000 )  
               b(2) = (  0.000000  0.168061  0.000000 )  
               b(3) = (  0.000000  0.000000  0.033118 )  


     PseudoPot. # 1 for Ti read from file:
     /home/alatimer/bin/psp/esp_psp_w_gbrvRu/Ti.UPF
     MD5 check sum: 8e4df49b7f0d34bbd5052bf3f5ea0213
     Pseudo is Ultrasoft, Zval = 12.0
     Generated by new atomic code, or converted to UPF format
     Using radial grid of  851 points,  6 beta functions with: 
                l(1) =   0
                l(2) =   0
                l(3) =   1
                l(4) =   1
                l(5) =   2
                l(6) =   2
     Q(r) pseudized with  8 coefficients,  rinner =    1.000   1.000   1.000
                                                       1.000   1.000

     PseudoPot. # 2 for  O read from file:
     /home/alatimer/bin/psp/esp_psp_w_gbrvRu/O.UPF
     MD5 check sum: e057bbcf3229fb5d8c36c0c92f9568b4
     Pseudo is Ultrasoft + core correction, Zval =  6.0
     Generated using "atomic" code by A. Dal Corso  v.5.0.2 svn rev. 9415
     Using radial grid of 1095 points,  4 beta functions with: 
                l(1) =   0
                l(2) =   0
                l(3) =   1
                l(4) =   1
     Q(r) pseudized with 0 coefficients 


     PseudoPot. # 3 for  N read from file:
     /home/alatimer/bin/psp/esp_psp_w_gbrvRu/N.UPF
     MD5 check sum: ed8b6a90f28a53b7d71920e7015d2dd6
     Pseudo is Ultrasoft + core correction, Zval =  5.0
     Generated using "atomic" code by A. Dal Corso  v.5.0.2 svn rev. 9415
     Using radial grid of 1085 points,  4 beta functions with: 
                l(1) =   0
                l(2) =   0
                l(3) =   1
                l(4) =   1
     Q(r) pseudized with 0 coefficients 


     vdW kernel table read from file vdW_kernel_table
     MD5 check sum: 095c7af220d748ca6e76c0b4c6cfb241

     atomic species   valence    mass     pseudopotential
        Ti1           12.00    47.88000     Ti( 1.00)
        O1             6.00    15.99940      O( 1.00)
        N1             5.00    14.00670      N( 1.00)

     Starting magnetic structure 
     atomic species   magnetization
        Ti1          0.250
        O1           0.500
        N1           0.600

     No symmetry found



   Cartesian axes

     site n.     atom                  positions (alat units)
         1           Ti1 tau(   1) = (   1.6476770   0.7437786   2.6545865  )
         2           O1  tau(   2) = (   1.6476770   2.2313359   3.9361215  )
         3           Ti1 tau(   3) = (   1.6476770   2.2313359   5.9499405  )
         4           O1  tau(   4) = (   0.3661420   0.7437786   5.9499405  )
         5           Ti1 tau(   5) = (   1.5280591   0.7315068   9.1973351  )
         6           O1  tau(   6) = (   1.6613943   2.1836906  10.6091769  )
         7           Ti1 tau(   7) = (   1.6665780   2.2096385  12.4157880  )
         8           O1  tau(   8) = (   0.4439715   0.7264440  12.7601561  )
         9           Ti1 tau(   9) = (   1.6476770   3.7188931   2.6545865  )
        10           O1  tau(  10) = (   1.6476770   5.2064503   3.9361215  )
        11           Ti1 tau(  11) = (   1.6476770   5.2064503   5.9499405  )
        12           O1  tau(  12) = (   0.3661420   3.7188931   5.9499405  )
        13           Ti1 tau(  13) = (   1.5319291   3.7072436   9.2118370  )
        14           O1  tau(  14) = (   1.6575607   5.2126413  10.6087893  )
        15           Ti1 tau(  15) = (   1.6606453   5.1916961  12.4165775  )
        16           O1  tau(  16) = (   0.4123725   3.7022030  12.5882193  )
        17           O1  tau(  17) = (   1.6476770   2.2313359   1.3730516  )
        18           Ti1 tau(  18) = (   4.9430310   2.2313359   2.6545865  )
        19           O1  tau(  19) = (   4.9430310   2.2313359   4.6684056  )
        20           O1  tau(  20) = (   6.2245660   0.7437786   2.6545865  )
        21           O1  tau(  21) = (   3.6614961   0.7437786   2.6545865  )
        22           Ti1 tau(  22) = (   4.9430310   0.7437786   5.9499405  )
        23           O1  tau(  23) = (   1.6517842   2.2287041   8.0298356  )
        24           O1  tau(  24) = (   4.9430310   2.2313359   7.2314755  )
        25           O1  tau(  25) = (   2.9292120   0.7437786   5.9499405  )
        26           Ti1 tau(  26) = (   4.8605205   2.2076595   9.4238065  )
        27           O1  tau(  27) = (   4.9553550   2.1639423  11.2756624  )
        28           O1  tau(  28) = (   6.2690671   0.7288246   9.2688367  )
        29           O1  tau(  29) = (   3.6660957   0.7249325   9.2867299  )
        30           Ti1 tau(  30) = (   4.9284588   0.7282168  12.7798302  )
        31           O1  tau(  31) = (   4.9953437   2.2216212  13.8477397  )
        32           O1  tau(  32) = (   2.9112183   0.7266397  12.7651274  )
        33           O1  tau(  33) = (   1.6476770   5.2064503   1.3730516  )
        34           Ti1 tau(  34) = (   4.9430310   5.2064503   2.6545865  )
        35           O1  tau(  35) = (   4.9430310   5.2064503   4.6684056  )
        36           O1  tau(  36) = (   6.2245660   3.7188931   2.6545865  )
        37           O1  tau(  37) = (   3.6614961   3.7188931   2.6545865  )
        38           Ti1 tau(  38) = (   4.9430310   3.7188931   5.9499405  )
        39           O1  tau(  39) = (   1.6524867   5.1852222   8.0294571  )
        40           O1  tau(  40) = (   4.9430310   5.2064503   7.2314755  )
        41           O1  tau(  41) = (   2.9292120   3.7188931   5.9499405  )
        42           Ti1 tau(  42) = (   4.8610151   5.1886528   9.4241876  )
        43           O1  tau(  43) = (   4.9550983   5.2107439  11.2753448  )
        44           O1  tau(  44) = (   6.2713562   3.7024388   9.3047907  )
        45           O1  tau(  45) = (   3.6650622   3.7005085   9.3135888  )
        46           Ti1 tau(  46) = (   5.0160509   3.7038162  12.7585864  )
        47           O1  tau(  47) = (   4.9984032   5.1727849  13.8485277  )
        48           O1  tau(  48) = (   2.9655234   3.7049164  12.5317472  )
        49           O1  tau(  49) = (   2.2548149   3.7063572  14.5393114  )
        50           N1  tau(  50) = (   2.4020298   3.6667063  16.9651815  )
        51           N1  tau(  51) = (   2.1425646   3.6919273  15.8611024  )

     number of k points=    40  Fermi-Dirac smearing, width (Ry)=  0.0073
                       cart. coord. in units 2pi/alat
        k(    1) = (   0.0000000   0.0000000   0.0000000), wk =   0.0277778
        k(    2) = (   0.0000000   0.0280101   0.0000000), wk =   0.0555556
        k(    3) = (   0.0000000   0.0560203   0.0000000), wk =   0.0555556
        k(    4) = (   0.0000000  -0.0840304   0.0000000), wk =   0.0277778
        k(    5) = (   0.0252881   0.0000000   0.0000000), wk =   0.0555556
        k(    6) = (   0.0252881   0.0280101   0.0000000), wk =   0.0555556
        k(    7) = (   0.0252881   0.0560203   0.0000000), wk =   0.0555556
        k(    8) = (   0.0252881  -0.0840304   0.0000000), wk =   0.0555556
        k(    9) = (   0.0505763   0.0000000   0.0000000), wk =   0.0555556
        k(   10) = (   0.0505763   0.0280101   0.0000000), wk =   0.0555556
        k(   11) = (   0.0505763   0.0560203   0.0000000), wk =   0.0555556
        k(   12) = (   0.0505763  -0.0840304   0.0000000), wk =   0.0555556
        k(   13) = (  -0.0758644   0.0000000   0.0000000), wk =   0.0277778
        k(   14) = (  -0.0758644   0.0280101   0.0000000), wk =   0.0555556
        k(   15) = (  -0.0758644   0.0560203   0.0000000), wk =   0.0555556
        k(   16) = (  -0.0758644  -0.0840304   0.0000000), wk =   0.0277778
        k(   17) = (  -0.0252881   0.0280101   0.0000000), wk =   0.0555556
        k(   18) = (  -0.0252881   0.0560203   0.0000000), wk =   0.0555556
        k(   19) = (  -0.0505763   0.0280101   0.0000000), wk =   0.0555556
        k(   20) = (  -0.0505763   0.0560203   0.0000000), wk =   0.0555556
        k(   21) = (   0.0000000   0.0000000   0.0000000), wk =   0.0277778
        k(   22) = (   0.0000000   0.0280101   0.0000000), wk =   0.0555556
        k(   23) = (   0.0000000   0.0560203   0.0000000), wk =   0.0555556
        k(   24) = (   0.0000000  -0.0840304   0.0000000), wk =   0.0277778
        k(   25) = (   0.0252881   0.0000000   0.0000000), wk =   0.0555556
        k(   26) = (   0.0252881   0.0280101   0.0000000), wk =   0.0555556
        k(   27) = (   0.0252881   0.0560203   0.0000000), wk =   0.0555556
        k(   28) = (   0.0252881  -0.0840304   0.0000000), wk =   0.0555556
        k(   29) = (   0.0505763   0.0000000   0.0000000), wk =   0.0555556
        k(   30) = (   0.0505763   0.0280101   0.0000000), wk =   0.0555556
        k(   31) = (   0.0505763   0.0560203   0.0000000), wk =   0.0555556
        k(   32) = (   0.0505763  -0.0840304   0.0000000), wk =   0.0555556
        k(   33) = (  -0.0758644   0.0000000   0.0000000), wk =   0.0277778
        k(   34) = (  -0.0758644   0.0280101   0.0000000), wk =   0.0555556
        k(   35) = (  -0.0758644   0.0560203   0.0000000), wk =   0.0555556
        k(   36) = (  -0.0758644  -0.0840304   0.0000000), wk =   0.0277778
        k(   37) = (  -0.0252881   0.0280101   0.0000000), wk =   0.0555556
        k(   38) = (  -0.0252881   0.0560203   0.0000000), wk =   0.0555556
        k(   39) = (  -0.0505763   0.0280101   0.0000000), wk =   0.0555556
        k(   40) = (  -0.0505763   0.0560203   0.0000000), wk =   0.0555556

     Dense  grid:  1096637 G-vectors     FFT dimensions: (  80,  72, 375)

     Smooth grid:   277353 G-vectors     FFT dimensions: (  54,  45, 240)

     Largest allocated arrays     est. size (Mb)     dimensions
        Kohn-Sham Wavefunctions         9.98 Mb     (    2180,  300)
        NL pseudopotentials            18.89 Mb     (    2180,  568)
        Each V/rho on FFT grid          4.22 Mb     (  138240,   2)
        Each G-vector array             0.52 Mb     (   68538)
        G-vector shells                 0.25 Mb     (   33046)
     Largest temporary arrays     est. size (Mb)     dimensions
        Auxiliary wavefunctions        39.92 Mb     (    2180, 1200)
        Each subspace H/S matrix       21.97 Mb     (    1200, 1200)
        Each <psi_i|beta_j> matrix      2.60 Mb     (     568,  300)
        Arrays for rho mixing          21.09 Mb     (  138240,   10)

     Check: negative/imaginary core charge=   -0.000049    0.000000

     The initial density is read from file :
     ./calc.save/charge-density.dat


     negative rho (up, down):  1.158E-02 1.158E-02


     ************************************************************************
     *
     * You are using vdW-DF for exchange-correlation in this calculation.
     * Please cite the following three references that made this development
     * possible:
     *
     *   M. Dion, H. Rydberg, E. Schroder, D. C. Langreth, and
     *   B. I. Lundqvist, Phys. Rev. Lett. 92, 246401 (2004).
     *
     *   T. Thonhauser, V. R. Cooper, S. Li, A. Puzder, P. Hyldgaard, and
     *   D. C. Langreth, Phys. Rev. B 76, 125112 (2007).
     *
     *   G. Roman-Perez and J. M. Soler, Phys. Rev. Lett. 103, 096102 (2009).
     *
     *
     * If you are using vdW-DF2, please also cite:
     *
     *   K. Lee, E. D. Murray, L. Kong, B. I. Lundqvist, and
     *   D. C. Langreth, Phys. Rev. B 82, 081101(R) (2010).
     *
     *
     * If you are calculating the stress with vdW-DF, please also cite:
     *
     *   R. Sabatini, E. Kucukbenli, B. Kolb, T. Thonhauser, and
     *   S. de Gironcoli, J. Phys.: Condens. Matter 24, 424209 (2012).
     *
     ************************************************************************

     Carrying out vdW-DF run using the following parameters:

     Nqs =      20    Nr_points =    1024   r_max =   100.000
     q_mesh =
               0.00001000     0.04494208     0.09755937     0.15916263
               0.23128650     0.31572767     0.41458969     0.53033537
               0.66584808     0.82450364     1.01025438     1.22772762
               1.48234092     1.78043706     2.12944203     2.53805004
               3.01644009     3.57652955     4.23227104     5.00000000

     Gradients computed in reciprocal space

     ************************************************************************


     Starting wfc are  300 randomized atomic wfcs

     total cpu time spent up to now is       68.6 secs

     Self-consistent Calculation

     iteration #  1     ecut=    40.42 Ry     beta=0.10
     Davidson diagonalization with overlap
     ethr =  1.00E-05,  avg # of iterations = 15.2

     negative rho (up, down):  1.158E-02 1.158E-02
 
     Magnetic moment per site:
     atom:    1    charge:    3.1251    magn:   -0.0002    constr:    0.0000
     atom:    2    charge:    2.0893    magn:    0.0001    constr:    0.0000
     atom:    3    charge:    3.1198    magn:   -0.0001    constr:    0.0000
     atom:    4    charge:    2.0870    magn:    0.0000    constr:    0.0000
     atom:    5    charge:    3.1170    magn:   -0.0001    constr:    0.0000
     atom:    6    charge:    2.0915    magn:    0.0001    constr:    0.0000
     atom:    7    charge:    3.1192    magn:   -0.0000    constr:    0.0000
     atom:    8    charge:    2.0807    magn:    0.0001    constr:    0.0000
     atom:    9    charge:    3.1251    magn:   -0.0002    constr:    0.0000
     atom:   10    charge:    2.0893    magn:    0.0001    constr:    0.0000
     atom:   11    charge:    3.1198    magn:   -0.0001    constr:    0.0000
     atom:   12    charge:    2.0870    magn:    0.0000    constr:    0.0000
     atom:   13    charge:    3.1149    magn:   -0.0001    constr:    0.0000
     atom:   14    charge:    2.0910    magn:    0.0001    constr:    0.0000
     atom:   15    charge:    3.1202    magn:   -0.0000    constr:    0.0000
     atom:   16    charge:    2.0886    magn:    0.0001    constr:    0.0000
     atom:   17    charge:    2.0619    magn:    0.0004    constr:    0.0000
     atom:   18    charge:    3.1238    magn:   -0.0000    constr:    0.0000
     atom:   19    charge:    2.0878    magn:   -0.0000    constr:    0.0000
     atom:   20    charge:    2.0847    magn:   -0.0001    constr:    0.0000
     atom:   21    charge:    2.0847    magn:   -0.0001    constr:    0.0000
     atom:   22    charge:    3.1197    magn:   -0.0000    constr:    0.0000
     atom:   23    charge:    2.0907    magn:    0.0001    constr:    0.0000
     atom:   24    charge:    2.0780    magn:    0.0001    constr:    0.0000
     atom:   25    charge:    2.0869    magn:    0.0000    constr:    0.0000
     atom:   26    charge:    3.1165    magn:   -0.0001    constr:    0.0000
     atom:   27    charge:    2.0826    magn:    0.0002    constr:    0.0000
     atom:   28    charge:    2.0878    magn:    0.0001    constr:    0.0000
     atom:   29    charge:    2.0877    magn:    0.0001    constr:    0.0000
     atom:   30    charge:    3.1170    magn:   -0.0001    constr:    0.0000
     atom:   31    charge:    2.0805    magn:    0.0003    constr:    0.0000
     atom:   32    charge:    2.0839    magn:    0.0001    constr:    0.0000
     atom:   33    charge:    2.0619    magn:    0.0004    constr:    0.0000
     atom:   34    charge:    3.1238    magn:   -0.0000    constr:    0.0000
     atom:   35    charge:    2.0878    magn:   -0.0000    constr:    0.0000
     atom:   36    charge:    2.0847    magn:   -0.0001    constr:    0.0000
     atom:   37    charge:    2.0847    magn:   -0.0001    constr:    0.0000
     atom:   38    charge:    3.1197    magn:   -0.0000    constr:    0.0000
     atom:   39    charge:    2.0910    magn:    0.0001    constr:    0.0000
     atom:   40    charge:    2.0779    magn:    0.0001    constr:    0.0000
     atom:   41    charge:    2.0869    magn:    0.0000    constr:    0.0000
     atom:   42    charge:    3.1181    magn:   -0.0001    constr:    0.0000
     atom:   43    charge:    2.0840    magn:    0.0002    constr:    0.0000
     atom:   44    charge:    2.0864    magn:    0.0001    constr:    0.0000
     atom:   45    charge:    2.0871    magn:    0.0001    constr:    0.0000
     atom:   46    charge:    3.1176    magn:   -0.0001    constr:    0.0000
     atom:   47    charge:    2.0786    magn:    0.0003    constr:    0.0000
     atom:   48    charge:    2.0863    magn:    0.0002    constr:    0.0000
     atom:   49    charge:    2.0539    magn:   -0.0000    constr:    0.0000
     atom:   50    charge:    1.2580    magn:   -0.0000    constr:    0.0000
     atom:   51    charge:    1.2786    magn:    0.0000    constr:    0.0000

     total cpu time spent up to now is      793.8 secs

     total energy              =   -3044.97262772 Ry
     Harris-Foulkes estimate   =   -3045.00067324 Ry
     estimated scf accuracy    <       0.17306889 Ry

     total magnetization       =     0.00 Bohr mag/cell
     absolute magnetization    =     0.01 Bohr mag/cell

     iteration #  2     ecut=    40.42 Ry     beta=0.10
     Davidson diagonalization with overlap
     ethr =  4.33E-05,  avg # of iterations =  2.4

     negative rho (up, down):  1.158E-02 1.159E-02
 
     Magnetic moment per site:
     atom:    1    charge:    3.1250    magn:   -0.0001    constr:    0.0000
     atom:    2    charge:    2.0894    magn:    0.0001    constr:    0.0000
     atom:    3    charge:    3.1196    magn:   -0.0001    constr:    0.0000
     atom:    4    charge:    2.0871    magn:    0.0000    constr:    0.0000
     atom:    5    charge:    3.1170    magn:   -0.0000    constr:    0.0000
     atom:    6    charge:    2.0915    magn:    0.0001    constr:    0.0000
     atom:    7    charge:    3.1195    magn:   -0.0000    constr:    0.0000
     atom:    8    charge:    2.0809    magn:    0.0001    constr:    0.0000
     atom:    9    charge:    3.1250    magn:   -0.0001    constr:    0.0000
     atom:   10    charge:    2.0894    magn:    0.0001    constr:    0.0000
     atom:   11    charge:    3.1196    magn:   -0.0001    constr:    0.0000
     atom:   12    charge:    2.0870    magn:    0.0000    constr:    0.0000
     atom:   13    charge:    3.1148    magn:   -0.0001    constr:    0.0000
     atom:   14    charge:    2.0910    magn:    0.0001    constr:    0.0000
     atom:   15    charge:    3.1205    magn:   -0.0000    constr:    0.0000
     atom:   16    charge:    2.0891    magn:    0.0001    constr:    0.0000
     atom:   17    charge:    2.0623    magn:    0.0003    constr:    0.0000
     atom:   18    charge:    3.1239    magn:   -0.0000    constr:    0.0000
     atom:   19    charge:    2.0878    magn:   -0.0000    constr:    0.0000
     atom:   20    charge:    2.0846    magn:   -0.0001    constr:    0.0000
     atom:   21    charge:    2.0846    magn:   -0.0001    constr:    0.0000
     atom:   22    charge:    3.1197    magn:   -0.0000    constr:    0.0000
     atom:   23    charge:    2.0908    magn:    0.0001    constr:    0.0000
     atom:   24    charge:    2.0777    magn:    0.0001    constr:    0.0000
     atom:   25    charge:    2.0869    magn:    0.0000    constr:    0.0000
     atom:   26    charge:    3.1165    magn:   -0.0001    constr:    0.0000
     atom:   27    charge:    2.0825    magn:    0.0002    constr:    0.0000
     atom:   28    charge:    2.0878    magn:    0.0001    constr:    0.0000
     atom:   29    charge:    2.0878    magn:    0.0001    constr:    0.0000
     atom:   30    charge:    3.1169    magn:   -0.0001    constr:    0.0000
     atom:   31    charge:    2.0806    magn:    0.0003    constr:    0.0000
     atom:   32    charge:    2.0839    magn:    0.0001    constr:    0.0000
     atom:   33    charge:    2.0623    magn:    0.0003    constr:    0.0000
     atom:   34    charge:    3.1239    magn:   -0.0000    constr:    0.0000
     atom:   35    charge:    2.0878    magn:   -0.0000    constr:    0.0000
     atom:   36    charge:    2.0846    magn:   -0.0001    constr:    0.0000
     atom:   37    charge:    2.0846    magn:   -0.0001    constr:    0.0000
     atom:   38    charge:    3.1197    magn:   -0.0000    constr:    0.0000
     atom:   39    charge:    2.0911    magn:    0.0001    constr:    0.0000
     atom:   40    charge:    2.0777    magn:    0.0001    constr:    0.0000
     atom:   41    charge:    2.0869    magn:    0.0000    constr:    0.0000
     atom:   42    charge:    3.1181    magn:   -0.0001    constr:    0.0000
     atom:   43    charge:    2.0839    magn:    0.0002    constr:    0.0000
     atom:   44    charge:    2.0864    magn:    0.0001    constr:    0.0000
     atom:   45    charge:    2.0871    magn:    0.0001    constr:    0.0000
     atom:   46    charge:    3.1173    magn:   -0.0001    constr:    0.0000
     atom:   47    charge:    2.0787    magn:    0.0003    constr:    0.0000
     atom:   48    charge:    2.0879    magn:    0.0001    constr:    0.0000
     atom:   49    charge:    2.0565    magn:   -0.0000    constr:    0.0000
     atom:   50    charge:    1.2575    magn:   -0.0000    constr:    0.0000
     atom:   51    charge:    1.2692    magn:    0.0000    constr:    0.0000

     total cpu time spent up to now is      981.5 secs

     total energy              =   -3044.94860494 Ry
     Harris-Foulkes estimate   =   -3044.97630271 Ry
     estimated scf accuracy    <       0.08261959 Ry

     total magnetization       =     0.00 Bohr mag/cell
     absolute magnetization    =     0.01 Bohr mag/cell

     iteration #  3     ecut=    40.42 Ry     beta=0.10
     Davidson diagonalization with overlap
     ethr =  2.07E-05,  avg # of iterations =  5.9

     negative rho (up, down):  1.159E-02 1.159E-02
 
     Magnetic moment per site:
     atom:    1    charge:    3.1250    magn:   -0.0001    constr:    0.0000
     atom:    2    charge:    2.0895    magn:    0.0001    constr:    0.0000
     atom:    3    charge:    3.1195    magn:   -0.0000    constr:    0.0000
     atom:    4    charge:    2.0870    magn:    0.0000    constr:    0.0000
     atom:    5    charge:    3.1170    magn:   -0.0000    constr:    0.0000
     atom:    6    charge:    2.0917    magn:    0.0000    constr:    0.0000
     atom:    7    charge:    3.1186    magn:   -0.0000    constr:    0.0000
     atom:    8    charge:    2.0821    magn:    0.0001    constr:    0.0000
     atom:    9    charge:    3.1250    magn:   -0.0001    constr:    0.0000
     atom:   10    charge:    2.0895    magn:    0.0001    constr:    0.0000
     atom:   11    charge:    3.1195    magn:   -0.0000    constr:    0.0000
     atom:   12    charge:    2.0870    magn:    0.0000    constr:    0.0000
     atom:   13    charge:    3.1147    magn:   -0.0000    constr:    0.0000
     atom:   14    charge:    2.0912    magn:    0.0000    constr:    0.0000
     atom:   15    charge:    3.1196    magn:   -0.0000    constr:    0.0000
     atom:   16    charge:    2.0889    magn:    0.0000    constr:    0.0000
     atom:   17    charge:    2.0627    magn:    0.0003    constr:    0.0000
     atom:   18    charge:    3.1241    magn:   -0.0000    constr:    0.0000
     atom:   19    charge:    2.0878    magn:   -0.0000    constr:    0.0000
     atom:   20    charge:    2.0847    magn:   -0.0000    constr:    0.0000
     atom:   21    charge:    2.0847    magn:   -0.0000    constr:    0.0000
     atom:   22    charge:    3.1198    magn:   -0.0000    constr:    0.0000
     atom:   23    charge:    2.0910    magn:    0.0001    constr:    0.0000
     atom:   24    charge:    2.0775    magn:    0.0000    constr:    0.0000
     atom:   25    charge:    2.0869    magn:    0.0000    constr:    0.0000
     atom:   26    charge:    3.1165    magn:   -0.0001    constr:    0.0000
     atom:   27    charge:    2.0821    magn:    0.0001    constr:    0.0000
     atom:   28    charge:    2.0879    magn:    0.0001    constr:    0.0000
     atom:   29    charge:    2.0878    magn:    0.0001    constr:    0.0000
     atom:   30    charge:    3.1167    magn:   -0.0001    constr:    0.0000
     atom:   31    charge:    2.0819    magn:    0.0002    constr:    0.0000
     atom:   32    charge:    2.0845    magn:    0.0001    constr:    0.0000
     atom:   33    charge:    2.0627    magn:    0.0003    constr:    0.0000
     atom:   34    charge:    3.1241    magn:   -0.0000    constr:    0.0000
     atom:   35    charge:    2.0878    magn:   -0.0000    constr:    0.0000
     atom:   36    charge:    2.0847    magn:   -0.0001    constr:    0.0000
     atom:   37    charge:    2.0847    magn:   -0.0000    constr:    0.0000
     atom:   38    charge:    3.1198    magn:   -0.0000    constr:    0.0000
     atom:   39    charge:    2.0914    magn:    0.0001    constr:    0.0000
     atom:   40    charge:    2.0775    magn:    0.0000    constr:    0.0000
     atom:   41    charge:    2.0869    magn:    0.0000    constr:    0.0000
     atom:   42    charge:    3.1182    magn:   -0.0001    constr:    0.0000
     atom:   43    charge:    2.0835    magn:    0.0001    constr:    0.0000
     atom:   44    charge:    2.0865    magn:    0.0001    constr:    0.0000
     atom:   45    charge:    2.0871    magn:    0.0001    constr:    0.0000
     atom:   46    charge:    3.1168    magn:   -0.0001    constr:    0.0000
     atom:   47    charge:    2.0801    magn:    0.0002    constr:    0.0000
     atom:   48    charge:    2.0844    magn:    0.0001    constr:    0.0000
     atom:   49    charge:    2.0502    magn:   -0.0000    constr:    0.0000
     atom:   50    charge:    1.2585    magn:   -0.0000    constr:    0.0000
     atom:   51    charge:    1.2707    magn:    0.0000    constr:    0.0000

     total cpu time spent up to now is     1225.7 secs

     total energy              =   -3044.94791836 Ry
     Harris-Foulkes estimate   =   -3044.95524316 Ry
     estimated scf accuracy    <       0.02120891 Ry

     total magnetization       =     0.00 Bohr mag/cell
     absolute magnetization    =     0.01 Bohr mag/cell

     iteration #  4     ecut=    40.42 Ry     beta=0.10
     Davidson diagonalization with overlap
     c_bands:  1 eigenvalues not converged
     ethr =  5.30E-06,  avg # of iterations =  4.8

     negative rho (up, down):  1.159E-02 1.159E-02
 
     Magnetic moment per site:
     atom:    1    charge:    3.1251    magn:   -0.0001    constr:    0.0000
     atom:    2    charge:    2.0894    magn:    0.0001    constr:    0.0000
     atom:    3    charge:    3.1196    magn:   -0.0000    constr:    0.0000
     atom:    4    charge:    2.0870    magn:    0.0000    constr:    0.0000
     atom:    5    charge:    3.1170    magn:   -0.0000    constr:    0.0000
     atom:    6    charge:    2.0919    magn:    0.0000    constr:    0.0000
     atom:    7    charge:    3.1181    magn:   -0.0000    constr:    0.0000
     atom:    8    charge:    2.0822    magn:    0.0000    constr:    0.0000
     atom:    9    charge:    3.1251    magn:   -0.0001    constr:    0.0000
     atom:   10    charge:    2.0894    magn:    0.0001    constr:    0.0000
     atom:   11    charge:    3.1196    magn:   -0.0000    constr:    0.0000
     atom:   12    charge:    2.0870    magn:    0.0000    constr:    0.0000
     atom:   13    charge:    3.1147    magn:   -0.0000    constr:    0.0000
     atom:   14    charge:    2.0914    magn:    0.0000    constr:    0.0000
     atom:   15    charge:    3.1190    magn:   -0.0000    constr:    0.0000
     atom:   16    charge:    2.0884    magn:    0.0000    constr:    0.0000
     atom:   17    charge:    2.0625    magn:    0.0002    constr:    0.0000
     atom:   18    charge:    3.1240    magn:   -0.0000    constr:    0.0000
     atom:   19    charge:    2.0878    magn:   -0.0000    constr:    0.0000
     atom:   20    charge:    2.0847    magn:   -0.0000    constr:    0.0000
     atom:   21    charge:    2.0847    magn:   -0.0000    constr:    0.0000
     atom:   22    charge:    3.1197    magn:   -0.0000    constr:    0.0000
     atom:   23    charge:    2.0910    magn:    0.0000    constr:    0.0000
     atom:   24    charge:    2.0777    magn:    0.0000    constr:    0.0000
     atom:   25    charge:    2.0869    magn:    0.0000    constr:    0.0000
     atom:   26    charge:    3.1165    magn:   -0.0000    constr:    0.0000
     atom:   27    charge:    2.0822    magn:    0.0001    constr:    0.0000
     atom:   28    charge:    2.0879    magn:    0.0001    constr:    0.0000
     atom:   29    charge:    2.0877    magn:    0.0000    constr:    0.0000
     atom:   30    charge:    3.1168    magn:   -0.0001    constr:    0.0000
     atom:   31    charge:    2.0822    magn:    0.0002    constr:    0.0000
     atom:   32    charge:    2.0846    magn:    0.0000    constr:    0.0000
     atom:   33    charge:    2.0625    magn:    0.0002    constr:    0.0000
     atom:   34    charge:    3.1240    magn:   -0.0000    constr:    0.0000
     atom:   35    charge:    2.0878    magn:   -0.0000    constr:    0.0000
     atom:   36    charge:    2.0847    magn:   -0.0000    constr:    0.0000
     atom:   37    charge:    2.0847    magn:   -0.0000    constr:    0.0000
     atom:   38    charge:    3.1197    magn:   -0.0000    constr:    0.0000
     atom:   39    charge:    2.0914    magn:    0.0000    constr:    0.0000
     atom:   40    charge:    2.0777    magn:    0.0000    constr:    0.0000
     atom:   41    charge:    2.0869    magn:    0.0000    constr:    0.0000
     atom:   42    charge:    3.1181    magn:   -0.0000    constr:    0.0000
     atom:   43    charge:    2.0836    magn:    0.0001    constr:    0.0000
     atom:   44    charge:    2.0865    magn:    0.0001    constr:    0.0000
     atom:   45    charge:    2.0871    magn:    0.0000    constr:    0.0000
     atom:   46    charge:    3.1170    magn:   -0.0001    constr:    0.0000
     atom:   47    charge:    2.0803    magn:    0.0002    constr:    0.0000
     atom:   48    charge:    2.0823    magn:    0.0001    constr:    0.0000
     atom:   49    charge:    2.0457    magn:   -0.0000    constr:    0.0000
     atom:   50    charge:    1.2578    magn:   -0.0000    constr:    0.0000
     atom:   51    charge:    1.2747    magn:    0.0000    constr:    0.0000

     total cpu time spent up to now is     1451.8 secs

     total energy              =   -3044.94606567 Ry
     Harris-Foulkes estimate   =   -3044.94901407 Ry
     estimated scf accuracy    <       0.00664519 Ry

     total magnetization       =     0.00 Bohr mag/cell
     absolute magnetization    =     0.00 Bohr mag/cell

     iteration #  5     ecut=    40.42 Ry     beta=0.10
     Davidson diagonalization with overlap
     ethr =  1.66E-06,  avg # of iterations =  6.2

     negative rho (up, down):  1.160E-02 1.160E-02
 
     Magnetic moment per site:
     atom:    1    charge:    3.1251    magn:   -0.0001    constr:    0.0000
     atom:    2    charge:    2.0894    magn:    0.0001    constr:    0.0000
     atom:    3    charge:    3.1197    magn:   -0.0000    constr:    0.0000
     atom:    4    charge:    2.0870    magn:    0.0000    constr:    0.0000
     atom:    5    charge:    3.1170    magn:   -0.0000    constr:    0.0000
     atom:    6    charge:    2.0918    magn:    0.0000    constr:    0.0000
     atom:    7    charge:    3.1179    magn:   -0.0000    constr:    0.0000
     atom:    8    charge:    2.0817    magn:    0.0000    constr:    0.0000
     atom:    9    charge:    3.1251    magn:   -0.0001    constr:    0.0000
     atom:   10    charge:    2.0894    magn:    0.0001    constr:    0.0000
     atom:   11    charge:    3.1197    magn:   -0.0000    constr:    0.0000
     atom:   12    charge:    2.0870    magn:    0.0000    constr:    0.0000
     atom:   13    charge:    3.1148    magn:   -0.0000    constr:    0.0000
     atom:   14    charge:    2.0913    magn:    0.0000    constr:    0.0000
     atom:   15    charge:    3.1189    magn:   -0.0000    constr:    0.0000
     atom:   16    charge:    2.0880    magn:    0.0000    constr:    0.0000
     atom:   17    charge:    2.0624    magn:    0.0002    constr:    0.0000
     atom:   18    charge:    3.1239    magn:   -0.0000    constr:    0.0000
     atom:   19    charge:    2.0878    magn:   -0.0000    constr:    0.0000
     atom:   20    charge:    2.0847    magn:   -0.0000    constr:    0.0000
     atom:   21    charge:    2.0847    magn:   -0.0000    constr:    0.0000
     atom:   22    charge:    3.1197    magn:   -0.0000    constr:    0.0000
     atom:   23    charge:    2.0908    magn:    0.0000    constr:    0.0000
     atom:   24    charge:    2.0778    magn:    0.0000    constr:    0.0000
     atom:   25    charge:    2.0869    magn:    0.0000    constr:    0.0000
     atom:   26    charge:    3.1165    magn:   -0.0000    constr:    0.0000
     atom:   27    charge:    2.0824    magn:    0.0001    constr:    0.0000
     atom:   28    charge:    2.0879    magn:    0.0001    constr:    0.0000
     atom:   29    charge:    2.0877    magn:    0.0000    constr:    0.0000
     atom:   30    charge:    3.1168    magn:   -0.0001    constr:    0.0000
     atom:   31    charge:    2.0819    magn:    0.0001    constr:    0.0000
     atom:   32    charge:    2.0844    magn:    0.0000    constr:    0.0000
     atom:   33    charge:    2.0624    magn:    0.0002    constr:    0.0000
     atom:   34    charge:    3.1239    magn:   -0.0000    constr:    0.0000
     atom:   35    charge:    2.0878    magn:   -0.0000    constr:    0.0000
     atom:   36    charge:    2.0847    magn:   -0.0000    constr:    0.0000
     atom:   37    charge:    2.0847    magn:   -0.0000    constr:    0.0000
     atom:   38    charge:    3.1197    magn:   -0.0000    constr:    0.0000
     atom:   39    charge:    2.0912    magn:    0.0000    constr:    0.0000
     atom:   40    charge:    2.0778    magn:    0.0000    constr:    0.0000
     atom:   41    charge:    2.0869    magn:    0.0000    constr:    0.0000
     atom:   42    charge:    3.1181    magn:   -0.0000    constr:    0.0000
     atom:   43    charge:    2.0838    magn:    0.0001    constr:    0.0000
     atom:   44    charge:    2.0865    magn:    0.0001    constr:    0.0000
     atom:   45    charge:    2.0871    magn:    0.0000    constr:    0.0000
     atom:   46    charge:    3.1172    magn:   -0.0001    constr:    0.0000
     atom:   47    charge:    2.0800    magn:    0.0001    constr:    0.0000
     atom:   48    charge:    2.0817    magn:    0.0001    constr:    0.0000
     atom:   49    charge:    2.0432    magn:   -0.0000    constr:    0.0000
     atom:   50    charge:    1.2575    magn:   -0.0000    constr:    0.0000
     atom:   51    charge:    1.2799    magn:    0.0000    constr:    0.0000

     total cpu time spent up to now is     1705.9 secs

     total energy              =   -3044.94608949 Ry
     Harris-Foulkes estimate   =   -3044.94666939 Ry
     estimated scf accuracy    <       0.00149530 Ry

     total magnetization       =     0.00 Bohr mag/cell
     absolute magnetization    =     0.00 Bohr mag/cell

     iteration #  6     ecut=    40.42 Ry     beta=0.10
     Davidson diagonalization with overlap
     ethr =  3.74E-07,  avg # of iterations =  3.0

     negative rho (up, down):  1.160E-02 1.160E-02
 
     Magnetic moment per site:
     atom:    1    charge:    3.1250    magn:   -0.0001    constr:    0.0000
     atom:    2    charge:    2.0894    magn:    0.0000    constr:    0.0000
     atom:    3    charge:    3.1196    magn:   -0.0000    constr:    0.0000
     atom:    4    charge:    2.0870    magn:    0.0000    constr:    0.0000
     atom:    5    charge:    3.1170    magn:   -0.0000    constr:    0.0000
     atom:    6    charge:    2.0917    magn:    0.0000    constr:    0.0000
     atom:    7    charge:    3.1181    magn:   -0.0000    constr:    0.0000
     atom:    8    charge:    2.0814    magn:    0.0000    constr:    0.0000
     atom:    9    charge:    3.1250    magn:   -0.0001    constr:    0.0000
     atom:   10    charge:    2.0894    magn:    0.0000    constr:    0.0000
     atom:   11    charge:    3.1196    magn:   -0.0000    constr:    0.0000
     atom:   12    charge:    2.0870    magn:    0.0000    constr:    0.0000
     atom:   13    charge:    3.1148    magn:   -0.0000    constr:    0.0000
     atom:   14    charge:    2.0912    magn:    0.0000    constr:    0.0000
     atom:   15    charge:    3.1190    magn:   -0.0000    constr:    0.0000
     atom:   16    charge:    2.0880    magn:    0.0000    constr:    0.0000
     atom:   17    charge:    2.0624    magn:    0.0002    constr:    0.0000
     atom:   18    charge:    3.1239    magn:   -0.0000    constr:    0.0000
     atom:   19    charge:    2.0878    magn:   -0.0000    constr:    0.0000
     atom:   20    charge:    2.0847    magn:   -0.0000    constr:    0.0000
     atom:   21    charge:    2.0847    magn:   -0.0000    constr:    0.0000
     atom:   22    charge:    3.1197    magn:   -0.0000    constr:    0.0000
     atom:   23    charge:    2.0908    magn:    0.0000    constr:    0.0000
     atom:   24    charge:    2.0778    magn:    0.0000    constr:    0.0000
     atom:   25    charge:    2.0869    magn:    0.0000    constr:    0.0000
     atom:   26    charge:    3.1165    magn:   -0.0000    constr:    0.0000
     atom:   27    charge:    2.0824    magn:    0.0001    constr:    0.0000
     atom:   28    charge:    2.0879    magn:    0.0000    constr:    0.0000
     atom:   29    charge:    2.0877    magn:    0.0000    constr:    0.0000
     atom:   30    charge:    3.1168    magn:   -0.0001    constr:    0.0000
     atom:   31    charge:    2.0816    magn:    0.0001    constr:    0.0000
     atom:   32    charge:    2.0842    magn:    0.0000    constr:    0.0000
     atom:   33    charge:    2.0624    magn:    0.0002    constr:    0.0000
     atom:   34    charge:    3.1239    magn:   -0.0000    constr:    0.0000
     atom:   35    charge:    2.0878    magn:   -0.0000    constr:    0.0000
     atom:   36    charge:    2.0847    magn:   -0.0000    constr:    0.0000
     atom:   37    charge:    2.0847    magn:   -0.0000    constr:    0.0000
     atom:   38    charge:    3.1197    magn:   -0.0000    constr:    0.0000
     atom:   39    charge:    2.0912    magn:    0.0000    constr:    0.0000
     atom:   40    charge:    2.0777    magn:    0.0000    constr:    0.0000
     atom:   41    charge:    2.0869    magn:    0.0000    constr:    0.0000
     atom:   42    charge:    3.1181    magn:   -0.0000    constr:    0.0000
     atom:   43    charge:    2.0839    magn:    0.0001    constr:    0.0000
     atom:   44    charge:    2.0865    magn:    0.0000    constr:    0.0000
     atom:   45    charge:    2.0871    magn:    0.0000    constr:    0.0000
     atom:   46    charge:    3.1171    magn:   -0.0001    constr:    0.0000
     atom:   47    charge:    2.0797    magn:    0.0001    constr:    0.0000
     atom:   48    charge:    2.0826    magn:    0.0001    constr:    0.0000
     atom:   49    charge:    2.0438    magn:    0.0000    constr:    0.0000
     atom:   50    charge:    1.2577    magn:   -0.0000    constr:    0.0000
     atom:   51    charge:    1.2806    magn:    0.0000    constr:    0.0000

     total cpu time spent up to now is     1905.7 secs

     total energy              =   -3044.94619065 Ry
     Harris-Foulkes estimate   =   -3044.94626440 Ry
     estimated scf accuracy    <       0.00026302 Ry

     total magnetization       =     0.00 Bohr mag/cell
     absolute magnetization    =     0.00 Bohr mag/cell

     iteration #  7     ecut=    40.42 Ry     beta=0.10
     Davidson diagonalization with overlap
     ethr =  6.58E-08,  avg # of iterations =  2.0

     negative rho (up, down):  1.160E-02 1.160E-02
 
     Magnetic moment per site:
     atom:    1    charge:    3.1250    magn:   -0.0001    constr:    0.0000
     atom:    2    charge:    2.0894    magn:    0.0000    constr:    0.0000
     atom:    3    charge:    3.1196    magn:   -0.0000    constr:    0.0000
     atom:    4    charge:    2.0870    magn:    0.0000    constr:    0.0000
     atom:    5    charge:    3.1170    magn:   -0.0000    constr:    0.0000
     atom:    6    charge:    2.0917    magn:    0.0000    constr:    0.0000
     atom:    7    charge:    3.1183    magn:   -0.0000    constr:    0.0000
     atom:    8    charge:    2.0814    magn:    0.0000    constr:    0.0000
     atom:    9    charge:    3.1250    magn:   -0.0001    constr:    0.0000
     atom:   10    charge:    2.0894    magn:    0.0000    constr:    0.0000
     atom:   11    charge:    3.1196    magn:   -0.0000    constr:    0.0000
     atom:   12    charge:    2.0870    magn:    0.0000    constr:    0.0000
     atom:   13    charge:    3.1148    magn:   -0.0000    constr:    0.0000
     atom:   14    charge:    2.0912    magn:    0.0000    constr:    0.0000
     atom:   15    charge:    3.1192    magn:   -0.0000    constr:    0.0000
     atom:   16    charge:    2.0882    magn:    0.0000    constr:    0.0000
     atom:   17    charge:    2.0623    magn:    0.0001    constr:    0.0000
     atom:   18    charge:    3.1239    magn:   -0.0000    constr:    0.0000
     atom:   19    charge:    2.0878    magn:   -0.0000    constr:    0.0000
     atom:   20    charge:    2.0846    magn:   -0.0000    constr:    0.0000
     atom:   21    charge:    2.0846    magn:   -0.0000    constr:    0.0000
     atom:   22    charge:    3.1197    magn:   -0.0000    constr:    0.0000
     atom:   23    charge:    2.0908    magn:    0.0000    constr:    0.0000
     atom:   24    charge:    2.0777    magn:    0.0000    constr:    0.0000
     atom:   25    charge:    2.0869    magn:    0.0000    constr:    0.0000
     atom:   26    charge:    3.1165    magn:   -0.0000    constr:    0.0000
     atom:   27    charge:    2.0824    magn:    0.0001    constr:    0.0000
     atom:   28    charge:    2.0879    magn:    0.0000    constr:    0.0000
     atom:   29    charge:    2.0878    magn:    0.0000    constr:    0.0000
     atom:   30    charge:    3.1168    magn:   -0.0000    constr:    0.0000
     atom:   31    charge:    2.0814    magn:    0.0001    constr:    0.0000
     atom:   32    charge:    2.0841    magn:    0.0000    constr:    0.0000
     atom:   33    charge:    2.0623    magn:    0.0002    constr:    0.0000
     atom:   34    charge:    3.1239    magn:   -0.0000    constr:    0.0000
     atom:   35    charge:    2.0878    magn:   -0.0000    constr:    0.0000
     atom:   36    charge:    2.0846    magn:   -0.0000    constr:    0.0000
     atom:   37    charge:    2.0846    magn:   -0.0000    constr:    0.0000
     atom:   38    charge:    3.1197    magn:   -0.0000    constr:    0.0000
     atom:   39    charge:    2.0912    magn:    0.0000    constr:    0.0000
     atom:   40    charge:    2.0777    magn:    0.0000    constr:    0.0000
     atom:   41    charge:    2.0869    magn:    0.0000    constr:    0.0000
     atom:   42    charge:    3.1181    magn:   -0.0000    constr:    0.0000
     atom:   43    charge:    2.0838    magn:    0.0001    constr:    0.0000
     atom:   44    charge:    2.0864    magn:    0.0000    constr:    0.0000
     atom:   45    charge:    2.0871    magn:    0.0000    constr:    0.0000
     atom:   46    charge:    3.1170    magn:   -0.0000    constr:    0.0000
     atom:   47    charge:    2.0795    magn:    0.0001    constr:    0.0000
     atom:   48    charge:    2.0833    magn:    0.0001    constr:    0.0000
     atom:   49    charge:    2.0445    magn:    0.0000    constr:    0.0000
     atom:   50    charge:    1.2584    magn:   -0.0000    constr:    0.0000
     atom:   51    charge:    1.2813    magn:    0.0000    constr:    0.0000

     total cpu time spent up to now is     2092.0 secs

     total energy              =   -3044.94617710 Ry
     Harris-Foulkes estimate   =   -3044.94621112 Ry
     estimated scf accuracy    <       0.00009771 Ry

     total magnetization       =     0.00 Bohr mag/cell
     absolute magnetization    =     0.00 Bohr mag/cell

     iteration #  8     ecut=    40.42 Ry     beta=0.10
     Davidson diagonalization with overlap
     ethr =  2.44E-08,  avg # of iterations =  2.1

     negative rho (up, down):  1.160E-02 1.160E-02
 
     Magnetic moment per site:
     atom:    1    charge:    3.1250    magn:   -0.0000    constr:    0.0000
     atom:    2    charge:    2.0894    magn:    0.0000    constr:    0.0000
     atom:    3    charge:    3.1196    magn:   -0.0000    constr:    0.0000
     atom:    4    charge:    2.0870    magn:    0.0000    constr:    0.0000
     atom:    5    charge:    3.1170    magn:   -0.0000    constr:    0.0000
     atom:    6    charge:    2.0917    magn:    0.0000    constr:    0.0000
     atom:    7    charge:    3.1184    magn:   -0.0000    constr:    0.0000
     atom:    8    charge:    2.0815    magn:    0.0000    constr:    0.0000
     atom:    9    charge:    3.1250    magn:   -0.0000    constr:    0.0000
     atom:   10    charge:    2.0894    magn:    0.0000    constr:    0.0000
     atom:   11    charge:    3.1196    magn:   -0.0000    constr:    0.0000
     atom:   12    charge:    2.0870    magn:    0.0000    constr:    0.0000
     atom:   13    charge:    3.1148    magn:   -0.0000    constr:    0.0000
     atom:   14    charge:    2.0912    magn:    0.0000    constr:    0.0000
     atom:   15    charge:    3.1193    magn:   -0.0000    constr:    0.0000
     atom:   16    charge:    2.0883    magn:    0.0000    constr:    0.0000
     atom:   17    charge:    2.0623    magn:    0.0001    constr:    0.0000
     atom:   18    charge:    3.1239    magn:   -0.0000    constr:    0.0000
     atom:   19    charge:    2.0878    magn:   -0.0000    constr:    0.0000
     atom:   20    charge:    2.0847    magn:   -0.0000    constr:    0.0000
     atom:   21    charge:    2.0847    magn:   -0.0000    constr:    0.0000
     atom:   22    charge:    3.1197    magn:   -0.0000    constr:    0.0000
     atom:   23    charge:    2.0909    magn:    0.0000    constr:    0.0000
     atom:   24    charge:    2.0777    magn:    0.0000    constr:    0.0000
     atom:   25    charge:    2.0869    magn:    0.0000    constr:    0.0000
     atom:   26    charge:    3.1165    magn:   -0.0000    constr:    0.0000
     atom:   27    charge:    2.0824    magn:    0.0001    constr:    0.0000
     atom:   28    charge:    2.0879    magn:    0.0000    constr:    0.0000
     atom:   29    charge:    2.0877    magn:    0.0000    constr:    0.0000
     atom:   30    charge:    3.1168    magn:   -0.0000    constr:    0.0000
     atom:   31    charge:    2.0814    magn:    0.0001    constr:    0.0000
     atom:   32    charge:    2.0842    magn:    0.0000    constr:    0.0000
     atom:   33    charge:    2.0623    magn:    0.0001    constr:    0.0000
     atom:   34    charge:    3.1239    magn:   -0.0000    constr:    0.0000
     atom:   35    charge:    2.0878    magn:   -0.0000    constr:    0.0000
     atom:   36    charge:    2.0847    magn:   -0.0000    constr:    0.0000
     atom:   37    charge:    2.0847    magn:   -0.0000    constr:    0.0000
     atom:   38    charge:    3.1197    magn:   -0.0000    constr:    0.0000
     atom:   39    charge:    2.0912    magn:    0.0000    constr:    0.0000
     atom:   40    charge:    2.0777    magn:    0.0000    constr:    0.0000
     atom:   41    charge:    2.0869    magn:    0.0000    constr:    0.0000
     atom:   42    charge:    3.1181    magn:   -0.0000    constr:    0.0000
     atom:   43    charge:    2.0838    magn:    0.0001    constr:    0.0000
     atom:   44    charge:    2.0864    magn:    0.0000    constr:    0.0000
     atom:   45    charge:    2.0871    magn:    0.0000    constr:    0.0000
     atom:   46    charge:    3.1171    magn:   -0.0000    constr:    0.0000
     atom:   47    charge:    2.0795    magn:    0.0001    constr:    0.0000
     atom:   48    charge:    2.0834    magn:    0.0000    constr:    0.0000
     atom:   49    charge:    2.0447    magn:    0.0000    constr:    0.0000
     atom:   50    charge:    1.2585    magn:   -0.0000    constr:    0.0000
     atom:   51    charge:    1.2813    magn:    0.0000    constr:    0.0000

     total cpu time spent up to now is     2279.6 secs

     total energy              =   -3044.94618340 Ry
     Harris-Foulkes estimate   =   -3044.94618709 Ry
     estimated scf accuracy    <       0.00001930 Ry

     total magnetization       =     0.00 Bohr mag/cell
     absolute magnetization    =     0.00 Bohr mag/cell

     iteration #  9     ecut=    40.42 Ry     beta=0.10
     Davidson diagonalization with overlap
     ethr =  4.83E-09,  avg # of iterations =  2.0

     negative rho (up, down):  1.160E-02 1.160E-02
 
     Magnetic moment per site:
     atom:    1    charge:    3.1250    magn:   -0.0000    constr:    0.0000
     atom:    2    charge:    2.0894    magn:    0.0000    constr:    0.0000
     atom:    3    charge:    3.1196    magn:   -0.0000    constr:    0.0000
     atom:    4    charge:    2.0870    magn:    0.0000    constr:    0.0000
     atom:    5    charge:    3.1170    magn:   -0.0000    constr:    0.0000
     atom:    6    charge:    2.0917    magn:    0.0000    constr:    0.0000
     atom:    7    charge:    3.1184    magn:   -0.0000    constr:    0.0000
     atom:    8    charge:    2.0815    magn:    0.0000    constr:    0.0000
     atom:    9    charge:    3.1250    magn:   -0.0000    constr:    0.0000
     atom:   10    charge:    2.0894    magn:    0.0000    constr:    0.0000
     atom:   11    charge:    3.1196    magn:   -0.0000    constr:    0.0000
     atom:   12    charge:    2.0870    magn:    0.0000    constr:    0.0000
     atom:   13    charge:    3.1148    magn:   -0.0000    constr:    0.0000
     atom:   14    charge:    2.0912    magn:    0.0000    constr:    0.0000
     atom:   15    charge:    3.1193    magn:   -0.0000    constr:    0.0000
     atom:   16    charge:    2.0883    magn:    0.0000    constr:    0.0000
     atom:   17    charge:    2.0624    magn:    0.0001    constr:    0.0000
     atom:   18    charge:    3.1239    magn:   -0.0000    constr:    0.0000
     atom:   19    charge:    2.0878    magn:   -0.0000    constr:    0.0000
     atom:   20    charge:    2.0847    magn:   -0.0000    constr:    0.0000
     atom:   21    charge:    2.0847    magn:   -0.0000    constr:    0.0000
     atom:   22    charge:    3.1197    magn:   -0.0000    constr:    0.0000
     atom:   23    charge:    2.0909    magn:    0.0000    constr:    0.0000
     atom:   24    charge:    2.0777    magn:    0.0000    constr:    0.0000
     atom:   25    charge:    2.0869    magn:    0.0000    constr:    0.0000
     atom:   26    charge:    3.1165    magn:   -0.0000    constr:    0.0000
     atom:   27    charge:    2.0824    magn:    0.0000    constr:    0.0000
     atom:   28    charge:    2.0879    magn:    0.0000    constr:    0.0000
     atom:   29    charge:    2.0877    magn:    0.0000    constr:    0.0000
     atom:   30    charge:    3.1168    magn:   -0.0000    constr:    0.0000
     atom:   31    charge:    2.0814    magn:    0.0001    constr:    0.0000
     atom:   32    charge:    2.0842    magn:    0.0000    constr:    0.0000
     atom:   33    charge:    2.0624    magn:    0.0001    constr:    0.0000
     atom:   34    charge:    3.1239    magn:   -0.0000    constr:    0.0000
     atom:   35    charge:    2.0878    magn:   -0.0000    constr:    0.0000
     atom:   36    charge:    2.0847    magn:   -0.0000    constr:    0.0000
     atom:   37    charge:    2.0847    magn:   -0.0000    constr:    0.0000
     atom:   38    charge:    3.1197    magn:   -0.0000    constr:    0.0000
     atom:   39    charge:    2.0912    magn:    0.0000    constr:    0.0000
     atom:   40    charge:    2.0777    magn:    0.0000    constr:    0.0000
     atom:   41    charge:    2.0869    magn:    0.0000    constr:    0.0000
     atom:   42    charge:    3.1181    magn:   -0.0000    constr:    0.0000
     atom:   43    charge:    2.0838    magn:    0.0000    constr:    0.0000
     atom:   44    charge:    2.0865    magn:    0.0000    constr:    0.0000
     atom:   45    charge:    2.0871    magn:    0.0000    constr:    0.0000
     atom:   46    charge:    3.1171    magn:   -0.0000    constr:    0.0000
     atom:   47    charge:    2.0795    magn:    0.0001    constr:    0.0000
     atom:   48    charge:    2.0835    magn:    0.0000    constr:    0.0000
     atom:   49    charge:    2.0448    magn:    0.0000    constr:    0.0000
     atom:   50    charge:    1.2585    magn:   -0.0000    constr:    0.0000
     atom:   51    charge:    1.2812    magn:    0.0000    constr:    0.0000

     total cpu time spent up to now is     2464.7 secs

     total energy              =   -3044.94618483 Ry
     Harris-Foulkes estimate   =   -3044.94618473 Ry
     estimated scf accuracy    <       0.00000566 Ry

     total magnetization       =     0.00 Bohr mag/cell
     absolute magnetization    =     0.00 Bohr mag/cell

     iteration # 10     ecut=    40.42 Ry     beta=0.10
     Davidson diagonalization with overlap
     ethr =  1.42E-09,  avg # of iterations =  2.0

     negative rho (up, down):  1.159E-02 1.159E-02
 
     Magnetic moment per site:
     atom:    1    charge:    3.1250    magn:   -0.0000    constr:    0.0000
     atom:    2    charge:    2.0894    magn:    0.0000    constr:    0.0000
     atom:    3    charge:    3.1196    magn:   -0.0000    constr:    0.0000
     atom:    4    charge:    2.0870    magn:    0.0000    constr:    0.0000
     atom:    5    charge:    3.1170    magn:   -0.0000    constr:    0.0000
     atom:    6    charge:    2.0917    magn:    0.0000    constr:    0.0000
     atom:    7    charge:    3.1185    magn:   -0.0000    constr:    0.0000
     atom:    8    charge:    2.0815    magn:    0.0000    constr:    0.0000
     atom:    9    charge:    3.1250    magn:   -0.0000    constr:    0.0000
     atom:   10    charge:    2.0894    magn:    0.0000    constr:    0.0000
     atom:   11    charge:    3.1196    magn:   -0.0000    constr:    0.0000
     atom:   12    charge:    2.0870    magn:    0.0000    constr:    0.0000
     atom:   13    charge:    3.1148    magn:   -0.0000    constr:    0.0000
     atom:   14    charge:    2.0912    magn:    0.0000    constr:    0.0000
     atom:   15    charge:    3.1194    magn:   -0.0000    constr:    0.0000
     atom:   16    charge:    2.0884    magn:    0.0000    constr:    0.0000
     atom:   17    charge:    2.0624    magn:    0.0001    constr:    0.0000
     atom:   18    charge:    3.1239    magn:   -0.0000    constr:    0.0000
     atom:   19    charge:    2.0878    magn:   -0.0000    constr:    0.0000
     atom:   20    charge:    2.0847    magn:   -0.0000    constr:    0.0000
     atom:   21    charge:    2.0847    magn:   -0.0000    constr:    0.0000
     atom:   22    charge:    3.1197    magn:   -0.0000    constr:    0.0000
     atom:   23    charge:    2.0909    magn:    0.0000    constr:    0.0000
     atom:   24    charge:    2.0777    magn:    0.0000    constr:    0.0000
     atom:   25    charge:    2.0869    magn:    0.0000    constr:    0.0000
     atom:   26    charge:    3.1165    magn:   -0.0000    constr:    0.0000
     atom:   27    charge:    2.0824    magn:    0.0000    constr:    0.0000
     atom:   28    charge:    2.0879    magn:    0.0000    constr:    0.0000
     atom:   29    charge:    2.0877    magn:    0.0000    constr:    0.0000
     atom:   30    charge:    3.1168    magn:   -0.0000    constr:    0.0000
     atom:   31    charge:    2.0815    magn:    0.0000    constr:    0.0000
     atom:   32    charge:    2.0843    magn:    0.0000    constr:    0.0000
     atom:   33    charge:    2.0624    magn:    0.0001    constr:    0.0000
     atom:   34    charge:    3.1239    magn:   -0.0000    constr:    0.0000
     atom:   35    charge:    2.0878    magn:   -0.0000    constr:    0.0000
     atom:   36    charge:    2.0847    magn:   -0.0000    constr:    0.0000
     atom:   37    charge:    2.0847    magn:   -0.0000    constr:    0.0000
     atom:   38    charge:    3.1197    magn:   -0.0000    constr:    0.0000
     atom:   39    charge:    2.0912    magn:    0.0000    constr:    0.0000
     atom:   40    charge:    2.0777    magn:    0.0000    constr:    0.0000
     atom:   41    charge:    2.0869    magn:    0.0000    constr:    0.0000
     atom:   42    charge:    3.1181    magn:   -0.0000    constr:    0.0000
     atom:   43    charge:    2.0838    magn:    0.0000    constr:    0.0000
     atom:   44    charge:    2.0865    magn:    0.0000    constr:    0.0000
     atom:   45    charge:    2.0871    magn:    0.0000    constr:    0.0000
     atom:   46    charge:    3.1171    magn:   -0.0000    constr:    0.0000
     atom:   47    charge:    2.0796    magn:    0.0000    constr:    0.0000
     atom:   48    charge:    2.0835    magn:    0.0000    constr:    0.0000
     atom:   49    charge:    2.0446    magn:    0.0000    constr:    0.0000
     atom:   50    charge:    1.2584    magn:   -0.0000    constr:    0.0000
     atom:   51    charge:    1.2811    magn:    0.0000    constr:    0.0000

     total cpu time spent up to now is     2650.2 secs

     total energy              =   -3044.94618465 Ry
     Harris-Foulkes estimate   =   -3044.94618497 Ry
     estimated scf accuracy    <       0.00000285 Ry

     total magnetization       =     0.00 Bohr mag/cell
     absolute magnetization    =     0.00 Bohr mag/cell

     iteration # 11     ecut=    40.42 Ry     beta=0.10
     Davidson diagonalization with overlap
     ethr =  7.12E-10,  avg # of iterations =  2.0

     negative rho (up, down):  1.158E-02 1.158E-02
 
     Magnetic moment per site:
     atom:    1    charge:    3.1250    magn:   -0.0000    constr:    0.0000
     atom:    2    charge:    2.0894    magn:    0.0000    constr:    0.0000
     atom:    3    charge:    3.1196    magn:   -0.0000    constr:    0.0000
     atom:    4    charge:    2.0870    magn:    0.0000    constr:    0.0000
     atom:    5    charge:    3.1170    magn:   -0.0000    constr:    0.0000
     atom:    6    charge:    2.0917    magn:    0.0000    constr:    0.0000
     atom:    7    charge:    3.1184    magn:   -0.0000    constr:    0.0000
     atom:    8    charge:    2.0815    magn:    0.0000    constr:    0.0000
     atom:    9    charge:    3.1250    magn:   -0.0000    constr:    0.0000
     atom:   10    charge:    2.0894    magn:    0.0000    constr:    0.0000
     atom:   11    charge:    3.1196    magn:   -0.0000    constr:    0.0000
     atom:   12    charge:    2.0870    magn:    0.0000    constr:    0.0000
     atom:   13    charge:    3.1148    magn:   -0.0000    constr:    0.0000
     atom:   14    charge:    2.0912    magn:    0.0000    constr:    0.0000
     atom:   15    charge:    3.1193    magn:   -0.0000    constr:    0.0000
     atom:   16    charge:    2.0884    magn:    0.0000    constr:    0.0000
     atom:   17    charge:    2.0624    magn:    0.0000    constr:    0.0000
     atom:   18    charge:    3.1239    magn:   -0.0000    constr:    0.0000
     atom:   19    charge:    2.0878    magn:   -0.0000    constr:    0.0000
     atom:   20    charge:    2.0847    magn:   -0.0000    constr:    0.0000
     atom:   21    charge:    2.0847    magn:   -0.0000    constr:    0.0000
     atom:   22    charge:    3.1197    magn:   -0.0000    constr:    0.0000
     atom:   23    charge:    2.0908    magn:    0.0000    constr:    0.0000
     atom:   24    charge:    2.0777    magn:    0.0000    constr:    0.0000
     atom:   25    charge:    2.0869    magn:    0.0000    constr:    0.0000
     atom:   26    charge:    3.1165    magn:   -0.0000    constr:    0.0000
     atom:   27    charge:    2.0824    magn:    0.0000    constr:    0.0000
     atom:   28    charge:    2.0879    magn:    0.0000    constr:    0.0000
     atom:   29    charge:    2.0878    magn:    0.0000    constr:    0.0000
     atom:   30    charge:    3.1168    magn:   -0.0000    constr:    0.0000
     atom:   31    charge:    2.0815    magn:    0.0000    constr:    0.0000
     atom:   32    charge:    2.0842    magn:    0.0000    constr:    0.0000
     atom:   33    charge:    2.0624    magn:    0.0000    constr:    0.0000
     atom:   34    charge:    3.1239    magn:   -0.0000    constr:    0.0000
     atom:   35    charge:    2.0878    magn:   -0.0000    constr:    0.0000
     atom:   36    charge:    2.0847    magn:   -0.0000    constr:    0.0000
     atom:   37    charge:    2.0847    magn:   -0.0000    constr:    0.0000
     atom:   38    charge:    3.1197    magn:   -0.0000    constr:    0.0000
     atom:   39    charge:    2.0912    magn:    0.0000    constr:    0.0000
     atom:   40    charge:    2.0777    magn:    0.0000    constr:    0.0000
     atom:   41    charge:    2.0869    magn:    0.0000    constr:    0.0000
     atom:   42    charge:    3.1181    magn:   -0.0000    constr:    0.0000
     atom:   43    charge:    2.0838    magn:    0.0000    constr:    0.0000
     atom:   44    charge:    2.0864    magn:    0.0000    constr:    0.0000
     atom:   45    charge:    2.0871    magn:    0.0000    constr:    0.0000
     atom:   46    charge:    3.1171    magn:   -0.0000    constr:    0.0000
     atom:   47    charge:    2.0796    magn:    0.0000    constr:    0.0000
     atom:   48    charge:    2.0836    magn:    0.0000    constr:    0.0000
     atom:   49    charge:    2.0445    magn:    0.0000    constr:    0.0000
     atom:   50    charge:    1.2585    magn:   -0.0000    constr:    0.0000
     atom:   51    charge:    1.2810    magn:    0.0000    constr:    0.0000

     total cpu time spent up to now is     2839.2 secs

     End of self-consistent calculation

 ------ SPIN UP ------------


          k = 0.0000 0.0000 0.0000 ( 34665 PWs)   bands (ev):

   -57.8184 -57.7835 -57.5067 -57.4516 -57.3835 -57.3472 -57.2735 -57.2381
   -57.1755 -57.1402 -57.1114 -57.0761 -56.8738 -56.8028 -56.2807 -56.2454
   -34.2548 -34.0996 -34.0710 -34.0537 -34.0200 -33.9257 -33.8649 -33.8600
   -33.8207 -33.7669 -33.7263 -33.7159 -33.7120 -33.6819 -33.6668 -33.6625
   -33.6431 -33.6337 -33.6135 -33.5519 -33.5200 -33.4558 -33.4548 -33.4341
   -33.4271 -33.4243 -33.3781 -33.3772 -33.3738 -33.3556 -33.3511 -33.3308
   -33.3072 -33.3013 -33.2745 -33.2680 -33.2427 -33.1352 -33.1307 -33.0755
   -33.0300 -32.9286 -32.6994 -32.6319 -32.6058 -32.5034 -32.4117 -32.3034
   -23.9599 -20.7654 -18.1703 -17.9707 -17.7455 -17.6245 -17.4899 -17.4883
   -17.2072 -17.1876 -17.1403 -17.0495 -17.0454 -17.0056 -16.9875 -16.9152
   -16.8652 -16.8568 -16.8395 -16.7946 -16.7326 -16.6852 -16.5685 -16.5448
   -16.5140 -16.5116 -16.4168 -16.3071 -16.2705 -16.2384 -16.0992 -16.0685
   -14.8632 -14.7784  -9.7953  -7.3257  -7.3180  -6.0346  -5.5624  -5.5068
    -5.3560  -5.3470  -5.2900  -4.9902  -4.9333  -4.5824  -4.5795  -4.5436
    -4.5337  -4.4856  -4.3631  -4.2657  -4.2169  -4.1995  -4.1648  -4.1633
    -4.1560  -4.1497  -4.0860  -4.0818  -4.0053  -3.9853  -3.9508  -3.9075
    -3.8760  -3.8047  -3.7674  -3.7442  -3.7145  -3.6393  -3.6176  -3.5422
    -3.5397  -3.5138  -3.4430  -3.3278  -3.1971  -3.1613  -3.0566  -3.0007
    -2.9551  -2.8726  -2.8098  -2.7979  -2.7377  -2.7355  -2.7209  -2.5919
    -2.5556  -2.5020  -2.4269  -2.3922  -2.3666  -2.3442  -2.3158  -2.2769
    -2.2671  -2.2400  -2.2032  -2.1711  -2.1547  -2.0417  -1.9837  -1.8876
    -1.7448  -1.7421  -1.7148  -1.6726  -1.6474  -1.6360  -1.5594  -1.5379
    -1.4376  -1.4279  -1.4024  -1.3934  -1.3731  -1.2782  -1.2271  -1.2175
    -1.1937  -1.1270  -1.0665  -1.0115  -0.9121  -0.7389  -0.7095  -0.7046
    -0.6412  -0.5143  -0.3678  -0.2309  -0.1673  -0.0042   0.1224   0.1375
     1.5235   1.5526   1.8379   1.8750   1.8857   1.9067   2.0754   2.0935
     2.1285   2.2455   2.3643   2.3776   2.4119   2.4317   2.4691   2.4807
     2.5300   2.5684   2.5726   2.6524   2.6759   2.6837   2.7646   2.8148
     2.8721   2.9008   2.9915   3.0003   3.0013   3.0244   3.0703   3.0879
     3.0970   3.1025   3.1103   3.1438   3.2431   3.2648   3.3022   3.3110
     3.3620   3.3881   3.4234   3.5377   3.5396   3.6773   3.8839   3.9859
     3.9949   4.0473   4.0677   4.1872   4.2571   4.4640   4.5378   4.6644
     4.9140   4.9276   5.0167   5.1298   5.2105   5.3940   5.3999   5.4285
     5.5015   5.5845   5.6376   5.6420   5.7204   5.7381   5.7439   5.7486
     5.9263   5.9601   6.0155   6.0246   6.1038   6.1478   6.2018   6.2248
     6.4814   6.6097   6.7695   6.7848   6.8604   6.8854   7.1679   7.2791
     7.9076   7.9927   8.1653   8.3963   8.7063   8.9125   8.9258   8.9540
     9.2010   9.2543   9.2875   9.3508

          k = 0.0000 0.0280 0.0000 ( 34717 PWs)   bands (ev):

   -57.8161 -57.7858 -57.5052 -57.4531 -57.3812 -57.3495 -57.2711 -57.2405
   -57.1732 -57.1426 -57.1091 -57.0784 -56.8726 -56.8041 -56.2784 -56.2478
   -34.2294 -34.0975 -34.0729 -34.0279 -34.0138 -33.9322 -33.8920 -33.8348
   -33.8143 -33.7426 -33.7289 -33.7201 -33.7116 -33.6823 -33.6667 -33.6636
   -33.6414 -33.6097 -33.6071 -33.5449 -33.5286 -33.4813 -33.4527 -33.4438
   -33.4289 -33.4183 -33.4009 -33.3731 -33.3545 -33.3520 -33.3498 -33.3372
   -33.3072 -33.3064 -33.2994 -33.2698 -33.2682 -33.1347 -33.1276 -33.0761
   -33.0344 -32.9569 -32.6738 -32.6302 -32.6077 -32.4973 -32.4179 -32.3309
   -23.9598 -20.7653 -18.1087 -17.9127 -17.6926 -17.5712 -17.4687 -17.4416
   -17.2232 -17.1839 -17.1573 -17.1160 -17.0508 -17.0018 -16.9732 -16.9010
   -16.8912 -16.8398 -16.8247 -16.7960 -16.7633 -16.7427 -16.5928 -16.5412
   -16.5145 -16.4935 -16.4464 -16.3032 -16.2882 -16.2557 -16.1242 -16.1114
   -14.8730 -14.8017  -9.7951  -7.3272  -7.3178  -6.0335  -5.4743  -5.4226
    -5.2780  -5.2676  -5.2127  -4.8725  -4.8582  -4.6063  -4.5774  -4.5108
    -4.4830  -4.4480  -4.3114  -4.2885  -4.2822  -4.2351  -4.2281  -4.1886
    -4.1509  -4.1381  -4.1042  -4.0921  -4.0715  -4.0530  -4.0037  -3.9818
    -3.9260  -3.9194  -3.8575  -3.7996  -3.7320  -3.7170  -3.6950  -3.5611
    -3.4813  -3.4647  -3.3731  -3.3091  -3.1240  -3.0762  -2.9843  -2.9520
    -2.8263  -2.7872  -2.7517  -2.7453  -2.6645  -2.6332  -2.6290  -2.6096
    -2.5640  -2.5533  -2.5127  -2.4468  -2.4098  -2.3372  -2.3163  -2.2755
    -2.2286  -2.2056  -2.1900  -2.1148  -2.0444  -2.0114  -1.9350  -1.8638
    -1.8341  -1.8113  -1.7832  -1.7603  -1.6941  -1.6684  -1.6256  -1.5898
    -1.5524  -1.4885  -1.4548  -1.4040  -1.3828  -1.3508  -1.2708  -1.2315
    -1.1823  -1.1484  -1.0621  -1.0273  -0.9411  -0.9081  -0.8406  -0.7547
    -0.7261  -0.5293  -0.4083  -0.2228  -0.2201   0.0066   0.0769   0.1019
     1.6092   1.6560   1.8664   1.8776   1.9314   2.0067   2.0527   2.1203
     2.1769   2.2736   2.3258   2.3804   2.3836   2.4473   2.4571   2.4877
     2.5164   2.5321   2.5956   2.6026   2.6803   2.7308   2.7765   2.7896
     2.8322   2.8808   2.9446   2.9623   2.9928   3.0240   3.0502   3.0768
     3.0994   3.1085   3.1934   3.2035   3.2590   3.3127   3.3328   3.3860
     3.4211   3.4737   3.5082   3.5117   3.5732   3.6438   3.8342   3.9521
     3.9919   4.0588   4.1383   4.1662   4.1889   4.4069   4.5966   4.7624
     4.9204   5.0065   5.1148   5.1904   5.2147   5.4125   5.4362   5.4833
     5.4955   5.5703   5.6016   5.6274   5.6780   5.7014   5.7402   5.8260
     5.8523   5.9361   5.9817   6.0204   6.0239   6.0321   6.1219   6.2863
     6.4574   6.5417   6.7170   6.7938   6.8109   6.8199   7.0733   7.3694
     7.6790   7.9840   8.1018   8.2938   8.4124   8.6867   8.9550   9.0248
     9.0779   9.2965   9.3535   9.4050

          k = 0.0000 0.0560 0.0000 ( 34721 PWs)   bands (ev):

   -57.8097 -57.7923 -57.5019 -57.4565 -57.3750 -57.3557 -57.2647 -57.2470
   -57.1668 -57.1490 -57.1027 -57.0849 -56.8699 -56.8068 -56.2719 -56.2543
   -34.1597 -34.0923 -34.0779 -33.9967 -33.9649 -33.9573 -33.9496 -33.7983
   -33.7687 -33.7586 -33.7442 -33.7093 -33.6987 -33.6859 -33.6689 -33.6662
   -33.5896 -33.5715 -33.5689 -33.5411 -33.5323 -33.5254 -33.4742 -33.4678
   -33.4473 -33.4336 -33.4019 -33.3758 -33.3687 -33.3549 -33.3522 -33.3481
   -33.3339 -33.3195 -33.2976 -33.2941 -33.2582 -33.1339 -33.1238 -33.0773
   -33.0478 -33.0247 -32.6254 -32.6124 -32.6030 -32.4808 -32.4348 -32.4051
   -23.9598 -20.7651 -17.9372 -17.7527 -17.5530 -17.4415 -17.4215 -17.4162
   -17.3135 -17.2877 -17.1741 -17.0745 -17.0685 -17.0411 -17.0172 -16.9754
   -16.8611 -16.8576 -16.8470 -16.8096 -16.7463 -16.6779 -16.6580 -16.6169
   -16.5271 -16.4668 -16.4421 -16.3250 -16.3167 -16.2742 -16.2361 -16.1741
   -14.8907 -14.8520  -9.7949  -7.3303  -7.3173  -6.0316  -5.2314  -5.1873
    -5.0704  -5.0390  -5.0042  -4.7308  -4.6590  -4.6213  -4.5457  -4.5373
    -4.5090  -4.4925  -4.4623  -4.3864  -4.3543  -4.3470  -4.3231  -4.3183
    -4.2513  -4.2139  -4.1919  -4.1408  -4.1271  -4.0909  -4.0640  -4.0127
    -3.9509  -3.9221  -3.8522  -3.7785  -3.7211  -3.6000  -3.5718  -3.4766
    -3.4156  -3.3808  -3.3602  -3.2653  -3.1657  -3.0198  -2.9717  -2.9574
    -2.9393  -2.8746  -2.7771  -2.7263  -2.6789  -2.6419  -2.5977  -2.4618
    -2.4506  -2.4410  -2.4074  -2.3823  -2.3332  -2.2938  -2.2721  -2.2704
    -2.1975  -2.1755  -2.0944  -2.0612  -2.0351  -2.0326  -2.0024  -1.9752
    -1.9336  -1.8969  -1.8609  -1.7774  -1.7039  -1.6765  -1.6629  -1.6502
    -1.6349  -1.5658  -1.5114  -1.4972  -1.4745  -1.4372  -1.3654  -1.3518
    -1.2770  -1.2358  -1.1621  -1.1330  -1.0580  -0.9923  -0.9240  -0.8920
    -0.7944  -0.7092  -0.5920  -0.3880  -0.0392   0.0172   0.0480   0.0511
     1.7459   1.8928   1.9084   1.9879   2.0203   2.0625   2.1397   2.2064
     2.2272   2.2631   2.2679   2.2802   2.3090   2.3604   2.3830   2.5163
     2.5283   2.5616   2.5956   2.6526   2.6730   2.7432   2.7602   2.8057
     2.8104   2.8319   2.8535   2.9470   2.9664   3.0163   3.0885   3.1007
     3.1157   3.1773   3.1961   3.2257   3.3262   3.3638   3.4133   3.4220
     3.4933   3.5616   3.6227   3.6734   3.6914   3.7275   3.7465   3.8564
     3.9884   4.0003   4.0168   4.1036   4.2421   4.3326   4.7229   4.8504
     5.0379   5.1664   5.2570   5.3060   5.3359   5.3929   5.4073   5.4814
     5.5313   5.6021   5.6167   5.6246   5.6490   5.6962   5.7327   5.7459
     5.7607   5.7953   5.8361   5.9009   5.9794   6.0277   6.1881   6.2959
     6.3583   6.4036   6.6205   6.6485   6.6537   6.9018   7.0048   7.2465
     7.2732   7.6679   7.7594   8.2666   8.4272   8.5981   8.8966   9.0372
     9.1522   9.3509   9.4449   9.5791

          k = 0.0000-0.0840 0.0000 ( 34678 PWs)   bands (ev):

   -57.8010 -57.8010 -57.5000 -57.4584 -57.3693 -57.3615 -57.2559 -57.2558
   -57.1593 -57.1565 -57.0948 -57.0928 -56.8685 -56.8083 -56.2631 -56.2631
   -34.0851 -34.0851 -34.0630 -34.0630 -33.9732 -33.9732 -33.8743 -33.8420
   -33.7812 -33.7627 -33.7108 -33.7043 -33.6887 -33.6721 -33.6650 -33.6533
   -33.5726 -33.5725 -33.5669 -33.5597 -33.4978 -33.4973 -33.4756 -33.4732
   -33.4501 -33.4424 -33.4404 -33.4401 -33.3795 -33.3772 -33.3508 -33.3477
   -33.3376 -33.3357 -33.2911 -33.2893 -33.1894 -33.1564 -33.1307 -33.0805
   -33.0773 -33.0449 -32.6189 -32.6189 -32.5050 -32.5050 -32.4578 -32.4578
   -23.9597 -20.7649 -17.6991 -17.6877 -17.5320 -17.5312 -17.4151 -17.3953
   -17.2405 -17.2326 -17.1735 -17.1730 -17.1384 -17.1351 -16.9610 -16.9609
   -16.9368 -16.9328 -16.7839 -16.7402 -16.7198 -16.7086 -16.6405 -16.6337
   -16.5450 -16.5033 -16.3736 -16.3720 -16.3257 -16.3246 -16.2424 -16.2410
   -14.8888 -14.8888  -9.7948  -7.3318  -7.3170  -6.0306  -4.9202  -4.9170
    -4.8543  -4.8542  -4.8026  -4.7857  -4.7606  -4.7533  -4.7205  -4.6903
    -4.5231  -4.5047  -4.4907  -4.4886  -4.4200  -4.4184  -4.4138  -4.4111
    -4.2561  -4.2163  -4.1531  -4.1513  -4.1401  -4.1186  -4.0035  -3.9481
    -3.9472  -3.9110  -3.8367  -3.7928  -3.6509  -3.6105  -3.4589  -3.4475
    -3.2976  -3.2862  -3.2346  -3.1466  -3.1307  -3.0968  -2.9653  -2.9443
    -2.9396  -2.8796  -2.8550  -2.8140  -2.7083  -2.6827  -2.6600  -2.6447
    -2.6204  -2.6107  -2.5672  -2.4502  -2.4293  -2.4033  -2.1520  -2.1199
    -2.0943  -2.0358  -2.0067  -1.9746  -1.9293  -1.9288  -1.9223  -1.8743
    -1.8660  -1.8597  -1.8426  -1.7863  -1.7720  -1.7048  -1.6269  -1.6264
    -1.5844  -1.5656  -1.5525  -1.5501  -1.5420  -1.5370  -1.5157  -1.4148
    -1.3670  -1.2580  -1.2456  -1.2181  -1.1246  -1.1196  -1.0952  -1.0909
    -0.6779  -0.6328  -0.5919  -0.5890   0.0168   0.0172   0.0538   0.0541
     1.9114   1.9150   2.0133   2.0175   2.1034   2.1037   2.1105   2.1341
     2.2256   2.2257   2.2322   2.2475   2.3444   2.3867   2.4343   2.4371
     2.5292   2.5340   2.5943   2.5975   2.6069   2.7530   2.7660   2.8279
     2.8347   2.8707   2.9107   2.9521   2.9787   2.9999   3.0553   3.0729
     3.0806   3.2038   3.2586   3.3279   3.3343   3.3354   3.3372   3.4230
     3.6239   3.6269   3.6934   3.7061   3.7347   3.7921   3.7934   3.8763
     3.9264   3.9286   3.9921   3.9925   4.1366   4.4224   4.7981   4.8216
     5.1562   5.1786   5.2933   5.3285   5.3866   5.3867   5.4974   5.5248
     5.5567   5.5739   5.5920   5.6456   5.6641   5.6804   5.7095   5.7096
     5.7548   5.8212   5.8376   5.8538   5.9897   6.0050   6.0417   6.0666
     6.4196   6.4226   6.5564   6.5815   6.8224   6.8539   6.9340   6.9727
     7.2065   7.4948   7.5679   8.1951   8.3285   8.6631   9.0431   9.1191
     9.3613   9.4274   9.6153   9.6671

          k = 0.0253 0.0000 0.0000 ( 34707 PWs)   bands (ev):

   -57.8184 -57.7835 -57.5067 -57.4516 -57.3835 -57.3472 -57.2734 -57.2381
   -57.1755 -57.1402 -57.1114 -57.0761 -56.8738 -56.8028 -56.2807 -56.2454
   -34.2551 -34.0996 -34.0710 -34.0538 -34.0193 -33.9257 -33.8650 -33.8606
   -33.8207 -33.7683 -33.7259 -33.7153 -33.7115 -33.6829 -33.6737 -33.6671
   -33.6432 -33.6199 -33.6118 -33.5463 -33.5204 -33.4558 -33.4547 -33.4338
   -33.4271 -33.4244 -33.3806 -33.3776 -33.3737 -33.3610 -33.3499 -33.3308
   -33.3072 -33.3012 -33.2747 -33.2680 -33.2428 -33.1363 -33.1308 -33.0755
   -33.0301 -32.9287 -32.6994 -32.6329 -32.6053 -32.5034 -32.4117 -32.3035
   -23.9599 -20.7653 -18.1420 -17.9292 -17.7049 -17.5867 -17.4890 -17.4852
   -17.2656 -17.2262 -17.1395 -17.0561 -17.0490 -17.0398 -17.0126 -16.9569
   -16.9123 -16.8921 -16.8168 -16.7846 -16.6983 -16.6035 -16.6016 -16.5204
   -16.5141 -16.5132 -16.4597 -16.3075 -16.2609 -16.2390 -16.0986 -16.0686
   -14.8620 -14.7783  -9.7944  -7.3259  -7.3178  -6.0339  -5.5319  -5.3912
    -5.2471  -5.2334  -5.1826  -4.9819  -4.9319  -4.7758  -4.5759  -4.5636
    -4.5099  -4.4874  -4.4391  -4.4329  -4.3301  -4.1929  -4.1823  -4.1598
    -4.0884  -4.0709  -4.0659  -3.9819  -3.9652  -3.9321  -3.8720  -3.8378
    -3.8280  -3.8075  -3.7688  -3.7252  -3.6960  -3.6158  -3.5762  -3.4874
    -3.4530  -3.4188  -3.3310  -3.2552  -3.2126  -3.1503  -3.1329  -3.0336
    -3.0163  -2.9199  -2.8846  -2.7855  -2.7507  -2.7201  -2.6957  -2.6706
    -2.6465  -2.6040  -2.4970  -2.4815  -2.4453  -2.3679  -2.3528  -2.3119
    -2.2470  -2.2090  -2.2041  -2.1116  -2.0928  -2.0243  -1.9262  -1.8862
    -1.7959  -1.7730  -1.7464  -1.7201  -1.6977  -1.6261  -1.6048  -1.4913
    -1.4806  -1.4690  -1.4250  -1.3971  -1.3588  -1.3334  -1.2656  -1.2512
    -1.2235  -1.1120  -1.0903  -0.9882  -0.9543  -0.8945  -0.8058  -0.7669
    -0.6882  -0.5584  -0.3623  -0.2578  -0.1982  -0.0183   0.0799   0.0808
     1.5409   1.6078   1.8848   1.9052   1.9982   2.0147   2.0637   2.1408
     2.2228   2.2514   2.3227   2.3300   2.3746   2.4223   2.4397   2.4573
     2.4697   2.5409   2.5412   2.6077   2.6326   2.6812   2.7127   2.8336
     2.8506   2.9053   3.0019   3.0078   3.0163   3.0837   3.0938   3.1029
     3.1526   3.1971   3.2100   3.2483   3.2703   3.3031   3.3397   3.3927
     3.4000   3.4397   3.4692   3.5014   3.6002   3.6230   3.8145   3.8940
     4.0417   4.0701   4.0770   4.1770   4.2420   4.4173   4.6432   4.6904
     4.7746   4.9357   4.9460   4.9965   5.0164   5.0445   5.2235   5.4985
     5.5721   5.6468   5.7361   5.7460   5.7889   5.8374   5.9418   5.9559
     5.9794   6.0412   6.0460   6.0771   6.1406   6.1551   6.2427   6.3207
     6.4957   6.6249   6.7260   6.7860   6.8167   6.8893   7.1678   7.2775
     7.4802   8.0357   8.1457   8.3461   8.4001   8.7570   8.8269   8.9253
     8.9805   9.2468   9.2942   9.4238

          k = 0.0253 0.0280 0.0000 ( 34687 PWs)   bands (ev):

   -57.8161 -57.7858 -57.5052 -57.4531 -57.3812 -57.3495 -57.2711 -57.2405
   -57.1732 -57.1426 -57.1091 -57.0784 -56.8726 -56.8041 -56.2784 -56.2478
   -34.2297 -34.0976 -34.0729 -34.0280 -34.0131 -33.9321 -33.8920 -33.8354
   -33.8144 -33.7439 -33.7289 -33.7198 -33.7105 -33.6827 -33.6704 -33.6667
[...]
    -2.6628  -2.6213  -2.6149  -2.6073  -2.5672  -2.5309  -2.4984  -2.4828
    -2.4821  -2.4153  -2.3748  -2.3587  -2.3267  -2.2966  -2.2465  -2.2434
    -2.2274  -2.1390  -2.1359  -2.1328  -2.0081  -1.9669  -1.8183  -1.7889
    -1.7279  -1.6803  -1.4259  -1.3777  -1.3190  -1.3176  -1.1576  -1.1462
    -1.1391  -1.1357  -1.1102  -1.0811  -1.0346  -0.8914  -0.8830  -0.7583
    -0.7422  -0.7289  -0.6600  -0.6585  -0.0588  -0.0588   0.0788   0.0791
     1.9953   2.0072   2.0501   2.0572   2.0788   2.0818   2.0946   2.0974
     2.3639   2.3752   2.3820   2.3978   2.4590   2.4648   2.5297   2.5432
     2.5645   2.5650   2.6101   2.6587   2.7309   2.8426   2.8557   2.8737
     2.8845   2.9615   3.0371   3.1101   3.1164   3.1692   3.1999   3.2610
     3.2653   3.2922   3.3404   3.3680   3.4023   3.4055   3.4496   3.4734
     3.5668   3.5808   3.6770   3.7374   3.8011   3.8213   3.8222   3.8253
     3.9540   3.9590   3.9786   3.9786   4.2975   4.5625   4.6648   4.6653
     4.7223   4.7447   4.7822   4.7891   4.7910   4.8149   5.0855   5.1122
     5.2366   5.2691   5.6291   5.6386   5.8176   5.8317   5.9504   6.0490
     6.1289   6.2158   6.2225   6.2439   6.2618   6.4243   6.4833   6.5357
     6.5372   6.5456   6.7134   6.7142   6.7673   6.7687   7.0264   7.0362
     7.6275   7.6353   7.7855   7.8052   8.0395   8.0679   8.2464   8.3963
     8.4822   8.5434   8.6827   9.1759

          k =-0.0253 0.0280 0.0000 ( 34687 PWs)   bands (ev):

   -57.8161 -57.7858 -57.5053 -57.4531 -57.3812 -57.3495 -57.2711 -57.2405
   -57.1732 -57.1426 -57.1092 -57.0785 -56.8727 -56.8042 -56.2785 -56.2480
   -34.2298 -34.0976 -34.0729 -34.0280 -34.0131 -33.9321 -33.8920 -33.8354
   -33.8144 -33.7440 -33.7289 -33.7199 -33.7105 -33.6828 -33.6705 -33.6667
   -33.6418 -33.6055 -33.6008 -33.5395 -33.5288 -33.4814 -33.4526 -33.4425
   -33.4290 -33.4184 -33.4018 -33.3763 -33.3589 -33.3518 -33.3493 -33.3372
   -33.3073 -33.3064 -33.2994 -33.2698 -33.2682 -33.1357 -33.1278 -33.0763
   -33.0345 -32.9570 -32.6738 -32.6312 -32.6073 -32.4975 -32.4181 -32.3311
   -23.9598 -20.7652 -18.0817 -17.8722 -17.6534 -17.5348 -17.4681 -17.4363
   -17.2498 -17.2260 -17.1998 -17.0794 -17.0542 -17.0356 -16.9843 -16.9491
   -16.9202 -16.8528 -16.8355 -16.8201 -16.7416 -16.6547 -16.6235 -16.5461
   -16.5037 -16.4909 -16.4768 -16.3029 -16.2790 -16.2561 -16.1237 -16.1117
   -14.8718 -14.8014  -9.7943  -7.3274  -7.3175  -6.0329  -5.4474  -5.3063
    -5.1667  -5.1543  -5.1045  -4.8676  -4.8564  -4.7231  -4.5621  -4.5171
    -4.4705  -4.4390  -4.4096  -4.3504  -4.3175  -4.2799  -4.2203  -4.1901
    -4.1472  -4.1176  -4.0859  -4.0685  -4.0269  -3.9686  -3.9553  -3.9245
    -3.9092  -3.8515  -3.8413  -3.7514  -3.7314  -3.6765  -3.6701  -3.4744
    -3.4451  -3.3789  -3.3325  -3.2771  -3.1576  -3.0985  -3.0616  -2.9286
    -2.8438  -2.8176  -2.7934  -2.7823  -2.7449  -2.6690  -2.6252  -2.6050
    -2.5870  -2.5689  -2.5420  -2.5084  -2.4514  -2.3849  -2.3444  -2.3203
    -2.2558  -2.2409  -2.1879  -2.0897  -2.0556  -2.0258  -1.9868  -1.9052
    -1.8653  -1.8452  -1.7847  -1.7547  -1.7341  -1.7099  -1.6559  -1.6166
    -1.5565  -1.4997  -1.4765  -1.4526  -1.4106  -1.3695  -1.3189  -1.2263
    -1.2015  -1.1945  -1.0491  -0.9884  -0.9683  -0.9043  -0.8817  -0.8616
    -0.7788  -0.5688  -0.4193  -0.2756  -0.2139   0.0113   0.0531   0.0621
     1.6023   1.7289   1.8976   1.9108   2.0259   2.0441   2.1428   2.1795
     2.2417   2.2829   2.3196   2.3319   2.3851   2.3975   2.4136   2.4363
     2.5127   2.5450   2.5784   2.6076   2.6306   2.6406   2.7765   2.8141
     2.8546   2.8956   2.9813   2.9900   2.9994   3.0049   3.0599   3.0945
     3.1767   3.2279   3.2650   3.2727   3.3045   3.3129   3.3776   3.4168
     3.4666   3.4928   3.5209   3.5376   3.5869   3.6338   3.7699   3.8934
     4.0229   4.0534   4.0972   4.1724   4.2270   4.3667   4.6882   4.7734
     4.8290   4.9444   4.9905   5.0347   5.0451   5.1104   5.2731   5.5298
     5.5681   5.6020   5.6541   5.7324   5.7434   5.8239   5.8908   5.9298
     5.9566   6.0010   6.0249   6.0359   6.0559   6.0865   6.3005   6.3120
     6.4772   6.5500   6.7344   6.7681   6.8053   6.8198   7.0647   7.3114
     7.5213   8.0167   8.1248   8.1861   8.2974   8.5259   8.5692   8.8285
     9.0181   9.2670   9.4051   9.4784

          k =-0.0253 0.0560 0.0000 ( 34699 PWs)   bands (ev):

   -57.8097 -57.7923 -57.5019 -57.4565 -57.3751 -57.3557 -57.2647 -57.2470
   -57.1668 -57.1490 -57.1027 -57.0850 -56.8700 -56.8069 -56.2721 -56.2544
   -34.1599 -34.0923 -34.0780 -33.9962 -33.9650 -33.9574 -33.9494 -33.7984
   -33.7691 -33.7588 -33.7443 -33.7086 -33.6987 -33.6862 -33.6705 -33.6675
   -33.5883 -33.5720 -33.5691 -33.5376 -33.5321 -33.5211 -33.4750 -33.4646
   -33.4473 -33.4337 -33.4019 -33.3760 -33.3707 -33.3555 -33.3550 -33.3492
   -33.3341 -33.3201 -33.2976 -33.2941 -33.2583 -33.1346 -33.1240 -33.0778
   -33.0480 -33.0247 -32.6262 -32.6123 -32.6030 -32.4809 -32.4350 -32.4052
   -23.9598 -20.7649 -17.9146 -17.7156 -17.5199 -17.4352 -17.4133 -17.3925
   -17.3041 -17.2904 -17.1779 -17.1173 -17.0751 -17.0264 -17.0023 -16.9846
   -16.8951 -16.8857 -16.8549 -16.8004 -16.7676 -16.7289 -16.6771 -16.5884
   -16.5703 -16.4613 -16.4277 -16.3182 -16.3143 -16.2752 -16.2367 -16.1736
   -14.8898 -14.8519  -9.7940  -7.3304  -7.3170  -6.0311  -5.2162  -5.0719
    -4.9563  -4.9293  -4.8983  -4.7247  -4.6586  -4.6418  -4.5252  -4.5194
    -4.4966  -4.4880  -4.3892  -4.3494  -4.3430  -4.3110  -4.2787  -4.2646
    -4.2206  -4.2056  -4.1843  -4.1500  -4.0814  -4.0704  -4.0571  -4.0028
    -3.9675  -3.9097  -3.8411  -3.8031  -3.7192  -3.6249  -3.5394  -3.4656
    -3.4244  -3.4061  -3.3687  -3.2005  -3.1653  -3.0334  -2.9849  -2.9655
    -2.9367  -2.8638  -2.7888  -2.7593  -2.7044  -2.6628  -2.6215  -2.5744
    -2.5501  -2.5066  -2.4652  -2.4496  -2.4040  -2.3882  -2.3053  -2.2658
    -2.2490  -2.2192  -2.1643  -2.1301  -2.0827  -2.0725  -2.0025  -1.9883
    -1.9421  -1.9211  -1.8675  -1.8312  -1.8110  -1.7706  -1.7155  -1.6864
    -1.6534  -1.5783  -1.5602  -1.4829  -1.4600  -1.4128  -1.3733  -1.3361
    -1.2528  -1.2237  -1.1526  -1.0849  -1.0623  -0.9624  -0.9387  -0.8712
    -0.8159  -0.7290  -0.5974  -0.3996  -0.0376   0.0033   0.0284   0.0515
     1.7422   1.9197   1.9332   2.0561   2.0626   2.0889   2.1747   2.1832
     2.2569   2.2750   2.2982   2.3133   2.3563   2.4004   2.4307   2.5129
     2.5630   2.5835   2.6069   2.6538   2.6712   2.6888   2.7504   2.7911
     2.8122   2.8268   2.8760   2.8856   2.9955   3.0628   3.1275   3.1473
     3.2054   3.2146   3.2471   3.2781   3.3261   3.3581   3.4111   3.4401
     3.5046   3.5352   3.6434   3.6716   3.7054   3.7388   3.7598   3.8288
     3.9453   3.9812   4.0173   4.1431   4.2118   4.3759   4.7813   4.8533
     4.9972   5.0301   5.1060   5.1229   5.1464   5.2246   5.3329   5.4299
     5.4484   5.5084   5.6032   5.6330   5.7235   5.7369   5.7998   5.8307
     5.8827   5.9108   5.9577   6.0191   6.0474   6.2187   6.2528   6.3558
     6.3957   6.4404   6.6371   6.6576   6.6639   6.9044   7.0205   7.2364
     7.2917   7.6962   7.8293   8.0264   8.3602   8.5571   8.6263   8.8977
     9.0267   9.0592   9.2722   9.3869

          k =-0.0506 0.0280 0.0000 ( 34685 PWs)   bands (ev):

   -57.8161 -57.7858 -57.5053 -57.4531 -57.3812 -57.3495 -57.2711 -57.2405
   -57.1733 -57.1426 -57.1092 -57.0785 -56.8727 -56.8042 -56.2785 -56.2480
   -34.2304 -34.0976 -34.0729 -34.0282 -34.0117 -33.9321 -33.8920 -33.8367
   -33.8144 -33.7467 -33.7289 -33.7195 -33.7096 -33.6845 -33.6773 -33.6667
   -33.6426 -33.6020 -33.5873 -33.5292 -33.5274 -33.4816 -33.4524 -33.4400
   -33.4289 -33.4186 -33.4048 -33.3828 -33.3682 -33.3510 -33.3478 -33.3372
   -33.3073 -33.3066 -33.2995 -33.2698 -33.2681 -33.1377 -33.1279 -33.0764
   -33.0345 -32.9570 -32.6737 -32.6331 -32.6063 -32.4975 -32.4181 -32.3311
   -23.9598 -20.7649 -18.0230 -17.7736 -17.5596 -17.4719 -17.4667 -17.3929
   -17.3361 -17.2510 -17.2350 -17.1078 -17.0852 -17.0568 -17.0532 -16.9954
   -16.9770 -16.9631 -16.8655 -16.7554 -16.7123 -16.6646 -16.5810 -16.5642
   -16.5365 -16.4837 -16.4562 -16.3017 -16.2677 -16.2572 -16.1236 -16.1126
   -14.8698 -14.8015  -9.7926  -7.3277  -7.3171  -6.0319  -5.4309  -5.0127
    -4.9385  -4.9276  -4.8565  -4.8332  -4.8121  -4.7727  -4.6367  -4.5731
    -4.5574  -4.5033  -4.4459  -4.3533  -4.3063  -4.2198  -4.1687  -4.1488
    -4.1307  -4.1210  -4.0491  -4.0059  -3.9731  -3.9454  -3.9037  -3.8802
    -3.8597  -3.8240  -3.7760  -3.7184  -3.6999  -3.5826  -3.4462  -3.4101
    -3.3863  -3.3301  -3.2996  -3.2497  -3.1802  -3.0978  -3.0533  -2.9985
    -2.9351  -2.9069  -2.8624  -2.8520  -2.7998  -2.7461  -2.7308  -2.6781
    -2.6359  -2.6118  -2.5817  -2.5344  -2.4953  -2.4700  -2.4229  -2.3995
    -2.3348  -2.3038  -2.2223  -2.1930  -2.1288  -2.0991  -2.0859  -2.0420
    -1.9885  -1.9284  -1.8995  -1.8691  -1.8409  -1.7724  -1.6873  -1.6327
    -1.5946  -1.5636  -1.4891  -1.4623  -1.4203  -1.3997  -1.3151  -1.2597
    -1.1775  -1.1413  -1.0263  -1.0178  -0.9463  -0.9204  -0.8898  -0.8510
    -0.8132  -0.6495  -0.4503  -0.3959  -0.2008  -0.0179   0.0128   0.0264
     1.5868   1.7930   1.9275   1.9431   1.9637   2.0387   2.0734   2.1509
     2.2472   2.2620   2.3039   2.3636   2.4130   2.4551   2.4564   2.5246
     2.5393   2.5720   2.6067   2.6229   2.6711   2.7701   2.8269   2.8339
     2.8752   2.9280   2.9524   3.0154   3.0242   3.0692   3.1439   3.1656
     3.2369   3.2636   3.2887   3.3143   3.3771   3.3971   3.4457   3.4797
     3.5010   3.5331   3.5478   3.5893   3.6401   3.6911   3.7421   3.8290
     3.9349   4.0327   4.1391   4.1504   4.2860   4.3551   4.5312   4.6378
     4.6614   4.6871   4.8549   4.9004   5.0016   5.3165   5.3520   5.4754
     5.5185   5.5800   5.6620   5.7145   5.7408   5.7558   5.8857   5.9312
     5.9838   6.0266   6.2436   6.2727   6.3045   6.3749   6.4352   6.5070
     6.5462   6.5998   6.6900   6.7273   6.8294   6.9002   7.0309   7.0652
     7.4129   7.6835   7.8033   8.0829   8.2977   8.3694   8.5212   8.9243
     9.0799   9.1600   9.3576   9.4614

          k =-0.0506 0.0560 0.0000 ( 34596 PWs)   bands (ev):

   -57.8097 -57.7923 -57.5019 -57.4565 -57.3751 -57.3557 -57.2646 -57.2470
   -57.1669 -57.1490 -57.1027 -57.0850 -56.8701 -56.8069 -56.2721 -56.2544
   -34.1605 -34.0923 -34.0779 -33.9950 -33.9652 -33.9575 -33.9490 -33.7984
   -33.7698 -33.7592 -33.7443 -33.7074 -33.6986 -33.6868 -33.6729 -33.6697
   -33.5855 -33.5731 -33.5693 -33.5317 -33.5308 -33.5108 -33.4777 -33.4584
   -33.4472 -33.4336 -33.4020 -33.3761 -33.3743 -33.3629 -33.3550 -33.3512
   -33.3343 -33.3214 -33.2976 -33.2939 -33.2580 -33.1358 -33.1242 -33.0784
   -33.0479 -33.0246 -32.6273 -32.6119 -32.6029 -32.4809 -32.4350 -32.4051
   -23.9597 -20.7647 -17.8661 -17.6225 -17.4453 -17.4240 -17.4064 -17.3344
   -17.2962 -17.2614 -17.1907 -17.1587 -17.0864 -17.0673 -17.0011 -16.9806
   -16.9784 -16.9095 -16.8999 -16.8415 -16.7952 -16.7686 -16.7016 -16.6559
   -16.5565 -16.4508 -16.4087 -16.3087 -16.3085 -16.2780 -16.2382 -16.1731
   -14.8885 -14.8523  -9.7923  -7.3306  -7.3166  -6.0302  -5.2081  -4.7781
    -4.7264  -4.7163  -4.6801  -4.6423  -4.6318  -4.5951  -4.4882  -4.4718
    -4.4466  -4.4319  -4.3404  -4.2859  -4.2714  -4.2648  -4.2227  -4.2022
    -4.1797  -4.1655  -4.1521  -4.1269  -4.0724  -4.0352  -4.0238  -3.9945
    -3.9391  -3.8793  -3.8137  -3.7786  -3.6748  -3.6471  -3.5048  -3.4777
    -3.4588  -3.3920  -3.3727  -3.1941  -3.1097  -3.0701  -3.0205  -2.9794
    -2.9526  -2.9047  -2.8840  -2.8501  -2.8008  -2.7596  -2.7064  -2.7005
    -2.6233  -2.6119  -2.5815  -2.5053  -2.4767  -2.4571  -2.4398  -2.4151
    -2.3915  -2.3478  -2.2800  -2.2684  -2.2434  -2.2190  -2.1686  -2.1526
    -2.0838  -2.0461  -2.0137  -1.9704  -1.9271  -1.8479  -1.7779  -1.7636
    -1.6953  -1.5958  -1.5207  -1.4741  -1.4410  -1.3636  -1.3256  -1.2174
    -1.1681  -1.1294  -1.0859  -1.0195  -0.9790  -0.9161  -0.9029  -0.8290
    -0.7935  -0.7786  -0.6518  -0.4592  -0.0493  -0.0122   0.0012   0.0573
     1.7451   1.9437   1.9621   2.0253   2.0807   2.1196   2.1304   2.1838
     2.2306   2.2767   2.3925   2.4294   2.4370   2.4646   2.4829   2.5087
     2.5968   2.6107   2.6391   2.6560   2.6750   2.7290   2.7994   2.8296
     2.8995   2.9133   2.9524   2.9833   3.0322   3.0710   3.1961   3.2200
     3.2344   3.2739   3.3125   3.3337   3.3759   3.3949   3.4066   3.4716
     3.5437   3.5759   3.6162   3.6962   3.7495   3.7770   3.7875   3.8040
     3.8480   3.9773   4.0295   4.1561   4.2168   4.4628   4.6552   4.6839
     4.7569   4.7599   4.9031   5.0106   5.0829   5.1474   5.2177   5.2436
     5.3142   5.4727   5.5698   5.6394   5.6918   5.7479   5.8366   5.9775
     6.0172   6.1210   6.1700   6.2111   6.2622   6.3080   6.4639   6.4829
     6.5518   6.5932   6.6162   6.6867   6.7127   6.8514   6.9492   7.3000
     7.3325   7.6291   7.7518   8.0158   8.0807   8.1723   8.5458   8.6514
     8.7898   8.9036   9.1402   9.3584

     the Fermi energy is     0.8712 ev

!    total energy              =   -3044.94618829 Ry
     Harris-Foulkes estimate   =   -3044.94618493 Ry
     estimated scf accuracy    <       0.00000042 Ry

     The total energy is the sum of the following terms:

     one-electron contribution =  -40866.36613813 Ry
     hartree contribution      =   20505.61690503 Ry
     xc contribution           =    -557.12971731 Ry
     ewald contribution        =   17872.93296711 Ry
     smearing contrib. (-TS)   =      -0.00020499 Ry

     total magnetization       =     0.00 Bohr mag/cell
     absolute magnetization    =     0.00 Bohr mag/cell

     convergence has been achieved in  11 iterations

     Forces acting on atoms (Ry/au):


     negative rho (up, down):  1.158E-02 1.158E-02
     atom    1 type  1   force =    -0.00006009    0.00031427   -0.13584911
     atom    2 type  2   force =     0.00011793   -0.00002847    0.07522086
     atom    3 type  1   force =     0.00128924    0.00109675   -0.05972424
     atom    4 type  2   force =     0.00657997   -0.00004912    0.00974966
     atom    5 type  1   force =    -0.00130168   -0.00014223    0.00007962
     atom    6 type  2   force =    -0.00163733   -0.00331566   -0.00901135
     atom    7 type  1   force =     0.00966811    0.00664041   -0.01473006
     atom    8 type  2   force =     0.00069730   -0.00010423    0.00030224
     atom    9 type  1   force =     0.00011316    0.00036305   -0.13591909
     atom   10 type  2   force =     0.00017537   -0.00005539    0.07515614
     atom   11 type  1   force =     0.00129898   -0.00083815   -0.05984852
     atom   12 type  2   force =     0.00603632   -0.00009735    0.00868068
     atom   13 type  1   force =     0.00009897   -0.00013040   -0.00025033
     atom   14 type  2   force =    -0.00185922    0.00278589   -0.00906123
     atom   15 type  1   force =     0.00982041   -0.00640606   -0.01504579
     atom   16 type  2   force =     0.00608853    0.00008099    0.00915100
     atom   17 type  2   force =    -0.00006053   -0.00003335    0.08004642
     atom   18 type  1   force =    -0.00004152    0.00025469    0.11925089
     atom   19 type  2   force =     0.00038225    0.00021279   -0.06812487
     atom   20 type  2   force =    -0.06269600    0.00006167   -0.03203004
     atom   21 type  2   force =     0.06271662    0.00017131   -0.03252377
     atom   22 type  1   force =    -0.00047834   -0.00009873    0.06436929
     atom   23 type  2   force =     0.00016170    0.00062233   -0.00265141
     atom   24 type  2   force =     0.00046099    0.00008134   -0.02236038
     atom   25 type  2   force =    -0.00647723   -0.00024787    0.00828851
     atom   26 type  1   force =    -0.00006020   -0.00004092    0.00268904
     atom   27 type  2   force =     0.00234189   -0.00123367   -0.00244711
     atom   28 type  2   force =    -0.00006550   -0.00000340   -0.00141576
     atom   29 type  2   force =     0.00008516   -0.00004933   -0.00048928
     atom   30 type  1   force =     0.00563430    0.00037365   -0.00017064
     atom   31 type  2   force =    -0.00207745    0.00163098    0.00083274
     atom   32 type  2   force =     0.00155265   -0.00009939    0.00157341
     atom   33 type  2   force =     0.00000640    0.00019585    0.08011448
     atom   34 type  1   force =    -0.00006412    0.00026365    0.11926177
     atom   35 type  2   force =     0.00035303    0.00030956   -0.06806520
     atom   36 type  2   force =    -0.06268234    0.00012567   -0.03219974
     atom   37 type  2   force =     0.06284876    0.00018565   -0.03198673
     atom   38 type  1   force =    -0.00069202    0.00000805    0.06426348
     atom   39 type  2   force =     0.00020875   -0.00078151   -0.00262502
     atom   40 type  2   force =     0.00058305   -0.00229783   -0.02250832
     atom   41 type  2   force =    -0.00624541   -0.00030167    0.00772174
     atom   42 type  1   force =    -0.00005193   -0.00006075    0.00264641
     atom   43 type  2   force =     0.00238072    0.00131364   -0.00249613
     atom   44 type  2   force =     0.00040355   -0.00012532   -0.00064433
     atom   45 type  2   force =    -0.00023213   -0.00007130   -0.00084836
     atom   46 type  1   force =    -0.01724441    0.00044056   -0.00432899
     atom   47 type  2   force =    -0.00214427   -0.00145787    0.00082621
     atom   48 type  2   force =     0.00045470   -0.00041505   -0.02972070
     atom   49 type  2   force =    -0.04422151   -0.00050202    0.19363582
     atom   50 type  3   force =    -0.02928048    0.00182166   -0.04031223
     atom   51 type  3   force =     0.05711490   -0.00036737   -0.08647170

     Total force =     0.436560     Total SCF correction =     0.001946
 !ASE

     Writing output data file calc.save
 
     init_run     :     54.00s CPU     68.11s WALL (       1 calls)
     electrons    :   2304.39s CPU   2770.94s WALL (       1 calls)
     forces       :     40.51s CPU     42.23s WALL (       1 calls)

     Called by init_run:
     wfcinit      :     46.01s CPU     59.39s WALL (       1 calls)
     potinit      :      1.33s CPU      1.60s WALL (       1 calls)

     Called by electrons:
     c_bands      :   1997.18s CPU   2387.93s WALL (      11 calls)
     sum_band     :    258.34s CPU    327.40s WALL (      11 calls)
     v_of_rho     :     11.73s CPU     14.61s WALL (      12 calls)
     newd         :     40.77s CPU     44.77s WALL (      12 calls)
     mix_rho      :      0.43s CPU      0.61s WALL (      11 calls)
     vdW_energy   :      2.08s CPU      2.52s WALL (      13 calls)
     vdW_ffts     :      2.97s CPU      4.00s WALL (      26 calls)
     vdW_v        :      1.27s CPU      1.49s WALL (      13 calls)

     Called by c_bands:
     init_us_2    :      6.42s CPU      7.03s WALL (     960 calls)
     cegterg      :   1958.04s CPU   2346.45s WALL (     440 calls)

     Called by *egterg:
     h_psi        :    801.61s CPU   1104.60s WALL (    2384 calls)
     s_psi        :    101.39s CPU    105.98s WALL (    2384 calls)
     g_psi        :      5.28s CPU      5.39s WALL (    1904 calls)
     cdiaghg      :    679.47s CPU    694.86s WALL (    2344 calls)

     Called by h_psi:
     add_vuspsi   :    102.18s CPU    107.16s WALL (    2384 calls)

     General routines
     calbec       :    155.87s CPU    160.03s WALL (    2864 calls)
     fft          :      6.94s CPU      8.97s WALL (    1029 calls)
     ffts         :      0.07s CPU      0.11s WALL (      46 calls)
     fftw         :    517.12s CPU    871.65s WALL (  786160 calls)
     interpolate  :      0.38s CPU      0.61s WALL (      46 calls)
     davcio       :      0.04s CPU      1.34s WALL (      40 calls)
 
     Parallel routines
     fft_scatter  :    266.42s CPU    476.97s WALL (  787235 calls)
 
     PWSCF        : 40m 0.96s CPU    48m 5.59s WALL

 
   This run was terminated on:   9:43:20  10Mar2018            

=------------------------------------------------------------------------------=
   JOB DONE.
=------------------------------------------------------------------------------=
