  python dir          : /home/vossj/suncat/lib/python2.7/site-packages/espresso
  espresso dir        : /home/vossj/suncat/esdld/espresso-dynpy-beef/bin
  pseudo dir          : /home/alatimer/bin/psp/esp_psp_w_gbrvRu/
  ase-espresso py git : ffa2778-git



     Program PWSCF v.5.1rc2 (svn rev. ) starts on 13Feb2018 at  4: 8:31 

     This program is part of the open-source Quantum ESPRESSO suite
     for quantum simulation of materials; please cite
         "P. Giannozzi et al., J. Phys.:Condens. Matter 21 395502 (2009);
          URL http://www.quantum-espresso.org", 
     in publications or presentations arising from this work. More details at
     http://www.quantum-espresso.org/quote

     Parallel version (MPI), running on    16 processors
     R & G space division:  proc/nbgrp/npool/nimage =      16
     Reading input from pw.inp
     Message from routine read_cards :
     DEPRECATED: no units specified in CELL_PARAMETERS card

     Current dimensions of program PWSCF are:
     Max number of different atomic species (ntypx) = 10
     Max number of k-points (npk) =  40000
     Max angular momentum in pseudopotentials (lmaxx) =  3

     **************************************************************************
     Initializing libbeef V0.1.1 with the BEEF-vdW functional.
     Citation: Wellendorff et al., PRB 85, 235149 (2012).
     **************************************************************************


     IMPORTANT: XC functional enforced from input :
     Exchange-correlation      = BEEF ( 1  4 27 13 2)
     Any further DFT definition will be discarded
     Please, verify this is what you really want


     Subspace diagonalization in iterative solution of the eigenvalue problem:
     a serial algorithm will be used

 
     Parallelization info
     --------------------
     sticks:   dense  smooth     PW     G-vecs:    dense   smooth      PW
     Min         281     112     31                68535    17318    2565
     Max         282     113     32                68545    17369    2582
     Sum        4501    1795    503              1096637   277353   41113
 
     Generating pointlists ...
     new r_m :   0.4125 (alat units)  0.7795 (a.u.) for type    1
     new r_m :   0.3995 (alat units)  0.7549 (a.u.) for type    2
     new r_m :   0.4125 (alat units)  0.7795 (a.u.) for type    3
     new r_m :   0.3995 (alat units)  0.7549 (a.u.) for type    4


     bravais-lattice index     =            0
     lattice parameter (alat)  =       1.8897  a.u.
     unit-cell volume          =    7990.9933 (a.u.)^3
     number of atoms/cell      =           54
     number of atomic types    =            4
     number of electrons       =       398.00
     number of Kohn-Sham states=          299
     kinetic-energy cutoff     =      40.4243  Ry
     charge density cutoff     =     404.2426  Ry
     convergence threshold     =      7.3E-07
     mixing beta               =       0.1000
     number of iterations used =           10  plain     mixing
     Exchange-correlation      = BEEF ( 1  4 27 13 2)
     nstep                     =           50


     celldm(1)=   1.889726  celldm(2)=   0.000000  celldm(3)=   0.000000
     celldm(4)=   0.000000  celldm(5)=   0.000000  celldm(6)=   0.000000

     crystal axes: (cart. coord. in units of alat)
               a(1) = (   6.590708   0.000000   0.000000 )  
               a(2) = (   0.000000   5.950229   0.000000 )  
               a(3) = (   0.000000   0.000000  30.195235 )  

     reciprocal axes: (cart. coord. in units 2 pi/alat)
               b(1) = (  0.151729  0.000000  0.000000 )  
               b(2) = (  0.000000  0.168061  0.000000 )  
               b(3) = (  0.000000  0.000000  0.033118 )  


     PseudoPot. # 1 for Ti read from file:
     /home/alatimer/bin/psp/esp_psp_w_gbrvRu/Ti.UPF
     MD5 check sum: 8e4df49b7f0d34bbd5052bf3f5ea0213
     Pseudo is Ultrasoft, Zval = 12.0
     Generated by new atomic code, or converted to UPF format
     Using radial grid of  851 points,  6 beta functions with: 
                l(1) =   0
                l(2) =   0
                l(3) =   1
                l(4) =   1
                l(5) =   2
                l(6) =   2
     Q(r) pseudized with  8 coefficients,  rinner =    1.000   1.000   1.000
                                                       1.000   1.000

     PseudoPot. # 2 for  O read from file:
     /home/alatimer/bin/psp/esp_psp_w_gbrvRu/O.UPF
     MD5 check sum: e057bbcf3229fb5d8c36c0c92f9568b4
     Pseudo is Ultrasoft + core correction, Zval =  6.0
     Generated using "atomic" code by A. Dal Corso  v.5.0.2 svn rev. 9415
     Using radial grid of 1095 points,  4 beta functions with: 
                l(1) =   0
                l(2) =   0
                l(3) =   1
                l(4) =   1
     Q(r) pseudized with 0 coefficients 


     PseudoPot. # 3 for  C read from file:
     /home/alatimer/bin/psp/esp_psp_w_gbrvRu/C.UPF
     MD5 check sum: ab446d787031eba755f1d5ee46644bb0
     Pseudo is Ultrasoft + core correction, Zval =  4.0
     Generated using "atomic" code by A. Dal Corso  v.5.0.2 svn rev. 9415
     Using radial grid of 1073 points,  4 beta functions with: 
                l(1) =   0
                l(2) =   0
                l(3) =   1
                l(4) =   1
     Q(r) pseudized with 0 coefficients 


     PseudoPot. # 4 for  H read from file:
     /home/alatimer/bin/psp/esp_psp_w_gbrvRu/H.UPF
     MD5 check sum: bd57da0722753ddfd9833a65b40bb853
     Pseudo is Ultrasoft, Zval =  1.0
     Generated using "atomic" code by A. Dal Corso  v.5.0.2 svn rev. 9415
     Using radial grid of  929 points,  2 beta functions with: 
                l(1) =   0
                l(2) =   0
     Q(r) pseudized with 0 coefficients 


     vdW kernel table read from file vdW_kernel_table
     MD5 check sum: 095c7af220d748ca6e76c0b4c6cfb241

     atomic species   valence    mass     pseudopotential
        Ti1           12.00    47.88000     Ti( 1.00)
        O1             6.00    15.99940      O( 1.00)
        C1             4.00    12.01100      C( 1.00)
        H1             1.00     1.00794      H( 1.00)

     Starting magnetic structure 
     atomic species   magnetization
        Ti1          0.250
        O1           0.500
        C1           0.750
        H1           0.000

     No symmetry found



   Cartesian axes

     site n.     atom                  positions (alat units)
         1           Ti1 tau(   1) = (   1.6476770   0.7437786   2.6545865  )
         2           O1  tau(   2) = (   1.6476770   2.2313359   3.9361215  )
         3           Ti1 tau(   3) = (   1.6476770   2.2313359   5.9499405  )
         4           O1  tau(   4) = (   0.3661420   0.7437786   5.9499405  )
         5           Ti1 tau(   5) = (   1.7592931   0.7557636   9.1813031  )
         6           O1  tau(   6) = (   1.6162490   2.2572048  10.5951269  )
         7           Ti1 tau(   7) = (   1.5595004   2.2680265  12.4668274  )
         8           O1  tau(   8) = (   0.3709531   0.7738127  12.6996540  )
         9           Ti1 tau(   9) = (   1.6476770   3.7188931   2.6545865  )
        10           O1  tau(  10) = (   1.6476770   5.2064503   3.9361215  )
        11           Ti1 tau(  11) = (   1.6476770   5.2064503   5.9499405  )
        12           O1  tau(  12) = (   0.3661420   3.7188931   5.9499405  )
        13           Ti1 tau(  13) = (   1.7607536   3.7112867   9.1949733  )
        14           O1  tau(  14) = (   1.6133076   5.2250699  10.5465640  )
        15           Ti1 tau(  15) = (   1.6492307   5.2431137  12.3448001  )
        16           O1  tau(  16) = (   0.3719744   3.7598389  12.7007434  )
        17           O1  tau(  17) = (   1.6476770   2.2313359   1.3730516  )
        18           Ti1 tau(  18) = (   4.9430310   2.2313359   2.6545865  )
        19           O1  tau(  19) = (   4.9430310   2.2313359   4.6684056  )
        20           O1  tau(  20) = (   6.2245660   0.7437786   2.6545865  )
        21           O1  tau(  21) = (   3.6614961   0.7437786   2.6545865  )
        22           Ti1 tau(  22) = (   4.9430310   0.7437786   5.9499405  )
        23           O1  tau(  23) = (   1.6387103   2.2391978   8.0037664  )
        24           O1  tau(  24) = (   4.9430310   2.2313359   7.2314755  )
        25           O1  tau(  25) = (   2.9292120   0.7437786   5.9499405  )
        26           Ti1 tau(  26) = (   5.0158092   2.2383949   9.3973727  )
        27           O1  tau(  27) = (   4.9391445   2.2276729  11.2675731  )
        28           O1  tau(  28) = (   6.2094020   0.7514556   9.2742047  )
        29           O1  tau(  29) = (   3.6131301   0.7515640   9.2682932  )
        30           Ti1 tau(  30) = (   4.8940083   0.8207741  12.7348365  )
        31           O1  tau(  31) = (   4.8487174   2.2703822  13.8475395  )
        32           O1  tau(  32) = (   2.8766274   0.7418004  12.6316555  )
        33           O1  tau(  33) = (   1.6476770   5.2064503   1.3730516  )
        34           Ti1 tau(  34) = (   4.9430310   5.2064503   2.6545865  )
        35           O1  tau(  35) = (   4.9430310   5.2064503   4.6684056  )
        36           O1  tau(  36) = (   6.2245660   3.7188931   2.6545865  )
        37           O1  tau(  37) = (   3.6614961   3.7188931   2.6545865  )
        38           Ti1 tau(  38) = (   4.9430310   3.7188931   5.9499405  )
        39           O1  tau(  39) = (   1.6418458   5.2133935   8.0066417  )
        40           O1  tau(  40) = (   4.9430310   5.2064503   7.2314755  )
        41           O1  tau(  41) = (   2.9292120   3.7188931   5.9499405  )
        42           Ti1 tau(  42) = (   5.0218241   5.2139137   9.3870600  )
        43           O1  tau(  43) = (   4.9399496   5.2040061  11.2598200  )
        44           O1  tau(  44) = (   6.2073000   3.7245411   9.2731052  )
        45           O1  tau(  45) = (   3.6137513   3.7232133   9.2682466  )
        46           Ti1 tau(  46) = (   4.8936935   3.8094630  12.7397413  )
        47           O1  tau(  47) = (   4.9051259   5.2510468  13.8339921  )
        48           O1  tau(  48) = (   2.8743370   3.7938830  12.6403791  )
        49           C1  tau(  49) = (   1.0587210   2.2268971  15.9066084  )
        50           O1  tau(  50) = (   1.8917182   2.2355032  14.7378010  )
        51           H1  tau(  51) = (   0.0310076   2.2200215  15.5603933  )
        52           H1  tau(  52) = (   2.8355400   2.2288152  14.9543747  )
        53           H1  tau(  53) = (   1.2478062   1.3626534  16.5039879  )
        54           H1  tau(  54) = (   1.2341453   3.1195140  16.5098874  )

     number of k points=    40  Fermi-Dirac smearing, width (Ry)=  0.0073
                       cart. coord. in units 2pi/alat
        k(    1) = (   0.0000000   0.0000000   0.0000000), wk =   0.0277778
        k(    2) = (   0.0000000   0.0280101   0.0000000), wk =   0.0555556
        k(    3) = (   0.0000000   0.0560203   0.0000000), wk =   0.0555556
        k(    4) = (   0.0000000  -0.0840304   0.0000000), wk =   0.0277778
        k(    5) = (   0.0252881   0.0000000   0.0000000), wk =   0.0555556
        k(    6) = (   0.0252881   0.0280101   0.0000000), wk =   0.0555556
        k(    7) = (   0.0252881   0.0560203   0.0000000), wk =   0.0555556
        k(    8) = (   0.0252881  -0.0840304   0.0000000), wk =   0.0555556
        k(    9) = (   0.0505763   0.0000000   0.0000000), wk =   0.0555556
        k(   10) = (   0.0505763   0.0280101   0.0000000), wk =   0.0555556
        k(   11) = (   0.0505763   0.0560203   0.0000000), wk =   0.0555556
        k(   12) = (   0.0505763  -0.0840304   0.0000000), wk =   0.0555556
        k(   13) = (  -0.0758644   0.0000000   0.0000000), wk =   0.0277778
        k(   14) = (  -0.0758644   0.0280101   0.0000000), wk =   0.0555556
        k(   15) = (  -0.0758644   0.0560203   0.0000000), wk =   0.0555556
        k(   16) = (  -0.0758644  -0.0840304   0.0000000), wk =   0.0277778
        k(   17) = (  -0.0252881   0.0280101   0.0000000), wk =   0.0555556
        k(   18) = (  -0.0252881   0.0560203   0.0000000), wk =   0.0555556
        k(   19) = (  -0.0505763   0.0280101   0.0000000), wk =   0.0555556
        k(   20) = (  -0.0505763   0.0560203   0.0000000), wk =   0.0555556
        k(   21) = (   0.0000000   0.0000000   0.0000000), wk =   0.0277778
        k(   22) = (   0.0000000   0.0280101   0.0000000), wk =   0.0555556
        k(   23) = (   0.0000000   0.0560203   0.0000000), wk =   0.0555556
        k(   24) = (   0.0000000  -0.0840304   0.0000000), wk =   0.0277778
        k(   25) = (   0.0252881   0.0000000   0.0000000), wk =   0.0555556
        k(   26) = (   0.0252881   0.0280101   0.0000000), wk =   0.0555556
        k(   27) = (   0.0252881   0.0560203   0.0000000), wk =   0.0555556
        k(   28) = (   0.0252881  -0.0840304   0.0000000), wk =   0.0555556
        k(   29) = (   0.0505763   0.0000000   0.0000000), wk =   0.0555556
        k(   30) = (   0.0505763   0.0280101   0.0000000), wk =   0.0555556
        k(   31) = (   0.0505763   0.0560203   0.0000000), wk =   0.0555556
        k(   32) = (   0.0505763  -0.0840304   0.0000000), wk =   0.0555556
        k(   33) = (  -0.0758644   0.0000000   0.0000000), wk =   0.0277778
        k(   34) = (  -0.0758644   0.0280101   0.0000000), wk =   0.0555556
        k(   35) = (  -0.0758644   0.0560203   0.0000000), wk =   0.0555556
        k(   36) = (  -0.0758644  -0.0840304   0.0000000), wk =   0.0277778
        k(   37) = (  -0.0252881   0.0280101   0.0000000), wk =   0.0555556
        k(   38) = (  -0.0252881   0.0560203   0.0000000), wk =   0.0555556
        k(   39) = (  -0.0505763   0.0280101   0.0000000), wk =   0.0555556
        k(   40) = (  -0.0505763   0.0560203   0.0000000), wk =   0.0555556

     Dense  grid:  1096637 G-vectors     FFT dimensions: (  80,  72, 375)

     Smooth grid:   277353 G-vectors     FFT dimensions: (  54,  45, 240)

     Largest allocated arrays     est. size (Mb)     dimensions
        Kohn-Sham Wavefunctions         9.95 Mb     (    2180,  299)
        NL pseudopotentials            18.89 Mb     (    2180,  568)
        Each V/rho on FFT grid          4.22 Mb     (  138240,   2)
        Each G-vector array             0.52 Mb     (   68538)
        G-vector shells                 0.25 Mb     (   33046)
     Largest temporary arrays     est. size (Mb)     dimensions
        Auxiliary wavefunctions        39.78 Mb     (    2180, 1196)
        Each subspace H/S matrix       21.83 Mb     (    1196, 1196)
        Each <psi_i|beta_j> matrix      2.59 Mb     (     568,  299)
        Arrays for rho mixing          21.09 Mb     (  138240,   10)

     Check: negative/imaginary core charge=   -0.000049    0.000000

     The initial density is read from file :
     ./calc.save/charge-density.dat


     negative rho (up, down):  1.209E-02 1.209E-02


     ************************************************************************
     *
     * You are using vdW-DF for exchange-correlation in this calculation.
     * Please cite the following three references that made this development
     * possible:
     *
     *   M. Dion, H. Rydberg, E. Schroder, D. C. Langreth, and
     *   B. I. Lundqvist, Phys. Rev. Lett. 92, 246401 (2004).
     *
     *   T. Thonhauser, V. R. Cooper, S. Li, A. Puzder, P. Hyldgaard, and
     *   D. C. Langreth, Phys. Rev. B 76, 125112 (2007).
     *
     *   G. Roman-Perez and J. M. Soler, Phys. Rev. Lett. 103, 096102 (2009).
     *
     *
     * If you are using vdW-DF2, please also cite:
     *
     *   K. Lee, E. D. Murray, L. Kong, B. I. Lundqvist, and
     *   D. C. Langreth, Phys. Rev. B 82, 081101(R) (2010).
     *
     *
     * If you are calculating the stress with vdW-DF, please also cite:
     *
     *   R. Sabatini, E. Kucukbenli, B. Kolb, T. Thonhauser, and
     *   S. de Gironcoli, J. Phys.: Condens. Matter 24, 424209 (2012).
     *
     ************************************************************************

     Carrying out vdW-DF run using the following parameters:

     Nqs =      20    Nr_points =    1024   r_max =   100.000
     q_mesh =
               0.00001000     0.04494208     0.09755937     0.15916263
               0.23128650     0.31572767     0.41458969     0.53033537
               0.66584808     0.82450364     1.01025438     1.22772762
               1.48234092     1.78043706     2.12944203     2.53805004
               3.01644009     3.57652955     4.23227104     5.00000000

     Gradients computed in reciprocal space

     ************************************************************************


     Starting wfc are  300 randomized atomic wfcs

     total cpu time spent up to now is       70.8 secs

     Self-consistent Calculation

     iteration #  1     ecut=    40.42 Ry     beta=0.10
     Davidson diagonalization with overlap
     ethr =  1.00E-05,  avg # of iterations = 14.7

     Threshold (ethr) on eigenvalues was too large:
     Diagonalizing with lowered threshold

     Davidson diagonalization with overlap
     ethr =  6.05E-07,  avg # of iterations =  1.0

     negative rho (up, down):  1.209E-02 1.209E-02
 
     Magnetic moment per site:
     atom:    1    charge:    3.1250    magn:   -0.0002    constr:    0.0000
     atom:    2    charge:    1.9452    magn:    0.0000    constr:    0.0000
     atom:    3    charge:    3.1198    magn:    0.0000    constr:    0.0000
     atom:    4    charge:    1.9504    magn:   -0.0001    constr:    0.0000
     atom:    5    charge:    3.1166    magn:    0.0000    constr:    0.0000
     atom:    6    charge:    1.9476    magn:   -0.0001    constr:    0.0000
     atom:    7    charge:    3.1157    magn:    0.0001    constr:    0.0000
     atom:    8    charge:    1.9452    magn:   -0.0001    constr:    0.0000
     atom:    9    charge:    3.1250    magn:   -0.0002    constr:    0.0000
     atom:   10    charge:    1.9452    magn:    0.0000    constr:    0.0000
     atom:   11    charge:    3.1197    magn:    0.0000    constr:    0.0000
     atom:   12    charge:    1.9504    magn:   -0.0001    constr:    0.0000
     atom:   13    charge:    3.1158    magn:    0.0000    constr:    0.0000
     atom:   14    charge:    1.9587    magn:   -0.0001    constr:    0.0000
     atom:   15    charge:    3.1188    magn:    0.0001    constr:    0.0000
     atom:   16    charge:    1.9445    magn:   -0.0001    constr:    0.0000
     atom:   17    charge:    1.9184    magn:    0.0004    constr:    0.0000
     atom:   18    charge:    3.1239    magn:   -0.0001    constr:    0.0000
     atom:   19    charge:    1.9408    magn:   -0.0000    constr:    0.0000
     atom:   20    charge:    1.9471    magn:    0.0000    constr:    0.0000
     atom:   21    charge:    1.9471    magn:    0.0000    constr:    0.0000
     atom:   22    charge:    3.1196    magn:    0.0000    constr:    0.0000
     atom:   23    charge:    1.9566    magn:   -0.0001    constr:    0.0000
     atom:   24    charge:    1.9379    magn:   -0.0001    constr:    0.0000
     atom:   25    charge:    1.9505    magn:   -0.0001    constr:    0.0000
     atom:   26    charge:    3.1145    magn:    0.0001    constr:    0.0000
     atom:   27    charge:    1.9398    magn:   -0.0001    constr:    0.0000
     atom:   28    charge:    1.9517    magn:   -0.0001    constr:    0.0000
     atom:   29    charge:    1.9476    magn:   -0.0001    constr:    0.0000
     atom:   30    charge:    3.1167    magn:    0.0000    constr:    0.0000
     atom:   31    charge:    1.9447    magn:   -0.0000    constr:    0.0000
     atom:   32    charge:    1.9440    magn:   -0.0001    constr:    0.0000
     atom:   33    charge:    1.9184    magn:    0.0004    constr:    0.0000
     atom:   34    charge:    3.1239    magn:   -0.0001    constr:    0.0000
     atom:   35    charge:    1.9408    magn:   -0.0000    constr:    0.0000
     atom:   36    charge:    1.9471    magn:    0.0000    constr:    0.0000
     atom:   37    charge:    1.9471    magn:    0.0000    constr:    0.0000
     atom:   38    charge:    3.1196    magn:    0.0000    constr:    0.0000
     atom:   39    charge:    1.9549    magn:   -0.0001    constr:    0.0000
     atom:   40    charge:    1.9383    magn:   -0.0001    constr:    0.0000
     atom:   41    charge:    1.9505    magn:   -0.0001    constr:    0.0000
     atom:   42    charge:    3.1141    magn:    0.0001    constr:    0.0000
     atom:   43    charge:    1.9413    magn:   -0.0001    constr:    0.0000
     atom:   44    charge:    1.9517    magn:   -0.0001    constr:    0.0000
     atom:   45    charge:    1.9468    magn:   -0.0001    constr:    0.0000
     atom:   46    charge:    3.1165    magn:    0.0000    constr:    0.0000
     atom:   47    charge:    1.9431    magn:   -0.0000    constr:    0.0000
     atom:   48    charge:    1.9444    magn:   -0.0001    constr:    0.0000
     atom:   49    charge:    0.6594    magn:   -0.0001    constr:    0.0000
     atom:   50    charge:    1.9577    magn:   -0.0001    constr:    0.0000
     atom:   51    charge:    0.4021    magn:    0.0000    constr:    0.0000
     atom:   52    charge:    0.4006    magn:    0.0000    constr:    0.0000
     atom:   53    charge:    0.4156    magn:    0.0000    constr:    0.0000
     atom:   54    charge:    0.4039    magn:    0.0000    constr:    0.0000

     total cpu time spent up to now is      969.5 secs

     total energy              =   -3021.41983114 Ry
     Harris-Foulkes estimate   =   -3021.42008700 Ry
     estimated scf accuracy    <       0.00241069 Ry

     total magnetization       =     0.00 Bohr mag/cell
     absolute magnetization    =     0.01 Bohr mag/cell

     iteration #  2     ecut=    40.42 Ry     beta=0.10
     Davidson diagonalization with overlap
     ethr =  6.06E-07,  avg # of iterations =  2.0

     negative rho (up, down):  1.211E-02 1.211E-02
 
     Magnetic moment per site:
     atom:    1    charge:    3.1250    magn:   -0.0001    constr:    0.0000
     atom:    2    charge:    1.9452    magn:    0.0000    constr:    0.0000
     atom:    3    charge:    3.1198    magn:    0.0000    constr:    0.0000
     atom:    4    charge:    1.9504    magn:   -0.0000    constr:    0.0000
     atom:    5    charge:    3.1166    magn:    0.0000    constr:    0.0000
     atom:    6    charge:    1.9476    magn:   -0.0001    constr:    0.0000
     atom:    7    charge:    3.1157    magn:    0.0000    constr:    0.0000
     atom:    8    charge:    1.9452    magn:   -0.0001    constr:    0.0000
     atom:    9    charge:    3.1250    magn:   -0.0001    constr:    0.0000
     atom:   10    charge:    1.9452    magn:    0.0000    constr:    0.0000
     atom:   11    charge:    3.1197    magn:    0.0000    constr:    0.0000
     atom:   12    charge:    1.9504    magn:   -0.0000    constr:    0.0000
     atom:   13    charge:    3.1158    magn:    0.0000    constr:    0.0000
     atom:   14    charge:    1.9587    magn:   -0.0001    constr:    0.0000
     atom:   15    charge:    3.1188    magn:    0.0000    constr:    0.0000
     atom:   16    charge:    1.9446    magn:   -0.0001    constr:    0.0000
     atom:   17    charge:    1.9184    magn:    0.0003    constr:    0.0000
     atom:   18    charge:    3.1239    magn:   -0.0001    constr:    0.0000
     atom:   19    charge:    1.9408    magn:   -0.0000    constr:    0.0000
     atom:   20    charge:    1.9471    magn:    0.0000    constr:    0.0000
     atom:   21    charge:    1.9471    magn:    0.0000    constr:    0.0000
     atom:   22    charge:    3.1196    magn:    0.0000    constr:    0.0000
     atom:   23    charge:    1.9566    magn:   -0.0001    constr:    0.0000
     atom:   24    charge:    1.9379    magn:   -0.0000    constr:    0.0000
     atom:   25    charge:    1.9505    magn:   -0.0000    constr:    0.0000
     atom:   26    charge:    3.1145    magn:    0.0000    constr:    0.0000
     atom:   27    charge:    1.9398    magn:   -0.0000    constr:    0.0000
     atom:   28    charge:    1.9517    magn:   -0.0001    constr:    0.0000
     atom:   29    charge:    1.9476    magn:   -0.0001    constr:    0.0000
     atom:   30    charge:    3.1166    magn:    0.0000    constr:    0.0000
     atom:   31    charge:    1.9447    magn:   -0.0000    constr:    0.0000
     atom:   32    charge:    1.9440    magn:   -0.0001    constr:    0.0000
     atom:   33    charge:    1.9184    magn:    0.0003    constr:    0.0000
     atom:   34    charge:    3.1239    magn:   -0.0001    constr:    0.0000
     atom:   35    charge:    1.9408    magn:   -0.0000    constr:    0.0000
     atom:   36    charge:    1.9471    magn:    0.0000    constr:    0.0000
     atom:   37    charge:    1.9471    magn:    0.0000    constr:    0.0000
     atom:   38    charge:    3.1196    magn:    0.0000    constr:    0.0000
     atom:   39    charge:    1.9550    magn:   -0.0001    constr:    0.0000
     atom:   40    charge:    1.9383    magn:   -0.0000    constr:    0.0000
     atom:   41    charge:    1.9505    magn:   -0.0000    constr:    0.0000
     atom:   42    charge:    3.1141    magn:    0.0000    constr:    0.0000
     atom:   43    charge:    1.9413    magn:   -0.0000    constr:    0.0000
     atom:   44    charge:    1.9517    magn:   -0.0001    constr:    0.0000
     atom:   45    charge:    1.9469    magn:   -0.0001    constr:    0.0000
     atom:   46    charge:    3.1165    magn:    0.0000    constr:    0.0000
     atom:   47    charge:    1.9430    magn:   -0.0000    constr:    0.0000
     atom:   48    charge:    1.9444    magn:   -0.0001    constr:    0.0000
     atom:   49    charge:    0.6642    magn:   -0.0000    constr:    0.0000
     atom:   50    charge:    1.9573    magn:   -0.0000    constr:    0.0000
     atom:   51    charge:    0.4015    magn:    0.0000    constr:    0.0000
     atom:   52    charge:    0.4005    magn:    0.0000    constr:    0.0000
     atom:   53    charge:    0.4160    magn:    0.0000    constr:    0.0000
     atom:   54    charge:    0.4039    magn:    0.0000    constr:    0.0000

     total cpu time spent up to now is     1151.5 secs

     total energy              =   -3021.41920906 Ry
     Harris-Foulkes estimate   =   -3021.41984743 Ry
     estimated scf accuracy    <       0.00163393 Ry

     total magnetization       =     0.00 Bohr mag/cell
     absolute magnetization    =     0.01 Bohr mag/cell

     iteration #  3     ecut=    40.42 Ry     beta=0.10
     Davidson diagonalization with overlap
     ethr =  4.11E-07,  avg # of iterations =  4.7

     negative rho (up, down):  1.211E-02 1.211E-02
 
     Magnetic moment per site:
     atom:    1    charge:    3.1250    magn:   -0.0001    constr:    0.0000
     atom:    2    charge:    1.9452    magn:    0.0000    constr:    0.0000
     atom:    3    charge:    3.1198    magn:    0.0000    constr:    0.0000
     atom:    4    charge:    1.9504    magn:   -0.0000    constr:    0.0000
     atom:    5    charge:    3.1166    magn:    0.0000    constr:    0.0000
     atom:    6    charge:    1.9477    magn:   -0.0001    constr:    0.0000
     atom:    7    charge:    3.1157    magn:    0.0000    constr:    0.0000
     atom:    8    charge:    1.9452    magn:   -0.0001    constr:    0.0000
     atom:    9    charge:    3.1250    magn:   -0.0001    constr:    0.0000
     atom:   10    charge:    1.9452    magn:    0.0000    constr:    0.0000
     atom:   11    charge:    3.1197    magn:    0.0000    constr:    0.0000
     atom:   12    charge:    1.9504    magn:   -0.0000    constr:    0.0000
     atom:   13    charge:    3.1158    magn:    0.0000    constr:    0.0000
     atom:   14    charge:    1.9587    magn:   -0.0001    constr:    0.0000
     atom:   15    charge:    3.1188    magn:    0.0000    constr:    0.0000
     atom:   16    charge:    1.9445    magn:   -0.0001    constr:    0.0000
     atom:   17    charge:    1.9184    magn:    0.0003    constr:    0.0000
     atom:   18    charge:    3.1239    magn:   -0.0001    constr:    0.0000
     atom:   19    charge:    1.9408    magn:   -0.0000    constr:    0.0000
     atom:   20    charge:    1.9471    magn:    0.0000    constr:    0.0000
     atom:   21    charge:    1.9471    magn:    0.0000    constr:    0.0000
     atom:   22    charge:    3.1196    magn:    0.0000    constr:    0.0000
     atom:   23    charge:    1.9566    magn:   -0.0001    constr:    0.0000
     atom:   24    charge:    1.9379    magn:   -0.0000    constr:    0.0000
     atom:   25    charge:    1.9505    magn:   -0.0000    constr:    0.0000
     atom:   26    charge:    3.1145    magn:    0.0000    constr:    0.0000
     atom:   27    charge:    1.9398    magn:   -0.0000    constr:    0.0000
     atom:   28    charge:    1.9517    magn:   -0.0001    constr:    0.0000
     atom:   29    charge:    1.9476    magn:   -0.0001    constr:    0.0000
     atom:   30    charge:    3.1167    magn:    0.0000    constr:    0.0000
     atom:   31    charge:    1.9447    magn:   -0.0000    constr:    0.0000
     atom:   32    charge:    1.9440    magn:   -0.0001    constr:    0.0000
     atom:   33    charge:    1.9184    magn:    0.0003    constr:    0.0000
     atom:   34    charge:    3.1239    magn:   -0.0001    constr:    0.0000
     atom:   35    charge:    1.9408    magn:   -0.0000    constr:    0.0000
     atom:   36    charge:    1.9471    magn:    0.0000    constr:    0.0000
     atom:   37    charge:    1.9471    magn:    0.0000    constr:    0.0000
     atom:   38    charge:    3.1196    magn:    0.0000    constr:    0.0000
     atom:   39    charge:    1.9549    magn:   -0.0001    constr:    0.0000
     atom:   40    charge:    1.9383    magn:   -0.0000    constr:    0.0000
     atom:   41    charge:    1.9505    magn:   -0.0000    constr:    0.0000
     atom:   42    charge:    3.1141    magn:    0.0000    constr:    0.0000
     atom:   43    charge:    1.9413    magn:   -0.0000    constr:    0.0000
     atom:   44    charge:    1.9517    magn:   -0.0001    constr:    0.0000
     atom:   45    charge:    1.9468    magn:   -0.0001    constr:    0.0000
     atom:   46    charge:    3.1165    magn:    0.0000    constr:    0.0000
     atom:   47    charge:    1.9431    magn:   -0.0000    constr:    0.0000
     atom:   48    charge:    1.9444    magn:   -0.0001    constr:    0.0000
     atom:   49    charge:    0.6631    magn:   -0.0000    constr:    0.0000
     atom:   50    charge:    1.9576    magn:   -0.0000    constr:    0.0000
     atom:   51    charge:    0.4017    magn:    0.0000    constr:    0.0000
     atom:   52    charge:    0.4005    magn:    0.0000    constr:    0.0000
     atom:   53    charge:    0.4163    magn:    0.0000    constr:    0.0000
     atom:   54    charge:    0.4040    magn:    0.0000    constr:    0.0000

     total cpu time spent up to now is     1377.5 secs

     total energy              =   -3021.41945700 Ry
     Harris-Foulkes estimate   =   -3021.41948263 Ry
     estimated scf accuracy    <       0.00019823 Ry

     total magnetization       =     0.00 Bohr mag/cell
     absolute magnetization    =     0.00 Bohr mag/cell

     iteration #  4     ecut=    40.42 Ry     beta=0.10
     Davidson diagonalization with overlap
     ethr =  4.98E-08,  avg # of iterations =  3.0

     negative rho (up, down):  1.211E-02 1.211E-02
 
     Magnetic moment per site:
     atom:    1    charge:    3.1250    magn:   -0.0001    constr:    0.0000
     atom:    2    charge:    1.9452    magn:    0.0000    constr:    0.0000
     atom:    3    charge:    3.1198    magn:    0.0000    constr:    0.0000
     atom:    4    charge:    1.9504    magn:   -0.0000    constr:    0.0000
     atom:    5    charge:    3.1166    magn:    0.0000    constr:    0.0000
     atom:    6    charge:    1.9477    magn:   -0.0000    constr:    0.0000
     atom:    7    charge:    3.1157    magn:    0.0000    constr:    0.0000
     atom:    8    charge:    1.9453    magn:   -0.0000    constr:    0.0000
     atom:    9    charge:    3.1250    magn:   -0.0001    constr:    0.0000
     atom:   10    charge:    1.9452    magn:    0.0000    constr:    0.0000
     atom:   11    charge:    3.1197    magn:    0.0000    constr:    0.0000
     atom:   12    charge:    1.9504    magn:   -0.0000    constr:    0.0000
     atom:   13    charge:    3.1158    magn:    0.0000    constr:    0.0000
     atom:   14    charge:    1.9587    magn:   -0.0000    constr:    0.0000
     atom:   15    charge:    3.1189    magn:    0.0000    constr:    0.0000
     atom:   16    charge:    1.9445    magn:   -0.0000    constr:    0.0000
     atom:   17    charge:    1.9184    magn:    0.0002    constr:    0.0000
     atom:   18    charge:    3.1239    magn:   -0.0000    constr:    0.0000
     atom:   19    charge:    1.9408    magn:   -0.0000    constr:    0.0000
     atom:   20    charge:    1.9471    magn:    0.0000    constr:    0.0000
     atom:   21    charge:    1.9471    magn:    0.0000    constr:    0.0000
     atom:   22    charge:    3.1196    magn:    0.0000    constr:    0.0000
     atom:   23    charge:    1.9566    magn:   -0.0000    constr:    0.0000
     atom:   24    charge:    1.9379    magn:   -0.0000    constr:    0.0000
     atom:   25    charge:    1.9505    magn:   -0.0000    constr:    0.0000
     atom:   26    charge:    3.1145    magn:    0.0000    constr:    0.0000
     atom:   27    charge:    1.9398    magn:   -0.0000    constr:    0.0000
     atom:   28    charge:    1.9517    magn:   -0.0000    constr:    0.0000
     atom:   29    charge:    1.9476    magn:   -0.0000    constr:    0.0000
     atom:   30    charge:    3.1167    magn:    0.0000    constr:    0.0000
     atom:   31    charge:    1.9447    magn:   -0.0000    constr:    0.0000
     atom:   32    charge:    1.9440    magn:   -0.0000    constr:    0.0000
     atom:   33    charge:    1.9184    magn:    0.0002    constr:    0.0000
     atom:   34    charge:    3.1239    magn:   -0.0000    constr:    0.0000
     atom:   35    charge:    1.9408    magn:   -0.0000    constr:    0.0000
     atom:   36    charge:    1.9471    magn:    0.0000    constr:    0.0000
     atom:   37    charge:    1.9471    magn:    0.0000    constr:    0.0000
     atom:   38    charge:    3.1196    magn:    0.0000    constr:    0.0000
     atom:   39    charge:    1.9549    magn:   -0.0000    constr:    0.0000
     atom:   40    charge:    1.9383    magn:   -0.0000    constr:    0.0000
     atom:   41    charge:    1.9505    magn:   -0.0000    constr:    0.0000
     atom:   42    charge:    3.1141    magn:    0.0000    constr:    0.0000
     atom:   43    charge:    1.9413    magn:   -0.0000    constr:    0.0000
     atom:   44    charge:    1.9518    magn:   -0.0000    constr:    0.0000
     atom:   45    charge:    1.9468    magn:   -0.0000    constr:    0.0000
     atom:   46    charge:    3.1165    magn:    0.0000    constr:    0.0000
     atom:   47    charge:    1.9432    magn:   -0.0000    constr:    0.0000
     atom:   48    charge:    1.9444    magn:   -0.0000    constr:    0.0000
     atom:   49    charge:    0.6625    magn:   -0.0000    constr:    0.0000
     atom:   50    charge:    1.9580    magn:   -0.0000    constr:    0.0000
     atom:   51    charge:    0.4020    magn:    0.0000    constr:    0.0000
     atom:   52    charge:    0.4006    magn:    0.0000    constr:    0.0000
     atom:   53    charge:    0.4170    magn:    0.0000    constr:    0.0000
     atom:   54    charge:    0.4043    magn:    0.0000    constr:    0.0000

     total cpu time spent up to now is     1574.1 secs

     total energy              =   -3021.41945312 Ry
     Harris-Foulkes estimate   =   -3021.41946389 Ry
     estimated scf accuracy    <       0.00011895 Ry

     total magnetization       =     0.00 Bohr mag/cell
     absolute magnetization    =     0.00 Bohr mag/cell

     iteration #  5     ecut=    40.42 Ry     beta=0.10
     Davidson diagonalization with overlap
     ethr =  2.99E-08,  avg # of iterations =  3.0

     negative rho (up, down):  1.211E-02 1.211E-02
 
     Magnetic moment per site:
     atom:    1    charge:    3.1250    magn:   -0.0001    constr:    0.0000
     atom:    2    charge:    1.9452    magn:    0.0000    constr:    0.0000
     atom:    3    charge:    3.1198    magn:    0.0000    constr:    0.0000
     atom:    4    charge:    1.9504    magn:   -0.0000    constr:    0.0000
     atom:    5    charge:    3.1166    magn:    0.0000    constr:    0.0000
     atom:    6    charge:    1.9476    magn:   -0.0000    constr:    0.0000
     atom:    7    charge:    3.1157    magn:    0.0000    constr:    0.0000
     atom:    8    charge:    1.9453    magn:   -0.0000    constr:    0.0000
     atom:    9    charge:    3.1250    magn:   -0.0001    constr:    0.0000
     atom:   10    charge:    1.9452    magn:    0.0000    constr:    0.0000
     atom:   11    charge:    3.1197    magn:    0.0000    constr:    0.0000
     atom:   12    charge:    1.9504    magn:   -0.0000    constr:    0.0000
     atom:   13    charge:    3.1158    magn:    0.0000    constr:    0.0000
     atom:   14    charge:    1.9587    magn:   -0.0000    constr:    0.0000
     atom:   15    charge:    3.1189    magn:    0.0000    constr:    0.0000
     atom:   16    charge:    1.9446    magn:   -0.0000    constr:    0.0000
     atom:   17    charge:    1.9184    magn:    0.0002    constr:    0.0000
     atom:   18    charge:    3.1239    magn:   -0.0000    constr:    0.0000
     atom:   19    charge:    1.9408    magn:   -0.0000    constr:    0.0000
     atom:   20    charge:    1.9471    magn:    0.0000    constr:    0.0000
     atom:   21    charge:    1.9471    magn:    0.0000    constr:    0.0000
     atom:   22    charge:    3.1196    magn:    0.0000    constr:    0.0000
     atom:   23    charge:    1.9566    magn:   -0.0000    constr:    0.0000
     atom:   24    charge:    1.9379    magn:   -0.0000    constr:    0.0000
     atom:   25    charge:    1.9505    magn:   -0.0000    constr:    0.0000
     atom:   26    charge:    3.1145    magn:    0.0000    constr:    0.0000
     atom:   27    charge:    1.9398    magn:   -0.0000    constr:    0.0000
     atom:   28    charge:    1.9517    magn:   -0.0000    constr:    0.0000
     atom:   29    charge:    1.9476    magn:   -0.0000    constr:    0.0000
     atom:   30    charge:    3.1167    magn:    0.0000    constr:    0.0000
     atom:   31    charge:    1.9447    magn:   -0.0000    constr:    0.0000
     atom:   32    charge:    1.9440    magn:   -0.0000    constr:    0.0000
     atom:   33    charge:    1.9184    magn:    0.0002    constr:    0.0000
     atom:   34    charge:    3.1239    magn:   -0.0000    constr:    0.0000
     atom:   35    charge:    1.9408    magn:   -0.0000    constr:    0.0000
     atom:   36    charge:    1.9471    magn:    0.0000    constr:    0.0000
     atom:   37    charge:    1.9471    magn:    0.0000    constr:    0.0000
     atom:   38    charge:    3.1196    magn:    0.0000    constr:    0.0000
     atom:   39    charge:    1.9549    magn:   -0.0000    constr:    0.0000
     atom:   40    charge:    1.9383    magn:   -0.0000    constr:    0.0000
     atom:   41    charge:    1.9505    magn:   -0.0000    constr:    0.0000
     atom:   42    charge:    3.1141    magn:    0.0000    constr:    0.0000
     atom:   43    charge:    1.9413    magn:   -0.0000    constr:    0.0000
     atom:   44    charge:    1.9517    magn:   -0.0000    constr:    0.0000
     atom:   45    charge:    1.9468    magn:   -0.0000    constr:    0.0000
     atom:   46    charge:    3.1165    magn:    0.0000    constr:    0.0000
     atom:   47    charge:    1.9432    magn:   -0.0000    constr:    0.0000
     atom:   48    charge:    1.9444    magn:   -0.0000    constr:    0.0000
     atom:   49    charge:    0.6615    magn:   -0.0000    constr:    0.0000
     atom:   50    charge:    1.9580    magn:   -0.0000    constr:    0.0000
     atom:   51    charge:    0.4022    magn:    0.0000    constr:    0.0000
     atom:   52    charge:    0.4006    magn:    0.0000    constr:    0.0000
     atom:   53    charge:    0.4173    magn:    0.0000    constr:    0.0000
     atom:   54    charge:    0.4043    magn:    0.0000    constr:    0.0000

     total cpu time spent up to now is     1771.7 secs

     total energy              =   -3021.41945361 Ry
     Harris-Foulkes estimate   =   -3021.41945974 Ry
     estimated scf accuracy    <       0.00001579 Ry

     total magnetization       =     0.00 Bohr mag/cell
     absolute magnetization    =     0.00 Bohr mag/cell

     iteration #  6     ecut=    40.42 Ry     beta=0.10
     Davidson diagonalization with overlap
     ethr =  3.97E-09,  avg # of iterations =  4.0

     negative rho (up, down):  1.211E-02 1.211E-02
 
     Magnetic moment per site:
     atom:    1    charge:    3.1250    magn:   -0.0001    constr:    0.0000
     atom:    2    charge:    1.9452    magn:    0.0000    constr:    0.0000
     atom:    3    charge:    3.1198    magn:    0.0000    constr:    0.0000
     atom:    4    charge:    1.9504    magn:   -0.0000    constr:    0.0000
     atom:    5    charge:    3.1166    magn:    0.0000    constr:    0.0000
     atom:    6    charge:    1.9476    magn:   -0.0000    constr:    0.0000
     atom:    7    charge:    3.1157    magn:    0.0000    constr:    0.0000
     atom:    8    charge:    1.9452    magn:   -0.0000    constr:    0.0000
     atom:    9    charge:    3.1250    magn:   -0.0001    constr:    0.0000
     atom:   10    charge:    1.9452    magn:    0.0000    constr:    0.0000
     atom:   11    charge:    3.1197    magn:    0.0000    constr:    0.0000
     atom:   12    charge:    1.9504    magn:   -0.0000    constr:    0.0000
     atom:   13    charge:    3.1158    magn:    0.0000    constr:    0.0000
     atom:   14    charge:    1.9587    magn:   -0.0000    constr:    0.0000
     atom:   15    charge:    3.1188    magn:    0.0000    constr:    0.0000
     atom:   16    charge:    1.9446    magn:   -0.0000    constr:    0.0000
     atom:   17    charge:    1.9184    magn:    0.0002    constr:    0.0000
     atom:   18    charge:    3.1239    magn:   -0.0000    constr:    0.0000
     atom:   19    charge:    1.9408    magn:   -0.0000    constr:    0.0000
     atom:   20    charge:    1.9471    magn:    0.0000    constr:    0.0000
     atom:   21    charge:    1.9471    magn:    0.0000    constr:    0.0000
     atom:   22    charge:    3.1196    magn:    0.0000    constr:    0.0000
     atom:   23    charge:    1.9566    magn:   -0.0000    constr:    0.0000
     atom:   24    charge:    1.9379    magn:   -0.0000    constr:    0.0000
     atom:   25    charge:    1.9505    magn:   -0.0000    constr:    0.0000
     atom:   26    charge:    3.1145    magn:    0.0000    constr:    0.0000
     atom:   27    charge:    1.9398    magn:   -0.0000    constr:    0.0000
     atom:   28    charge:    1.9517    magn:   -0.0000    constr:    0.0000
     atom:   29    charge:    1.9476    magn:   -0.0000    constr:    0.0000
     atom:   30    charge:    3.1167    magn:    0.0000    constr:    0.0000
     atom:   31    charge:    1.9447    magn:   -0.0000    constr:    0.0000
     atom:   32    charge:    1.9440    magn:   -0.0000    constr:    0.0000
     atom:   33    charge:    1.9184    magn:    0.0002    constr:    0.0000
     atom:   34    charge:    3.1239    magn:   -0.0000    constr:    0.0000
     atom:   35    charge:    1.9408    magn:   -0.0000    constr:    0.0000
     atom:   36    charge:    1.9471    magn:    0.0000    constr:    0.0000
     atom:   37    charge:    1.9471    magn:    0.0000    constr:    0.0000
     atom:   38    charge:    3.1196    magn:    0.0000    constr:    0.0000
     atom:   39    charge:    1.9549    magn:   -0.0000    constr:    0.0000
     atom:   40    charge:    1.9383    magn:   -0.0000    constr:    0.0000
     atom:   41    charge:    1.9505    magn:   -0.0000    constr:    0.0000
     atom:   42    charge:    3.1141    magn:    0.0000    constr:    0.0000
     atom:   43    charge:    1.9413    magn:   -0.0000    constr:    0.0000
     atom:   44    charge:    1.9517    magn:   -0.0000    constr:    0.0000
     atom:   45    charge:    1.9468    magn:   -0.0000    constr:    0.0000
     atom:   46    charge:    3.1165    magn:    0.0000    constr:    0.0000
     atom:   47    charge:    1.9431    magn:   -0.0000    constr:    0.0000
     atom:   48    charge:    1.9444    magn:   -0.0000    constr:    0.0000
     atom:   49    charge:    0.6616    magn:   -0.0000    constr:    0.0000
     atom:   50    charge:    1.9579    magn:   -0.0000    constr:    0.0000
     atom:   51    charge:    0.4022    magn:    0.0000    constr:    0.0000
     atom:   52    charge:    0.4006    magn:    0.0000    constr:    0.0000
     atom:   53    charge:    0.4173    magn:    0.0000    constr:    0.0000
     atom:   54    charge:    0.4043    magn:    0.0000    constr:    0.0000

     total cpu time spent up to now is     1990.6 secs

     total energy              =   -3021.41945726 Ry
     Harris-Foulkes estimate   =   -3021.41945814 Ry
     estimated scf accuracy    <       0.00000483 Ry

     total magnetization       =     0.00 Bohr mag/cell
     absolute magnetization    =     0.00 Bohr mag/cell

     iteration #  7     ecut=    40.42 Ry     beta=0.10
     Davidson diagonalization with overlap
     ethr =  1.21E-09,  avg # of iterations =  3.0

     negative rho (up, down):  1.210E-02 1.211E-02
 
     Magnetic moment per site:
     atom:    1    charge:    3.1250    magn:   -0.0000    constr:    0.0000
     atom:    2    charge:    1.9452    magn:    0.0000    constr:    0.0000
     atom:    3    charge:    3.1198    magn:    0.0000    constr:    0.0000
     atom:    4    charge:    1.9504    magn:   -0.0000    constr:    0.0000
     atom:    5    charge:    3.1166    magn:    0.0000    constr:    0.0000
     atom:    6    charge:    1.9476    magn:   -0.0000    constr:    0.0000
     atom:    7    charge:    3.1157    magn:    0.0000    constr:    0.0000
     atom:    8    charge:    1.9452    magn:   -0.0000    constr:    0.0000
     atom:    9    charge:    3.1250    magn:   -0.0000    constr:    0.0000
     atom:   10    charge:    1.9452    magn:    0.0000    constr:    0.0000
     atom:   11    charge:    3.1197    magn:    0.0000    constr:    0.0000
     atom:   12    charge:    1.9504    magn:   -0.0000    constr:    0.0000
     atom:   13    charge:    3.1158    magn:    0.0000    constr:    0.0000
     atom:   14    charge:    1.9587    magn:   -0.0000    constr:    0.0000
     atom:   15    charge:    3.1188    magn:    0.0000    constr:    0.0000
     atom:   16    charge:    1.9445    magn:   -0.0000    constr:    0.0000
     atom:   17    charge:    1.9184    magn:    0.0001    constr:    0.0000
     atom:   18    charge:    3.1239    magn:   -0.0000    constr:    0.0000
     atom:   19    charge:    1.9408    magn:   -0.0000    constr:    0.0000
     atom:   20    charge:    1.9471    magn:    0.0000    constr:    0.0000
     atom:   21    charge:    1.9471    magn:    0.0000    constr:    0.0000
     atom:   22    charge:    3.1196    magn:    0.0000    constr:    0.0000
     atom:   23    charge:    1.9566    magn:   -0.0000    constr:    0.0000
     atom:   24    charge:    1.9379    magn:   -0.0000    constr:    0.0000
     atom:   25    charge:    1.9505    magn:   -0.0000    constr:    0.0000
     atom:   26    charge:    3.1145    magn:    0.0000    constr:    0.0000
     atom:   27    charge:    1.9398    magn:   -0.0000    constr:    0.0000
     atom:   28    charge:    1.9517    magn:   -0.0000    constr:    0.0000
     atom:   29    charge:    1.9476    magn:   -0.0000    constr:    0.0000
     atom:   30    charge:    3.1167    magn:    0.0000    constr:    0.0000
     atom:   31    charge:    1.9447    magn:   -0.0000    constr:    0.0000
     atom:   32    charge:    1.9440    magn:   -0.0000    constr:    0.0000
     atom:   33    charge:    1.9184    magn:    0.0001    constr:    0.0000
     atom:   34    charge:    3.1239    magn:   -0.0000    constr:    0.0000
     atom:   35    charge:    1.9408    magn:   -0.0000    constr:    0.0000
     atom:   36    charge:    1.9471    magn:    0.0000    constr:    0.0000
     atom:   37    charge:    1.9471    magn:    0.0000    constr:    0.0000
     atom:   38    charge:    3.1196    magn:    0.0000    constr:    0.0000
     atom:   39    charge:    1.9549    magn:   -0.0000    constr:    0.0000
     atom:   40    charge:    1.9383    magn:   -0.0000    constr:    0.0000
     atom:   41    charge:    1.9505    magn:   -0.0000    constr:    0.0000
     atom:   42    charge:    3.1141    magn:    0.0000    constr:    0.0000
     atom:   43    charge:    1.9413    magn:   -0.0000    constr:    0.0000
     atom:   44    charge:    1.9517    magn:   -0.0000    constr:    0.0000
     atom:   45    charge:    1.9468    magn:   -0.0000    constr:    0.0000
     atom:   46    charge:    3.1165    magn:    0.0000    constr:    0.0000
     atom:   47    charge:    1.9431    magn:   -0.0000    constr:    0.0000
     atom:   48    charge:    1.9444    magn:   -0.0000    constr:    0.0000
     atom:   49    charge:    0.6618    magn:   -0.0000    constr:    0.0000
     atom:   50    charge:    1.9577    magn:   -0.0000    constr:    0.0000
     atom:   51    charge:    0.4022    magn:    0.0000    constr:    0.0000
     atom:   52    charge:    0.4006    magn:    0.0000    constr:    0.0000
     atom:   53    charge:    0.4173    magn:    0.0000    constr:    0.0000
     atom:   54    charge:    0.4042    magn:    0.0000    constr:    0.0000

     total cpu time spent up to now is     2188.8 secs

     total energy              =   -3021.41945691 Ry
     Harris-Foulkes estimate   =   -3021.41945745 Ry
     estimated scf accuracy    <       0.00000164 Ry

     total magnetization       =     0.00 Bohr mag/cell
     absolute magnetization    =     0.00 Bohr mag/cell

     iteration #  8     ecut=    40.42 Ry     beta=0.10
     Davidson diagonalization with overlap
     ethr =  4.11E-10,  avg # of iterations =  4.0

     negative rho (up, down):  1.210E-02 1.210E-02
 
     Magnetic moment per site:
     atom:    1    charge:    3.1250    magn:   -0.0000    constr:    0.0000
     atom:    2    charge:    1.9452    magn:    0.0000    constr:    0.0000
     atom:    3    charge:    3.1198    magn:    0.0000    constr:    0.0000
     atom:    4    charge:    1.9504    magn:   -0.0000    constr:    0.0000
     atom:    5    charge:    3.1166    magn:    0.0000    constr:    0.0000
     atom:    6    charge:    1.9477    magn:   -0.0000    constr:    0.0000
     atom:    7    charge:    3.1157    magn:    0.0000    constr:    0.0000
     atom:    8    charge:    1.9452    magn:   -0.0000    constr:    0.0000
     atom:    9    charge:    3.1250    magn:   -0.0000    constr:    0.0000
     atom:   10    charge:    1.9452    magn:    0.0000    constr:    0.0000
     atom:   11    charge:    3.1197    magn:    0.0000    constr:    0.0000
     atom:   12    charge:    1.9504    magn:   -0.0000    constr:    0.0000
     atom:   13    charge:    3.1158    magn:    0.0000    constr:    0.0000
     atom:   14    charge:    1.9587    magn:   -0.0000    constr:    0.0000
     atom:   15    charge:    3.1188    magn:    0.0000    constr:    0.0000
     atom:   16    charge:    1.9445    magn:   -0.0000    constr:    0.0000
     atom:   17    charge:    1.9184    magn:    0.0001    constr:    0.0000
     atom:   18    charge:    3.1239    magn:   -0.0000    constr:    0.0000
     atom:   19    charge:    1.9408    magn:   -0.0000    constr:    0.0000
     atom:   20    charge:    1.9471    magn:    0.0000    constr:    0.0000
     atom:   21    charge:    1.9471    magn:    0.0000    constr:    0.0000
     atom:   22    charge:    3.1196    magn:    0.0000    constr:    0.0000
     atom:   23    charge:    1.9566    magn:   -0.0000    constr:    0.0000
     atom:   24    charge:    1.9379    magn:   -0.0000    constr:    0.0000
     atom:   25    charge:    1.9505    magn:   -0.0000    constr:    0.0000
     atom:   26    charge:    3.1145    magn:    0.0000    constr:    0.0000
     atom:   27    charge:    1.9398    magn:   -0.0000    constr:    0.0000
     atom:   28    charge:    1.9517    magn:   -0.0000    constr:    0.0000
     atom:   29    charge:    1.9476    magn:   -0.0000    constr:    0.0000
     atom:   30    charge:    3.1167    magn:    0.0000    constr:    0.0000
     atom:   31    charge:    1.9447    magn:   -0.0000    constr:    0.0000
     atom:   32    charge:    1.9440    magn:   -0.0000    constr:    0.0000
     atom:   33    charge:    1.9184    magn:    0.0001    constr:    0.0000
     atom:   34    charge:    3.1239    magn:   -0.0000    constr:    0.0000
     atom:   35    charge:    1.9408    magn:   -0.0000    constr:    0.0000
     atom:   36    charge:    1.9471    magn:    0.0000    constr:    0.0000
     atom:   37    charge:    1.9471    magn:    0.0000    constr:    0.0000
     atom:   38    charge:    3.1196    magn:    0.0000    constr:    0.0000
     atom:   39    charge:    1.9550    magn:   -0.0000    constr:    0.0000
     atom:   40    charge:    1.9383    magn:   -0.0000    constr:    0.0000
     atom:   41    charge:    1.9505    magn:   -0.0000    constr:    0.0000
     atom:   42    charge:    3.1141    magn:    0.0000    constr:    0.0000
     atom:   43    charge:    1.9413    magn:   -0.0000    constr:    0.0000
     atom:   44    charge:    1.9518    magn:   -0.0000    constr:    0.0000
     atom:   45    charge:    1.9468    magn:   -0.0000    constr:    0.0000
     atom:   46    charge:    3.1165    magn:    0.0000    constr:    0.0000
     atom:   47    charge:    1.9431    magn:   -0.0000    constr:    0.0000
     atom:   48    charge:    1.9444    magn:   -0.0000    constr:    0.0000
     atom:   49    charge:    0.6616    magn:   -0.0000    constr:    0.0000
     atom:   50    charge:    1.9579    magn:   -0.0000    constr:    0.0000
     atom:   51    charge:    0.4022    magn:    0.0000    constr:    0.0000
     atom:   52    charge:    0.4006    magn:    0.0000    constr:    0.0000
     atom:   53    charge:    0.4174    magn:    0.0000    constr:    0.0000
     atom:   54    charge:    0.4042    magn:    0.0000    constr:    0.0000

     total cpu time spent up to now is     2406.5 secs

     End of self-consistent calculation

 ------ SPIN UP ------------


          k = 0.0000 0.0000 0.0000 ( 34665 PWs)   bands (ev):

   -57.6966 -57.6616 -57.3150 -57.2787 -57.2296 -57.1074 -57.0709 -57.0700
   -57.0479 -57.0352 -56.9872 -56.9517 -56.7274 -56.6900 -56.1472 -56.1119
   -34.1327 -33.9788 -33.9503 -33.8976 -33.8672 -33.8033 -33.7428 -33.6503
   -33.6156 -33.6028 -33.5653 -33.5379 -33.5158 -33.5049 -33.4869 -33.4825
   -33.4617 -33.4516 -33.4282 -33.3964 -33.3217 -33.2896 -33.2694 -33.2601
   -33.2519 -33.2513 -33.2407 -33.2400 -33.2346 -33.2271 -33.2263 -33.2101
   -33.1775 -33.1772 -33.1722 -33.1380 -33.1154 -32.9935 -32.9753 -32.9544
   -32.9050 -32.8022 -32.5650 -32.4995 -32.4735 -32.3692 -32.2776 -32.1692
   -20.2959 -18.0099 -17.8391 -17.5543 -17.4591 -17.3700 -17.2492 -17.0751
   -17.0642 -16.9719 -16.9364 -16.8820 -16.7812 -16.7750 -16.7262 -16.7049
   -16.7003 -16.6598 -16.6090 -16.6015 -16.5335 -16.4128 -16.3998 -16.3959
   -16.3183 -16.2653 -16.1920 -16.1649 -16.1476 -15.9763 -15.9268 -14.7317
   -14.6480 -11.5080  -7.2794  -5.4683  -5.3929  -5.3103  -5.2174  -5.2024
    -5.1430  -5.1235  -4.8367  -4.8151  -4.4696  -4.4402  -4.3568  -4.3528
    -4.3194  -4.2304  -4.0874  -4.0589  -4.0532  -4.0153  -3.9966  -3.9887
    -3.9584  -3.9495  -3.9486  -3.8376  -3.7855  -3.7626  -3.7348  -3.7175
    -3.6298  -3.6143  -3.5843  -3.5751  -3.5174  -3.5058  -3.4064  -3.3931
    -3.3744  -3.2792  -3.2370  -3.1920  -3.0111  -2.9330  -2.8766  -2.8340
    -2.6928  -2.6043  -2.5875  -2.5779  -2.5730  -2.5657  -2.4291  -2.4118
    -2.3337  -2.2667  -2.2449  -2.2023  -2.1976  -2.1640  -2.1360  -2.0903
    -2.0453  -2.0266  -2.0176  -1.8843  -1.8637  -1.7602  -1.7334  -1.6219
    -1.5402  -1.5387  -1.4877  -1.4781  -1.4606  -1.4210  -1.3207  -1.3069
    -1.2998  -1.2772  -1.2402  -1.1329  -1.0841  -1.0793  -1.0646  -1.0169
    -0.9517  -0.9128  -0.8176  -0.7621  -0.6079  -0.5849  -0.5670  -0.4762
    -0.3736  -0.2401  -0.0826  -0.0238   0.1335   0.2503   0.2640   1.6449
     1.6774   1.9881   2.0043   2.0682   2.0983   2.2074   2.2466   2.2898
     2.4328   2.4999   2.5285   2.5330   2.5445   2.6337   2.6516   2.6597
     2.7180   2.8023   2.8302   2.8419   2.9140   3.0026   3.0363   3.1022
     3.1075   3.1172   3.1636   3.2047   3.2110   3.2288   3.2426   3.2542
     3.2629   3.2916   3.4002   3.4339   3.4596   3.4693   3.5306   3.5885
     3.6562   3.6977   3.8107   3.9857   4.0196   4.0950   4.1822   4.3228
     4.3417   4.3941   4.5911   4.6020   4.8137   4.8417   5.0897   5.1697
     5.2481   5.3329   5.4800   5.5201   5.5301   5.5964   5.6803   5.7150
     5.8024   5.8680   5.8793   5.8889   5.9574   6.0395   6.0503   6.0740
     6.1467   6.2318   6.2465   6.2999   6.3807   6.5836   6.6393   6.7573
     6.8446   7.0179   7.0458   7.1711   7.3046   7.5841   7.9140   8.2550
     8.3578   8.6730   8.7963   8.8703   8.9426   9.0090   9.1747   9.2601
     9.3534   9.3811   9.5294

          k = 0.0000 0.0280 0.0000 ( 34717 PWs)   bands (ev):

   -57.6942 -57.6640 -57.3126 -57.2811 -57.2291 -57.1051 -57.0730 -57.0679
   -57.0483 -57.0376 -56.9849 -56.9541 -56.7250 -56.6924 -56.1449 -56.1143
   -34.1073 -33.9768 -33.9521 -33.8914 -33.8413 -33.8097 -33.7698 -33.6276
   -33.6088 -33.5778 -33.5399 -33.5349 -33.5178 -33.4979 -33.4897 -33.4814
   -33.4687 -33.4589 -33.4262 -33.3895 -33.3155 -33.2878 -33.2831 -33.2616
   -33.2562 -33.2495 -33.2475 -33.2372 -33.2355 -33.2337 -33.2334 -33.2145
   -33.2001 -33.1823 -33.1743 -33.1420 -33.1387 -32.9896 -32.9739 -32.9557
   -32.9101 -32.8302 -32.5394 -32.4978 -32.4753 -32.3631 -32.2838 -32.1967
   -20.2958 -17.9481 -17.7815 -17.5014 -17.4069 -17.3263 -17.2226 -17.0888
   -17.0339 -16.9960 -16.9904 -16.8836 -16.8169 -16.7587 -16.7041 -16.6867
   -16.6733 -16.6619 -16.6537 -16.6397 -16.5925 -16.4366 -16.3812 -16.3660
   -16.3450 -16.2949 -16.2090 -16.1712 -16.1515 -16.0071 -15.9638 -14.7418
   -14.6714 -11.5077  -7.2791  -5.4320  -5.3120  -5.2499  -5.2214  -5.1278
    -5.0659  -5.0442  -4.7612  -4.7007  -4.4329  -4.3979  -4.3917  -4.3094
    -4.2988  -4.1578  -4.1213  -4.1115  -4.0892  -4.0682  -4.0301  -4.0284
    -3.9635  -3.9588  -3.9473  -3.8889  -3.8505  -3.8440  -3.8351  -3.7640
    -3.7197  -3.7034  -3.6634  -3.6135  -3.5729  -3.5553  -3.4295  -3.3603
    -3.3179  -3.2337  -3.2098  -3.1029  -2.9318  -2.8685  -2.7461  -2.7224
    -2.6115  -2.5988  -2.5230  -2.5073  -2.4754  -2.4382  -2.4097  -2.4054
    -2.3842  -2.3592  -2.2859  -2.2742  -2.1655  -2.1400  -2.1338  -2.0916
    -2.0196  -1.9950  -1.9516  -1.8744  -1.8082  -1.7658  -1.7046  -1.6795
    -1.6401  -1.6234  -1.5611  -1.5232  -1.4790  -1.4354  -1.4330  -1.3936
    -1.3520  -1.2690  -1.2155  -1.2109  -1.1564  -1.0876  -1.0678  -1.0196
    -1.0065  -0.9020  -0.8649  -0.7881  -0.7587  -0.7040  -0.6056  -0.5881
    -0.3920  -0.2682  -0.0895  -0.0781   0.1483   0.2039   0.2305   1.7313
     1.7772   1.9882   2.0678   2.1335   2.1540   2.2212   2.2767   2.3156
     2.4272   2.4638   2.5013   2.5381   2.5886   2.6054   2.6331   2.6943
     2.7353   2.7733   2.7997   2.9153   2.9254   2.9542   2.9790   3.0125
     3.1138   3.1195   3.1370   3.1774   3.1950   3.2081   3.2610   3.3070
     3.3378   3.3733   3.4099   3.4762   3.5096   3.5542   3.5647   3.6512
     3.6675   3.6886   3.7743   3.9625   4.0373   4.1187   4.1936   4.2892
     4.3254   4.3990   4.5431   4.6940   4.8676   4.9282   5.0935   5.2612
     5.3065   5.3374   5.5399   5.5686   5.6067   5.6273   5.6887   5.7224
     5.7868   5.7951   5.8543   5.8807   5.9014   5.9500   6.0712   6.1248
     6.1516   6.1601   6.1769   6.2094   6.2777   6.5610   6.6061   6.6971
     6.8499   6.9527   6.9900   7.0855   7.2332   7.5889   7.9279   8.0212
     8.0619   8.4601   8.5688   8.8445   8.9109   8.9988   9.0894   9.1407
     9.2751   9.4352   9.5055

          k = 0.0000 0.0560 0.0000 ( 34721 PWs)   bands (ev):

   -57.6878 -57.6704 -57.3060 -57.2877 -57.2283 -57.0990 -57.0791 -57.0615
   -57.0492 -57.0440 -56.9784 -56.9606 -56.7183 -56.6991 -56.1384 -56.1208
   -34.0375 -33.9715 -33.9571 -33.8743 -33.8428 -33.8272 -33.7703 -33.5932
   -33.5699 -33.5691 -33.5321 -33.5246 -33.5039 -33.5013 -33.4738 -33.4698
   -33.4532 -33.4233 -33.4160 -33.3700 -33.3132 -33.3105 -33.3104 -33.2991
   -33.2835 -33.2737 -33.2653 -33.2608 -33.2509 -33.2435 -33.2317 -33.2296
   -33.2073 -33.1954 -33.1678 -33.1621 -33.1233 -32.9846 -32.9703 -32.9591
   -32.9230 -32.8999 -32.4930 -32.4801 -32.4686 -32.3466 -32.3007 -32.2709
   -20.2955 -17.7770 -17.6228 -17.3700 -17.2732 -17.2575 -17.2163 -17.1646
   -17.1336 -16.9599 -16.9510 -16.9164 -16.8712 -16.8167 -16.7856 -16.7234
   -16.7135 -16.6812 -16.6221 -16.5944 -16.5369 -16.5020 -16.4198 -16.3755
   -16.3596 -16.2996 -16.2382 -16.1923 -16.1549 -16.1077 -16.0366 -14.7600
   -14.7220 -11.5069  -7.2783  -5.3979  -5.2324  -5.0742  -5.0353  -4.9216
    -4.8560  -4.8213  -4.5594  -4.5033  -4.4705  -4.4150  -4.4072  -4.3640
    -4.3289  -4.2576  -4.2324  -4.2094  -4.1938  -4.1841  -4.1537  -4.0731
    -4.0550  -4.0033  -3.9843  -3.9660  -3.9283  -3.8885  -3.8539  -3.8160
    -3.7946  -3.7290  -3.6334  -3.5836  -3.4316  -3.4251  -3.3531  -3.2660
    -3.2363  -3.2117  -3.1912  -3.0812  -2.8947  -2.8409  -2.8357  -2.7962
    -2.7195  -2.6663  -2.5458  -2.4713  -2.4421  -2.3200  -2.3136  -2.3087
    -2.3006  -2.2466  -2.2045  -2.1767  -2.1457  -2.1149  -2.0294  -2.0077
    -1.9583  -1.9451  -1.9145  -1.9028  -1.8810  -1.8465  -1.8142  -1.7805
    -1.7426  -1.6928  -1.6225  -1.5396  -1.5247  -1.5073  -1.4531  -1.4175
    -1.3777  -1.3623  -1.3474  -1.2879  -1.2364  -1.2146  -1.1541  -1.1010
    -1.0808  -1.0213  -0.9207  -0.8881  -0.8480  -0.7826  -0.7605  -0.6580
    -0.5845  -0.4607  -0.2394   0.0932   0.1455   0.1806   0.1872   1.8669
     2.0268   2.1003   2.1113   2.2124   2.2370   2.2717   2.3691   2.3916
     2.3980   2.4138   2.4369   2.4784   2.5054   2.5406   2.6767   2.6979
     2.7365   2.7775   2.8326   2.9062   2.9180   2.9408   2.9740   2.9761
     3.0178   3.1011   3.1402   3.1595   3.2527   3.2642   3.2887   3.3315
     3.3707   3.3890   3.4429   3.5396   3.5458   3.6391   3.6796   3.7299
     3.7631   3.8253   3.8605   3.8921   3.9344   4.1328   4.1441   4.1605
     4.3308   4.3776   4.5665   4.9090   5.0183   5.0664   5.1768   5.3804
     5.3844   5.4807   5.5206   5.5520   5.6509   5.7258   5.7261   5.7359
     5.7816   5.7899   5.8010   5.8589   5.8878   5.9476   5.9802   5.9921
     6.0039   6.0569   6.1572   6.1732   6.3118   6.3745   6.4118   6.6160
     6.6644   6.7829   6.8725   7.0436   7.2144   7.3352   7.4443   7.7341
     8.0867   8.2133   8.3663   8.6186   8.8936   8.9949   9.3092   9.3327
     9.4288   9.4465   9.5888

          k = 0.0000-0.0840 0.0000 ( 34678 PWs)   bands (ev):

   -57.6792 -57.6790 -57.2986 -57.2952 -57.2279 -57.0935 -57.0846 -57.0528
   -57.0527 -57.0496 -56.9701 -56.9690 -56.7112 -56.7063 -56.1296 -56.1296
   -33.9644 -33.9642 -33.9410 -33.9408 -33.8509 -33.8507 -33.6834 -33.6594
   -33.5633 -33.5599 -33.5257 -33.5153 -33.5109 -33.4740 -33.4503 -33.4211
   -33.4115 -33.4051 -33.3727 -33.3725 -33.3596 -33.3447 -33.3388 -33.3214
   -33.3200 -33.2824 -33.2756 -33.2735 -33.2667 -33.2643 -33.2302 -33.2284
   -33.2128 -33.2109 -33.1609 -33.1600 -33.0460 -33.0251 -32.9672 -32.9620
   -32.9369 -32.9339 -32.4865 -32.4865 -32.3707 -32.3707 -32.3236 -32.3236
   -20.2954 -17.5663 -17.5029 -17.4081 -17.3878 -17.2267 -17.1726 -17.0636
   -17.0591 -17.0132 -17.0003 -16.9868 -16.8693 -16.8374 -16.8374 -16.7985
   -16.7919 -16.5936 -16.5916 -16.5226 -16.5204 -16.4861 -16.4846 -16.4018
   -16.3996 -16.2602 -16.2582 -16.1988 -16.1949 -16.1290 -16.0990 -14.7588
   -14.7586 -11.5065  -7.2778  -5.3891  -5.2380  -4.7970  -4.7311  -4.7301
    -4.6534  -4.6396  -4.6350  -4.5994  -4.5712  -4.5070  -4.4992  -4.3981
    -4.3707  -4.3369  -4.3350  -4.3062  -4.2932  -4.2780  -4.2725  -4.0519
    -4.0304  -4.0210  -4.0080  -3.9898  -3.9399  -3.8072  -3.7907  -3.7873
    -3.7133  -3.6920  -3.6374  -3.5074  -3.4707  -3.3375  -3.3248  -3.2707
    -3.1362  -3.1141  -3.0413  -3.0170  -2.9602  -2.9252  -2.8026  -2.7858
    -2.6956  -2.6913  -2.5743  -2.5368  -2.5102  -2.4926  -2.4763  -2.4451
    -2.4362  -2.4162  -2.3278  -2.2433  -2.0263  -2.0050  -1.9653  -1.9389
    -1.9249  -1.8264  -1.8201  -1.8067  -1.7796  -1.7427  -1.7286  -1.6977
    -1.6627  -1.6378  -1.6123  -1.5558  -1.5127  -1.4852  -1.4788  -1.4502
    -1.4229  -1.4151  -1.4076  -1.3792  -1.3566  -1.3235  -1.2187  -1.1850
    -1.0989  -1.0705  -1.0084  -0.9756  -0.9684  -0.9575  -0.9409  -0.5215
    -0.5164  -0.4543  -0.4401   0.1456   0.1456   0.1882   0.1899   2.0414
     2.0445   2.2210   2.2221   2.2231   2.2394   2.2876   2.3425   2.3493
     2.3493   2.3751   2.3858   2.5304   2.5562   2.5572   2.6038   2.6669
     2.7176   2.7394   2.7525   2.8941   2.9252   2.9922   2.9999   3.0600
     3.0612   3.1046   3.1154   3.1829   3.2209   3.2359   3.2487   3.4064
     3.4286   3.4396   3.4423   3.4754   3.4864   3.7280   3.7685   3.8071
     3.8105   3.8346   3.9113   3.9337   3.9715   4.0756   4.0780   4.1280
     4.1286   4.4217   4.6747   4.9630   5.0031   5.2637   5.3330   5.4601
     5.4917   5.5105   5.5105   5.5794   5.6026   5.6495   5.6677   5.6740
     5.8020   5.8068   5.8291   5.8543   5.8643   5.8691   5.8860   5.9763
     6.0219   6.0623   6.0729   6.1611   6.1983   6.4058   6.4673   6.5661
     6.6058   6.7474   6.7742   6.9810   7.0331   7.1016   7.3287   7.6997
     7.8938   8.1785   8.4126   8.7889   8.8455   8.8979   9.1596   9.6921
     9.7047   9.7563   9.7938

          k = 0.0253 0.0000 0.0000 ( 34707 PWs)   bands (ev):

   -57.6966 -57.6616 -57.3150 -57.2787 -57.2296 -57.1073 -57.0709 -57.0701
   -57.0479 -57.0352 -56.9872 -56.9517 -56.7274 -56.6900 -56.1472 -56.1119
   -34.1330 -33.9788 -33.9503 -33.8969 -33.8673 -33.8033 -33.7429 -33.6510
   -33.6156 -33.6044 -33.5655 -33.5345 -33.5295 -33.5058 -33.4825 -33.4721
   -33.4605 -33.4516 -33.4282 -33.3895 -33.3215 -33.2897 -33.2691 -33.2601
   -33.2555 -33.2544 -33.2419 -33.2388 -33.2363 -33.2272 -33.2264 -33.2099
   -33.1774 -33.1771 -33.1726 -33.1380 -33.1155 -32.9935 -32.9777 -32.9535
   -32.9051 -32.8023 -32.5650 -32.5006 -32.4729 -32.3692 -32.2776 -32.1694
   -20.2957 -17.9801 -17.7991 -17.5120 -17.4301 -17.3533 -17.2558 -17.1422
   -17.0897 -16.9727 -16.9360 -16.8685 -16.8166 -16.8026 -16.7866 -16.7780
   -16.7268 -16.6906 -16.5537 -16.5310 -16.4515 -16.4497 -16.4007 -16.3679
   -16.3359 -16.3099 -16.1805 -16.1627 -16.1488 -15.9761 -15.9265 -14.7306
   -14.6479 -11.5068  -7.2767  -5.4625  -5.3014  -5.2616  -5.2162  -5.0948
    -5.0418  -5.0132  -4.8313  -4.8105  -4.6151  -4.4666  -4.4333  -4.3282
    -4.3087  -4.2988  -4.2447  -4.0974  -4.0338  -4.0299  -3.9938  -3.9426
    -3.9354  -3.9073  -3.8282  -3.7988  -3.7484  -3.7184  -3.6923  -3.6896
    -3.6177  -3.5952  -3.5673  -3.5598  -3.5140  -3.4456  -3.3438  -3.3080
    -3.2496  -3.2362  -3.1841  -3.1039  -3.0310  -2.9739  -2.9220  -2.8937
    -2.7511  -2.6711  -2.6305  -2.5973  -2.5771  -2.5275  -2.5171  -2.5011
    -2.4291  -2.3331  -2.3199  -2.2340  -2.2180  -2.1796  -2.1561  -2.0678
    -2.0067  -1.9976  -1.9608  -1.8801  -1.8481  -1.7505  -1.7368  -1.6485
    -1.5829  -1.5795  -1.5352  -1.4611  -1.4553  -1.3636  -1.3550  -1.3415
    -1.3344  -1.2876  -1.2714  -1.1869  -1.1246  -1.1147  -1.0763  -1.0444
    -0.9700  -0.9123  -0.8268  -0.7832  -0.7717  -0.6484  -0.6396  -0.5485
    -0.4183  -0.2345  -0.1133  -0.0515   0.1194   0.2076   0.2084   1.6643
     1.7273   2.0036   2.0742   2.1512   2.2262   2.2408   2.2725   2.3807
     2.3881   2.4604   2.5072   2.5251   2.5435   2.5809   2.6001   2.6389
     2.6584   2.7373   2.7603   2.8701   2.8870   2.9728   3.0337   3.1070
     3.1234   3.1469   3.1651   3.2060   3.2114   3.2565   3.2718   3.3419
     3.3805   3.4055   3.4538   3.4756   3.5379   3.5633   3.5947   3.6022
     3.6670   3.7330   3.7502   3.9171   4.0052   4.1007   4.1764   4.2793
     4.3767   4.3974   4.5555   4.6807   4.8664   4.9145   4.9291   5.0720
     5.1242   5.1486   5.1918   5.3534   5.5689   5.6253   5.6956   5.8688
     5.8855   5.9277   5.9615   6.0326   6.0831   6.1160   6.1635   6.2123
     6.2215   6.2546   6.2619   6.3105   6.4509   6.5285   6.6463   6.6717
     6.8248   6.8720   7.0364   7.1487   7.3044   7.7540   7.8552   8.0922
     8.3380   8.3774   8.4323   8.6826   8.8473   8.9712   9.1521   9.3480
     9.3643   9.4727   9.4972

          k = 0.0253 0.0280 0.0000 ( 34687 PWs)   bands (ev):

   -57.6942 -57.6640 -57.3126 -57.2811 -57.2291 -57.1050 -57.0730 -57.0680
   -57.0483 -57.0376 -56.9849 -56.9541 -56.7250 -56.6924 -56.1449 -56.1143
   -34.1076 -33.9768 -33.9521 -33.8907 -33.8414 -33.8097 -33.7698 -33.6283
   -33.6088 -33.5794 -33.5401 -33.5317 -33.5191 -33.5133 -33.4900 -33.4694
   -33.4631 -33.4577 -33.4262 -33.3827 -33.3154 -33.2879 -33.2809 -33.2616
   -33.2562 -33.2513 -33.2496 -33.2451 -33.2351 -33.2337 -33.2325 -33.2133
   -33.2003 -33.1824 -33.1743 -33.1419 -33.1387 -32.9897 -32.9760 -32.9550
   -32.9101 -32.8302 -32.5393 -32.4987 -32.4748 -32.3631 -32.2838 -32.1967
   -20.2956 -17.9198 -17.7424 -17.4608 -17.3804 -17.3062 -17.2293 -17.1260
   -17.0951 -17.0035 -16.9607 -16.8557 -16.8279 -16.8026 -16.7811 -16.7675
   -16.7105 -16.6966 -16.5973 -16.5765 -16.5038 -16.4722 -16.3783 -16.3622
   -16.3534 -16.3269 -16.1976 -16.1708 -16.1512 -16.0076 -15.9635 -14.7408
   -14.6715 -11.5064  -7.2763  -5.4350  -5.2385  -5.2200  -5.1791  -5.0183
    -4.9635  -4.9330  -4.7562  -4.6977  -4.5593  -4.4006  -4.3686  -4.3432
    -4.2570  -4.2503  -4.1839  -4.1155  -4.0844  -4.0617  -4.0309  -4.0179
    -3.9737  -3.9399  -3.9102  -3.8650  -3.8194  -3.8072  -3.7816  -3.7176
    -3.6948  -3.6615  -3.6126  -3.6025  -3.5385  -3.5243  -3.3567  -3.3053
    -3.2497  -3.2171  -3.1495  -3.0726  -2.9791  -2.9469  -2.7837  -2.7049
    -2.6787  -2.6339  -2.6083  -2.5318  -2.5009  -2.4516  -2.4453  -2.4179
    -2.4024  -2.3839  -2.3373  -2.2998  -2.2132  -2.1753  -2.1130  -2.0975
    -2.0641  -1.9921  -1.9467  -1.8893  -1.8626  -1.8238  -1.7592  -1.6717
    -1.6423  -1.6139  -1.5859  -1.5595  -1.5064  -1.4588  -1.4375  -1.3974
    -1.3421  -1.3251  -1.2667  -1.2524  -1.2043  -1.1066  -1.0952  -1.0579
    -1.0076  -0.8845  -0.8365  -0.8325  -0.7617  -0.7366  -0.6931  -0.6558
    -0.4293  -0.2791  -0.1313  -0.0836   0.1515   0.1808   0.1910   1.7233
     1.8474   2.0188   2.1018   2.1985   2.2477   2.2847   2.3191   2.3998
     2.4201   2.4700   2.4917   2.5273   2.5352   2.5555   2.5935   2.6769
     2.7080   2.7302   2.7901   2.8097   2.9335   2.9899   3.0126   3.0378
     3.1093   3.1373   3.1485   3.1754   3.2112   3.2452   3.3473   3.3761
     3.4085   3.4392   3.4655   3.5135   3.5554   3.5720   3.6391   3.6634
     3.6760   3.7111   3.7529   3.8976   3.9969   4.1423   4.1881   4.2563
     4.3090   4.4547   4.5119   4.7754   4.9322   4.9554   4.9963   5.0804
     5.1627   5.1781   5.2266   5.3895   5.6446   5.6853   5.7338   5.7796
     5.8568   5.8676   5.8741   6.0105   6.0737   6.0881   6.1224   6.1477
     6.1995   6.2113   6.2215   6.2375   6.4309   6.5326   6.6159   6.6647
     6.7923   6.8686   6.9655   7.1517   7.2277   7.5073   7.9315   8.0300
     8.0952   8.2617   8.4482   8.5843   8.6553   8.7821   8.9469   9.2871
     9.3622   9.4631   9.5141

          k = 0.0253 0.0560 0.0000 ( 34699 PWs)   bands (ev):

   -57.6878 -57.6704 -57.3060 -57.2877 -57.2283 -57.0989 -57.0791 -57.0616
   -57.0492 -57.0440 -56.9784 -56.9606 -56.7183 -56.6991 -56.1384 -56.1208
   -34.0378 -33.9714 -33.9572 -33.8738 -33.8429 -33.8270 -33.7703 -33.5932
   -33.5705 -33.5692 -33.5322 -33.5226 -33.5060 -33.5049 -33.4738 -33.4702
   -33.4522 -33.4234 -33.4107 -33.3646 -33.3136 -33.3112 -33.3060 -33.2989
   -33.2837 -33.2741 -33.2653 -33.2597 -33.2510 -33.2457 -33.2357 -33.2319
   -33.2075 -33.1961 -33.1678 -33.1620 -33.1231 -32.9846 -32.9718 -32.9590
   -32.9231 -32.8998 -32.4937 -32.4798 -32.4685 -32.3466 -32.3007 -32.2708
   -20.2953 -17.7535 -17.5871 -17.3407 -17.2615 -17.2418 -17.1908 -17.1654
   -17.1366 -16.9935 -16.9675 -16.8780 -16.8736 -16.8262 -16.7937 -16.7702
   -16.7453 -16.6676 -16.6199 -16.6015 -16.5768 -16.5274 -16.4241 -16.4091
   -16.3529 -16.2826 -16.2312 -16.1916 -16.1546 -16.1085 -16.0361 -14.7594
   -14.7222 -11.5057  -7.2754  -5.4053  -5.2316  -5.0289  -4.9464  -4.8100
    -4.7542  -4.7115  -4.5557  -4.4955  -4.4880  -4.4109  -4.3917  -4.3369
    -4.2681  -4.2287  -4.2131  -4.1893  -4.1451  -4.1385  -4.1036  -4.0591
    -4.0298  -4.0096  -3.9903  -3.9326  -3.9218  -3.8725  -3.8567  -3.8189
    -3.7719  -3.7135  -3.6523  -3.5691  -3.4716  -3.4012  -3.3315  -3.2800
    -3.2347  -3.2202  -3.1892  -3.0097  -2.9394  -2.8605  -2.8269  -2.7768
    -2.7567  -2.6434  -2.5909  -2.5071  -2.4867  -2.4353  -2.3901  -2.3631
    -2.3403  -2.3219  -2.2855  -2.2606  -2.1872  -2.1385  -2.1251  -2.0370
    -2.0087  -2.0068  -1.9441  -1.9356  -1.9001  -1.8587  -1.8321  -1.8091
    -1.7423  -1.7013  -1.6758  -1.6347  -1.5702  -1.5352  -1.4918  -1.4725
    -1.4286  -1.3701  -1.3358  -1.2998  -1.2207  -1.2029  -1.1291  -1.1031
    -1.0583  -1.0104  -0.9088  -0.8720  -0.8182  -0.7971  -0.7409  -0.6785
    -0.6041  -0.4625  -0.2533   0.0941   0.1308   0.1578   0.1904   1.8642
     2.0505   2.1352   2.1813   2.2342   2.2747   2.3084   2.3505   2.3872
     2.4290   2.4645   2.4837   2.5109   2.5227   2.5862   2.6966   2.7243
     2.7417   2.7788   2.8266   2.8425   2.9067   2.9554   2.9775   2.9890
     3.0301   3.0363   3.1591   3.2103   3.2894   3.3321   3.3433   3.3859
     3.4103   3.4416   3.4636   3.5435   3.5622   3.6336   3.6589   3.7373
     3.7959   3.8225   3.8639   3.9033   3.9072   4.0749   4.1191   4.1677
     4.3454   4.3886   4.6180   4.9679   5.0152   5.1319   5.1448   5.1606
     5.2647   5.2918   5.3164   5.4393   5.5128   5.5637   5.6401   5.7612
     5.8262   5.8530   5.8942   5.9362   5.9625   6.0050   6.0514   6.0631
     6.1389   6.1594   6.2254   6.3346   6.3817   6.4050   6.4823   6.6439
     6.6948   6.7986   6.8497   7.0372   7.1522   7.3650   7.4845   7.5891
     7.9820   8.1799   8.3496   8.5227   8.6649   8.8702   9.0565   9.1182
     9.1996   9.4921   9.6245

          k = 0.0253-0.0840 0.0000 ( 34722 PWs)   bands (ev):

   -57.6792 -57.6790 -57.2985 -57.2952 -57.2279 -57.0935 -57.0846 -57.0528
   -57.0528 -57.0496 -56.9701 -56.9690 -56.7112 -56.7063 -56.1296 -56.1296
   -33.9644 -33.9642 -33.9412 -33.9411 -33.8506 -33.8504 -33.6835 -33.6595
   -33.5633 -33.5599 -33.5262 -33.5151 -33.5108 -33.4741 -33.4495 -33.4213
   -33.4136 -33.4075 -33.3736 -33.3735 -33.3604 -33.3378 -33.3319 -33.3199
   -33.3185 -33.2822 -33.2754 -33.2737 -33.2669 -33.2628 -33.2337 -33.2323
   -33.2145 -33.2126 -33.1609 -33.1600 -33.0459 -33.0251 -32.9677 -32.9628
   -32.9369 -32.9339 -32.4868 -32.4868 -32.3707 -32.3707 -32.3236 -32.3236
   -20.2952 -17.5529 -17.4847 -17.3799 -17.3614 -17.2107 -17.1515 -17.0568
   -17.0471 -17.0012 -16.9768 -16.9726 -16.8865 -16.8770 -16.8664 -16.7833
   -16.7780 -16.6318 -16.6261 -16.5654 -16.5617 -16.5198 -16.5184 -16.3855
   -16.3840 -16.2517 -16.2494 -16.1971 -16.1935 -16.1295 -16.0983 -14.7587
   -14.7585 -11.5053  -7.2750  -5.3966  -5.2375  -4.7972  -4.6432  -4.6333
    -4.6219  -4.5455  -4.5447  -4.5293  -4.5219  -4.4154  -4.4061  -4.3672
    -4.3441  -4.3136  -4.2956  -4.2822  -4.2607  -4.2291  -4.2254  -4.0397
    -4.0360  -4.0117  -3.9808  -3.9618  -3.9177  -3.8450  -3.8403  -3.8132
    -3.7359  -3.6589  -3.6417  -3.4117  -3.3987  -3.3460  -3.3169  -3.2625
    -3.1168  -3.0929  -3.0577  -3.0485  -3.0061  -2.9620  -2.9168  -2.8930
    -2.8066  -2.8027  -2.6197  -2.6001  -2.5744  -2.5561  -2.5275  -2.4640
    -2.4324  -2.3397  -2.3126  -2.2733  -2.1193  -2.0712  -2.0527  -2.0069
    -1.9206  -1.9181  -1.8760  -1.8646  -1.8540  -1.8133  -1.8030  -1.7926
    -1.7644  -1.7265  -1.6831  -1.6542  -1.6181  -1.6046  -1.5920  -1.4732
    -1.3992  -1.3861  -1.2764  -1.2592  -1.2388  -1.2243  -1.1833  -1.1270
    -1.0814  -1.0491  -1.0411  -1.0098  -0.9564  -0.8882  -0.8759  -0.5345
    -0.5267  -0.4548  -0.4423   0.1194   0.1195   0.1988   0.2004   2.0530
     2.0553   2.2206   2.2359   2.2388   2.2427   2.2810   2.3192   2.4263
     2.4283   2.4429   2.4451   2.5603   2.5618   2.5809   2.6583   2.7245
     2.7587   2.8228   2.8316   2.8829   2.9026   2.9410   2.9510   3.0287
     3.0425   3.0881   3.1175   3.2243   3.2721   3.2928   3.3098   3.4252
     3.4305   3.4549   3.4721   3.4968   3.5255   3.7175   3.7430   3.8113
     3.8290   3.8404   3.8888   3.9160   3.9232   4.0832   4.0858   4.1195
     4.1199   4.4771   4.7163   4.9875   5.0265   5.2730   5.3043   5.3125
     5.3305   5.3635   5.3876   5.4299   5.4817   5.5123   5.5559   5.6440
     5.6505   5.7660   5.8362   5.8792   5.8941   6.0193   6.0801   6.0913
     6.1327   6.1883   6.2204   6.2831   6.3037   6.4676   6.5219   6.5964
     6.6399   6.7889   6.7960   6.9909   7.0361   7.1210   7.3859   7.5964
     7.7443   8.0075   8.2836   8.7247   8.7459   8.9657   9.0125   9.3155
     9.3512   9.4547   9.5524

          k = 0.0506 0.0000 0.0000 ( 34729 PWs)   bands (ev):

   -57.6966 -57.6616 -57.3149 -57.2787 -57.2296 -57.1071 -57.0708 -57.0704
   -57.0479 -57.0352 -56.9872 -56.9517 -56.7274 -56.6900 -56.1472 -56.1119
   -34.1337 -33.9787 -33.9503 -33.8955 -33.8676 -33.8034 -33.7429 -33.6525
   -33.6155 -33.6077 -33.5660 -33.5464 -33.5266 -33.5060 -33.4825 -33.4579
   -33.4557 -33.4508 -33.4282 -33.3728 -33.3213 -33.2899 -33.2685 -33.2641
   -33.2602 -33.2590 -33.2575 -33.2350 -33.2312 -33.2272 -33.2264 -33.2094
   -33.1772 -33.1769 -33.1732 -33.1380 -33.1157 -32.9935 -32.9828 -32.9516
   -32.9051 -32.8024 -32.5648 -32.5027 -32.4718 -32.3692 -32.2777 -32.1694
   -20.2953 -17.9141 -17.7042 -17.4135 -17.3874 -17.2801 -17.2632 -17.2351
   -17.1372 -16.9757 -16.9649 -16.9352 -16.8927 -16.8827 -16.8651 -16.8435
   -16.7484 -16.6988 -16.5338 -16.4525 -16.4464 -16.4080 -16.4020 -16.3559
   -16.3517 -16.3254 -16.1726 -16.1579 -16.1512 -15.9762 -15.9261 -14.7284
   -14.6476 -11.5045  -7.2711  -5.4701  -5.2881  -5.2143  -4.9777  -4.9112
    -4.8007  -4.7952  -4.7686  -4.7454  -4.7114  -4.6309  -4.5226  -4.4624
    -4.4153  -4.2455  -4.1298  -4.0384  -4.0221  -4.0167  -3.9714  -3.9275
    -3.9097  -3.8264  -3.7861  -3.7595  -3.7509  -3.6565  -3.6343  -3.6135
    -3.5529  -3.5510  -3.5385  -3.5229  -3.4974  -3.3077  -3.2798  -3.2652
    -3.2424  -3.1996  -3.1535  -3.1083  -2.9928  -2.9401  -2.8846  -2.8487
    -2.8245  -2.7793  -2.7556  -2.6764  -2.6201  -2.6083  -2.5749  -2.5447
    -2.4601  -2.4571  -2.4247  -2.3632  -2.3113  -2.2040  -2.1956  -2.1191
    -2.0836  -1.9889  -1.9366  -1.9295  -1.8410  -1.8149  -1.7984  -1.7121
    -1.6333  -1.5718  -1.5555  -1.5528  -1.4838  -1.4754  -1.4397  -1.3979
    -1.3491  -1.3304  -1.3006  -1.2089  -1.1175  -1.1032  -1.0856  -1.0697
    -0.9886  -0.9507  -0.8855  -0.8125  -0.8069  -0.7909  -0.7543  -0.5301
    -0.5214  -0.2653  -0.2217  -0.0450   0.0951   0.1211   0.1394   1.6443
     1.8207   2.0025   2.0994   2.1032   2.1819   2.1995   2.2836   2.2959
     2.4571   2.4601   2.4736   2.5611   2.5665   2.5880   2.6289   2.6812
     2.7093   2.8253   2.8727   2.8762   2.9020   2.9264   3.0865   3.1110
     3.1497   3.1661   3.2033   3.2044   3.2889   3.2920   3.3340   3.4120
     3.4419   3.4510   3.5032   3.5549   3.5795   3.5878   3.7029   3.7135
     3.7622   3.7656   3.8008   3.8966   3.9281   4.0858   4.1594   4.2147
     4.3495   4.4677   4.5777   4.6541   4.7701   4.8000   4.8640   4.9007
[...]
    -1.2946  -1.2637  -1.2497  -1.1875  -1.1502  -1.0284  -1.0174  -1.0092
    -0.9858  -0.9454  -0.9024  -0.8351  -0.7535  -0.6984  -0.6439  -0.5914
    -0.5874  -0.5319  -0.5151   0.0684   0.0684   0.2131   0.2147   2.1560
     2.1568   2.2033   2.2052   2.2413   2.2422   2.2692   2.3008   2.4905
     2.4959   2.5283   2.5583   2.6118   2.6195   2.6819   2.6838   2.6935
     2.6947   2.8471   2.9127   2.9855   3.0007   3.0369   3.0444   3.1013
     3.2227   3.2519   3.2751   3.3356   3.3764   3.3931   3.4475   3.4955
     3.5030   3.5253   3.5520   3.5837   3.6064   3.6829   3.7032   3.7484
     3.8378   3.8940   3.9103   3.9551   3.9554   4.0985   4.1053   4.1141
     4.1146   4.6178   4.7856   4.7894   4.8047   4.8736   4.9231   4.9281
     4.9447   4.9876   5.0301   5.2518   5.3422   5.3617   5.3722   5.7315
     5.8032   5.9140   5.9298   5.9823   6.0491   6.1621   6.3053   6.3521
     6.3682   6.3773   6.4128   6.5779   6.6140   6.6673   6.6674   6.7061
     6.7655   6.8460   6.8470   6.8547   6.8556   7.3601   7.4046   7.5215
     7.6611   7.8287   8.0157   8.1703   8.2249   8.3208   8.3951   8.8231
     8.9162   9.0431   9.0822

          k =-0.0253 0.0280 0.0000 ( 34687 PWs)   bands (ev):

   -57.6943 -57.6640 -57.3125 -57.2810 -57.2291 -57.1050 -57.0730 -57.0679
   -57.0482 -57.0375 -56.9848 -56.9541 -56.7249 -56.6924 -56.1451 -56.1145
   -34.1077 -33.9769 -33.9522 -33.8908 -33.8414 -33.8097 -33.7699 -33.6282
   -33.6088 -33.5794 -33.5401 -33.5317 -33.5191 -33.5133 -33.4899 -33.4694
   -33.4630 -33.4576 -33.4261 -33.3827 -33.3154 -33.2879 -33.2808 -33.2616
   -33.2559 -33.2513 -33.2498 -33.2451 -33.2351 -33.2337 -33.2325 -33.2132
   -33.2002 -33.1823 -33.1742 -33.1419 -33.1386 -32.9896 -32.9760 -32.9550
   -32.9100 -32.8301 -32.5395 -32.4989 -32.4750 -32.3633 -32.2840 -32.1969
   -20.2956 -17.9199 -17.7424 -17.4608 -17.3804 -17.3063 -17.2294 -17.1259
   -17.0953 -17.0032 -16.9607 -16.8562 -16.8278 -16.8036 -16.7807 -16.7674
   -16.7105 -16.6968 -16.5971 -16.5762 -16.5038 -16.4722 -16.3783 -16.3623
   -16.3535 -16.3269 -16.1977 -16.1708 -16.1512 -16.0076 -15.9636 -14.7403
   -14.6710 -11.5065  -7.2762  -5.4349  -5.2383  -5.2200  -5.1791  -5.0187
    -4.9635  -4.9333  -4.7562  -4.6984  -4.5592  -4.4003  -4.3686  -4.3435
    -4.2582  -4.2470  -4.1853  -4.1140  -4.0886  -4.0616  -4.0335  -4.0177
    -3.9724  -3.9381  -3.9115  -3.8659  -3.8195  -3.8089  -3.7816  -3.7177
    -3.6978  -3.6602  -3.6123  -3.6016  -3.5367  -3.5236  -3.3626  -3.2960
    -3.2513  -3.2194  -3.1476  -3.0704  -2.9803  -2.9430  -2.7826  -2.7040
    -2.6782  -2.6343  -2.6080  -2.5292  -2.5019  -2.4488  -2.4449  -2.4200
    -2.4032  -2.3821  -2.3368  -2.2988  -2.2151  -2.1726  -2.1185  -2.1010
    -2.0599  -1.9884  -1.9480  -1.8921  -1.8612  -1.8247  -1.7401  -1.7051
    -1.6499  -1.5963  -1.5902  -1.5570  -1.5129  -1.4673  -1.4332  -1.3904
    -1.3422  -1.3297  -1.2779  -1.2393  -1.1939  -1.1074  -1.0953  -1.0561
    -1.0083  -0.8899  -0.8379  -0.8280  -0.7524  -0.7362  -0.7053  -0.6567
    -0.4303  -0.2790  -0.1319  -0.0833   0.1517   0.1811   0.1914   1.7232
     1.8474   2.0187   2.1033   2.1983   2.2490   2.2879   2.3218   2.4069
     2.4181   2.4529   2.4888   2.5327   2.5352   2.5504   2.6108   2.6715
     2.7082   2.7418   2.7785   2.8152   2.9421   2.9892   3.0071   3.0300
     3.1104   3.1389   3.1489   3.1769   3.2114   3.2424   3.3507   3.3752
     3.4063   3.4227   3.4670   3.5098   3.5645   3.5739   3.6399   3.6633
     3.6757   3.7121   3.7523   3.8964   3.9956   4.1441   4.1882   4.2567
     4.3090   4.4549   4.5121   4.7758   4.9402   4.9545   4.9871   5.0804
     5.1617   5.1777   5.2264   5.3885   5.6462   5.6783   5.7305   5.7896
     5.8550   5.8674   5.8750   6.0094   6.0762   6.0813   6.1269   6.1485
     6.1995   6.2098   6.2175   6.2462   6.4308   6.5310   6.6157   6.6708
     6.7972   6.8623   6.9654   7.1519   7.2279   7.5139   7.9312   8.0330
     8.0953   8.2527   8.4500   8.5827   8.6496   8.7753   8.9579   9.2769
     9.3568   9.4716   9.5114

          k =-0.0253 0.0560 0.0000 ( 34699 PWs)   bands (ev):

   -57.6879 -57.6705 -57.3060 -57.2876 -57.2283 -57.0989 -57.0791 -57.0615
   -57.0491 -57.0440 -56.9783 -56.9606 -56.7183 -56.6991 -56.1387 -56.1210
   -34.0378 -33.9715 -33.9573 -33.8739 -33.8429 -33.8270 -33.7703 -33.5932
   -33.5704 -33.5692 -33.5322 -33.5225 -33.5060 -33.5049 -33.4738 -33.4701
   -33.4522 -33.4233 -33.4105 -33.3646 -33.3135 -33.3112 -33.3060 -33.2989
   -33.2837 -33.2741 -33.2653 -33.2596 -33.2510 -33.2458 -33.2357 -33.2319
   -33.2073 -33.1961 -33.1677 -33.1620 -33.1231 -32.9846 -32.9716 -32.9590
   -32.9230 -32.8998 -32.4939 -32.4800 -32.4688 -32.3468 -32.3010 -32.2710
   -20.2953 -17.7536 -17.5870 -17.3406 -17.2615 -17.2419 -17.1910 -17.1654
   -17.1364 -16.9934 -16.9675 -16.8781 -16.8738 -16.8267 -16.7941 -16.7701
   -16.7451 -16.6673 -16.6197 -16.6011 -16.5768 -16.5277 -16.4242 -16.4092
   -16.3530 -16.2825 -16.2312 -16.1916 -16.1546 -16.1085 -16.0361 -14.7589
   -14.7218 -11.5057  -7.2754  -5.4052  -5.2316  -5.0285  -4.9464  -4.8106
    -4.7543  -4.7116  -4.5557  -4.4938  -4.4886  -4.4106  -4.3920  -4.3416
    -4.2684  -4.2299  -4.2127  -4.1894  -4.1449  -4.1380  -4.1049  -4.0592
    -4.0287  -4.0070  -3.9916  -3.9337  -3.9217  -3.8705  -3.8604  -3.8196
    -3.7714  -3.7116  -3.6533  -3.5692  -3.4709  -3.4012  -3.3353  -3.2808
    -3.2354  -3.2146  -3.1839  -3.0109  -2.9364  -2.8618  -2.8239  -2.7803
    -2.7540  -2.6426  -2.5899  -2.5078  -2.4851  -2.4363  -2.3916  -2.3596
    -2.3406  -2.3215  -2.2879  -2.2629  -2.1869  -2.1384  -2.1241  -2.0340
    -2.0174  -2.0002  -1.9425  -1.9400  -1.9016  -1.8590  -1.8278  -1.8038
    -1.7403  -1.7079  -1.6694  -1.6395  -1.5766  -1.5364  -1.5021  -1.4576
    -1.4284  -1.3691  -1.3446  -1.2984  -1.2213  -1.2030  -1.1272  -1.1013
    -1.0586  -1.0113  -0.9210  -0.8731  -0.8109  -0.7973  -0.7348  -0.6781
    -0.6041  -0.4641  -0.2547   0.0944   0.1311   0.1582   0.1907   1.8640
     2.0504   2.1381   2.1813   2.2311   2.2728   2.3090   2.3363   2.3862
     2.4473   2.4618   2.4886   2.5162   2.5232   2.5862   2.6958   2.7272
     2.7476   2.7784   2.8306   2.8436   2.8961   2.9529   2.9739   2.9897
     3.0268   3.0374   3.1734   3.2110   3.2934   3.3196   3.3367   3.3737
     3.4145   3.4393   3.4629   3.5460   3.5619   3.6376   3.6604   3.7379
     3.7962   3.8200   3.8648   3.9015   3.9094   4.0757   4.1190   4.1678
     4.3452   4.3885   4.6187   4.9689   5.0222   5.1275   5.1415   5.1587
     5.2622   5.2897   5.3182   5.4309   5.5146   5.5634   5.6431   5.7656
     5.8275   5.8511   5.8978   5.9387   5.9576   5.9988   6.0542   6.0660
     6.1386   6.1581   6.2327   6.3262   6.3819   6.4118   6.4794   6.6478
     6.6972   6.7985   6.8440   7.0379   7.1555   7.3651   7.4896   7.5946
     7.9797   8.1765   8.3508   8.5239   8.6473   8.8662   9.0605   9.1202
     9.1816   9.5092   9.6291

          k =-0.0506 0.0280 0.0000 ( 34685 PWs)   bands (ev):

   -57.6943 -57.6640 -57.3125 -57.2810 -57.2291 -57.1049 -57.0730 -57.0681
   -57.0482 -57.0376 -56.9848 -56.9541 -56.7249 -56.6924 -56.1451 -56.1145
   -34.1083 -33.9769 -33.9522 -33.8894 -33.8416 -33.8097 -33.7700 -33.6297
   -33.6088 -33.5828 -33.5407 -33.5326 -33.5246 -33.5168 -33.4898 -33.4690
   -33.4553 -33.4458 -33.4262 -33.3665 -33.3151 -33.2882 -33.2765 -33.2627
   -33.2616 -33.2584 -33.2556 -33.2504 -33.2351 -33.2337 -33.2314 -33.2109
   -33.2007 -33.1825 -33.1742 -33.1417 -33.1386 -32.9897 -32.9803 -32.9536
   -32.9101 -32.8301 -32.5394 -32.5008 -32.4740 -32.3633 -32.2840 -32.1969
   -20.2952 -17.8576 -17.6488 -17.3661 -17.3384 -17.2469 -17.2215 -17.2122
   -17.1196 -17.0405 -16.9609 -16.9178 -16.8676 -16.8549 -16.8524 -16.8297
   -16.7604 -16.7425 -16.5564 -16.5251 -16.5006 -16.4354 -16.4128 -16.3729
   -16.3656 -16.3093 -16.1885 -16.1693 -16.1500 -16.0088 -15.9633 -14.7384
   -14.6711 -11.5040  -7.2706  -5.4482  -5.2248  -5.2168  -4.8899  -4.8314
    -4.7176  -4.7019  -4.6723  -4.6525  -4.6275  -4.5070  -4.4253  -4.3428
    -4.3154  -4.2993  -4.1565  -4.1245  -4.0577  -4.0239  -4.0059  -3.9904
    -3.9801  -3.9070  -3.8570  -3.8131  -3.7705  -3.7581  -3.7164  -3.6883
    -3.6534  -3.6306  -3.5804  -3.5483  -3.4459  -3.3219  -3.2876  -3.2600
    -3.2244  -3.1674  -3.0993  -3.0553  -2.9510  -2.9350  -2.8739  -2.8377
    -2.7405  -2.6923  -2.6568  -2.6477  -2.6014  -2.5884  -2.5331  -2.4922
    -2.4340  -2.3847  -2.3783  -2.3327  -2.3059  -2.2515  -2.1764  -2.1330
    -2.1106  -2.0596  -2.0232  -1.9716  -1.9373  -1.9021  -1.8567  -1.8285
    -1.7517  -1.7372  -1.7090  -1.6379  -1.5372  -1.5040  -1.4819  -1.4145
    -1.3638  -1.3445  -1.2762  -1.2582  -1.2342  -1.1437  -1.1105  -1.0103
    -0.9747  -0.8772  -0.8528  -0.8106  -0.7756  -0.7609  -0.7020  -0.6872
    -0.5099  -0.3093  -0.2568  -0.0707   0.1124   0.1417   0.1651   1.7067
     1.9076   2.0629   2.1258   2.1304   2.1753   2.2441   2.3646   2.3751
     2.4091   2.4413   2.5208   2.5706   2.5771   2.6056   2.6869   2.6997
     2.7461   2.8059   2.8364   2.9057   2.9591   2.9847   3.0444   3.0636
     3.0944   3.1637   3.1740   3.2033   3.3053   3.3599   3.3790   3.4135
     3.4491   3.4615   3.5501   3.5895   3.6069   3.6566   3.6788   3.6878
     3.7202   3.7740   3.8210   3.8726   3.9358   4.0624   4.1712   4.2847
     4.2972   4.4253   4.6249   4.6928   4.7669   4.8140   4.8588   4.9914
     5.0157   5.1296   5.2277   5.4737   5.5971   5.6439   5.7260   5.8096
     5.8638   5.8758   5.9282   5.9491   5.9830   6.0964   6.1202   6.1419
     6.2344   6.4353   6.4853   6.5435   6.5807   6.6103   6.6886   6.7437
     6.8006   6.8198   6.9763   7.1144   7.1693   7.3949   7.5738   7.7138
     8.1343   8.1651   8.2435   8.3969   8.7610   8.9692   9.0152   9.0482
     9.3949   9.4496   9.6126

          k =-0.0506 0.0560 0.0000 ( 34596 PWs)   bands (ev):

   -57.6879 -57.6705 -57.3060 -57.2876 -57.2282 -57.0988 -57.0790 -57.0617
   -57.0491 -57.0440 -56.9784 -56.9606 -56.7183 -56.6991 -56.1387 -56.1210
   -34.0384 -33.9715 -33.9572 -33.8727 -33.8431 -33.8267 -33.7704 -33.5931
   -33.5716 -33.5692 -33.5325 -33.5185 -33.5123 -33.5083 -33.4738 -33.4709
   -33.4502 -33.4233 -33.4010 -33.3510 -33.3154 -33.3144 -33.2985 -33.2963
   -33.2840 -33.2740 -33.2651 -33.2573 -33.2511 -33.2504 -33.2450 -33.2370
   -33.2074 -33.1976 -33.1677 -33.1616 -33.1226 -32.9846 -32.9745 -32.9587
   -32.9230 -32.8996 -32.4950 -32.4796 -32.4686 -32.3468 -32.3009 -32.2709
   -20.2950 -17.7031 -17.4981 -17.2883 -17.2369 -17.1947 -17.1712 -17.1591
   -17.0868 -17.0345 -17.0032 -16.9108 -16.8537 -16.8464 -16.8415 -16.8035
   -16.7736 -16.7187 -16.6596 -16.6192 -16.6096 -16.5482 -16.5099 -16.3957
   -16.3403 -16.2612 -16.2234 -16.1901 -16.1540 -16.1102 -16.0352 -14.7577
   -14.7221 -11.5032  -7.2695  -5.4206  -5.2304  -5.0190  -4.6567  -4.6145
    -4.5126  -4.4965  -4.4811  -4.4538  -4.4292  -4.3647  -4.3222  -4.2991
    -4.2232  -4.2033  -4.1439  -4.1294  -4.0798  -4.0643  -4.0435  -4.0336
    -4.0114  -3.9934  -3.9659  -3.9118  -3.8914  -3.8857  -3.8192  -3.7847
    -3.7280  -3.6580  -3.6279  -3.5203  -3.4872  -3.3802  -3.3262  -3.2590
    -3.2552  -3.2430  -3.1470  -3.0137  -2.9314  -2.9020  -2.8487  -2.8281
    -2.7539  -2.7242  -2.6823  -2.6068  -2.5894  -2.5649  -2.5257  -2.4873
    -2.4258  -2.4033  -2.3632  -2.3267  -2.3139  -2.2977  -2.2528  -2.1753
    -2.1500  -2.1187  -2.1117  -2.0750  -2.0446  -1.9992  -1.9812  -1.8990
    -1.8886  -1.8489  -1.8298  -1.7220  -1.6349  -1.6033  -1.5701  -1.4758
    -1.4057  -1.3720  -1.3045  -1.2477  -1.2036  -1.1067  -1.0712  -1.0151
    -1.0000  -0.9340  -0.8501  -0.8166  -0.7673  -0.7533  -0.6895  -0.6544
    -0.6492  -0.5147  -0.3218   0.0804   0.1145   0.1325   0.1961   1.8693
     2.0792   2.1686   2.2025   2.2238   2.2462   2.3013   2.3511   2.3963
     2.4063   2.5401   2.5732   2.5822   2.6102   2.6315   2.6866   2.7576
     2.7848   2.8073   2.8419   2.8841   2.9665   3.0076   3.0313   3.0653
     3.1003   3.1393   3.1707   3.2598   3.3385   3.3703   3.4001   3.4441
     3.4819   3.5029   3.5250   3.5457   3.6179   3.6506   3.7147   3.7470
     3.7832   3.8548   3.8834   3.9219   3.9279   3.9575   4.1142   4.1773
     4.2919   4.4774   4.7278   4.8094   4.8198   4.8991   4.9456   5.0950
     5.1686   5.2349   5.2744   5.3317   5.3752   5.4383   5.4987   5.6291
     5.7840   5.8342   5.8850   5.9554   6.0443   6.1272   6.2196   6.2612
     6.2897   6.3506   6.4193   6.4533   6.5056   6.5803   6.6540   6.7188
     6.7333   6.8269   6.8516   6.9870   7.0586   7.4123   7.4329   7.5753
     7.7467   7.9406   8.0736   8.3872   8.5772   8.6109   8.7412   9.0061
     9.2251   9.3245   9.4576

     the Fermi energy is     0.9995 ev

!    total energy              =   -3021.41945699 Ry
     Harris-Foulkes estimate   =   -3021.41945727 Ry
     estimated scf accuracy    <       0.00000038 Ry

     The total energy is the sum of the following terms:

     one-electron contribution =  -41241.67604260 Ry
     hartree contribution      =   20695.12892577 Ry
     xc contribution           =    -553.70917357 Ry
     ewald contribution        =   18078.83704440 Ry
     smearing contrib. (-TS)   =      -0.00021100 Ry

     total magnetization       =     0.00 Bohr mag/cell
     absolute magnetization    =     0.00 Bohr mag/cell

     convergence has been achieved in   8 iterations

     Forces acting on atoms (Ry/au):


     negative rho (up, down):  1.210E-02 1.210E-02
     atom    1 type  1   force =     0.00001762   -0.00035422   -0.13377794
     atom    2 type  2   force =     0.00000582    0.00002952    0.07211076
     atom    3 type  1   force =    -0.00135446    0.00031031   -0.06094114
     atom    4 type  2   force =     0.00290326    0.00048986    0.00637878
     atom    5 type  1   force =     0.00027413    0.00184847    0.00354694
     atom    6 type  2   force =     0.00005750    0.00000524   -0.00288713
     atom    7 type  1   force =    -0.00035613   -0.00072337    0.00458084
     atom    8 type  2   force =     0.00094064   -0.00020801   -0.00067318
     atom    9 type  1   force =    -0.00002616    0.00002142   -0.13353651
     atom   10 type  2   force =    -0.00006470    0.00006565    0.07129314
     atom   11 type  1   force =    -0.00131805   -0.00023842   -0.05585834
     atom   12 type  2   force =     0.00299637   -0.00006643    0.00609411
     atom   13 type  1   force =     0.00029518   -0.00147609    0.00348101
     atom   14 type  2   force =    -0.00119829   -0.00039066   -0.00292385
     atom   15 type  1   force =    -0.00055204    0.00020705    0.00454560
     atom   16 type  2   force =     0.00057552   -0.00020021   -0.00006224
     atom   17 type  2   force =    -0.00006838   -0.00007075    0.07937784
     atom   18 type  1   force =     0.00013860   -0.00017191    0.11913992
     atom   19 type  2   force =    -0.00010458   -0.00017231   -0.06670031
     atom   20 type  2   force =    -0.06322063    0.00014972   -0.03225564
     atom   21 type  2   force =     0.06320404    0.00001643   -0.03245969
     atom   22 type  1   force =     0.00072643    0.00108289    0.05977031
     atom   23 type  2   force =    -0.00017275    0.00005596   -0.00177285
     atom   24 type  2   force =    -0.00143025   -0.00000575   -0.02328579
     atom   25 type  2   force =    -0.00312966    0.00059027    0.00786408
     atom   26 type  1   force =     0.00063680    0.00028868    0.00463892
     atom   27 type  2   force =     0.00052848    0.00060152   -0.00382892
     atom   28 type  2   force =     0.00014071   -0.00008755   -0.00120420
     atom   29 type  2   force =     0.00021690   -0.00034593   -0.00059277
     atom   30 type  1   force =     0.00031933   -0.00068943    0.00388372
     atom   31 type  2   force =     0.00006240    0.00010716   -0.00261683
     atom   32 type  2   force =     0.00004637   -0.00007302   -0.00121554
     atom   33 type  2   force =    -0.00011719    0.00003769    0.07897944
     atom   34 type  1   force =     0.00007025   -0.00021838    0.11905477
     atom   35 type  2   force =    -0.00030210   -0.00005454   -0.06639725
     atom   36 type  2   force =    -0.06318244   -0.00005364   -0.03234039
     atom   37 type  2   force =     0.06333329   -0.00020252   -0.03249573
     atom   38 type  1   force =     0.00066480   -0.00098474    0.05998463
     atom   39 type  2   force =    -0.00045433    0.00010456   -0.00251786
     atom   40 type  2   force =    -0.00118843    0.00030766   -0.02219471
     atom   41 type  2   force =    -0.00316936   -0.00014882    0.00788956
     atom   42 type  1   force =     0.00051336    0.00006833    0.00376263
     atom   43 type  2   force =     0.00069376    0.00023629   -0.00301373
     atom   44 type  2   force =     0.00023039    0.00010325   -0.00116700
     atom   45 type  2   force =     0.00019218    0.00030761   -0.00062314
     atom   46 type  1   force =     0.00058494    0.00029192    0.00397333
     atom   47 type  2   force =     0.00006582   -0.00032079   -0.00130770
     atom   48 type  2   force =     0.00010911    0.00011178   -0.00093695
     atom   49 type  3   force =    -0.00656389    0.02620791   -0.01077013
     atom   50 type  2   force =     0.00175017   -0.00111214   -0.00320164
     atom   51 type  4   force =     0.00007111   -0.00012794    0.00009353
     atom   52 type  4   force =     0.00032463    0.00031650    0.00065758
     atom   53 type  4   force =     0.00570649   -0.02728908    0.01444052
     atom   54 type  4   force =    -0.00042260    0.00182302   -0.00198285

     Total force =     0.365133     Total SCF correction =     0.000907
 !ASE

     Writing output data file calc.save
 
     init_run     :     55.66s CPU     70.33s WALL (       1 calls)
     electrons    :   1944.72s CPU   2336.06s WALL (       1 calls)
     forces       :     39.70s CPU     41.85s WALL (       1 calls)

     Called by init_run:
     wfcinit      :     47.48s CPU     60.94s WALL (       1 calls)
     potinit      :      1.27s CPU      1.98s WALL (       1 calls)

     Called by electrons:
     c_bands      :   1699.15s CPU   2028.19s WALL (       9 calls)
     sum_band     :    209.90s CPU    266.95s WALL (       9 calls)
     v_of_rho     :      9.00s CPU     11.61s WALL (       9 calls)
     newd         :     30.47s CPU     33.43s WALL (       9 calls)
     mix_rho      :      0.27s CPU      0.44s WALL (       9 calls)
     vdW_energy   :      1.62s CPU      2.10s WALL (      10 calls)
     vdW_ffts     :      2.65s CPU      3.54s WALL (      20 calls)
     vdW_v        :      0.91s CPU      1.08s WALL (      10 calls)

     Called by c_bands:
     init_us_2    :      5.39s CPU      5.89s WALL (     800 calls)
     cegterg      :   1667.32s CPU   1994.62s WALL (     360 calls)

     Called by *egterg:
     h_psi        :    681.64s CPU    937.93s WALL (    1972 calls)
     s_psi        :     84.08s CPU     88.45s WALL (    1972 calls)
     g_psi        :      4.53s CPU      4.69s WALL (    1572 calls)
     cdiaghg      :    586.07s CPU    599.19s WALL (    1892 calls)

     Called by h_psi:
     add_vuspsi   :     84.64s CPU     88.70s WALL (    1972 calls)

     General routines
     calbec       :    127.73s CPU    130.67s WALL (    2372 calls)
     fft          :      5.34s CPU      7.05s WALL (     794 calls)
     ffts         :      0.04s CPU      0.06s WALL (      36 calls)
     fftw         :    440.13s CPU    739.99s WALL (  665596 calls)
     interpolate  :      0.29s CPU      0.45s WALL (      36 calls)
     davcio       :      0.13s CPU      2.52s WALL (      40 calls)
 
     Parallel routines
     fft_scatter  :    226.69s CPU    405.77s WALL (  666426 calls)
 
     PWSCF        : 34m 1.13s CPU    40m52.57s WALL

 
   This run was terminated on:   4:49:24  13Feb2018            

=------------------------------------------------------------------------------=
   JOB DONE.
=------------------------------------------------------------------------------=
