  python dir          : /home/vossj/suncat/lib/python2.7/site-packages/espresso
  espresso dir        : /home/vossj/suncat/esdld/espresso-dynpy-beef/bin
  pseudo dir          : /home/alatimer/bin/psp/esp_psp_w_gbrvRu/
  ase-espresso py git : ffa2778-git



     Program PWSCF v.5.1rc2 (svn rev. ) starts on 12Feb2018 at 18:46:16 

     This program is part of the open-source Quantum ESPRESSO suite
     for quantum simulation of materials; please cite
         "P. Giannozzi et al., J. Phys.:Condens. Matter 21 395502 (2009);
          URL http://www.quantum-espresso.org", 
     in publications or presentations arising from this work. More details at
     http://www.quantum-espresso.org/quote

     Parallel version (MPI), running on    16 processors
     R & G space division:  proc/nbgrp/npool/nimage =      16
     Reading input from pw.inp
     Message from routine read_cards :
     DEPRECATED: no units specified in CELL_PARAMETERS card

     Current dimensions of program PWSCF are:
     Max number of different atomic species (ntypx) = 10
     Max number of k-points (npk) =  40000
     Max angular momentum in pseudopotentials (lmaxx) =  3

     **************************************************************************
     Initializing libbeef V0.1.1 with the BEEF-vdW functional.
     Citation: Wellendorff et al., PRB 85, 235149 (2012).
     **************************************************************************


     IMPORTANT: XC functional enforced from input :
     Exchange-correlation      = BEEF ( 1  4 27 13 2)
     Any further DFT definition will be discarded
     Please, verify this is what you really want


     Subspace diagonalization in iterative solution of the eigenvalue problem:
     a serial algorithm will be used

 
     Parallelization info
     --------------------
     sticks:   dense  smooth     PW     G-vecs:    dense   smooth      PW
     Min         281     112     31                68535    17318    2565
     Max         282     113     32                68545    17369    2582
     Sum        4501    1795    503              1096637   277353   41113
 
     Generating pointlists ...
     new r_m :   0.4125 (alat units)  0.7795 (a.u.) for type    1
     new r_m :   0.3995 (alat units)  0.7549 (a.u.) for type    2
     new r_m :   0.4125 (alat units)  0.7795 (a.u.) for type    3
     new r_m :   0.3995 (alat units)  0.7549 (a.u.) for type    4


     bravais-lattice index     =            0
     lattice parameter (alat)  =       1.8897  a.u.
     unit-cell volume          =    7990.9933 (a.u.)^3
     number of atoms/cell      =           54
     number of atomic types    =            4
     number of electrons       =       398.00
     number of Kohn-Sham states=          299
     kinetic-energy cutoff     =      40.4243  Ry
     charge density cutoff     =     404.2426  Ry
     convergence threshold     =      7.3E-07
     mixing beta               =       0.1000
     number of iterations used =           10  plain     mixing
     Exchange-correlation      = BEEF ( 1  4 27 13 2)
     nstep                     =           50


     celldm(1)=   1.889726  celldm(2)=   0.000000  celldm(3)=   0.000000
     celldm(4)=   0.000000  celldm(5)=   0.000000  celldm(6)=   0.000000

     crystal axes: (cart. coord. in units of alat)
               a(1) = (   6.590708   0.000000   0.000000 )  
               a(2) = (   0.000000   5.950229   0.000000 )  
               a(3) = (   0.000000   0.000000  30.195235 )  

     reciprocal axes: (cart. coord. in units 2 pi/alat)
               b(1) = (  0.151729  0.000000  0.000000 )  
               b(2) = (  0.000000  0.168061  0.000000 )  
               b(3) = (  0.000000  0.000000  0.033118 )  


     PseudoPot. # 1 for Ti read from file:
     /home/alatimer/bin/psp/esp_psp_w_gbrvRu/Ti.UPF
     MD5 check sum: 8e4df49b7f0d34bbd5052bf3f5ea0213
     Pseudo is Ultrasoft, Zval = 12.0
     Generated by new atomic code, or converted to UPF format
     Using radial grid of  851 points,  6 beta functions with: 
                l(1) =   0
                l(2) =   0
                l(3) =   1
                l(4) =   1
                l(5) =   2
                l(6) =   2
     Q(r) pseudized with  8 coefficients,  rinner =    1.000   1.000   1.000
                                                       1.000   1.000

     PseudoPot. # 2 for  O read from file:
     /home/alatimer/bin/psp/esp_psp_w_gbrvRu/O.UPF
     MD5 check sum: e057bbcf3229fb5d8c36c0c92f9568b4
     Pseudo is Ultrasoft + core correction, Zval =  6.0
     Generated using "atomic" code by A. Dal Corso  v.5.0.2 svn rev. 9415
     Using radial grid of 1095 points,  4 beta functions with: 
                l(1) =   0
                l(2) =   0
                l(3) =   1
                l(4) =   1
     Q(r) pseudized with 0 coefficients 


     PseudoPot. # 3 for  C read from file:
     /home/alatimer/bin/psp/esp_psp_w_gbrvRu/C.UPF
     MD5 check sum: ab446d787031eba755f1d5ee46644bb0
     Pseudo is Ultrasoft + core correction, Zval =  4.0
     Generated using "atomic" code by A. Dal Corso  v.5.0.2 svn rev. 9415
     Using radial grid of 1073 points,  4 beta functions with: 
                l(1) =   0
                l(2) =   0
                l(3) =   1
                l(4) =   1
     Q(r) pseudized with 0 coefficients 


     PseudoPot. # 4 for  H read from file:
     /home/alatimer/bin/psp/esp_psp_w_gbrvRu/H.UPF
     MD5 check sum: bd57da0722753ddfd9833a65b40bb853
     Pseudo is Ultrasoft, Zval =  1.0
     Generated using "atomic" code by A. Dal Corso  v.5.0.2 svn rev. 9415
     Using radial grid of  929 points,  2 beta functions with: 
                l(1) =   0
                l(2) =   0
     Q(r) pseudized with 0 coefficients 


     vdW kernel table read from file vdW_kernel_table
     MD5 check sum: 095c7af220d748ca6e76c0b4c6cfb241

     atomic species   valence    mass     pseudopotential
        Ti1           12.00    47.88000     Ti( 1.00)
        O1             6.00    15.99940      O( 1.00)
        C1             4.00    12.01100      C( 1.00)
        H1             1.00     1.00794      H( 1.00)

     Starting magnetic structure 
     atomic species   magnetization
        Ti1          0.250
        O1           0.500
        C1           0.750
        H1           0.000

     No symmetry found



   Cartesian axes

     site n.     atom                  positions (alat units)
         1           Ti1 tau(   1) = (   1.6476770   0.7437786   2.6545865  )
         2           O1  tau(   2) = (   1.6476770   2.2313359   3.9361215  )
         3           Ti1 tau(   3) = (   1.6476770   2.2313359   5.9499405  )
         4           O1  tau(   4) = (   0.3661420   0.7437786   5.9499405  )
         5           Ti1 tau(   5) = (   1.7592931   0.7557636   9.1813031  )
         6           O1  tau(   6) = (   1.6162490   2.2572048  10.5951269  )
         7           Ti1 tau(   7) = (   1.5595004   2.2680265  12.4668274  )
         8           O1  tau(   8) = (   0.3709531   0.7738127  12.6996540  )
         9           Ti1 tau(   9) = (   1.6476770   3.7188931   2.6545865  )
        10           O1  tau(  10) = (   1.6476770   5.2064503   3.9361215  )
        11           Ti1 tau(  11) = (   1.6476770   5.2064503   5.9499405  )
        12           O1  tau(  12) = (   0.3661420   3.7188931   5.9499405  )
        13           Ti1 tau(  13) = (   1.7607536   3.7112867   9.1949733  )
        14           O1  tau(  14) = (   1.6133076   5.2250699  10.5465640  )
        15           Ti1 tau(  15) = (   1.6492307   5.2431137  12.3448001  )
        16           O1  tau(  16) = (   0.3719744   3.7598389  12.7007434  )
        17           O1  tau(  17) = (   1.6476770   2.2313359   1.3730516  )
        18           Ti1 tau(  18) = (   4.9430310   2.2313359   2.6545865  )
        19           O1  tau(  19) = (   4.9430310   2.2313359   4.6684056  )
        20           O1  tau(  20) = (   6.2245660   0.7437786   2.6545865  )
        21           O1  tau(  21) = (   3.6614961   0.7437786   2.6545865  )
        22           Ti1 tau(  22) = (   4.9430310   0.7437786   5.9499405  )
        23           O1  tau(  23) = (   1.6387103   2.2391978   8.0037664  )
        24           O1  tau(  24) = (   4.9430310   2.2313359   7.2314755  )
        25           O1  tau(  25) = (   2.9292120   0.7437786   5.9499405  )
        26           Ti1 tau(  26) = (   5.0158092   2.2383949   9.3973727  )
        27           O1  tau(  27) = (   4.9391445   2.2276729  11.2675731  )
        28           O1  tau(  28) = (   6.2094020   0.7514556   9.2742047  )
        29           O1  tau(  29) = (   3.6131301   0.7515640   9.2682932  )
        30           Ti1 tau(  30) = (   4.8940083   0.8207741  12.7348365  )
        31           O1  tau(  31) = (   4.8487174   2.2703822  13.8475395  )
        32           O1  tau(  32) = (   2.8766274   0.7418004  12.6316555  )
        33           O1  tau(  33) = (   1.6476770   5.2064503   1.3730516  )
        34           Ti1 tau(  34) = (   4.9430310   5.2064503   2.6545865  )
        35           O1  tau(  35) = (   4.9430310   5.2064503   4.6684056  )
        36           O1  tau(  36) = (   6.2245660   3.7188931   2.6545865  )
        37           O1  tau(  37) = (   3.6614961   3.7188931   2.6545865  )
        38           Ti1 tau(  38) = (   4.9430310   3.7188931   5.9499405  )
        39           O1  tau(  39) = (   1.6418458   5.2133935   8.0066417  )
        40           O1  tau(  40) = (   4.9430310   5.2064503   7.2314755  )
        41           O1  tau(  41) = (   2.9292120   3.7188931   5.9499405  )
        42           Ti1 tau(  42) = (   5.0218241   5.2139137   9.3870600  )
        43           O1  tau(  43) = (   4.9399496   5.2040061  11.2598200  )
        44           O1  tau(  44) = (   6.2073000   3.7245411   9.2731052  )
        45           O1  tau(  45) = (   3.6137513   3.7232133   9.2682466  )
        46           Ti1 tau(  46) = (   4.8936935   3.8094630  12.7397413  )
        47           O1  tau(  47) = (   4.9051259   5.2510468  13.8339921  )
        48           O1  tau(  48) = (   2.8743370   3.7938830  12.6403791  )
        49           C1  tau(  49) = (   1.0587210   2.2268971  15.9066084  )
        50           O1  tau(  50) = (   1.8917182   2.2355032  14.7378010  )
        51           H1  tau(  51) = (   0.0610076   2.2200215  15.5603933  )
        52           H1  tau(  52) = (   2.8355400   2.2288152  14.9543747  )
        53           H1  tau(  53) = (   1.2478062   1.3326534  16.5039879  )
        54           H1  tau(  54) = (   1.2341453   3.1195140  16.5098874  )

     number of k points=    40  Fermi-Dirac smearing, width (Ry)=  0.0073
                       cart. coord. in units 2pi/alat
        k(    1) = (   0.0000000   0.0000000   0.0000000), wk =   0.0277778
        k(    2) = (   0.0000000   0.0280101   0.0000000), wk =   0.0555556
        k(    3) = (   0.0000000   0.0560203   0.0000000), wk =   0.0555556
        k(    4) = (   0.0000000  -0.0840304   0.0000000), wk =   0.0277778
        k(    5) = (   0.0252881   0.0000000   0.0000000), wk =   0.0555556
        k(    6) = (   0.0252881   0.0280101   0.0000000), wk =   0.0555556
        k(    7) = (   0.0252881   0.0560203   0.0000000), wk =   0.0555556
        k(    8) = (   0.0252881  -0.0840304   0.0000000), wk =   0.0555556
        k(    9) = (   0.0505763   0.0000000   0.0000000), wk =   0.0555556
        k(   10) = (   0.0505763   0.0280101   0.0000000), wk =   0.0555556
        k(   11) = (   0.0505763   0.0560203   0.0000000), wk =   0.0555556
        k(   12) = (   0.0505763  -0.0840304   0.0000000), wk =   0.0555556
        k(   13) = (  -0.0758644   0.0000000   0.0000000), wk =   0.0277778
        k(   14) = (  -0.0758644   0.0280101   0.0000000), wk =   0.0555556
        k(   15) = (  -0.0758644   0.0560203   0.0000000), wk =   0.0555556
        k(   16) = (  -0.0758644  -0.0840304   0.0000000), wk =   0.0277778
        k(   17) = (  -0.0252881   0.0280101   0.0000000), wk =   0.0555556
        k(   18) = (  -0.0252881   0.0560203   0.0000000), wk =   0.0555556
        k(   19) = (  -0.0505763   0.0280101   0.0000000), wk =   0.0555556
        k(   20) = (  -0.0505763   0.0560203   0.0000000), wk =   0.0555556
        k(   21) = (   0.0000000   0.0000000   0.0000000), wk =   0.0277778
        k(   22) = (   0.0000000   0.0280101   0.0000000), wk =   0.0555556
        k(   23) = (   0.0000000   0.0560203   0.0000000), wk =   0.0555556
        k(   24) = (   0.0000000  -0.0840304   0.0000000), wk =   0.0277778
        k(   25) = (   0.0252881   0.0000000   0.0000000), wk =   0.0555556
        k(   26) = (   0.0252881   0.0280101   0.0000000), wk =   0.0555556
        k(   27) = (   0.0252881   0.0560203   0.0000000), wk =   0.0555556
        k(   28) = (   0.0252881  -0.0840304   0.0000000), wk =   0.0555556
        k(   29) = (   0.0505763   0.0000000   0.0000000), wk =   0.0555556
        k(   30) = (   0.0505763   0.0280101   0.0000000), wk =   0.0555556
        k(   31) = (   0.0505763   0.0560203   0.0000000), wk =   0.0555556
        k(   32) = (   0.0505763  -0.0840304   0.0000000), wk =   0.0555556
        k(   33) = (  -0.0758644   0.0000000   0.0000000), wk =   0.0277778
        k(   34) = (  -0.0758644   0.0280101   0.0000000), wk =   0.0555556
        k(   35) = (  -0.0758644   0.0560203   0.0000000), wk =   0.0555556
        k(   36) = (  -0.0758644  -0.0840304   0.0000000), wk =   0.0277778
        k(   37) = (  -0.0252881   0.0280101   0.0000000), wk =   0.0555556
        k(   38) = (  -0.0252881   0.0560203   0.0000000), wk =   0.0555556
        k(   39) = (  -0.0505763   0.0280101   0.0000000), wk =   0.0555556
        k(   40) = (  -0.0505763   0.0560203   0.0000000), wk =   0.0555556

     Dense  grid:  1096637 G-vectors     FFT dimensions: (  80,  72, 375)

     Smooth grid:   277353 G-vectors     FFT dimensions: (  54,  45, 240)

     Largest allocated arrays     est. size (Mb)     dimensions
        Kohn-Sham Wavefunctions         9.95 Mb     (    2180,  299)
        NL pseudopotentials            18.89 Mb     (    2180,  568)
        Each V/rho on FFT grid          4.22 Mb     (  138240,   2)
        Each G-vector array             0.52 Mb     (   68538)
        G-vector shells                 0.25 Mb     (   33046)
     Largest temporary arrays     est. size (Mb)     dimensions
        Auxiliary wavefunctions        39.78 Mb     (    2180, 1196)
        Each subspace H/S matrix       21.83 Mb     (    1196, 1196)
        Each <psi_i|beta_j> matrix      2.59 Mb     (     568,  299)
        Arrays for rho mixing          21.09 Mb     (  138240,   10)

     Check: negative/imaginary core charge=   -0.000049    0.000000

     The initial density is read from file :
     ./calc.save/charge-density.dat


     negative rho (up, down):  1.209E-02 1.209E-02


     ************************************************************************
     *
     * You are using vdW-DF for exchange-correlation in this calculation.
     * Please cite the following three references that made this development
     * possible:
     *
     *   M. Dion, H. Rydberg, E. Schroder, D. C. Langreth, and
     *   B. I. Lundqvist, Phys. Rev. Lett. 92, 246401 (2004).
     *
     *   T. Thonhauser, V. R. Cooper, S. Li, A. Puzder, P. Hyldgaard, and
     *   D. C. Langreth, Phys. Rev. B 76, 125112 (2007).
     *
     *   G. Roman-Perez and J. M. Soler, Phys. Rev. Lett. 103, 096102 (2009).
     *
     *
     * If you are using vdW-DF2, please also cite:
     *
     *   K. Lee, E. D. Murray, L. Kong, B. I. Lundqvist, and
     *   D. C. Langreth, Phys. Rev. B 82, 081101(R) (2010).
     *
     *
     * If you are calculating the stress with vdW-DF, please also cite:
     *
     *   R. Sabatini, E. Kucukbenli, B. Kolb, T. Thonhauser, and
     *   S. de Gironcoli, J. Phys.: Condens. Matter 24, 424209 (2012).
     *
     ************************************************************************

     Carrying out vdW-DF run using the following parameters:

     Nqs =      20    Nr_points =    1024   r_max =   100.000
     q_mesh =
               0.00001000     0.04494208     0.09755937     0.15916263
               0.23128650     0.31572767     0.41458969     0.53033537
               0.66584808     0.82450364     1.01025438     1.22772762
               1.48234092     1.78043706     2.12944203     2.53805004
               3.01644009     3.57652955     4.23227104     5.00000000

     Gradients computed in reciprocal space

     ************************************************************************


     Starting wfc are  300 randomized atomic wfcs

     total cpu time spent up to now is       73.9 secs

     Self-consistent Calculation

     iteration #  1     ecut=    40.42 Ry     beta=0.10
     Davidson diagonalization with overlap
     ethr =  1.00E-05,  avg # of iterations = 14.7

     Threshold (ethr) on eigenvalues was too large:
     Diagonalizing with lowered threshold

     Davidson diagonalization with overlap
     ethr =  7.11E-07,  avg # of iterations =  1.0

     negative rho (up, down):  1.209E-02 1.209E-02
 
     Magnetic moment per site:
     atom:    1    charge:    3.1250    magn:   -0.0002    constr:    0.0000
     atom:    2    charge:    1.9452    magn:    0.0000    constr:    0.0000
     atom:    3    charge:    3.1198    magn:    0.0000    constr:    0.0000
     atom:    4    charge:    1.9504    magn:   -0.0001    constr:    0.0000
     atom:    5    charge:    3.1166    magn:    0.0000    constr:    0.0000
     atom:    6    charge:    1.9476    magn:   -0.0001    constr:    0.0000
     atom:    7    charge:    3.1157    magn:    0.0001    constr:    0.0000
     atom:    8    charge:    1.9452    magn:   -0.0001    constr:    0.0000
     atom:    9    charge:    3.1250    magn:   -0.0002    constr:    0.0000
     atom:   10    charge:    1.9452    magn:    0.0000    constr:    0.0000
     atom:   11    charge:    3.1197    magn:    0.0000    constr:    0.0000
     atom:   12    charge:    1.9504    magn:   -0.0001    constr:    0.0000
     atom:   13    charge:    3.1158    magn:    0.0000    constr:    0.0000
     atom:   14    charge:    1.9587    magn:   -0.0001    constr:    0.0000
     atom:   15    charge:    3.1189    magn:    0.0001    constr:    0.0000
     atom:   16    charge:    1.9445    magn:   -0.0001    constr:    0.0000
     atom:   17    charge:    1.9184    magn:    0.0004    constr:    0.0000
     atom:   18    charge:    3.1239    magn:   -0.0001    constr:    0.0000
     atom:   19    charge:    1.9408    magn:   -0.0000    constr:    0.0000
     atom:   20    charge:    1.9471    magn:    0.0000    constr:    0.0000
     atom:   21    charge:    1.9471    magn:    0.0000    constr:    0.0000
     atom:   22    charge:    3.1196    magn:    0.0000    constr:    0.0000
     atom:   23    charge:    1.9566    magn:   -0.0001    constr:    0.0000
     atom:   24    charge:    1.9379    magn:   -0.0001    constr:    0.0000
     atom:   25    charge:    1.9505    magn:   -0.0001    constr:    0.0000
     atom:   26    charge:    3.1145    magn:    0.0001    constr:    0.0000
     atom:   27    charge:    1.9398    magn:   -0.0001    constr:    0.0000
     atom:   28    charge:    1.9517    magn:   -0.0001    constr:    0.0000
     atom:   29    charge:    1.9476    magn:   -0.0001    constr:    0.0000
     atom:   30    charge:    3.1167    magn:    0.0000    constr:    0.0000
     atom:   31    charge:    1.9444    magn:   -0.0000    constr:    0.0000
     atom:   32    charge:    1.9440    magn:   -0.0001    constr:    0.0000
     atom:   33    charge:    1.9184    magn:    0.0004    constr:    0.0000
     atom:   34    charge:    3.1239    magn:   -0.0001    constr:    0.0000
     atom:   35    charge:    1.9408    magn:   -0.0000    constr:    0.0000
     atom:   36    charge:    1.9471    magn:    0.0000    constr:    0.0000
     atom:   37    charge:    1.9471    magn:    0.0000    constr:    0.0000
     atom:   38    charge:    3.1196    magn:    0.0000    constr:    0.0000
     atom:   39    charge:    1.9549    magn:   -0.0001    constr:    0.0000
     atom:   40    charge:    1.9383    magn:   -0.0001    constr:    0.0000
     atom:   41    charge:    1.9505    magn:   -0.0001    constr:    0.0000
     atom:   42    charge:    3.1141    magn:    0.0001    constr:    0.0000
     atom:   43    charge:    1.9413    magn:   -0.0001    constr:    0.0000
     atom:   44    charge:    1.9518    magn:   -0.0001    constr:    0.0000
     atom:   45    charge:    1.9468    magn:   -0.0001    constr:    0.0000
     atom:   46    charge:    3.1165    magn:    0.0000    constr:    0.0000
     atom:   47    charge:    1.9431    magn:   -0.0000    constr:    0.0000
     atom:   48    charge:    1.9444    magn:   -0.0001    constr:    0.0000
     atom:   49    charge:    0.6595    magn:   -0.0001    constr:    0.0000
     atom:   50    charge:    1.9579    magn:   -0.0001    constr:    0.0000
     atom:   51    charge:    0.4169    magn:    0.0000    constr:    0.0000
     atom:   52    charge:    0.4005    magn:    0.0000    constr:    0.0000
     atom:   53    charge:    0.4032    magn:    0.0000    constr:    0.0000
     atom:   54    charge:    0.4038    magn:    0.0000    constr:    0.0000

     total cpu time spent up to now is     1008.6 secs

     total energy              =   -3021.41955557 Ry
     Harris-Foulkes estimate   =   -3021.41988143 Ry
     estimated scf accuracy    <       0.00283225 Ry

     total magnetization       =     0.00 Bohr mag/cell
     absolute magnetization    =     0.01 Bohr mag/cell

     iteration #  2     ecut=    40.42 Ry     beta=0.10
     Davidson diagonalization with overlap
     ethr =  7.12E-07,  avg # of iterations =  2.0

     negative rho (up, down):  1.210E-02 1.210E-02
 
     Magnetic moment per site:
     atom:    1    charge:    3.1250    magn:   -0.0001    constr:    0.0000
     atom:    2    charge:    1.9452    magn:    0.0000    constr:    0.0000
     atom:    3    charge:    3.1198    magn:    0.0000    constr:    0.0000
     atom:    4    charge:    1.9504    magn:   -0.0000    constr:    0.0000
     atom:    5    charge:    3.1166    magn:    0.0000    constr:    0.0000
     atom:    6    charge:    1.9476    magn:   -0.0001    constr:    0.0000
     atom:    7    charge:    3.1158    magn:    0.0000    constr:    0.0000
     atom:    8    charge:    1.9452    magn:   -0.0001    constr:    0.0000
     atom:    9    charge:    3.1250    magn:   -0.0001    constr:    0.0000
     atom:   10    charge:    1.9452    magn:    0.0000    constr:    0.0000
     atom:   11    charge:    3.1197    magn:    0.0000    constr:    0.0000
     atom:   12    charge:    1.9504    magn:   -0.0000    constr:    0.0000
     atom:   13    charge:    3.1158    magn:    0.0000    constr:    0.0000
     atom:   14    charge:    1.9587    magn:   -0.0001    constr:    0.0000
     atom:   15    charge:    3.1189    magn:    0.0000    constr:    0.0000
     atom:   16    charge:    1.9446    magn:   -0.0001    constr:    0.0000
     atom:   17    charge:    1.9184    magn:    0.0003    constr:    0.0000
     atom:   18    charge:    3.1239    magn:   -0.0001    constr:    0.0000
     atom:   19    charge:    1.9408    magn:   -0.0000    constr:    0.0000
     atom:   20    charge:    1.9471    magn:    0.0000    constr:    0.0000
     atom:   21    charge:    1.9471    magn:    0.0000    constr:    0.0000
     atom:   22    charge:    3.1196    magn:    0.0000    constr:    0.0000
     atom:   23    charge:    1.9566    magn:   -0.0001    constr:    0.0000
     atom:   24    charge:    1.9379    magn:   -0.0000    constr:    0.0000
     atom:   25    charge:    1.9505    magn:   -0.0000    constr:    0.0000
     atom:   26    charge:    3.1145    magn:    0.0000    constr:    0.0000
     atom:   27    charge:    1.9398    magn:   -0.0000    constr:    0.0000
     atom:   28    charge:    1.9517    magn:   -0.0001    constr:    0.0000
     atom:   29    charge:    1.9476    magn:   -0.0001    constr:    0.0000
     atom:   30    charge:    3.1167    magn:    0.0000    constr:    0.0000
     atom:   31    charge:    1.9440    magn:   -0.0000    constr:    0.0000
     atom:   32    charge:    1.9440    magn:   -0.0001    constr:    0.0000
     atom:   33    charge:    1.9184    magn:    0.0003    constr:    0.0000
     atom:   34    charge:    3.1239    magn:   -0.0001    constr:    0.0000
     atom:   35    charge:    1.9408    magn:   -0.0000    constr:    0.0000
     atom:   36    charge:    1.9471    magn:    0.0000    constr:    0.0000
     atom:   37    charge:    1.9471    magn:    0.0000    constr:    0.0000
     atom:   38    charge:    3.1196    magn:    0.0000    constr:    0.0000
     atom:   39    charge:    1.9549    magn:   -0.0001    constr:    0.0000
     atom:   40    charge:    1.9383    magn:   -0.0000    constr:    0.0000
     atom:   41    charge:    1.9505    magn:   -0.0000    constr:    0.0000
     atom:   42    charge:    3.1141    magn:    0.0000    constr:    0.0000
     atom:   43    charge:    1.9413    magn:   -0.0000    constr:    0.0000
     atom:   44    charge:    1.9518    magn:   -0.0001    constr:    0.0000
     atom:   45    charge:    1.9469    magn:   -0.0001    constr:    0.0000
     atom:   46    charge:    3.1165    magn:    0.0000    constr:    0.0000
     atom:   47    charge:    1.9431    magn:   -0.0000    constr:    0.0000
     atom:   48    charge:    1.9445    magn:   -0.0001    constr:    0.0000
     atom:   49    charge:    0.6643    magn:   -0.0000    constr:    0.0000
     atom:   50    charge:    1.9580    magn:   -0.0000    constr:    0.0000
     atom:   51    charge:    0.4174    magn:    0.0000    constr:    0.0000
     atom:   52    charge:    0.4003    magn:    0.0000    constr:    0.0000
     atom:   53    charge:    0.4027    magn:    0.0000    constr:    0.0000
     atom:   54    charge:    0.4033    magn:    0.0000    constr:    0.0000

     total cpu time spent up to now is     1197.0 secs

     total energy              =   -3021.41887142 Ry
     Harris-Foulkes estimate   =   -3021.41957916 Ry
     estimated scf accuracy    <       0.00184304 Ry

     total magnetization       =     0.00 Bohr mag/cell
     absolute magnetization    =     0.01 Bohr mag/cell

     iteration #  3     ecut=    40.42 Ry     beta=0.10
     Davidson diagonalization with overlap
     ethr =  4.63E-07,  avg # of iterations =  4.0

     negative rho (up, down):  1.210E-02 1.210E-02
 
     Magnetic moment per site:
     atom:    1    charge:    3.1250    magn:   -0.0001    constr:    0.0000
     atom:    2    charge:    1.9452    magn:    0.0000    constr:    0.0000
     atom:    3    charge:    3.1198    magn:    0.0000    constr:    0.0000
     atom:    4    charge:    1.9504    magn:   -0.0000    constr:    0.0000
     atom:    5    charge:    3.1166    magn:    0.0000    constr:    0.0000
     atom:    6    charge:    1.9477    magn:   -0.0001    constr:    0.0000
     atom:    7    charge:    3.1157    magn:    0.0000    constr:    0.0000
     atom:    8    charge:    1.9452    magn:   -0.0001    constr:    0.0000
     atom:    9    charge:    3.1250    magn:   -0.0001    constr:    0.0000
     atom:   10    charge:    1.9452    magn:    0.0000    constr:    0.0000
     atom:   11    charge:    3.1197    magn:    0.0000    constr:    0.0000
     atom:   12    charge:    1.9504    magn:   -0.0000    constr:    0.0000
     atom:   13    charge:    3.1158    magn:    0.0000    constr:    0.0000
     atom:   14    charge:    1.9587    magn:   -0.0001    constr:    0.0000
     atom:   15    charge:    3.1188    magn:    0.0000    constr:    0.0000
     atom:   16    charge:    1.9446    magn:   -0.0001    constr:    0.0000
     atom:   17    charge:    1.9184    magn:    0.0003    constr:    0.0000
     atom:   18    charge:    3.1239    magn:   -0.0001    constr:    0.0000
     atom:   19    charge:    1.9408    magn:   -0.0000    constr:    0.0000
     atom:   20    charge:    1.9471    magn:    0.0000    constr:    0.0000
     atom:   21    charge:    1.9471    magn:    0.0000    constr:    0.0000
     atom:   22    charge:    3.1196    magn:    0.0000    constr:    0.0000
     atom:   23    charge:    1.9566    magn:   -0.0001    constr:    0.0000
     atom:   24    charge:    1.9379    magn:   -0.0000    constr:    0.0000
     atom:   25    charge:    1.9505    magn:   -0.0000    constr:    0.0000
     atom:   26    charge:    3.1145    magn:    0.0000    constr:    0.0000
     atom:   27    charge:    1.9398    magn:   -0.0000    constr:    0.0000
     atom:   28    charge:    1.9517    magn:   -0.0001    constr:    0.0000
     atom:   29    charge:    1.9476    magn:   -0.0001    constr:    0.0000
     atom:   30    charge:    3.1166    magn:    0.0000    constr:    0.0000
     atom:   31    charge:    1.9446    magn:   -0.0000    constr:    0.0000
     atom:   32    charge:    1.9440    magn:   -0.0001    constr:    0.0000
     atom:   33    charge:    1.9184    magn:    0.0003    constr:    0.0000
     atom:   34    charge:    3.1239    magn:   -0.0001    constr:    0.0000
     atom:   35    charge:    1.9408    magn:   -0.0000    constr:    0.0000
     atom:   36    charge:    1.9471    magn:    0.0000    constr:    0.0000
     atom:   37    charge:    1.9471    magn:    0.0000    constr:    0.0000
     atom:   38    charge:    3.1196    magn:    0.0000    constr:    0.0000
     atom:   39    charge:    1.9549    magn:   -0.0001    constr:    0.0000
     atom:   40    charge:    1.9383    magn:   -0.0000    constr:    0.0000
     atom:   41    charge:    1.9505    magn:   -0.0000    constr:    0.0000
     atom:   42    charge:    3.1141    magn:    0.0000    constr:    0.0000
     atom:   43    charge:    1.9413    magn:   -0.0000    constr:    0.0000
     atom:   44    charge:    1.9518    magn:   -0.0001    constr:    0.0000
     atom:   45    charge:    1.9468    magn:   -0.0001    constr:    0.0000
     atom:   46    charge:    3.1165    magn:    0.0000    constr:    0.0000
     atom:   47    charge:    1.9431    magn:   -0.0000    constr:    0.0000
     atom:   48    charge:    1.9445    magn:   -0.0001    constr:    0.0000
     atom:   49    charge:    0.6638    magn:   -0.0000    constr:    0.0000
     atom:   50    charge:    1.9580    magn:   -0.0000    constr:    0.0000
     atom:   51    charge:    0.4177    magn:    0.0000    constr:    0.0000
     atom:   52    charge:    0.4005    magn:    0.0000    constr:    0.0000
     atom:   53    charge:    0.4029    magn:    0.0000    constr:    0.0000
     atom:   54    charge:    0.4035    magn:    0.0000    constr:    0.0000

     total cpu time spent up to now is     1418.6 secs

     total energy              =   -3021.41912229 Ry
     Harris-Foulkes estimate   =   -3021.41914269 Ry
     estimated scf accuracy    <       0.00022437 Ry

     total magnetization       =     0.00 Bohr mag/cell
     absolute magnetization    =     0.00 Bohr mag/cell

     iteration #  4     ecut=    40.42 Ry     beta=0.10
     Davidson diagonalization with overlap
     ethr =  5.64E-08,  avg # of iterations =  1.6

     negative rho (up, down):  1.210E-02 1.210E-02
 
     Magnetic moment per site:
     atom:    1    charge:    3.1250    magn:   -0.0001    constr:    0.0000
     atom:    2    charge:    1.9452    magn:    0.0000    constr:    0.0000
     atom:    3    charge:    3.1198    magn:    0.0000    constr:    0.0000
     atom:    4    charge:    1.9504    magn:   -0.0000    constr:    0.0000
     atom:    5    charge:    3.1166    magn:    0.0000    constr:    0.0000
     atom:    6    charge:    1.9477    magn:   -0.0000    constr:    0.0000
     atom:    7    charge:    3.1156    magn:    0.0000    constr:    0.0000
     atom:    8    charge:    1.9452    magn:   -0.0000    constr:    0.0000
     atom:    9    charge:    3.1250    magn:   -0.0001    constr:    0.0000
     atom:   10    charge:    1.9452    magn:    0.0000    constr:    0.0000
     atom:   11    charge:    3.1197    magn:    0.0000    constr:    0.0000
     atom:   12    charge:    1.9504    magn:   -0.0000    constr:    0.0000
     atom:   13    charge:    3.1158    magn:    0.0000    constr:    0.0000
     atom:   14    charge:    1.9587    magn:   -0.0000    constr:    0.0000
     atom:   15    charge:    3.1188    magn:    0.0000    constr:    0.0000
     atom:   16    charge:    1.9445    magn:   -0.0000    constr:    0.0000
     atom:   17    charge:    1.9184    magn:    0.0002    constr:    0.0000
     atom:   18    charge:    3.1239    magn:   -0.0000    constr:    0.0000
     atom:   19    charge:    1.9408    magn:   -0.0000    constr:    0.0000
     atom:   20    charge:    1.9471    magn:    0.0000    constr:    0.0000
     atom:   21    charge:    1.9471    magn:    0.0000    constr:    0.0000
     atom:   22    charge:    3.1196    magn:    0.0000    constr:    0.0000
     atom:   23    charge:    1.9566    magn:   -0.0000    constr:    0.0000
     atom:   24    charge:    1.9379    magn:   -0.0000    constr:    0.0000
     atom:   25    charge:    1.9505    magn:   -0.0000    constr:    0.0000
     atom:   26    charge:    3.1145    magn:    0.0000    constr:    0.0000
     atom:   27    charge:    1.9398    magn:   -0.0000    constr:    0.0000
     atom:   28    charge:    1.9517    magn:   -0.0000    constr:    0.0000
     atom:   29    charge:    1.9476    magn:   -0.0000    constr:    0.0000
     atom:   30    charge:    3.1167    magn:    0.0000    constr:    0.0000
     atom:   31    charge:    1.9448    magn:   -0.0000    constr:    0.0000
     atom:   32    charge:    1.9440    magn:   -0.0000    constr:    0.0000
     atom:   33    charge:    1.9184    magn:    0.0002    constr:    0.0000
     atom:   34    charge:    3.1239    magn:   -0.0000    constr:    0.0000
     atom:   35    charge:    1.9408    magn:   -0.0000    constr:    0.0000
     atom:   36    charge:    1.9471    magn:    0.0000    constr:    0.0000
     atom:   37    charge:    1.9471    magn:    0.0000    constr:    0.0000
     atom:   38    charge:    3.1196    magn:    0.0000    constr:    0.0000
     atom:   39    charge:    1.9549    magn:   -0.0000    constr:    0.0000
     atom:   40    charge:    1.9383    magn:   -0.0000    constr:    0.0000
     atom:   41    charge:    1.9505    magn:   -0.0000    constr:    0.0000
     atom:   42    charge:    3.1141    magn:    0.0000    constr:    0.0000
     atom:   43    charge:    1.9413    magn:   -0.0000    constr:    0.0000
     atom:   44    charge:    1.9517    magn:   -0.0000    constr:    0.0000
     atom:   45    charge:    1.9468    magn:   -0.0000    constr:    0.0000
     atom:   46    charge:    3.1165    magn:    0.0000    constr:    0.0000
     atom:   47    charge:    1.9431    magn:   -0.0000    constr:    0.0000
     atom:   48    charge:    1.9444    magn:   -0.0000    constr:    0.0000
     atom:   49    charge:    0.6635    magn:   -0.0000    constr:    0.0000
     atom:   50    charge:    1.9579    magn:   -0.0000    constr:    0.0000
     atom:   51    charge:    0.4186    magn:    0.0000    constr:    0.0000
     atom:   52    charge:    0.4007    magn:    0.0000    constr:    0.0000
     atom:   53    charge:    0.4032    magn:    0.0000    constr:    0.0000
     atom:   54    charge:    0.4038    magn:    0.0000    constr:    0.0000

     total cpu time spent up to now is     1601.1 secs

     total energy              =   -3021.41912007 Ry
     Harris-Foulkes estimate   =   -3021.41912725 Ry
     estimated scf accuracy    <       0.00012089 Ry

     total magnetization       =     0.00 Bohr mag/cell
     absolute magnetization    =     0.00 Bohr mag/cell

     iteration #  5     ecut=    40.42 Ry     beta=0.10
     Davidson diagonalization with overlap
     ethr =  3.04E-08,  avg # of iterations =  3.0

     negative rho (up, down):  1.210E-02 1.210E-02
 
     Magnetic moment per site:
     atom:    1    charge:    3.1250    magn:   -0.0001    constr:    0.0000
     atom:    2    charge:    1.9452    magn:    0.0000    constr:    0.0000
     atom:    3    charge:    3.1198    magn:    0.0000    constr:    0.0000
     atom:    4    charge:    1.9504    magn:   -0.0000    constr:    0.0000
     atom:    5    charge:    3.1166    magn:    0.0000    constr:    0.0000
     atom:    6    charge:    1.9477    magn:   -0.0000    constr:    0.0000
     atom:    7    charge:    3.1157    magn:    0.0000    constr:    0.0000
     atom:    8    charge:    1.9452    magn:   -0.0000    constr:    0.0000
     atom:    9    charge:    3.1250    magn:   -0.0001    constr:    0.0000
     atom:   10    charge:    1.9452    magn:    0.0000    constr:    0.0000
     atom:   11    charge:    3.1197    magn:    0.0000    constr:    0.0000
     atom:   12    charge:    1.9504    magn:   -0.0000    constr:    0.0000
     atom:   13    charge:    3.1158    magn:    0.0000    constr:    0.0000
     atom:   14    charge:    1.9587    magn:   -0.0000    constr:    0.0000
     atom:   15    charge:    3.1188    magn:    0.0000    constr:    0.0000
     atom:   16    charge:    1.9445    magn:   -0.0000    constr:    0.0000
     atom:   17    charge:    1.9184    magn:    0.0002    constr:    0.0000
     atom:   18    charge:    3.1239    magn:   -0.0000    constr:    0.0000
     atom:   19    charge:    1.9408    magn:   -0.0000    constr:    0.0000
     atom:   20    charge:    1.9471    magn:    0.0000    constr:    0.0000
     atom:   21    charge:    1.9471    magn:    0.0000    constr:    0.0000
     atom:   22    charge:    3.1196    magn:    0.0000    constr:    0.0000
     atom:   23    charge:    1.9566    magn:   -0.0000    constr:    0.0000
     atom:   24    charge:    1.9379    magn:   -0.0000    constr:    0.0000
     atom:   25    charge:    1.9505    magn:   -0.0000    constr:    0.0000
     atom:   26    charge:    3.1145    magn:    0.0000    constr:    0.0000
     atom:   27    charge:    1.9398    magn:   -0.0000    constr:    0.0000
     atom:   28    charge:    1.9517    magn:   -0.0000    constr:    0.0000
     atom:   29    charge:    1.9476    magn:   -0.0000    constr:    0.0000
     atom:   30    charge:    3.1167    magn:    0.0000    constr:    0.0000
     atom:   31    charge:    1.9448    magn:   -0.0000    constr:    0.0000
     atom:   32    charge:    1.9440    magn:   -0.0000    constr:    0.0000
     atom:   33    charge:    1.9184    magn:    0.0002    constr:    0.0000
     atom:   34    charge:    3.1239    magn:   -0.0000    constr:    0.0000
     atom:   35    charge:    1.9408    magn:   -0.0000    constr:    0.0000
     atom:   36    charge:    1.9471    magn:    0.0000    constr:    0.0000
     atom:   37    charge:    1.9471    magn:    0.0000    constr:    0.0000
     atom:   38    charge:    3.1196    magn:    0.0000    constr:    0.0000
     atom:   39    charge:    1.9549    magn:   -0.0000    constr:    0.0000
     atom:   40    charge:    1.9383    magn:   -0.0000    constr:    0.0000
     atom:   41    charge:    1.9505    magn:   -0.0000    constr:    0.0000
     atom:   42    charge:    3.1141    magn:    0.0000    constr:    0.0000
     atom:   43    charge:    1.9413    magn:   -0.0000    constr:    0.0000
     atom:   44    charge:    1.9517    magn:   -0.0000    constr:    0.0000
     atom:   45    charge:    1.9468    magn:   -0.0000    constr:    0.0000
     atom:   46    charge:    3.1165    magn:    0.0000    constr:    0.0000
     atom:   47    charge:    1.9431    magn:   -0.0000    constr:    0.0000
     atom:   48    charge:    1.9444    magn:   -0.0000    constr:    0.0000
     atom:   49    charge:    0.6625    magn:   -0.0000    constr:    0.0000
     atom:   50    charge:    1.9578    magn:   -0.0000    constr:    0.0000
     atom:   51    charge:    0.4188    magn:    0.0000    constr:    0.0000
     atom:   52    charge:    0.4008    magn:    0.0000    constr:    0.0000
     atom:   53    charge:    0.4034    magn:    0.0000    constr:    0.0000
     atom:   54    charge:    0.4040    magn:    0.0000    constr:    0.0000

     total cpu time spent up to now is     1807.2 secs

     total energy              =   -3021.41911607 Ry
     Harris-Foulkes estimate   =   -3021.41912950 Ry
     estimated scf accuracy    <       0.00003100 Ry

     total magnetization       =     0.00 Bohr mag/cell
     absolute magnetization    =     0.00 Bohr mag/cell

     iteration #  6     ecut=    40.42 Ry     beta=0.10
     Davidson diagonalization with overlap
     ethr =  7.79E-09,  avg # of iterations =  4.0

     negative rho (up, down):  1.210E-02 1.210E-02
 
     Magnetic moment per site:
     atom:    1    charge:    3.1250    magn:   -0.0001    constr:    0.0000
     atom:    2    charge:    1.9452    magn:    0.0000    constr:    0.0000
     atom:    3    charge:    3.1198    magn:    0.0000    constr:    0.0000
     atom:    4    charge:    1.9504    magn:   -0.0000    constr:    0.0000
     atom:    5    charge:    3.1166    magn:    0.0000    constr:    0.0000
     atom:    6    charge:    1.9476    magn:   -0.0000    constr:    0.0000
     atom:    7    charge:    3.1157    magn:    0.0000    constr:    0.0000
     atom:    8    charge:    1.9452    magn:   -0.0000    constr:    0.0000
     atom:    9    charge:    3.1250    magn:   -0.0001    constr:    0.0000
     atom:   10    charge:    1.9452    magn:    0.0000    constr:    0.0000
     atom:   11    charge:    3.1197    magn:    0.0000    constr:    0.0000
     atom:   12    charge:    1.9504    magn:   -0.0000    constr:    0.0000
     atom:   13    charge:    3.1158    magn:    0.0000    constr:    0.0000
     atom:   14    charge:    1.9587    magn:   -0.0000    constr:    0.0000
     atom:   15    charge:    3.1188    magn:    0.0000    constr:    0.0000
     atom:   16    charge:    1.9446    magn:   -0.0000    constr:    0.0000
     atom:   17    charge:    1.9184    magn:    0.0002    constr:    0.0000
     atom:   18    charge:    3.1239    magn:   -0.0000    constr:    0.0000
     atom:   19    charge:    1.9408    magn:   -0.0000    constr:    0.0000
     atom:   20    charge:    1.9471    magn:    0.0000    constr:    0.0000
     atom:   21    charge:    1.9471    magn:    0.0000    constr:    0.0000
     atom:   22    charge:    3.1196    magn:    0.0000    constr:    0.0000
     atom:   23    charge:    1.9566    magn:   -0.0000    constr:    0.0000
     atom:   24    charge:    1.9379    magn:   -0.0000    constr:    0.0000
     atom:   25    charge:    1.9505    magn:   -0.0000    constr:    0.0000
     atom:   26    charge:    3.1145    magn:    0.0000    constr:    0.0000
     atom:   27    charge:    1.9398    magn:   -0.0000    constr:    0.0000
     atom:   28    charge:    1.9517    magn:   -0.0000    constr:    0.0000
     atom:   29    charge:    1.9476    magn:   -0.0000    constr:    0.0000
     atom:   30    charge:    3.1167    magn:    0.0000    constr:    0.0000
     atom:   31    charge:    1.9447    magn:   -0.0000    constr:    0.0000
     atom:   32    charge:    1.9440    magn:   -0.0000    constr:    0.0000
     atom:   33    charge:    1.9184    magn:    0.0002    constr:    0.0000
     atom:   34    charge:    3.1239    magn:   -0.0000    constr:    0.0000
     atom:   35    charge:    1.9408    magn:   -0.0000    constr:    0.0000
     atom:   36    charge:    1.9471    magn:    0.0000    constr:    0.0000
     atom:   37    charge:    1.9471    magn:    0.0000    constr:    0.0000
     atom:   38    charge:    3.1196    magn:    0.0000    constr:    0.0000
     atom:   39    charge:    1.9549    magn:   -0.0000    constr:    0.0000
     atom:   40    charge:    1.9383    magn:   -0.0000    constr:    0.0000
     atom:   41    charge:    1.9505    magn:   -0.0000    constr:    0.0000
     atom:   42    charge:    3.1141    magn:    0.0000    constr:    0.0000
     atom:   43    charge:    1.9413    magn:   -0.0000    constr:    0.0000
     atom:   44    charge:    1.9517    magn:   -0.0000    constr:    0.0000
     atom:   45    charge:    1.9468    magn:   -0.0000    constr:    0.0000
     atom:   46    charge:    3.1165    magn:    0.0000    constr:    0.0000
     atom:   47    charge:    1.9431    magn:   -0.0000    constr:    0.0000
     atom:   48    charge:    1.9444    magn:   -0.0000    constr:    0.0000
     atom:   49    charge:    0.6625    magn:   -0.0000    constr:    0.0000
     atom:   50    charge:    1.9579    magn:   -0.0000    constr:    0.0000
     atom:   51    charge:    0.4189    magn:    0.0000    constr:    0.0000
     atom:   52    charge:    0.4008    magn:    0.0000    constr:    0.0000
     atom:   53    charge:    0.4034    magn:    0.0000    constr:    0.0000
     atom:   54    charge:    0.4040    magn:    0.0000    constr:    0.0000

     total cpu time spent up to now is     2030.6 secs

     total energy              =   -3021.41912221 Ry
     Harris-Foulkes estimate   =   -3021.41912187 Ry
     estimated scf accuracy    <       0.00000327 Ry

     total magnetization       =     0.00 Bohr mag/cell
     absolute magnetization    =     0.00 Bohr mag/cell

     iteration #  7     ecut=    40.42 Ry     beta=0.10
     Davidson diagonalization with overlap
     ethr =  8.22E-10,  avg # of iterations =  3.0

     negative rho (up, down):  1.210E-02 1.210E-02
 
     Magnetic moment per site:
     atom:    1    charge:    3.1250    magn:   -0.0001    constr:    0.0000
     atom:    2    charge:    1.9452    magn:    0.0000    constr:    0.0000
     atom:    3    charge:    3.1198    magn:    0.0000    constr:    0.0000
     atom:    4    charge:    1.9504    magn:   -0.0000    constr:    0.0000
     atom:    5    charge:    3.1166    magn:    0.0000    constr:    0.0000
     atom:    6    charge:    1.9476    magn:   -0.0000    constr:    0.0000
     atom:    7    charge:    3.1157    magn:    0.0000    constr:    0.0000
     atom:    8    charge:    1.9452    magn:   -0.0000    constr:    0.0000
     atom:    9    charge:    3.1250    magn:   -0.0001    constr:    0.0000
     atom:   10    charge:    1.9452    magn:    0.0000    constr:    0.0000
     atom:   11    charge:    3.1197    magn:    0.0000    constr:    0.0000
     atom:   12    charge:    1.9504    magn:   -0.0000    constr:    0.0000
     atom:   13    charge:    3.1158    magn:    0.0000    constr:    0.0000
     atom:   14    charge:    1.9587    magn:   -0.0000    constr:    0.0000
     atom:   15    charge:    3.1188    magn:    0.0000    constr:    0.0000
     atom:   16    charge:    1.9446    magn:   -0.0000    constr:    0.0000
     atom:   17    charge:    1.9184    magn:    0.0001    constr:    0.0000
     atom:   18    charge:    3.1239    magn:   -0.0000    constr:    0.0000
     atom:   19    charge:    1.9408    magn:   -0.0000    constr:    0.0000
     atom:   20    charge:    1.9471    magn:    0.0000    constr:    0.0000
     atom:   21    charge:    1.9471    magn:    0.0000    constr:    0.0000
     atom:   22    charge:    3.1196    magn:    0.0000    constr:    0.0000
     atom:   23    charge:    1.9566    magn:   -0.0000    constr:    0.0000
     atom:   24    charge:    1.9379    magn:   -0.0000    constr:    0.0000
     atom:   25    charge:    1.9505    magn:   -0.0000    constr:    0.0000
     atom:   26    charge:    3.1145    magn:    0.0000    constr:    0.0000
     atom:   27    charge:    1.9398    magn:   -0.0000    constr:    0.0000
     atom:   28    charge:    1.9517    magn:   -0.0000    constr:    0.0000
     atom:   29    charge:    1.9476    magn:   -0.0000    constr:    0.0000
     atom:   30    charge:    3.1167    magn:    0.0000    constr:    0.0000
     atom:   31    charge:    1.9447    magn:   -0.0000    constr:    0.0000
     atom:   32    charge:    1.9440    magn:   -0.0000    constr:    0.0000
     atom:   33    charge:    1.9184    magn:    0.0001    constr:    0.0000
     atom:   34    charge:    3.1239    magn:   -0.0000    constr:    0.0000
     atom:   35    charge:    1.9408    magn:   -0.0000    constr:    0.0000
     atom:   36    charge:    1.9471    magn:    0.0000    constr:    0.0000
     atom:   37    charge:    1.9471    magn:    0.0000    constr:    0.0000
     atom:   38    charge:    3.1196    magn:    0.0000    constr:    0.0000
     atom:   39    charge:    1.9549    magn:   -0.0000    constr:    0.0000
     atom:   40    charge:    1.9383    magn:   -0.0000    constr:    0.0000
     atom:   41    charge:    1.9505    magn:   -0.0000    constr:    0.0000
     atom:   42    charge:    3.1141    magn:    0.0000    constr:    0.0000
     atom:   43    charge:    1.9413    magn:   -0.0000    constr:    0.0000
     atom:   44    charge:    1.9517    magn:   -0.0000    constr:    0.0000
     atom:   45    charge:    1.9468    magn:   -0.0000    constr:    0.0000
     atom:   46    charge:    3.1165    magn:    0.0000    constr:    0.0000
     atom:   47    charge:    1.9431    magn:   -0.0000    constr:    0.0000
     atom:   48    charge:    1.9444    magn:   -0.0000    constr:    0.0000
     atom:   49    charge:    0.6624    magn:   -0.0000    constr:    0.0000
     atom:   50    charge:    1.9579    magn:   -0.0000    constr:    0.0000
     atom:   51    charge:    0.4189    magn:    0.0000    constr:    0.0000
     atom:   52    charge:    0.4008    magn:    0.0000    constr:    0.0000
     atom:   53    charge:    0.4034    magn:    0.0000    constr:    0.0000
     atom:   54    charge:    0.4040    magn:    0.0000    constr:    0.0000

     total cpu time spent up to now is     2235.4 secs

     total energy              =   -3021.41912223 Ry
     Harris-Foulkes estimate   =   -3021.41912242 Ry
     estimated scf accuracy    <       0.00000127 Ry

     total magnetization       =     0.00 Bohr mag/cell
     absolute magnetization    =     0.00 Bohr mag/cell

     iteration #  8     ecut=    40.42 Ry     beta=0.10
     Davidson diagonalization with overlap
     ethr =  3.19E-10,  avg # of iterations =  3.0

     negative rho (up, down):  1.210E-02 1.210E-02
 
     Magnetic moment per site:
     atom:    1    charge:    3.1250    magn:   -0.0000    constr:    0.0000
     atom:    2    charge:    1.9452    magn:    0.0000    constr:    0.0000
     atom:    3    charge:    3.1198    magn:    0.0000    constr:    0.0000
     atom:    4    charge:    1.9504    magn:   -0.0000    constr:    0.0000
     atom:    5    charge:    3.1166    magn:    0.0000    constr:    0.0000
     atom:    6    charge:    1.9477    magn:   -0.0000    constr:    0.0000
     atom:    7    charge:    3.1157    magn:    0.0000    constr:    0.0000
     atom:    8    charge:    1.9452    magn:   -0.0000    constr:    0.0000
     atom:    9    charge:    3.1250    magn:   -0.0000    constr:    0.0000
     atom:   10    charge:    1.9452    magn:    0.0000    constr:    0.0000
     atom:   11    charge:    3.1197    magn:    0.0000    constr:    0.0000
     atom:   12    charge:    1.9504    magn:   -0.0000    constr:    0.0000
     atom:   13    charge:    3.1158    magn:    0.0000    constr:    0.0000
     atom:   14    charge:    1.9587    magn:   -0.0000    constr:    0.0000
     atom:   15    charge:    3.1188    magn:    0.0000    constr:    0.0000
     atom:   16    charge:    1.9445    magn:   -0.0000    constr:    0.0000
     atom:   17    charge:    1.9184    magn:    0.0001    constr:    0.0000
     atom:   18    charge:    3.1239    magn:   -0.0000    constr:    0.0000
     atom:   19    charge:    1.9408    magn:   -0.0000    constr:    0.0000
     atom:   20    charge:    1.9471    magn:    0.0000    constr:    0.0000
     atom:   21    charge:    1.9471    magn:    0.0000    constr:    0.0000
     atom:   22    charge:    3.1196    magn:    0.0000    constr:    0.0000
     atom:   23    charge:    1.9566    magn:   -0.0000    constr:    0.0000
     atom:   24    charge:    1.9379    magn:   -0.0000    constr:    0.0000
     atom:   25    charge:    1.9505    magn:   -0.0000    constr:    0.0000
     atom:   26    charge:    3.1145    magn:    0.0000    constr:    0.0000
     atom:   27    charge:    1.9398    magn:   -0.0000    constr:    0.0000
     atom:   28    charge:    1.9517    magn:   -0.0000    constr:    0.0000
     atom:   29    charge:    1.9476    magn:   -0.0000    constr:    0.0000
     atom:   30    charge:    3.1167    magn:    0.0000    constr:    0.0000
     atom:   31    charge:    1.9447    magn:   -0.0000    constr:    0.0000
     atom:   32    charge:    1.9440    magn:   -0.0000    constr:    0.0000
     atom:   33    charge:    1.9184    magn:    0.0001    constr:    0.0000
     atom:   34    charge:    3.1239    magn:   -0.0000    constr:    0.0000
     atom:   35    charge:    1.9408    magn:   -0.0000    constr:    0.0000
     atom:   36    charge:    1.9471    magn:    0.0000    constr:    0.0000
     atom:   37    charge:    1.9471    magn:    0.0000    constr:    0.0000
     atom:   38    charge:    3.1196    magn:    0.0000    constr:    0.0000
     atom:   39    charge:    1.9549    magn:   -0.0000    constr:    0.0000
     atom:   40    charge:    1.9383    magn:   -0.0000    constr:    0.0000
     atom:   41    charge:    1.9505    magn:   -0.0000    constr:    0.0000
     atom:   42    charge:    3.1141    magn:    0.0000    constr:    0.0000
     atom:   43    charge:    1.9413    magn:   -0.0000    constr:    0.0000
     atom:   44    charge:    1.9517    magn:   -0.0000    constr:    0.0000
     atom:   45    charge:    1.9468    magn:   -0.0000    constr:    0.0000
     atom:   46    charge:    3.1165    magn:    0.0000    constr:    0.0000
     atom:   47    charge:    1.9431    magn:   -0.0000    constr:    0.0000
     atom:   48    charge:    1.9444    magn:   -0.0000    constr:    0.0000
     atom:   49    charge:    0.6623    magn:   -0.0000    constr:    0.0000
     atom:   50    charge:    1.9579    magn:   -0.0000    constr:    0.0000
     atom:   51    charge:    0.4189    magn:    0.0000    constr:    0.0000
     atom:   52    charge:    0.4007    magn:    0.0000    constr:    0.0000
     atom:   53    charge:    0.4033    magn:    0.0000    constr:    0.0000
     atom:   54    charge:    0.4039    magn:    0.0000    constr:    0.0000

     total cpu time spent up to now is     2441.6 secs

     End of self-consistent calculation

 ------ SPIN UP ------------


          k = 0.0000 0.0000 0.0000 ( 34665 PWs)   bands (ev):

   -57.6976 -57.6627 -57.3165 -57.2802 -57.2313 -57.1086 -57.0722 -57.0712
   -57.0496 -57.0365 -56.9886 -56.9531 -56.7290 -56.6915 -56.1482 -56.1129
   -34.1337 -33.9799 -33.9513 -33.8986 -33.8688 -33.8043 -33.7439 -33.6520
   -33.6172 -33.6040 -33.5665 -33.5394 -33.5172 -33.5064 -33.4884 -33.4842
   -33.4635 -33.4531 -33.4299 -33.3976 -33.3229 -33.2908 -33.2706 -33.2613
   -33.2536 -33.2528 -33.2419 -33.2415 -33.2359 -33.2284 -33.2280 -33.2113
   -33.1789 -33.1786 -33.1735 -33.1394 -33.1168 -32.9951 -32.9770 -32.9560
   -32.9066 -32.8037 -32.5660 -32.5005 -32.4744 -32.3702 -32.2785 -32.1702
   -20.2978 -18.0114 -17.8402 -17.5558 -17.4606 -17.3714 -17.2507 -17.0764
   -17.0652 -16.9733 -16.9376 -16.8831 -16.7827 -16.7765 -16.7281 -16.7062
   -16.7017 -16.6612 -16.6100 -16.6033 -16.5348 -16.4142 -16.4012 -16.3970
   -16.3202 -16.2666 -16.1932 -16.1661 -16.1487 -15.9771 -15.9281 -14.7327
   -14.6491 -11.5309  -7.2393  -5.4992  -5.3980  -5.3317  -5.2057  -5.2045
    -5.1448  -5.1272  -4.8380  -4.8162  -4.4708  -4.4416  -4.3581  -4.3543
    -4.3217  -4.2316  -4.0887  -4.0594  -4.0538  -4.0166  -3.9981  -3.9902
    -3.9595  -3.9520  -3.9500  -3.8388  -3.7872  -3.7642  -3.7377  -3.7210
    -3.6312  -3.6157  -3.5859  -3.5765  -3.5187  -3.5076  -3.4084  -3.3994
    -3.3789  -3.2939  -3.2410  -3.1963  -3.0123  -2.9341  -2.8777  -2.8371
    -2.6945  -2.6059  -2.5887  -2.5789  -2.5761  -2.5673  -2.4302  -2.4131
    -2.3349  -2.2680  -2.2462  -2.2035  -2.1990  -2.1651  -2.1374  -2.0918
    -2.0466  -2.0273  -2.0190  -1.8878  -1.8648  -1.7609  -1.7348  -1.6230
    -1.5417  -1.5400  -1.4891  -1.4797  -1.4621  -1.4223  -1.3229  -1.3082
    -1.3012  -1.2786  -1.2415  -1.1344  -1.0854  -1.0798  -1.0660  -1.0179
    -0.9530  -0.9143  -0.8186  -0.7633  -0.6092  -0.5862  -0.5681  -0.4778
    -0.3751  -0.2411  -0.0837  -0.0252   0.1324   0.2493   0.2630   1.6438
     1.6763   1.9869   2.0033   2.0667   2.0966   2.2062   2.2451   2.2884
     2.4312   2.4985   2.5272   2.5319   2.5433   2.6323   2.6503   2.6585
     2.7166   2.8009   2.8286   2.8404   2.9124   3.0010   3.0348   3.1006
     3.1065   3.1156   3.1623   3.2034   3.2096   3.2278   3.2412   3.2529
     3.2619   3.2902   3.3985   3.4329   3.4581   3.4678   3.5296   3.5870
     3.6547   3.6962   3.8093   3.9822   4.0175   4.0935   4.1812   4.3225
     4.3401   4.3931   4.5874   4.6006   4.8114   4.8403   5.0885   5.1682
     5.2469   5.3319   5.4790   5.5188   5.5272   5.5948   5.6794   5.7133
     5.8011   5.8667   5.8780   5.8878   5.9559   6.0390   6.0492   6.0727
     6.1457   6.2305   6.2447   6.2985   6.3794   6.5830   6.6378   6.7560
     6.8426   7.0094   7.0400   7.1657   7.3036   7.5761   7.9064   8.2536
     8.3308   8.6768   8.7956   8.8747   8.9391   9.0100   9.1772   9.2686
     9.3529   9.3804   9.5343

          k = 0.0000 0.0280 0.0000 ( 34717 PWs)   bands (ev):

   -57.6953 -57.6650 -57.3141 -57.2826 -57.2308 -57.1063 -57.0743 -57.0691
   -57.0501 -57.0388 -56.9863 -56.9555 -56.7266 -56.6940 -56.1458 -56.1153
   -34.1084 -33.9778 -33.9532 -33.8925 -33.8429 -33.8108 -33.7709 -33.6293
   -33.6103 -33.5790 -33.5411 -33.5365 -33.5194 -33.4994 -33.4913 -33.4829
   -33.4703 -33.4606 -33.4279 -33.3907 -33.3168 -33.2890 -33.2843 -33.2628
   -33.2579 -33.2512 -33.2490 -33.2384 -33.2367 -33.2350 -33.2346 -33.2159
   -33.2014 -33.1838 -33.1757 -33.1434 -33.1401 -32.9912 -32.9757 -32.9574
   -32.9116 -32.8316 -32.5403 -32.4988 -32.4763 -32.3641 -32.2848 -32.1977
   -20.2976 -17.9496 -17.7826 -17.5028 -17.4085 -17.3278 -17.2240 -17.0903
   -17.0349 -16.9972 -16.9917 -16.8848 -16.8184 -16.7602 -16.7061 -16.6881
   -16.6746 -16.6634 -16.6552 -16.6407 -16.5938 -16.4381 -16.3827 -16.3671
   -16.3469 -16.2961 -16.2103 -16.1725 -16.1525 -16.0078 -15.9652 -14.7428
   -14.6725 -11.5306  -7.2389  -5.4757  -5.3154  -5.2610  -5.2101  -5.1296
    -5.0675  -5.0473  -4.7624  -4.7021  -4.4344  -4.3998  -4.3929  -4.3110
    -4.3008  -4.1589  -4.1228  -4.1130  -4.0905  -4.0695  -4.0312  -4.0287
    -3.9649  -3.9605  -3.9489  -3.8902  -3.8521  -3.8460  -3.8369  -3.7666
    -3.7213  -3.7051  -3.6646  -3.6147  -3.5742  -3.5581  -3.4334  -3.3695
    -3.3267  -3.2351  -3.2199  -3.1058  -2.9332  -2.8698  -2.7487  -2.7240
    -2.6126  -2.6003  -2.5246  -2.5086  -2.4768  -2.4404  -2.4110  -2.4067
    -2.3857  -2.3606  -2.2870  -2.2755  -2.1667  -2.1412  -2.1351  -2.0930
    -2.0209  -1.9963  -1.9528  -1.8767  -1.8095  -1.7667  -1.7059  -1.6809
    -1.6416  -1.6250  -1.5626  -1.5245  -1.4808  -1.4369  -1.4346  -1.3949
    -1.3539  -1.2702  -1.2170  -1.2123  -1.1577  -1.0888  -1.0686  -1.0209
    -1.0076  -0.9032  -0.8658  -0.7895  -0.7598  -0.7053  -0.6069  -0.5896
    -0.3934  -0.2692  -0.0905  -0.0794   0.1473   0.2029   0.2295   1.7302
     1.7761   1.9871   2.0662   2.1318   2.1528   2.2197   2.2754   2.3142
     2.4257   2.4625   2.5002   2.5367   2.5872   2.6043   2.6316   2.6929
     2.7340   2.7718   2.7983   2.9137   2.9239   2.9526   2.9775   3.0113
     3.1123   3.1181   3.1358   3.1762   3.1937   3.2068   3.2595   3.3056
     3.3367   3.3721   3.4083   3.4747   3.5080   3.5531   3.5632   3.6502
     3.6661   3.6872   3.7729   3.9613   4.0358   4.1151   4.1923   4.2876
     4.3244   4.3986   4.5421   4.6906   4.8650   4.9268   5.0924   5.2598
     5.3052   5.3364   5.5386   5.5679   5.6049   5.6246   5.6871   5.7215
     5.7856   5.7936   5.8529   5.8794   5.9003   5.9490   6.0701   6.1234
     6.1506   6.1585   6.1762   6.2082   6.2765   6.5598   6.6047   6.6962
     6.8464   6.9505   6.9829   7.0864   7.2325   7.5758   7.9199   8.0108
     8.0611   8.4567   8.5633   8.8388   8.9080   9.0013   9.0898   9.1358
     9.2756   9.4380   9.4958

          k = 0.0000 0.0560 0.0000 ( 34721 PWs)   bands (ev):

   -57.6889 -57.6715 -57.3076 -57.2892 -57.2300 -57.1002 -57.0803 -57.0627
   -57.0509 -57.0452 -56.9798 -56.9620 -56.7199 -56.7006 -56.1394 -56.1218
   -34.0386 -33.9725 -33.9582 -33.8754 -33.8439 -33.8283 -33.7718 -33.5948
   -33.5716 -33.5707 -33.5336 -33.5261 -33.5052 -33.5028 -33.4755 -33.4710
   -33.4550 -33.4251 -33.4174 -33.3713 -33.3149 -33.3118 -33.3116 -33.3003
   -33.2847 -33.2750 -33.2665 -33.2625 -33.2521 -33.2449 -33.2330 -33.2308
   -33.2087 -33.1968 -33.1691 -33.1635 -33.1247 -32.9861 -32.9721 -32.9607
   -32.9246 -32.9014 -32.4940 -32.4810 -32.4696 -32.3475 -32.3017 -32.2718
   -20.2973 -17.7785 -17.6239 -17.3715 -17.2747 -17.2590 -17.2178 -17.1658
   -17.1350 -16.9614 -16.9521 -16.9175 -16.8726 -16.8185 -16.7872 -16.7245
   -16.7148 -16.6827 -16.6239 -16.5957 -16.5382 -16.5035 -16.4217 -16.3768
   -16.3611 -16.3007 -16.2393 -16.1937 -16.1560 -16.1083 -16.0380 -14.7610
   -14.7231 -11.5298  -7.2380  -5.4519  -5.2211  -5.0758  -5.0390  -4.9232
    -4.8574  -4.8238  -4.5606  -4.5061  -4.4722  -4.4166  -4.4084  -4.3656
    -4.3306  -4.2588  -4.2338  -4.2108  -4.1951  -4.1854  -4.1561  -4.0747
    -4.0566  -4.0043  -3.9861  -3.9673  -3.9294  -3.8899  -3.8551  -3.8180
    -3.7962  -3.7307  -3.6350  -3.5848  -3.4336  -3.4271  -3.3746  -3.2679
    -3.2378  -3.2120  -3.1932  -3.0829  -2.9026  -2.8426  -2.8378  -2.7976
    -2.7207  -2.6676  -2.5473  -2.4725  -2.4435  -2.3214  -2.3156  -2.3100
    -2.3025  -2.2482  -2.2058  -2.1781  -2.1468  -2.1168  -2.0306  -2.0091
    -1.9600  -1.9465  -1.9160  -1.9039  -1.8823  -1.8480  -1.8156  -1.7822
    -1.7441  -1.6945  -1.6240  -1.5409  -1.5262  -1.5086  -1.4547  -1.4188
    -1.3791  -1.3636  -1.3492  -1.2894  -1.2375  -1.2159  -1.1550  -1.1019
    -1.0816  -1.0226  -0.9221  -0.8895  -0.8494  -0.7839  -0.7619  -0.6590
    -0.5858  -0.4621  -0.2409   0.0922   0.1445   0.1795   0.1862   1.8658
     2.0257   2.0988   2.1102   2.2108   2.2356   2.2705   2.3676   2.3903
     2.3969   2.4124   2.4354   2.4772   2.5043   2.5390   2.6754   2.6964
     2.7350   2.7763   2.8313   2.9048   2.9166   2.9394   2.9728   2.9745
     3.0164   3.0998   3.1386   3.1581   3.2513   3.2627   3.2873   3.3304
     3.3692   3.3873   3.4417   3.5383   3.5445   3.6376   3.6782   3.7286
     3.7616   3.8243   3.8593   3.8911   3.9331   4.1315   4.1428   4.1594
     4.3279   4.3766   4.5656   4.9077   5.0168   5.0629   5.1762   5.3793
     5.3830   5.4793   5.5191   5.5507   5.6492   5.7242   5.7251   5.7345
     5.7803   5.7887   5.8001   5.8576   5.8865   5.9466   5.9787   5.9913
     6.0024   6.0557   6.1562   6.1717   6.3099   6.3755   6.4109   6.6164
     6.6616   6.7819   6.8707   7.0428   7.2123   7.3351   7.4447   7.7246
     8.0849   8.2054   8.3406   8.6170   8.8816   8.9916   9.3166   9.3310
     9.4317   9.4411   9.5689

          k = 0.0000-0.0840 0.0000 ( 34678 PWs)   bands (ev):

   -57.6803 -57.6801 -57.3001 -57.2967 -57.2296 -57.0947 -57.0858 -57.0540
   -57.0540 -57.0514 -56.9715 -56.9704 -56.7130 -56.7076 -56.1306 -56.1306
   -33.9655 -33.9653 -33.9420 -33.9419 -33.8520 -33.8518 -33.6849 -33.6610
   -33.5648 -33.5615 -33.5274 -33.5168 -33.5125 -33.4757 -33.4520 -33.4228
   -33.4128 -33.4063 -33.3739 -33.3737 -33.3614 -33.3459 -33.3400 -33.3227
   -33.3214 -33.2836 -33.2768 -33.2747 -33.2679 -33.2660 -33.2314 -33.2297
   -33.2142 -33.2123 -33.1622 -33.1614 -33.0475 -33.0266 -32.9690 -32.9635
   -32.9385 -32.9355 -32.4875 -32.4875 -32.3717 -32.3716 -32.3246 -32.3246
   -20.2972 -17.5679 -17.5042 -17.4092 -17.3889 -17.2282 -17.1742 -17.0649
   -17.0607 -17.0147 -17.0019 -16.9883 -16.8709 -16.8385 -16.8385 -16.7997
   -16.7931 -16.5950 -16.5930 -16.5246 -16.5222 -16.4873 -16.4859 -16.4034
   -16.4009 -16.2615 -16.2593 -16.1999 -16.1960 -16.1296 -16.1004 -14.7598
   -14.7597 -11.5294  -7.2374  -5.4450  -5.2270  -4.7986  -4.7322  -4.7311
    -4.6559  -4.6410  -4.6368  -4.6007  -4.5747  -4.5087  -4.5023  -4.3995
    -4.3721  -4.3382  -4.3366  -4.3074  -4.2943  -4.2792  -4.2738  -4.0536
    -4.0317  -4.0223  -4.0094  -3.9913  -3.9412  -3.8093  -3.7944  -3.7901
    -3.7147  -3.6934  -3.6389  -3.5123  -3.4725  -3.3396  -3.3262  -3.2851
    -3.1375  -3.1156  -3.0427  -3.0187  -2.9615  -2.9306  -2.8050  -2.7872
    -2.6970  -2.6929  -2.5755  -2.5381  -2.5115  -2.4941  -2.4812  -2.4463
    -2.4375  -2.4192  -2.3291  -2.2445  -2.0274  -2.0062  -1.9666  -1.9402
    -1.9262  -1.8283  -1.8213  -1.8080  -1.7815  -1.7441  -1.7299  -1.6992
    -1.6641  -1.6393  -1.6139  -1.5572  -1.5145  -1.4865  -1.4801  -1.4518
    -1.4240  -1.4164  -1.4088  -1.3804  -1.3579  -1.3249  -1.2197  -1.1868
    -1.0997  -1.0720  -1.0092  -0.9768  -0.9695  -0.9588  -0.9423  -0.5229
    -0.5179  -0.4558  -0.4416   0.1445   0.1446   0.1872   0.1889   2.0402
     2.0434   2.2196   2.2210   2.2219   2.2378   2.2860   2.3410   2.3482
     2.3483   2.3736   2.3843   2.5288   2.5550   2.5560   2.6023   2.6655
     2.7163   2.7382   2.7512   2.8927   2.9238   2.9910   2.9986   3.0585
     3.0598   3.1032   3.1140   3.1813   3.2193   3.2344   3.2472   3.4049
     3.4274   3.4383   3.4410   3.4741   3.4850   3.7267   3.7671   3.8056
     3.8096   3.8333   3.9101   3.9325   3.9699   4.0746   4.0769   4.1269
     4.1276   4.4191   4.6735   4.9616   5.0018   5.2614   5.3330   5.4585
     5.4902   5.5094   5.5095   5.5719   5.6082   5.6480   5.6667   5.6724
     5.8004   5.8055   5.8275   5.8530   5.8631   5.8679   5.8842   5.9749
     6.0212   6.0603   6.0728   6.1599   6.1972   6.4058   6.4669   6.5655
     6.6048   6.7459   6.7748   6.9802   7.0322   7.1018   7.3267   7.7013
     7.8831   8.1689   8.4108   8.7796   8.8396   8.8621   9.1331   9.6998
     9.7066   9.7514   9.8188

          k = 0.0253 0.0000 0.0000 ( 34707 PWs)   bands (ev):

   -57.6976 -57.6627 -57.3165 -57.2802 -57.2313 -57.1085 -57.0721 -57.0713
   -57.0496 -57.0365 -56.9886 -56.9531 -56.7290 -56.6915 -56.1482 -56.1129
   -34.1341 -33.9798 -33.9514 -33.8979 -33.8689 -33.8044 -33.7439 -33.6528
   -33.6172 -33.6056 -33.5667 -33.5360 -33.5310 -33.5073 -33.4842 -33.4736
   -33.4622 -33.4531 -33.4299 -33.3907 -33.3228 -33.2909 -33.2703 -33.2613
   -33.2569 -33.2561 -33.2431 -33.2400 -33.2379 -33.2284 -33.2281 -33.2111
   -33.1788 -33.1785 -33.1738 -33.1394 -33.1170 -32.9951 -32.9795 -32.9552
   -32.9066 -32.8038 -32.5659 -32.5015 -32.4739 -32.3702 -32.2786 -32.1703
   -20.2976 -17.9816 -17.8002 -17.5135 -17.4317 -17.3548 -17.2572 -17.1433
   -17.0910 -16.9742 -16.9371 -16.8699 -16.8177 -16.8046 -16.7880 -16.7791
   -16.7283 -16.6916 -16.5552 -16.5328 -16.4527 -16.4511 -16.4021 -16.3690
   -16.3377 -16.3112 -16.1817 -16.1640 -16.1500 -15.9769 -15.9279 -14.7316
   -14.6489 -11.5297  -7.2366  -5.4996  -5.3202  -5.2645  -5.2047  -5.0963
    -5.0432  -5.0156  -4.8326  -4.8116  -4.6168  -4.4678  -4.4345  -4.3295
    -4.3101  -4.3002  -4.2464  -4.1000  -4.0352  -4.0315  -3.9953  -3.9437
    -3.9365  -3.9089  -3.8294  -3.8016  -3.7501  -3.7210  -3.6939  -3.6909
    -3.6195  -3.5966  -3.5688  -3.5613  -3.5153  -3.4480  -3.3631  -3.3096
    -3.2532  -3.2415  -3.1887  -3.1052  -3.0322  -2.9753  -2.9246  -2.8948
    -2.7539  -2.6728  -2.6321  -2.5987  -2.5781  -2.5292  -2.5184  -2.5026
    -2.4303  -2.3342  -2.3211  -2.2352  -2.2194  -2.1807  -2.1572  -2.0693
    -2.0083  -1.9993  -1.9619  -1.8825  -1.8489  -1.7519  -1.7385  -1.6496
    -1.5844  -1.5808  -1.5367  -1.4623  -1.4567  -1.3651  -1.3564  -1.3428
    -1.3358  -1.2893  -1.2726  -1.1885  -1.1260  -1.1160  -1.0771  -1.0454
    -0.9713  -0.9139  -0.8282  -0.7841  -0.7730  -0.6497  -0.6412  -0.5496
    -0.4198  -0.2355  -0.1145  -0.0527   0.1183   0.2065   0.2074   1.6632
     1.7263   2.0025   2.0728   2.1499   2.2246   2.2392   2.2711   2.3795
     2.3867   2.4590   2.5058   2.5236   2.5425   2.5796   2.5988   2.6376
     2.6571   2.7358   2.7589   2.8685   2.8854   2.9712   3.0323   3.1052
     3.1224   3.1453   3.1638   3.2047   3.2100   3.2552   3.2707   3.3409
     3.3790   3.4040   3.4524   3.4743   3.5369   3.5618   3.5932   3.6012
     3.6655   3.7314   3.7487   3.9152   4.0032   4.0978   4.1754   4.2779
     4.3757   4.3968   4.5544   4.6760   4.8650   4.9123   4.9276   5.0710
     5.1230   5.1473   5.1902   5.3519   5.5683   5.6218   5.6946   5.8676
     5.8842   5.9262   5.9604   6.0306   6.0815   6.1151   6.1620   6.2109
     6.2203   6.2533   6.2602   6.3093   6.4498   6.5234   6.6416   6.6658
     6.8215   6.8696   7.0354   7.1476   7.3034   7.7572   7.8534   8.0889
     8.3368   8.3490   8.4326   8.6852   8.8465   8.9733   9.1534   9.3447
     9.3638   9.4698   9.5001

          k = 0.0253 0.0280 0.0000 ( 34687 PWs)   bands (ev):

   -57.6953 -57.6650 -57.3141 -57.2826 -57.2308 -57.1062 -57.0742 -57.0692
   -57.0500 -57.0388 -56.9863 -56.9555 -56.7266 -56.6940 -56.1458 -56.1153
   -34.1087 -33.9779 -33.9532 -33.8918 -33.8430 -33.8107 -33.7709 -33.6300
   -33.6104 -33.5807 -33.5414 -33.5332 -33.5206 -33.5148 -33.4916 -33.4710
   -33.4646 -33.4594 -33.4280 -33.3839 -33.3167 -33.2892 -33.2821 -33.2628
   -33.2579 -33.2527 -33.2513 -33.2463 -33.2363 -33.2349 -33.2338 -33.2147
   -33.2015 -33.1838 -33.1757 -33.1433 -33.1401 -32.9912 -32.9778 -32.9566
   -32.9116 -32.8316 -32.5402 -32.4997 -32.4757 -32.3641 -32.2848 -32.1977
   -20.2974 -17.9213 -17.7435 -17.4623 -17.3820 -17.3077 -17.2308 -17.1270
   -17.0966 -17.0048 -16.9618 -16.8572 -16.8289 -16.8043 -16.7827 -16.7688
   -16.7116 -16.6980 -16.5987 -16.5784 -16.5050 -16.4736 -16.3797 -16.3638
   -16.3549 -16.3281 -16.1988 -16.1721 -16.1523 -16.0082 -15.9649 -14.7418
   -14.6725 -11.5293  -7.2361  -5.4810  -5.2495  -5.2091  -5.1808  -5.0199
    -4.9648  -4.9354  -4.7574  -4.6990  -4.5611  -4.4019  -4.3702  -4.3443
    -4.2583  -4.2519  -4.1853  -4.1174  -4.0864  -4.0632  -4.0331  -4.0186
    -3.9750  -3.9412  -3.9116  -3.8668  -3.8207  -3.8089  -3.7828  -3.7193
    -3.6974  -3.6636  -3.6138  -3.6037  -3.5398  -3.5279  -3.3680  -3.3161
    -3.2508  -3.2237  -3.1529  -3.0748  -2.9805  -2.9481  -2.7862  -2.7065
    -2.6803  -2.6351  -2.6099  -2.5332  -2.5023  -2.4531  -2.4468  -2.4195
    -2.4036  -2.3858  -2.3388  -2.3011  -2.2145  -2.1767  -2.1143  -2.0988
    -2.0654  -1.9934  -1.9482  -1.8909  -1.8637  -1.8254  -1.7609  -1.6733
    -1.6437  -1.6152  -1.5874  -1.5608  -1.5078  -1.4603  -1.4388  -1.3994
    -1.3433  -1.3264  -1.2684  -1.2538  -1.2059  -1.1069  -1.0962  -1.0592
    -1.0089  -0.8857  -0.8378  -0.8338  -0.7631  -0.7378  -0.6947  -0.6571
    -0.4308  -0.2801  -0.1327  -0.0846   0.1504   0.1798   0.1900   1.7222
     1.8463   2.0177   2.1003   2.1971   2.2460   2.2834   2.3178   2.3984
     2.4190   2.4685   2.4904   2.5259   2.5341   2.5540   2.5919   2.6755
     2.7067   2.7289   2.7887   2.8081   2.9320   2.9885   3.0112   3.0362
     3.1078   3.1358   3.1473   3.1740   3.2100   3.2437   3.3459   3.3749
     3.4074   3.4378   3.4642   3.5118   3.5539   3.5706   3.6377   3.6624
     3.6748   3.7097   3.7514   3.8962   3.9955   4.1394   4.1869   4.2542
     4.3079   4.4540   4.5109   4.7710   4.9308   4.9529   4.9949   5.0793
     5.1615   5.1768   5.2250   5.3881   5.6439   5.6826   5.7323   5.7784
     5.8558   5.8665   5.8729   6.0087   6.0724   6.0866   6.1208   6.1462
     6.1983   6.2101   6.2200   6.2359   6.4299   6.5295   6.6133   6.6614
     6.7850   6.8672   6.9645   7.1520   7.2276   7.5058   7.9320   8.0281
     8.0947   8.2524   8.4481   8.5794   8.6514   8.7761   8.9473   9.2656
     9.3669   9.4717   9.5113

          k = 0.0253 0.0560 0.0000 ( 34699 PWs)   bands (ev):

   -57.6889 -57.6715 -57.3076 -57.2892 -57.2300 -57.1002 -57.0803 -57.0628
   -57.0509 -57.0453 -56.9798 -56.9620 -56.7199 -56.7006 -56.1394 -56.1218
   -34.0389 -33.9725 -33.9583 -33.8749 -33.8440 -33.8281 -33.7719 -33.5947
   -33.5722 -33.5707 -33.5337 -33.5241 -33.5074 -33.5063 -33.4755 -33.4714
   -33.4540 -33.4251 -33.4121 -33.3658 -33.3153 -33.3125 -33.3073 -33.3001
   -33.2849 -33.2754 -33.2665 -33.2614 -33.2523 -33.2471 -33.2370 -33.2332
   -33.2089 -33.1975 -33.1691 -33.1634 -33.1246 -32.9861 -32.9735 -32.9606
   -32.9246 -32.9013 -32.4947 -32.4808 -32.4695 -32.3475 -32.3017 -32.2718
   -20.2971 -17.7550 -17.5882 -17.3421 -17.2629 -17.2434 -17.1923 -17.1666
   -17.1381 -16.9946 -16.9690 -16.8793 -16.8748 -16.8280 -16.7952 -16.7712
   -16.7466 -16.6690 -16.6217 -16.6030 -16.5780 -16.5288 -16.4255 -16.4108
   -16.3544 -16.2837 -16.2324 -16.1930 -16.1557 -16.1091 -16.0374 -14.7604
   -14.7232 -11.5285  -7.2351  -5.4593  -5.2203  -5.0333  -4.9476  -4.8115
    -4.7555  -4.7138  -4.5569  -4.4979  -4.4901  -4.4125  -4.3928  -4.3387
    -4.2695  -4.2301  -4.2144  -4.1908  -4.1464  -4.1399  -4.1057  -4.0607
    -4.0313  -4.0109  -3.9918  -3.9340  -3.9230  -3.8740  -3.8581  -3.8206
    -3.7736  -3.7152  -3.6541  -3.5705  -3.4741  -3.4128  -3.3403  -3.2830
    -3.2370  -3.2220  -3.1913  -3.0118  -2.9465  -2.8619  -2.8282  -2.7784
    -2.7589  -2.6447  -2.5924  -2.5084  -2.4880  -2.4365  -2.3919  -2.3650
    -2.3416  -2.3233  -2.2877  -2.2619  -2.1885  -2.1397  -2.1263  -2.0384
    -2.0103  -2.0083  -1.9454  -1.9369  -1.9016  -1.8601  -1.8336  -1.8106
    -1.7437  -1.7024  -1.6773  -1.6361  -1.5715  -1.5368  -1.4931  -1.4743
    -1.4298  -1.3715  -1.3376  -1.3010  -1.2220  -1.2042  -1.1296  -1.1043
    -1.0589  -1.0116  -0.9106  -0.8734  -0.8196  -0.7983  -0.7425  -0.6795
    -0.6054  -0.4640  -0.2547   0.0931   0.1297   0.1568   0.1894   1.8631
     2.0494   2.1336   2.1802   2.2328   2.2732   2.3072   2.3490   2.3861
     2.4275   2.4634   2.4822   2.5093   2.5216   2.5849   2.6951   2.7228
     2.7403   2.7777   2.8252   2.8412   2.9053   2.9540   2.9760   2.9874
     3.0287   3.0350   3.1576   3.2089   3.2879   3.3309   3.3418   3.3845
     3.4088   3.4404   3.4621   3.5421   3.5610   3.6323   3.6574   3.7361
     3.7945   3.8213   3.8628   3.9021   3.9061   4.0733   4.1180   4.1666
     4.3443   4.3857   4.6171   4.9663   5.0137   5.1275   5.1435   5.1595
     5.2635   5.2907   5.3150   5.4379   5.5112   5.5626   5.6385   5.7598
     5.8249   5.8517   5.8927   5.9350   5.9617   6.0036   6.0494   6.0619
     6.1375   6.1582   6.2235   6.3316   6.3806   6.4051   6.4822   6.6434
     6.6925   6.7976   6.8485   7.0363   7.1495   7.3647   7.4829   7.5888
     7.9780   8.1789   8.3505   8.5206   8.6471   8.8598   9.0530   9.1148
     9.1801   9.4918   9.6312

          k = 0.0253-0.0840 0.0000 ( 34722 PWs)   bands (ev):

   -57.6803 -57.6801 -57.3001 -57.2967 -57.2296 -57.0947 -57.0858 -57.0541
   -57.0540 -57.0514 -56.9715 -56.9704 -56.7130 -56.7076 -56.1306 -56.1306
   -33.9655 -33.9653 -33.9423 -33.9422 -33.8516 -33.8515 -33.6850 -33.6611
   -33.5648 -33.5615 -33.5279 -33.5166 -33.5123 -33.4758 -33.4512 -33.4230
   -33.4149 -33.4088 -33.3748 -33.3747 -33.3621 -33.3390 -33.3331 -33.3213
   -33.3199 -33.2834 -33.2766 -33.2749 -33.2681 -33.2646 -33.2350 -33.2335
   -33.2159 -33.2140 -33.1622 -33.1614 -33.0474 -33.0266 -32.9696 -32.9643
   -32.9384 -32.9354 -32.4877 -32.4877 -32.3717 -32.3716 -32.3246 -32.3246
   -20.2970 -17.5545 -17.4861 -17.3810 -17.3625 -17.2121 -17.1531 -17.0580
   -17.0485 -17.0028 -16.9784 -16.9741 -16.8877 -16.8781 -16.8679 -16.7845
   -16.7792 -16.6333 -16.6275 -16.5672 -16.5635 -16.5210 -16.5197 -16.3871
   -16.3854 -16.2530 -16.2506 -16.1981 -16.1946 -16.1301 -16.0997 -14.7597
   -14.7596 -11.5282  -7.2346  -5.4523  -5.2264  -4.7988  -4.6457  -4.6343
    -4.6246  -4.5470  -4.5462  -4.5318  -4.5233  -4.4171  -4.4086  -4.3686
    -4.3454  -4.3150  -4.2969  -4.2836  -4.2619  -4.2303  -4.2266  -4.0411
    -4.0373  -4.0132  -3.9822  -3.9633  -3.9189  -3.8469  -3.8429  -3.8150
    -3.7371  -3.6601  -3.6483  -3.4133  -3.4009  -3.3476  -3.3180  -3.2800
    -3.1182  -3.0940  -3.0590  -3.0500  -3.0079  -2.9649  -2.9190  -2.8957
    -2.8082  -2.8042  -2.6214  -2.6030  -2.5758  -2.5592  -2.5288  -2.4672
    -2.4336  -2.3412  -2.3139  -2.2745  -2.1205  -2.0724  -2.0540  -2.0081
    -1.9218  -1.9193  -1.8773  -1.8659  -1.8553  -1.8149  -1.8044  -1.7941
    -1.7658  -1.7281  -1.6846  -1.6560  -1.6195  -1.6061  -1.5934  -1.4749
    -1.4004  -1.3874  -1.2775  -1.2605  -1.2402  -1.2257  -1.1844  -1.1285
    -1.0821  -1.0504  -1.0424  -1.0112  -0.9575  -0.8894  -0.8773  -0.5360
    -0.5282  -0.4562  -0.4437   0.1183   0.1185   0.1977   0.1994   2.0519
     2.0542   2.2190   2.2346   2.2377   2.2412   2.2794   2.3176   2.4249
     2.4270   2.4417   2.4438   2.5592   2.5606   2.5793   2.6568   2.7231
     2.7573   2.8216   2.8303   2.8815   2.9012   2.9396   2.9496   3.0272
     3.0411   3.0867   3.1161   3.2228   3.2706   3.2914   3.3082   3.4239
     3.4293   3.4535   3.4707   3.4955   3.5240   3.7162   3.7416   3.8102
     3.8277   3.8392   3.8874   3.9148   3.9218   4.0822   4.0847   4.1185
     4.1188   4.4746   4.7151   4.9861   5.0252   5.2712   5.3033   5.3113
     5.3298   5.3618   5.3865   5.4281   5.4803   5.5109   5.5547   5.6422
     5.6491   5.7643   5.8349   5.8776   5.8929   6.0173   6.0783   6.0899
     6.1329   6.1868   6.2193   6.2821   6.3026   6.4676   6.5211   6.5958
     6.6387   6.7879   6.7953   6.9905   7.0352   7.1219   7.3836   7.5839
     7.7448   8.0028   8.2756   8.7276   8.7397   8.9668   9.0075   9.2931
     9.3472   9.4664   9.5424

          k = 0.0506 0.0000 0.0000 ( 34729 PWs)   bands (ev):

   -57.6976 -57.6627 -57.3165 -57.2802 -57.2313 -57.1084 -57.0720 -57.0716
   -57.0496 -57.0365 -56.9886 -56.9531 -56.7290 -56.6915 -56.1482 -56.1129
   -34.1347 -33.9798 -33.9514 -33.8966 -33.8691 -33.8044 -33.7440 -33.6542
   -33.6171 -33.6090 -33.5673 -33.5478 -33.5281 -33.5075 -33.4842 -33.4597
   -33.4572 -33.4523 -33.4300 -33.3740 -33.3225 -33.2912 -33.2697 -33.2655
   -33.2614 -33.2603 -33.2592 -33.2363 -33.2327 -33.2284 -33.2282 -33.2106
   -33.1786 -33.1783 -33.1745 -33.1394 -33.1171 -32.9950 -32.9845 -32.9533
   -32.9067 -32.8039 -32.5658 -32.5037 -32.4727 -32.3701 -32.2786 -32.1704
   -20.2972 -17.9156 -17.7054 -17.4148 -17.3890 -17.2817 -17.2646 -17.2362
   -17.1385 -16.9772 -16.9663 -16.9363 -16.8939 -16.8847 -16.8665 -16.8446
   -16.7499 -16.6998 -16.5352 -16.4542 -16.4480 -16.4093 -16.4034 -16.3576
   -16.3529 -16.3265 -16.1738 -16.1591 -16.1524 -15.9770 -15.9275 -14.7294
   -14.6486 -11.5273  -7.2310  -5.5117  -5.3035  -5.2028  -4.9788  -4.9124
    -4.8018  -4.7968  -4.7700  -4.7472  -4.7127  -4.6319  -4.5239  -4.4636
    -4.4179  -4.2468  -4.1309  -4.0428  -4.0233  -4.0185  -3.9728  -3.9288
    -3.9108  -3.8276  -3.7873  -3.7607  -3.7533  -3.6581  -3.6358  -3.6183
    -3.5544  -3.5523  -3.5399  -3.5247  -3.4987  -3.3352  -3.2810  -3.2671
    -3.2451  -3.2010  -3.1550  -3.1095  -2.9939  -2.9412  -2.8859  -2.8505
    -2.8259  -2.7810  -2.7587  -2.6778  -2.6215  -2.6100  -2.5760  -2.5465
    -2.4614  -2.4584  -2.4259  -2.3646  -2.3125  -2.2052  -2.1970  -2.1204
    -2.0852  -1.9902  -1.9380  -1.9308  -1.8421  -1.8164  -1.7999  -1.7132
    -1.6348  -1.5733  -1.5568  -1.5539  -1.4851  -1.4769  -1.4408  -1.3992
    -1.3507  -1.3320  -1.3017  -1.2109  -1.1184  -1.1045  -1.0870  -1.0706
    -0.9890  -0.9535  -0.8869  -0.8141  -0.8081  -0.7922  -0.7558  -0.5312
    -0.5228  -0.2667  -0.2227  -0.0461   0.0940   0.1200   0.1384   1.6432
     1.8196   2.0014   2.0980   2.1019   2.1805   2.1980   2.2823   2.2947
     2.4555   2.4588   2.4719   2.5600   2.5651   2.5865   2.6274   2.6798
     2.7082   2.8238   2.8714   2.8747   2.9005   2.9248   3.0850   3.1094
     3.1487   3.1649   3.2021   3.2030   3.2878   3.2904   3.3326   3.4106
     3.4405   3.4495   3.5018   3.5539   3.5780   3.5868   3.7012   3.7122
     3.7607   3.7641   3.7998   3.8951   3.9264   4.0834   4.1585   4.2123
     4.3485   4.4667   4.5761   4.6526   4.7690   4.7988   4.8623   4.8946
[...]
    -1.2959  -1.2648  -1.2498  -1.1886  -1.1507  -1.0297  -1.0186  -1.0104
    -0.9871  -0.9470  -0.9052  -0.8366  -0.7551  -0.7003  -0.6453  -0.5926
    -0.5885  -0.5333  -0.5166   0.0674   0.0675   0.2121   0.2138   2.1548
     2.1557   2.2022   2.2041   2.2397   2.2406   2.2677   2.2992   2.4893
     2.4948   2.5269   2.5568   2.6104   2.6181   2.6808   2.6827   2.6922
     2.6934   2.8455   2.9112   2.9842   2.9993   3.0356   3.0431   3.0996
     3.2212   3.2506   3.2737   3.3342   3.3750   3.3920   3.4461   3.4941
     3.5016   3.5240   3.5505   3.5823   3.6051   3.6814   3.7016   3.7467
     3.8362   3.8928   3.9088   3.9541   3.9544   4.0974   4.1043   4.1130
     4.1135   4.6155   4.7844   4.7884   4.8032   4.8721   4.9218   4.9269
     4.9432   4.9859   5.0284   5.2503   5.3408   5.3604   5.3709   5.7311
     5.8010   5.9122   5.9288   5.9811   6.0435   6.1481   6.3046   6.3508
     6.3663   6.3760   6.4116   6.5766   6.6202   6.6663   6.6664   6.7046
     6.7638   6.8454   6.8464   6.8536   6.8545   7.3582   7.4063   7.5229
     7.6631   7.8246   8.0108   8.1698   8.2307   8.3182   8.3964   8.8340
     8.9122   9.0462   9.0810

          k =-0.0253 0.0280 0.0000 ( 34687 PWs)   bands (ev):

   -57.6954 -57.6651 -57.3140 -57.2826 -57.2308 -57.1062 -57.0742 -57.0692
   -57.0500 -57.0388 -56.9862 -56.9555 -56.7265 -56.6939 -56.1461 -56.1155
   -34.1088 -33.9780 -33.9533 -33.8919 -33.8429 -33.8108 -33.7710 -33.6300
   -33.6103 -33.5806 -33.5413 -33.5332 -33.5206 -33.5148 -33.4915 -33.4710
   -33.4645 -33.4593 -33.4279 -33.3839 -33.3167 -33.2892 -33.2821 -33.2628
   -33.2576 -33.2527 -33.2515 -33.2463 -33.2363 -33.2349 -33.2338 -33.2147
   -33.2015 -33.1837 -33.1756 -33.1432 -33.1400 -32.9912 -32.9777 -32.9566
   -32.9116 -32.8316 -32.5405 -32.4999 -32.4760 -32.3643 -32.2850 -32.1979
   -20.2974 -17.9214 -17.7435 -17.4623 -17.3820 -17.3078 -17.2308 -17.1270
   -17.0968 -17.0045 -16.9618 -16.8576 -16.8289 -16.8053 -16.7823 -16.7687
   -16.7115 -16.6983 -16.5985 -16.5781 -16.5051 -16.4737 -16.3798 -16.3639
   -16.3549 -16.3281 -16.1989 -16.1721 -16.1522 -16.0083 -15.9650 -14.7413
   -14.6720 -11.5293  -7.2360  -5.4809  -5.2493  -5.2091  -5.1807  -5.0202
    -4.9649  -4.9357  -4.7575  -4.6998  -4.5609  -4.4016  -4.3702  -4.3446
    -4.2597  -4.2486  -4.1866  -4.1158  -4.0910  -4.0629  -4.0355  -4.0185
    -3.9738  -3.9394  -3.9129  -3.8676  -3.8208  -3.8104  -3.7830  -3.7195
    -3.7000  -3.6623  -3.6136  -3.6029  -3.5382  -3.5271  -3.3747  -3.3057
    -3.2533  -3.2255  -3.1503  -3.0733  -2.9816  -2.9443  -2.7852  -2.7058
    -2.6795  -2.6356  -2.6097  -2.5307  -2.5031  -2.4502  -2.4463  -2.4214
    -2.4045  -2.3839  -2.3382  -2.3001  -2.2164  -2.1740  -2.1199  -2.1023
    -2.0612  -1.9897  -1.9497  -1.8940  -1.8622  -1.8259  -1.7418  -1.7064
    -1.6514  -1.5978  -1.5917  -1.5585  -1.5144  -1.4686  -1.4348  -1.3917
    -1.3433  -1.3310  -1.2796  -1.2408  -1.1951  -1.1089  -1.0968  -1.0574
    -1.0092  -0.8910  -0.8392  -0.8289  -0.7538  -0.7373  -0.7070  -0.6581
    -0.4317  -0.2801  -0.1332  -0.0843   0.1507   0.1802   0.1904   1.7221
     1.8463   2.0176   2.1018   2.1969   2.2474   2.2866   2.3205   2.4055
     2.4169   2.4515   2.4874   2.5314   2.5340   2.5489   2.6093   2.6701
     2.7068   2.7405   2.7772   2.8137   2.9406   2.9878   3.0057   3.0286
     3.1089   3.1373   3.1477   3.1756   3.2102   3.2410   3.3493   3.3740
     3.4052   3.4214   3.4657   3.5082   3.5629   3.5725   3.6385   3.6623
     3.6745   3.7107   3.7509   3.8950   3.9943   4.1413   4.1869   4.2547
     4.3079   4.4543   4.5112   4.7720   4.9388   4.9522   4.9856   5.0793
     5.1604   5.1764   5.2248   5.3870   5.6456   5.6758   5.7292   5.7882
     5.8539   5.8663   5.8738   6.0077   6.0748   6.0797   6.1253   6.1470
     6.1983   6.2087   6.2164   6.2445   6.4298   6.5273   6.6132   6.6668
     6.7891   6.8607   6.9644   7.1522   7.2278   7.5050   7.9316   8.0274
     8.0947   8.2505   8.4432   8.5809   8.6479   8.7774   8.9527   9.2710
     9.3651   9.4743   9.5080

          k =-0.0253 0.0560 0.0000 ( 34699 PWs)   bands (ev):

   -57.6890 -57.6716 -57.3075 -57.2891 -57.2299 -57.1002 -57.0803 -57.0628
   -57.0508 -57.0452 -56.9797 -56.9620 -56.7199 -56.7006 -56.1396 -56.1220
   -34.0389 -33.9726 -33.9584 -33.8750 -33.8440 -33.8281 -33.7718 -33.5947
   -33.5721 -33.5707 -33.5337 -33.5240 -33.5074 -33.5063 -33.4754 -33.4714
   -33.4539 -33.4250 -33.4119 -33.3658 -33.3153 -33.3124 -33.3072 -33.3001
   -33.2849 -33.2753 -33.2665 -33.2614 -33.2522 -33.2472 -33.2369 -33.2331
   -33.2087 -33.1975 -33.1691 -33.1634 -33.1245 -32.9861 -32.9734 -32.9606
   -32.9246 -32.9012 -32.4949 -32.4810 -32.4698 -32.3478 -32.3020 -32.2720
   -20.2972 -17.7551 -17.5882 -17.3421 -17.2629 -17.2436 -17.1925 -17.1665
   -17.1379 -16.9945 -16.9689 -16.8793 -16.8751 -16.8285 -16.7956 -16.7712
   -16.7464 -16.6688 -16.6215 -16.6027 -16.5780 -16.5291 -16.4255 -16.4109
   -16.3545 -16.2836 -16.2325 -16.1930 -16.1557 -16.1092 -16.0374 -14.7599
   -14.7227 -11.5285  -7.2351  -5.4593  -5.2203  -5.0329  -4.9475  -4.8121
    -4.7556  -4.7138  -4.5569  -4.4961  -4.4908  -4.4122  -4.3931  -4.3435
    -4.2698  -4.2312  -4.2139  -4.1908  -4.1463  -4.1394  -4.1072  -4.0607
    -4.0302  -4.0083  -3.9930  -3.9351  -3.9228  -3.8719  -3.8619  -3.8213
    -3.7731  -3.7133  -3.6552  -3.5705  -3.4738  -3.4136  -3.3437  -3.2843
    -3.2368  -3.2156  -3.1865  -3.0128  -2.9433  -2.8635  -2.8252  -2.7820
    -2.7558  -2.6441  -2.5913  -2.5090  -2.4865  -2.4378  -2.3932  -2.3616
    -2.3419  -2.3229  -2.2899  -2.2644  -2.1882  -2.1396  -2.1254  -2.0353
    -2.0190  -2.0014  -1.9438  -1.9413  -1.9031  -1.8604  -1.8293  -1.8053
    -1.7417  -1.7094  -1.6709  -1.6408  -1.5781  -1.5381  -1.5036  -1.4589
    -1.4296  -1.3707  -1.3461  -1.2997  -1.2223  -1.2046  -1.1283  -1.1026
    -1.0598  -1.0124  -0.9224  -0.8743  -0.8124  -0.7985  -0.7362  -0.6791
    -0.6054  -0.4656  -0.2561   0.0934   0.1301   0.1572   0.1897   1.8629
     2.0493   2.1365   2.1802   2.2296   2.2713   2.3078   2.3348   2.3851
     2.4459   2.4605   2.4871   2.5147   2.5221   2.5850   2.6943   2.7258
     2.7462   2.7772   2.8292   2.8423   2.8947   2.9514   2.9724   2.9882
     3.0255   3.0362   3.1718   3.2095   3.2920   3.3182   3.3355   3.3722
     3.4131   3.4381   3.4615   3.5446   3.5607   3.6363   3.6589   3.7366
     3.7947   3.8188   3.8637   3.9003   3.9082   4.0741   4.1180   4.1667
     4.3441   4.3858   4.6178   4.9676   5.0208   5.1250   5.1396   5.1576
     5.2610   5.2886   5.3168   5.4294   5.5131   5.5623   5.6416   5.7642
     5.8261   5.8498   5.8964   5.9375   5.9568   5.9975   6.0533   6.0645
     6.1373   6.1567   6.2306   6.3232   6.3808   6.4119   6.4790   6.6470
     6.6954   6.7975   6.8420   7.0368   7.1474   7.3646   7.4835   7.5870
     7.9767   8.1786   8.3508   8.5223   8.6476   8.8630   9.0583   9.1167
     9.1766   9.4968   9.6303

          k =-0.0506 0.0280 0.0000 ( 34685 PWs)   bands (ev):

   -57.6954 -57.6651 -57.3140 -57.2826 -57.2308 -57.1061 -57.0742 -57.0693
   -57.0500 -57.0388 -56.9862 -56.9555 -56.7265 -56.6939 -56.1461 -56.1155
   -34.1094 -33.9780 -33.9533 -33.8905 -33.8431 -33.8108 -33.7710 -33.6314
   -33.6103 -33.5840 -33.5419 -33.5341 -33.5261 -33.5183 -33.4914 -33.4706
   -33.4570 -33.4472 -33.4279 -33.3677 -33.3164 -33.2894 -33.2777 -33.2640
   -33.2628 -33.2598 -33.2573 -33.2521 -33.2363 -33.2349 -33.2326 -33.2124
   -33.2019 -33.1839 -33.1756 -33.1431 -33.1400 -32.9912 -32.9820 -32.9552
   -32.9116 -32.8316 -32.5404 -32.5018 -32.4750 -32.3643 -32.2850 -32.1979
   -20.2971 -17.8592 -17.6499 -17.3675 -17.3400 -17.2484 -17.2230 -17.2132
   -17.1210 -17.0419 -16.9621 -16.9192 -16.8695 -16.8562 -16.8535 -16.8311
   -16.7620 -16.7436 -16.5578 -16.5265 -16.5025 -16.4366 -16.4140 -16.3746
   -16.3670 -16.3103 -16.1897 -16.1706 -16.1511 -16.0095 -15.9648 -14.7394
   -14.6720 -11.5268  -7.2304  -5.4959  -5.2324  -5.2075  -4.8910  -4.8326
    -4.7192  -4.7033  -4.6742  -4.6538  -4.6288  -4.5081  -4.4265  -4.3441
    -4.3172  -4.3011  -4.1585  -4.1266  -4.0597  -4.0250  -4.0072  -3.9917
    -3.9817  -3.9085  -3.8583  -3.8144  -3.7720  -3.7598  -3.7184  -3.6902
    -3.6559  -3.6325  -3.5822  -3.5497  -3.4535  -3.3359  -3.2945  -3.2619
    -3.2277  -3.1694  -3.1007  -3.0579  -2.9527  -2.9365  -2.8755  -2.8390
    -2.7417  -2.6943  -2.6582  -2.6503  -2.6029  -2.5893  -2.5344  -2.4938
    -2.4353  -2.3860  -2.3796  -2.3345  -2.3074  -2.2528  -2.1777  -2.1343
    -2.1118  -2.0610  -2.0247  -1.9729  -1.9385  -1.9036  -1.8584  -1.8299
    -1.7530  -1.7386  -1.7103  -1.6394  -1.5386  -1.5051  -1.4831  -1.4159
    -1.3648  -1.3459  -1.2778  -1.2592  -1.2362  -1.1457  -1.1111  -1.0116
    -0.9756  -0.8785  -0.8546  -0.8120  -0.7771  -0.7624  -0.7034  -0.6884
    -0.5114  -0.3104  -0.2580  -0.0716   0.1114   0.1408   0.1641   1.7056
     1.9065   2.0618   2.1243   2.1290   2.1741   2.2426   2.3630   2.3738
     2.4077   2.4398   2.5195   2.5692   2.5760   2.6043   2.6855   2.6983
     2.7447   2.8043   2.8349   2.9044   2.9576   2.9833   3.0431   3.0621
     3.0928   3.1623   3.1728   3.2021   3.3040   3.3583   3.3778   3.4121
     3.4477   3.4599   3.5487   3.5882   3.6057   3.6551   3.6776   3.6864
     3.7187   3.7727   3.8199   3.8712   3.9344   4.0606   4.1701   4.2835
     4.2946   4.4242   4.6237   4.6914   4.7658   4.8127   4.8572   4.9864
     5.0143   5.1277   5.2255   5.4714   5.5960   5.6420   5.7226   5.8062
     5.8626   5.8742   5.9269   5.9479   5.9817   6.0937   6.1180   6.1403
     6.2308   6.4338   6.4833   6.5421   6.5794   6.6083   6.6873   6.7413
     6.7984   6.8188   6.9753   7.1152   7.1685   7.3951   7.5713   7.7048
     8.1347   8.1645   8.2471   8.3883   8.7771   8.9681   9.0173   9.0566
     9.3790   9.4528   9.6073

          k =-0.0506 0.0560 0.0000 ( 34596 PWs)   bands (ev):

   -57.6890 -57.6716 -57.3075 -57.2891 -57.2299 -57.1000 -57.0803 -57.0629
   -57.0508 -57.0453 -56.9797 -56.9620 -56.7199 -56.7006 -56.1397 -56.1220
   -34.0395 -33.9726 -33.9583 -33.8738 -33.8442 -33.8277 -33.7720 -33.5946
   -33.5733 -33.5708 -33.5341 -33.5200 -33.5138 -33.5096 -33.4755 -33.4721
   -33.4519 -33.4251 -33.4024 -33.3522 -33.3167 -33.3161 -33.2997 -33.2975
   -33.2852 -33.2752 -33.2664 -33.2590 -33.2523 -33.2518 -33.2463 -33.2382
   -33.2088 -33.1990 -33.1691 -33.1630 -33.1241 -32.9861 -32.9762 -32.9604
   -32.9245 -32.9011 -32.4960 -32.4806 -32.4696 -32.3478 -32.3019 -32.2719
   -20.2968 -17.7047 -17.4992 -17.2898 -17.2383 -17.1962 -17.1723 -17.1606
   -17.0883 -17.0356 -17.0046 -16.9121 -16.8552 -16.8476 -16.8431 -16.8049
   -16.7749 -16.7203 -16.6610 -16.6209 -16.6112 -16.5494 -16.5112 -16.3973
   -16.3418 -16.2622 -16.2246 -16.1915 -16.1551 -16.1108 -16.0365 -14.7587
   -14.7231 -11.5260  -7.2291  -5.4744  -5.2191  -5.0233  -4.6578  -4.6157
    -4.5142  -4.4983  -4.4832  -4.4560  -4.4309  -4.3662  -4.3236  -4.3005
    -4.2246  -4.2046  -4.1450  -4.1306  -4.0814  -4.0658  -4.0448  -4.0353
    -4.0128  -3.9950  -3.9673  -3.9133  -3.8928  -3.8870  -3.8208  -3.7862
    -3.7295  -3.6602  -3.6303  -3.5227  -3.4935  -3.3940  -3.3278  -3.2608
    -3.2566  -3.2451  -3.1534  -3.0192  -2.9334  -2.9035  -2.8500  -2.8298
    -2.7553  -2.7256  -2.6838  -2.6083  -2.5904  -2.5665  -2.5290  -2.4888
    -2.4274  -2.4049  -2.3646  -2.3282  -2.3151  -2.2989  -2.2540  -2.1769
    -2.1512  -2.1199  -2.1129  -2.0762  -2.0460  -2.0008  -1.9826  -1.9004
    -1.8901  -1.8502  -1.8312  -1.7233  -1.6363  -1.6047  -1.5715  -1.4771
    -1.4068  -1.3733  -1.3060  -1.2481  -1.2049  -1.1092  -1.0723  -1.0161
    -1.0009  -0.9355  -0.8513  -0.8184  -0.7686  -0.7548  -0.6910  -0.6556
    -0.6503  -0.5162  -0.3231   0.0794   0.1136   0.1315   0.1951   1.8682
     2.0781   2.1670   2.2010   2.2225   2.2451   2.3000   2.3496   2.3948
     2.4051   2.5389   2.5718   2.5809   2.6090   2.6300   2.6851   2.7563
     2.7836   2.8059   2.8405   2.8827   2.9651   3.0060   3.0300   3.0638
     3.0989   3.1379   3.1693   3.2584   3.3372   3.3690   3.3987   3.4426
     3.4805   3.5015   3.5236   3.5442   3.6166   3.6491   3.7132   3.7459
     3.7819   3.8534   3.8820   3.9208   3.9268   3.9559   4.1131   4.1763
     4.2909   4.4748   4.7266   4.8083   4.8183   4.8978   4.9439   5.0936
     5.1672   5.2330   5.2734   5.3292   5.3737   5.4366   5.4972   5.6278
     5.7824   5.8317   5.8829   5.9534   6.0409   6.1255   6.2186   6.2603
     6.2880   6.3476   6.4178   6.4518   6.5035   6.5793   6.6506   6.7176
     6.7321   6.8259   6.8519   6.9857   7.0506   7.4117   7.4323   7.5748
     7.7439   7.9441   8.0707   8.3910   8.5809   8.6107   8.7457   9.0109
     9.2273   9.3255   9.4552

     the Fermi energy is     0.9984 ev

!    total energy              =   -3021.41912241 Ry
     Harris-Foulkes estimate   =   -3021.41912229 Ry
     estimated scf accuracy    <       0.00000053 Ry

     The total energy is the sum of the following terms:

     one-electron contribution =  -41241.63770777 Ry
     hartree contribution      =   20695.07869865 Ry
     xc contribution           =    -553.71192568 Ry
     ewald contribution        =   18078.85202349 Ry
     smearing contrib. (-TS)   =      -0.00021111 Ry

     total magnetization       =     0.00 Bohr mag/cell
     absolute magnetization    =     0.00 Bohr mag/cell

     convergence has been achieved in   8 iterations

     Forces acting on atoms (Ry/au):


     negative rho (up, down):  1.210E-02 1.210E-02
     atom    1 type  1   force =     0.00001502   -0.00035439   -0.13378575
     atom    2 type  2   force =     0.00000351    0.00003080    0.07212238
     atom    3 type  1   force =    -0.00135654    0.00030968   -0.06096438
     atom    4 type  2   force =     0.00290187    0.00048801    0.00638022
     atom    5 type  1   force =     0.00027059    0.00185053    0.00352377
     atom    6 type  2   force =     0.00005578    0.00001217   -0.00286394
     atom    7 type  1   force =    -0.00025860   -0.00074723    0.00450377
     atom    8 type  2   force =     0.00094738   -0.00020013   -0.00062864
     atom    9 type  1   force =    -0.00002878    0.00002076   -0.13354208
     atom   10 type  2   force =    -0.00006938    0.00006655    0.07130020
     atom   11 type  1   force =    -0.00132071   -0.00024112   -0.05588008
     atom   12 type  2   force =     0.00299512   -0.00006736    0.00609655
     atom   13 type  1   force =     0.00028995   -0.00148032    0.00346071
     atom   14 type  2   force =    -0.00120436   -0.00038953   -0.00289810
     atom   15 type  1   force =    -0.00049552    0.00020630    0.00445845
     atom   16 type  2   force =     0.00057018   -0.00019438   -0.00001740
     atom   17 type  2   force =    -0.00007025   -0.00007008    0.07939276
     atom   18 type  1   force =     0.00013612   -0.00017219    0.11913480
     atom   19 type  2   force =    -0.00010820   -0.00017289   -0.06669152
     atom   20 type  2   force =    -0.06322723    0.00014838   -0.03224635
     atom   21 type  2   force =     0.06320217    0.00001672   -0.03244969
     atom   22 type  1   force =     0.00072272    0.00108195    0.05975380
     atom   23 type  2   force =    -0.00017418    0.00005716   -0.00175615
     atom   24 type  2   force =    -0.00143431   -0.00000232   -0.02327381
     atom   25 type  2   force =    -0.00313341    0.00058815    0.00786898
     atom   26 type  1   force =     0.00064150    0.00029296    0.00462447
     atom   27 type  2   force =     0.00053215    0.00059986   -0.00384961
     atom   28 type  2   force =     0.00014116   -0.00009003   -0.00120255
     atom   29 type  2   force =     0.00020976   -0.00034232   -0.00059070
     atom   30 type  1   force =     0.00028463   -0.00059197    0.00394690
     atom   31 type  2   force =     0.00023848    0.00009235   -0.00259806
     atom   32 type  2   force =    -0.00000091   -0.00007402   -0.00120597
     atom   33 type  2   force =    -0.00011800    0.00003631    0.07899223
     atom   34 type  1   force =     0.00006777   -0.00021830    0.11904956
     atom   35 type  2   force =    -0.00030602   -0.00005394   -0.06639242
     atom   36 type  2   force =    -0.06318608   -0.00005123   -0.03233331
     atom   37 type  2   force =     0.06333145   -0.00020229   -0.03248686
     atom   38 type  1   force =     0.00066028   -0.00098193    0.05997072
     atom   39 type  2   force =    -0.00045837    0.00010436   -0.00250331
     atom   40 type  2   force =    -0.00118911    0.00030770   -0.02218377
     atom   41 type  2   force =    -0.00317581   -0.00015016    0.00789524
     atom   42 type  1   force =     0.00051789    0.00006596    0.00373672
     atom   43 type  2   force =     0.00070098    0.00023749   -0.00300582
     atom   44 type  2   force =     0.00022517    0.00010091   -0.00116215
     atom   45 type  2   force =     0.00018542    0.00030761   -0.00061860
     atom   46 type  1   force =     0.00053953    0.00020873    0.00400581
     atom   47 type  2   force =     0.00008623   -0.00033100   -0.00130420
     atom   48 type  2   force =     0.00007278    0.00011966   -0.00094462
     atom   49 type  3   force =     0.03414520   -0.00049001    0.01359621
     atom   50 type  2   force =     0.00395460   -0.00022521   -0.00321305
     atom   51 type  4   force =    -0.03850744   -0.00017396   -0.01110373
     atom   52 type  4   force =     0.00031636    0.00035855    0.00042464
     atom   53 type  4   force =     0.00032891    0.00102352   -0.00033046
     atom   54 type  4   force =     0.00053251   -0.00066482   -0.00021183

     Total force =     0.366684     Total SCF correction =     0.001075
 !ASE

     Writing output data file calc.save
 
     init_run     :     57.56s CPU     73.31s WALL (       1 calls)
     electrons    :   1914.12s CPU   2368.04s WALL (       1 calls)
     forces       :     39.70s CPU     41.82s WALL (       1 calls)

     Called by init_run:
     wfcinit      :     49.24s CPU     64.37s WALL (       1 calls)
     potinit      :      1.51s CPU      1.77s WALL (       1 calls)

     Called by electrons:
     c_bands      :   1667.85s CPU   2058.88s WALL (       9 calls)
     sum_band     :    210.15s CPU    267.67s WALL (       9 calls)
     v_of_rho     :      8.96s CPU     11.33s WALL (       9 calls)
     newd         :     31.11s CPU     34.32s WALL (       9 calls)
     mix_rho      :      0.29s CPU      0.42s WALL (       9 calls)
     vdW_energy   :      1.61s CPU      2.03s WALL (      10 calls)
     vdW_ffts     :      2.50s CPU      3.26s WALL (      20 calls)
     vdW_v        :      0.94s CPU      1.08s WALL (      10 calls)

     Called by c_bands:
     init_us_2    :      5.41s CPU      5.92s WALL (     800 calls)
     cegterg      :   1634.50s CPU   2023.89s WALL (     360 calls)

     Called by *egterg:
     h_psi        :    692.13s CPU   1014.70s WALL (    1848 calls)
     s_psi        :     83.05s CPU     87.19s WALL (    1848 calls)
     g_psi        :      4.53s CPU      4.60s WALL (    1448 calls)
     cdiaghg      :    549.06s CPU    559.88s WALL (    1768 calls)

     Called by h_psi:
     add_vuspsi   :     83.69s CPU     87.90s WALL (    1848 calls)

     General routines
     calbec       :    127.04s CPU    130.07s WALL (    2248 calls)
     fft          :      5.50s CPU      7.07s WALL (     794 calls)
     ffts         :      0.04s CPU      0.06s WALL (      36 calls)
     fftw         :    459.92s CPU    821.06s WALL (  662522 calls)
     interpolate  :      0.27s CPU      0.44s WALL (      36 calls)
     davcio       :      0.10s CPU      3.15s WALL (      40 calls)
 
     Parallel routines
     fft_scatter  :    246.23s CPU    437.64s WALL (  663352 calls)
 
     PWSCF        : 33m32.51s CPU    41m28.32s WALL

 
   This run was terminated on:  19:27:45  12Feb2018            

=------------------------------------------------------------------------------=
   JOB DONE.
=------------------------------------------------------------------------------=
