  python dir          : /home/vossj/suncat/lib/python2.7/site-packages/espresso
  espresso dir        : /home/vossj/suncat/esdld/espresso-dynpy-beef/bin
  pseudo dir          : /home/alatimer/bin/psp/esp_psp_w_gbrvRu/
  ase-espresso py git : ffa2778-git



     Program PWSCF v.5.1rc2 (svn rev. ) starts on 27Feb2018 at  2:21:55 

     This program is part of the open-source Quantum ESPRESSO suite
     for quantum simulation of materials; please cite
         "P. Giannozzi et al., J. Phys.:Condens. Matter 21 395502 (2009);
          URL http://www.quantum-espresso.org", 
     in publications or presentations arising from this work. More details at
     http://www.quantum-espresso.org/quote

     Parallel version (MPI), running on    16 processors
     R & G space division:  proc/nbgrp/npool/nimage =      16
     Reading input from pw.inp
     Message from routine read_cards :
     DEPRECATED: no units specified in CELL_PARAMETERS card

     Current dimensions of program PWSCF are:
     Max number of different atomic species (ntypx) = 10
     Max number of k-points (npk) =  40000
     Max angular momentum in pseudopotentials (lmaxx) =  3

     **************************************************************************
     Initializing libbeef V0.1.1 with the BEEF-vdW functional.
     Citation: Wellendorff et al., PRB 85, 235149 (2012).
     **************************************************************************


     IMPORTANT: XC functional enforced from input :
     Exchange-correlation      = BEEF ( 1  4 27 13 2)
     Any further DFT definition will be discarded
     Please, verify this is what you really want


     Subspace diagonalization in iterative solution of the eigenvalue problem:
     a serial algorithm will be used

 
     Parallelization info
     --------------------
     sticks:   dense  smooth     PW     G-vecs:    dense   smooth      PW
     Min         281     112     31                68535    17318    2565
     Max         282     113     32                68545    17369    2582
     Sum        4501    1795    503              1096637   277353   41113
 
     Generating pointlists ...
     new r_m :   0.4125 (alat units)  0.7795 (a.u.) for type    1
     new r_m :   0.4125 (alat units)  0.7795 (a.u.) for type    2
     new r_m :   0.4125 (alat units)  0.7795 (a.u.) for type    3
     new r_m :   0.4125 (alat units)  0.7795 (a.u.) for type    4


     bravais-lattice index     =            0
     lattice parameter (alat)  =       1.8897  a.u.
     unit-cell volume          =    7990.9933 (a.u.)^3
     number of atoms/cell      =           54
     number of atomic types    =            4
     number of electrons       =       398.00
     number of Kohn-Sham states=          299
     kinetic-energy cutoff     =      40.4243  Ry
     charge density cutoff     =     404.2426  Ry
     convergence threshold     =      7.3E-07
     mixing beta               =       0.1000
     number of iterations used =           10  plain     mixing
     Exchange-correlation      = BEEF ( 1  4 27 13 2)
     nstep                     =           50


     celldm(1)=   1.889726  celldm(2)=   0.000000  celldm(3)=   0.000000
     celldm(4)=   0.000000  celldm(5)=   0.000000  celldm(6)=   0.000000

     crystal axes: (cart. coord. in units of alat)
               a(1) = (   6.590708   0.000000   0.000000 )  
               a(2) = (   0.000000   5.950229   0.000000 )  
               a(3) = (   0.000000   0.000000  30.195235 )  

     reciprocal axes: (cart. coord. in units 2 pi/alat)
               b(1) = (  0.151729  0.000000  0.000000 )  
               b(2) = (  0.000000  0.168061  0.000000 )  
               b(3) = (  0.000000  0.000000  0.033118 )  


     PseudoPot. # 1 for Ti read from file:
     /home/alatimer/bin/psp/esp_psp_w_gbrvRu/Ti.UPF
     MD5 check sum: 8e4df49b7f0d34bbd5052bf3f5ea0213
     Pseudo is Ultrasoft, Zval = 12.0
     Generated by new atomic code, or converted to UPF format
     Using radial grid of  851 points,  6 beta functions with: 
                l(1) =   0
                l(2) =   0
                l(3) =   1
                l(4) =   1
                l(5) =   2
                l(6) =   2
     Q(r) pseudized with  8 coefficients,  rinner =    1.000   1.000   1.000
                                                       1.000   1.000

     PseudoPot. # 2 for  O read from file:
     /home/alatimer/bin/psp/esp_psp_w_gbrvRu/O.UPF
     MD5 check sum: e057bbcf3229fb5d8c36c0c92f9568b4
     Pseudo is Ultrasoft + core correction, Zval =  6.0
     Generated using "atomic" code by A. Dal Corso  v.5.0.2 svn rev. 9415
     Using radial grid of 1095 points,  4 beta functions with: 
                l(1) =   0
                l(2) =   0
                l(3) =   1
                l(4) =   1
     Q(r) pseudized with 0 coefficients 


     PseudoPot. # 3 for  C read from file:
     /home/alatimer/bin/psp/esp_psp_w_gbrvRu/C.UPF
     MD5 check sum: ab446d787031eba755f1d5ee46644bb0
     Pseudo is Ultrasoft + core correction, Zval =  4.0
     Generated using "atomic" code by A. Dal Corso  v.5.0.2 svn rev. 9415
     Using radial grid of 1073 points,  4 beta functions with: 
                l(1) =   0
                l(2) =   0
                l(3) =   1
                l(4) =   1
     Q(r) pseudized with 0 coefficients 


     PseudoPot. # 4 for  H read from file:
     /home/alatimer/bin/psp/esp_psp_w_gbrvRu/H.UPF
     MD5 check sum: bd57da0722753ddfd9833a65b40bb853
     Pseudo is Ultrasoft, Zval =  1.0
     Generated using "atomic" code by A. Dal Corso  v.5.0.2 svn rev. 9415
     Using radial grid of  929 points,  2 beta functions with: 
                l(1) =   0
                l(2) =   0
     Q(r) pseudized with 0 coefficients 


     vdW kernel table read from file vdW_kernel_table
     MD5 check sum: 095c7af220d748ca6e76c0b4c6cfb241

     atomic species   valence    mass     pseudopotential
        Ti1           12.00    47.88000     Ti( 1.00)
        O1             6.00    15.99940      O( 1.00)
        C1             4.00    12.01100      C( 1.00)
        H1             1.00     1.00794      H( 1.00)

     Starting magnetic structure 
     atomic species   magnetization
        Ti1          0.250
        O1           0.500
        C1           0.750
        H1           0.000

     No symmetry found



   Cartesian axes

     site n.     atom                  positions (alat units)
         1           Ti1 tau(   1) = (   1.6476770   0.7437786   2.6545865  )
         2           O1  tau(   2) = (   1.6476770   2.2313359   3.9361215  )
         3           Ti1 tau(   3) = (   1.6476770   2.2313359   5.9499405  )
         4           O1  tau(   4) = (   0.3661420   0.7437786   5.9499405  )
         5           Ti1 tau(   5) = (   1.6407309   0.9134410   9.3139491  )
         6           O1  tau(   6) = (   1.6648823   2.2608486  10.4895904  )
         7           Ti1 tau(   7) = (   1.7578240   2.2899216  13.0472362  )
         8           O1  tau(   8) = (   0.4801583   0.7600008  12.7739736  )
         9           Ti1 tau(   9) = (   1.6476770   3.7188931   2.6545865  )
        10           O1  tau(  10) = (   1.6476770   5.2064503   3.9361215  )
        11           Ti1 tau(  11) = (   1.6476770   5.2064503   5.9499405  )
        12           O1  tau(  12) = (   0.3661420   3.7188931   5.9499405  )
        13           Ti1 tau(  13) = (   1.6336050   3.7786827   9.1566831  )
        14           O1  tau(  14) = (   1.6678212   5.2513959  10.5409436  )
        15           Ti1 tau(  15) = (   1.7144009   5.2558216  12.3462911  )
        16           O1  tau(  16) = (   0.4635505   3.7986228  12.7318280  )
        17           O1  tau(  17) = (   1.6476770   2.2313359   1.3730516  )
        18           Ti1 tau(  18) = (   4.9430310   2.2313359   2.6545865  )
        19           O1  tau(  19) = (   4.9430310   2.2313359   4.6684056  )
        20           O1  tau(  20) = (   6.2245660   0.7437786   2.6545865  )
        21           O1  tau(  21) = (   3.6614961   0.7437786   2.6545865  )
        22           Ti1 tau(  22) = (   4.9430310   0.7437786   5.9499405  )
        23           O1  tau(  23) = (   1.6683653   2.2752577   7.9427336  )
        24           O1  tau(  24) = (   4.9430310   2.2313359   7.2314755  )
        25           O1  tau(  25) = (   2.9292120   0.7437786   5.9499405  )
        26           Ti1 tau(  26) = (   4.9404121   2.2664794   9.4552217  )
        27           O1  tau(  27) = (   5.0099888   2.2616732  11.2946145  )
        28           O1  tau(  28) = (   6.2612001   0.7714827   9.2659748  )
        29           O1  tau(  29) = (   3.6791272   0.7744986   9.2965846  )
        30           Ti1 tau(  30) = (   5.0117873   0.7976728  12.8161605  )
        31           O1  tau(  31) = (   4.9963122   2.2836652  13.8750618  )
        32           O1  tau(  32) = (   2.9819382   0.7448324  12.7109220  )
        33           O1  tau(  33) = (   1.6476770   5.2064503   1.3730516  )
        34           Ti1 tau(  34) = (   4.9430310   5.2064503   2.6545865  )
        35           O1  tau(  35) = (   4.9430310   5.2064503   4.6684056  )
        36           O1  tau(  36) = (   6.2245660   3.7188931   2.6545865  )
        37           O1  tau(  37) = (   3.6614961   3.7188931   2.6545865  )
        38           Ti1 tau(  38) = (   4.9430310   3.7188931   5.9499405  )
        39           O1  tau(  39) = (   1.6664207   5.2035600   7.9365221  )
        40           O1  tau(  40) = (   4.9430310   5.2064503   7.2314755  )
        41           O1  tau(  41) = (   2.9292120   3.7188931   5.9499405  )
        42           Ti1 tau(  42) = (   4.9524353   5.2460635   9.4426343  )
        43           O1  tau(  43) = (   5.0107556   5.2394944  11.2927493  )
        44           O1  tau(  44) = (   6.2663940   3.7551737   9.2646230  )
        45           O1  tau(  45) = (   3.6780957   3.7542261   9.2971476  )
        46           Ti1 tau(  46) = (   5.0587989   3.7766986  12.8010349  )
        47           O1  tau(  47) = (   5.0196089   5.2502198  13.8813978  )
        48           O1  tau(  48) = (   2.9624133   3.7943242  12.7299881  )
        49           O1  tau(  49) = (   1.7427453   2.2533568  14.8370015  )
        50           C1  tau(  50) = (   2.7196098   4.2826273  16.2318421  )
        51           H1  tau(  51) = (   3.3037454   4.9255546  15.5827400  )
        52           H1  tau(  52) = (   3.3286606   3.7870117  16.9822022  )
        53           H1  tau(  53) = (   2.3125587   3.4026405  15.5729816  )
        54           H1  tau(  54) = (   1.8391288   4.7950601  16.6448379  )

     number of k points=    40  Fermi-Dirac smearing, width (Ry)=  0.0073
                       cart. coord. in units 2pi/alat
        k(    1) = (   0.0000000   0.0000000   0.0000000), wk =   0.0277778
        k(    2) = (   0.0000000   0.0280101   0.0000000), wk =   0.0555556
        k(    3) = (   0.0000000   0.0560203   0.0000000), wk =   0.0555556
        k(    4) = (   0.0000000  -0.0840304   0.0000000), wk =   0.0277778
        k(    5) = (   0.0252881   0.0000000   0.0000000), wk =   0.0555556
        k(    6) = (   0.0252881   0.0280101   0.0000000), wk =   0.0555556
        k(    7) = (   0.0252881   0.0560203   0.0000000), wk =   0.0555556
        k(    8) = (   0.0252881  -0.0840304   0.0000000), wk =   0.0555556
        k(    9) = (   0.0505763   0.0000000   0.0000000), wk =   0.0555556
        k(   10) = (   0.0505763   0.0280101   0.0000000), wk =   0.0555556
        k(   11) = (   0.0505763   0.0560203   0.0000000), wk =   0.0555556
        k(   12) = (   0.0505763  -0.0840304   0.0000000), wk =   0.0555556
        k(   13) = (  -0.0758644   0.0000000   0.0000000), wk =   0.0277778
        k(   14) = (  -0.0758644   0.0280101   0.0000000), wk =   0.0555556
        k(   15) = (  -0.0758644   0.0560203   0.0000000), wk =   0.0555556
        k(   16) = (  -0.0758644  -0.0840304   0.0000000), wk =   0.0277778
        k(   17) = (  -0.0252881   0.0280101   0.0000000), wk =   0.0555556
        k(   18) = (  -0.0252881   0.0560203   0.0000000), wk =   0.0555556
        k(   19) = (  -0.0505763   0.0280101   0.0000000), wk =   0.0555556
        k(   20) = (  -0.0505763   0.0560203   0.0000000), wk =   0.0555556
        k(   21) = (   0.0000000   0.0000000   0.0000000), wk =   0.0277778
        k(   22) = (   0.0000000   0.0280101   0.0000000), wk =   0.0555556
        k(   23) = (   0.0000000   0.0560203   0.0000000), wk =   0.0555556
        k(   24) = (   0.0000000  -0.0840304   0.0000000), wk =   0.0277778
        k(   25) = (   0.0252881   0.0000000   0.0000000), wk =   0.0555556
        k(   26) = (   0.0252881   0.0280101   0.0000000), wk =   0.0555556
        k(   27) = (   0.0252881   0.0560203   0.0000000), wk =   0.0555556
        k(   28) = (   0.0252881  -0.0840304   0.0000000), wk =   0.0555556
        k(   29) = (   0.0505763   0.0000000   0.0000000), wk =   0.0555556
        k(   30) = (   0.0505763   0.0280101   0.0000000), wk =   0.0555556
        k(   31) = (   0.0505763   0.0560203   0.0000000), wk =   0.0555556
        k(   32) = (   0.0505763  -0.0840304   0.0000000), wk =   0.0555556
        k(   33) = (  -0.0758644   0.0000000   0.0000000), wk =   0.0277778
        k(   34) = (  -0.0758644   0.0280101   0.0000000), wk =   0.0555556
        k(   35) = (  -0.0758644   0.0560203   0.0000000), wk =   0.0555556
        k(   36) = (  -0.0758644  -0.0840304   0.0000000), wk =   0.0277778
        k(   37) = (  -0.0252881   0.0280101   0.0000000), wk =   0.0555556
        k(   38) = (  -0.0252881   0.0560203   0.0000000), wk =   0.0555556
        k(   39) = (  -0.0505763   0.0280101   0.0000000), wk =   0.0555556
        k(   40) = (  -0.0505763   0.0560203   0.0000000), wk =   0.0555556

     Dense  grid:  1096637 G-vectors     FFT dimensions: (  80,  72, 375)

     Smooth grid:   277353 G-vectors     FFT dimensions: (  54,  45, 240)

     Largest allocated arrays     est. size (Mb)     dimensions
        Kohn-Sham Wavefunctions         9.95 Mb     (    2180,  299)
        NL pseudopotentials            18.89 Mb     (    2180,  568)
        Each V/rho on FFT grid          4.22 Mb     (  138240,   2)
        Each G-vector array             0.52 Mb     (   68538)
        G-vector shells                 0.25 Mb     (   33046)
     Largest temporary arrays     est. size (Mb)     dimensions
        Auxiliary wavefunctions        39.78 Mb     (    2180, 1196)
        Each subspace H/S matrix       21.83 Mb     (    1196, 1196)
        Each <psi_i|beta_j> matrix      2.59 Mb     (     568,  299)
        Arrays for rho mixing          21.09 Mb     (  138240,   10)

     Check: negative/imaginary core charge=   -0.000049    0.000000

     The initial density is read from file :
     ./calc.save/charge-density.dat


     negative rho (up, down):  1.189E-02 1.196E-02


     ************************************************************************
     *
     * You are using vdW-DF for exchange-correlation in this calculation.
     * Please cite the following three references that made this development
     * possible:
     *
     *   M. Dion, H. Rydberg, E. Schroder, D. C. Langreth, and
     *   B. I. Lundqvist, Phys. Rev. Lett. 92, 246401 (2004).
     *
     *   T. Thonhauser, V. R. Cooper, S. Li, A. Puzder, P. Hyldgaard, and
     *   D. C. Langreth, Phys. Rev. B 76, 125112 (2007).
     *
     *   G. Roman-Perez and J. M. Soler, Phys. Rev. Lett. 103, 096102 (2009).
     *
     *
     * If you are using vdW-DF2, please also cite:
     *
     *   K. Lee, E. D. Murray, L. Kong, B. I. Lundqvist, and
     *   D. C. Langreth, Phys. Rev. B 82, 081101(R) (2010).
     *
     *
     * If you are calculating the stress with vdW-DF, please also cite:
     *
     *   R. Sabatini, E. Kucukbenli, B. Kolb, T. Thonhauser, and
     *   S. de Gironcoli, J. Phys.: Condens. Matter 24, 424209 (2012).
     *
     ************************************************************************

     Carrying out vdW-DF run using the following parameters:

     Nqs =      20    Nr_points =    1024   r_max =   100.000
     q_mesh =
               0.00001000     0.04494208     0.09755937     0.15916263
               0.23128650     0.31572767     0.41458969     0.53033537
               0.66584808     0.82450364     1.01025438     1.22772762
               1.48234092     1.78043706     2.12944203     2.53805004
               3.01644009     3.57652955     4.23227104     5.00000000

     Gradients computed in reciprocal space

     ************************************************************************


     Starting wfc are  300 randomized atomic wfcs

     total cpu time spent up to now is       78.3 secs

     Self-consistent Calculation

     iteration #  1     ecut=    40.42 Ry     beta=0.10
     Davidson diagonalization with overlap
     ethr =  1.00E-05,  avg # of iterations = 14.9

     Threshold (ethr) on eigenvalues was too large:
     Diagonalizing with lowered threshold

     Davidson diagonalization with overlap
     ethr =  4.33E-07,  avg # of iterations =  1.0

     negative rho (up, down):  1.189E-02 1.196E-02
 
     Magnetic moment per site:
     atom:    1    charge:    3.1244    magn:   -0.0003    constr:    0.0000
     atom:    2    charge:    2.0897    magn:    0.0003    constr:    0.0000
     atom:    3    charge:    3.1198    magn:   -0.0000    constr:    0.0000
     atom:    4    charge:    2.0867    magn:   -0.0001    constr:    0.0000
     atom:    5    charge:    3.1161    magn:   -0.0002    constr:    0.0000
     atom:    6    charge:    2.0795    magn:    0.0020    constr:    0.0000
     atom:    7    charge:    3.1167    magn:   -0.0053    constr:    0.0000
     atom:    8    charge:    2.0794    magn:    0.0249    constr:    0.0000
     atom:    9    charge:    3.1244    magn:   -0.0003    constr:    0.0000
     atom:   10    charge:    2.0898    magn:    0.0003    constr:    0.0000
     atom:   11    charge:    3.1198    magn:   -0.0000    constr:    0.0000
     atom:   12    charge:    2.0870    magn:   -0.0000    constr:    0.0000
     atom:   13    charge:    3.1150    magn:   -0.0002    constr:    0.0000
     atom:   14    charge:    2.0939    magn:    0.0022    constr:    0.0000
     atom:   15    charge:    3.1184    magn:   -0.0008    constr:    0.0000
     atom:   16    charge:    2.0828    magn:    0.0046    constr:    0.0000
     atom:   17    charge:    2.0624    magn:    0.0018    constr:    0.0000
     atom:   18    charge:    3.1239    magn:   -0.0001    constr:    0.0000
     atom:   19    charge:    2.0875    magn:    0.0001    constr:    0.0000
     atom:   20    charge:    2.0847    magn:    0.0002    constr:    0.0000
     atom:   21    charge:    2.0847    magn:    0.0002    constr:    0.0000
     atom:   22    charge:    3.1199    magn:    0.0000    constr:    0.0000
     atom:   23    charge:    2.0908    magn:    0.0002    constr:    0.0000
     atom:   24    charge:    2.0754    magn:   -0.0002    constr:    0.0000
     atom:   25    charge:    2.0867    magn:    0.0000    constr:    0.0000
     atom:   26    charge:    3.1127    magn:   -0.0002    constr:    0.0000
     atom:   27    charge:    2.0803    magn:    0.0025    constr:    0.0000
     atom:   28    charge:    2.0839    magn:    0.0006    constr:    0.0000
     atom:   29    charge:    2.0860    magn:    0.0008    constr:    0.0000
     atom:   30    charge:    3.1171    magn:   -0.0008    constr:    0.0000
     atom:   31    charge:    2.0825    magn:    0.0006    constr:    0.0000
     atom:   32    charge:    2.0829    magn:    0.0064    constr:    0.0000
     atom:   33    charge:    2.0624    magn:    0.0018    constr:    0.0000
     atom:   34    charge:    3.1239    magn:   -0.0001    constr:    0.0000
     atom:   35    charge:    2.0876    magn:    0.0001    constr:    0.0000
     atom:   36    charge:    2.0847    magn:    0.0002    constr:    0.0000
     atom:   37    charge:    2.0847    magn:    0.0002    constr:    0.0000
     atom:   38    charge:    3.1200    magn:    0.0000    constr:    0.0000
     atom:   39    charge:    2.0839    magn:    0.0002    constr:    0.0000
     atom:   40    charge:    2.0756    magn:   -0.0003    constr:    0.0000
     atom:   41    charge:    2.0870    magn:   -0.0000    constr:    0.0000
     atom:   42    charge:    3.1151    magn:   -0.0002    constr:    0.0000
     atom:   43    charge:    2.0803    magn:    0.0030    constr:    0.0000
     atom:   44    charge:    2.0851    magn:    0.0008    constr:    0.0000
     atom:   45    charge:    2.0859    magn:    0.0004    constr:    0.0000
     atom:   46    charge:    3.1147    magn:   -0.0007    constr:    0.0000
     atom:   47    charge:    2.0807    magn:    0.0046    constr:    0.0000
     atom:   48    charge:    2.0837    magn:    0.0136    constr:    0.0000
     atom:   49    charge:    2.0517    magn:    0.2397    constr:    0.0000
     atom:   50    charge:    0.6705    magn:    0.0547    constr:    0.0000
     atom:   51    charge:    0.4222    magn:    0.0009    constr:    0.0000
     atom:   52    charge:    0.4227    magn:    0.0008    constr:    0.0000
     atom:   53    charge:    0.3674    magn:    0.0233    constr:    0.0000
     atom:   54    charge:    0.4152    magn:    0.0007    constr:    0.0000

     total cpu time spent up to now is     1234.0 secs

     total energy              =   -3021.14982061 Ry
     Harris-Foulkes estimate   =   -3021.14998387 Ry
     estimated scf accuracy    <       0.00172241 Ry

     total magnetization       =     1.06 Bohr mag/cell
     absolute magnetization    =     1.23 Bohr mag/cell

     iteration #  2     ecut=    40.42 Ry     beta=0.10
     Davidson diagonalization with overlap
     ethr =  4.33E-07,  avg # of iterations =  1.6

     negative rho (up, down):  1.189E-02 1.196E-02
 
     Magnetic moment per site:
     atom:    1    charge:    3.1244    magn:   -0.0003    constr:    0.0000
     atom:    2    charge:    2.0897    magn:    0.0003    constr:    0.0000
     atom:    3    charge:    3.1198    magn:   -0.0000    constr:    0.0000
     atom:    4    charge:    2.0867    magn:   -0.0001    constr:    0.0000
     atom:    5    charge:    3.1161    magn:   -0.0002    constr:    0.0000
     atom:    6    charge:    2.0795    magn:    0.0021    constr:    0.0000
     atom:    7    charge:    3.1167    magn:   -0.0053    constr:    0.0000
     atom:    8    charge:    2.0793    magn:    0.0248    constr:    0.0000
     atom:    9    charge:    3.1244    magn:   -0.0003    constr:    0.0000
     atom:   10    charge:    2.0899    magn:    0.0003    constr:    0.0000
     atom:   11    charge:    3.1198    magn:   -0.0000    constr:    0.0000
     atom:   12    charge:    2.0871    magn:   -0.0000    constr:    0.0000
     atom:   13    charge:    3.1150    magn:   -0.0002    constr:    0.0000
     atom:   14    charge:    2.0939    magn:    0.0022    constr:    0.0000
     atom:   15    charge:    3.1184    magn:   -0.0008    constr:    0.0000
     atom:   16    charge:    2.0828    magn:    0.0046    constr:    0.0000
     atom:   17    charge:    2.0625    magn:    0.0017    constr:    0.0000
     atom:   18    charge:    3.1239    magn:   -0.0001    constr:    0.0000
     atom:   19    charge:    2.0875    magn:    0.0001    constr:    0.0000
     atom:   20    charge:    2.0847    magn:    0.0002    constr:    0.0000
     atom:   21    charge:    2.0847    magn:    0.0002    constr:    0.0000
     atom:   22    charge:    3.1199    magn:    0.0000    constr:    0.0000
     atom:   23    charge:    2.0908    magn:    0.0002    constr:    0.0000
     atom:   24    charge:    2.0754    magn:   -0.0002    constr:    0.0000
     atom:   25    charge:    2.0867    magn:    0.0000    constr:    0.0000
     atom:   26    charge:    3.1127    magn:   -0.0002    constr:    0.0000
     atom:   27    charge:    2.0802    magn:    0.0025    constr:    0.0000
     atom:   28    charge:    2.0839    magn:    0.0006    constr:    0.0000
     atom:   29    charge:    2.0860    magn:    0.0008    constr:    0.0000
     atom:   30    charge:    3.1171    magn:   -0.0008    constr:    0.0000
     atom:   31    charge:    2.0825    magn:    0.0006    constr:    0.0000
     atom:   32    charge:    2.0829    magn:    0.0065    constr:    0.0000
     atom:   33    charge:    2.0625    magn:    0.0018    constr:    0.0000
     atom:   34    charge:    3.1239    magn:   -0.0001    constr:    0.0000
     atom:   35    charge:    2.0876    magn:    0.0001    constr:    0.0000
     atom:   36    charge:    2.0847    magn:    0.0002    constr:    0.0000
     atom:   37    charge:    2.0847    magn:    0.0002    constr:    0.0000
     atom:   38    charge:    3.1200    magn:    0.0000    constr:    0.0000
     atom:   39    charge:    2.0839    magn:    0.0002    constr:    0.0000
     atom:   40    charge:    2.0756    magn:   -0.0003    constr:    0.0000
     atom:   41    charge:    2.0870    magn:   -0.0000    constr:    0.0000
     atom:   42    charge:    3.1151    magn:   -0.0002    constr:    0.0000
     atom:   43    charge:    2.0803    magn:    0.0030    constr:    0.0000
     atom:   44    charge:    2.0851    magn:    0.0008    constr:    0.0000
     atom:   45    charge:    2.0858    magn:    0.0004    constr:    0.0000
     atom:   46    charge:    3.1147    magn:   -0.0007    constr:    0.0000
     atom:   47    charge:    2.0807    magn:    0.0046    constr:    0.0000
     atom:   48    charge:    2.0837    magn:    0.0136    constr:    0.0000
     atom:   49    charge:    2.0517    magn:    0.2397    constr:    0.0000
     atom:   50    charge:    0.6702    magn:    0.0547    constr:    0.0000
     atom:   51    charge:    0.4223    magn:    0.0009    constr:    0.0000
     atom:   52    charge:    0.4227    magn:    0.0008    constr:    0.0000
     atom:   53    charge:    0.3673    magn:    0.0234    constr:    0.0000
     atom:   54    charge:    0.4153    magn:    0.0007    constr:    0.0000

     total cpu time spent up to now is     1443.2 secs

     total energy              =   -3021.14975341 Ry
     Harris-Foulkes estimate   =   -3021.14985620 Ry
     estimated scf accuracy    <       0.00152946 Ry

     total magnetization       =     1.06 Bohr mag/cell
     absolute magnetization    =     1.23 Bohr mag/cell

     iteration #  3     ecut=    40.42 Ry     beta=0.10
     Davidson diagonalization with overlap
     ethr =  3.84E-07,  avg # of iterations =  1.0

     negative rho (up, down):  1.188E-02 1.195E-02
 
     Magnetic moment per site:
     atom:    1    charge:    3.1244    magn:   -0.0003    constr:    0.0000
     atom:    2    charge:    2.0897    magn:    0.0003    constr:    0.0000
     atom:    3    charge:    3.1198    magn:   -0.0000    constr:    0.0000
     atom:    4    charge:    2.0867    magn:   -0.0001    constr:    0.0000
     atom:    5    charge:    3.1161    magn:   -0.0002    constr:    0.0000
     atom:    6    charge:    2.0795    magn:    0.0021    constr:    0.0000
     atom:    7    charge:    3.1167    magn:   -0.0052    constr:    0.0000
     atom:    8    charge:    2.0793    magn:    0.0248    constr:    0.0000
     atom:    9    charge:    3.1244    magn:   -0.0003    constr:    0.0000
     atom:   10    charge:    2.0898    magn:    0.0003    constr:    0.0000
     atom:   11    charge:    3.1198    magn:   -0.0000    constr:    0.0000
     atom:   12    charge:    2.0870    magn:   -0.0000    constr:    0.0000
     atom:   13    charge:    3.1150    magn:   -0.0002    constr:    0.0000
     atom:   14    charge:    2.0939    magn:    0.0022    constr:    0.0000
     atom:   15    charge:    3.1184    magn:   -0.0008    constr:    0.0000
     atom:   16    charge:    2.0828    magn:    0.0046    constr:    0.0000
     atom:   17    charge:    2.0625    magn:    0.0016    constr:    0.0000
     atom:   18    charge:    3.1240    magn:   -0.0001    constr:    0.0000
     atom:   19    charge:    2.0875    magn:    0.0001    constr:    0.0000
     atom:   20    charge:    2.0847    magn:    0.0001    constr:    0.0000
     atom:   21    charge:    2.0847    magn:    0.0001    constr:    0.0000
     atom:   22    charge:    3.1199    magn:    0.0000    constr:    0.0000
     atom:   23    charge:    2.0908    magn:    0.0002    constr:    0.0000
     atom:   24    charge:    2.0754    magn:   -0.0001    constr:    0.0000
     atom:   25    charge:    2.0867    magn:    0.0000    constr:    0.0000
     atom:   26    charge:    3.1127    magn:   -0.0002    constr:    0.0000
     atom:   27    charge:    2.0802    magn:    0.0025    constr:    0.0000
     atom:   28    charge:    2.0839    magn:    0.0006    constr:    0.0000
     atom:   29    charge:    2.0860    magn:    0.0008    constr:    0.0000
     atom:   30    charge:    3.1171    magn:   -0.0008    constr:    0.0000
     atom:   31    charge:    2.0826    magn:    0.0006    constr:    0.0000
     atom:   32    charge:    2.0830    magn:    0.0065    constr:    0.0000
     atom:   33    charge:    2.0624    magn:    0.0016    constr:    0.0000
     atom:   34    charge:    3.1239    magn:   -0.0001    constr:    0.0000
     atom:   35    charge:    2.0875    magn:    0.0001    constr:    0.0000
     atom:   36    charge:    2.0847    magn:    0.0001    constr:    0.0000
     atom:   37    charge:    2.0847    magn:    0.0001    constr:    0.0000
     atom:   38    charge:    3.1200    magn:    0.0000    constr:    0.0000
     atom:   39    charge:    2.0839    magn:    0.0002    constr:    0.0000
     atom:   40    charge:    2.0756    magn:   -0.0002    constr:    0.0000
     atom:   41    charge:    2.0870    magn:   -0.0000    constr:    0.0000
     atom:   42    charge:    3.1151    magn:   -0.0002    constr:    0.0000
     atom:   43    charge:    2.0803    magn:    0.0030    constr:    0.0000
     atom:   44    charge:    2.0851    magn:    0.0009    constr:    0.0000
     atom:   45    charge:    2.0858    magn:    0.0004    constr:    0.0000
     atom:   46    charge:    3.1147    magn:   -0.0007    constr:    0.0000
     atom:   47    charge:    2.0807    magn:    0.0046    constr:    0.0000
     atom:   48    charge:    2.0837    magn:    0.0135    constr:    0.0000
     atom:   49    charge:    2.0518    magn:    0.2396    constr:    0.0000
     atom:   50    charge:    0.6684    magn:    0.0547    constr:    0.0000
     atom:   51    charge:    0.4227    magn:    0.0010    constr:    0.0000
     atom:   52    charge:    0.4226    magn:    0.0009    constr:    0.0000
     atom:   53    charge:    0.3672    magn:    0.0235    constr:    0.0000
     atom:   54    charge:    0.4155    magn:    0.0006    constr:    0.0000

     total cpu time spent up to now is     1643.4 secs

     total energy              =   -3021.14956317 Ry
     Harris-Foulkes estimate   =   -3021.14981163 Ry
     estimated scf accuracy    <       0.00151907 Ry

     total magnetization       =     1.06 Bohr mag/cell
     absolute magnetization    =     1.23 Bohr mag/cell

     iteration #  4     ecut=    40.42 Ry     beta=0.10
     Davidson diagonalization with overlap
     ethr =  3.82E-07,  avg # of iterations =  3.0

     negative rho (up, down):  1.188E-02 1.195E-02
 
     Magnetic moment per site:
     atom:    1    charge:    3.1244    magn:   -0.0003    constr:    0.0000
     atom:    2    charge:    2.0897    magn:    0.0003    constr:    0.0000
     atom:    3    charge:    3.1198    magn:   -0.0000    constr:    0.0000
     atom:    4    charge:    2.0867    magn:   -0.0001    constr:    0.0000
     atom:    5    charge:    3.1161    magn:   -0.0002    constr:    0.0000
     atom:    6    charge:    2.0795    magn:    0.0021    constr:    0.0000
     atom:    7    charge:    3.1167    magn:   -0.0053    constr:    0.0000
     atom:    8    charge:    2.0792    magn:    0.0249    constr:    0.0000
     atom:    9    charge:    3.1244    magn:   -0.0003    constr:    0.0000
     atom:   10    charge:    2.0898    magn:    0.0003    constr:    0.0000
     atom:   11    charge:    3.1198    magn:   -0.0000    constr:    0.0000
     atom:   12    charge:    2.0871    magn:   -0.0000    constr:    0.0000
     atom:   13    charge:    3.1150    magn:   -0.0002    constr:    0.0000
     atom:   14    charge:    2.0939    magn:    0.0022    constr:    0.0000
     atom:   15    charge:    3.1184    magn:   -0.0008    constr:    0.0000
     atom:   16    charge:    2.0828    magn:    0.0047    constr:    0.0000
     atom:   17    charge:    2.0624    magn:    0.0015    constr:    0.0000
     atom:   18    charge:    3.1239    magn:   -0.0001    constr:    0.0000
     atom:   19    charge:    2.0875    magn:    0.0001    constr:    0.0000
     atom:   20    charge:    2.0847    magn:    0.0001    constr:    0.0000
     atom:   21    charge:    2.0847    magn:    0.0001    constr:    0.0000
     atom:   22    charge:    3.1199    magn:    0.0000    constr:    0.0000
     atom:   23    charge:    2.0908    magn:    0.0002    constr:    0.0000
     atom:   24    charge:    2.0754    magn:   -0.0001    constr:    0.0000
     atom:   25    charge:    2.0867    magn:    0.0000    constr:    0.0000
     atom:   26    charge:    3.1127    magn:   -0.0002    constr:    0.0000
     atom:   27    charge:    2.0802    magn:    0.0025    constr:    0.0000
     atom:   28    charge:    2.0839    magn:    0.0006    constr:    0.0000
     atom:   29    charge:    2.0860    magn:    0.0008    constr:    0.0000
     atom:   30    charge:    3.1171    magn:   -0.0008    constr:    0.0000
     atom:   31    charge:    2.0826    magn:    0.0006    constr:    0.0000
     atom:   32    charge:    2.0829    magn:    0.0065    constr:    0.0000
     atom:   33    charge:    2.0624    magn:    0.0015    constr:    0.0000
     atom:   34    charge:    3.1239    magn:   -0.0001    constr:    0.0000
     atom:   35    charge:    2.0876    magn:    0.0001    constr:    0.0000
     atom:   36    charge:    2.0847    magn:    0.0001    constr:    0.0000
     atom:   37    charge:    2.0847    magn:    0.0001    constr:    0.0000
     atom:   38    charge:    3.1200    magn:    0.0000    constr:    0.0000
     atom:   39    charge:    2.0839    magn:    0.0002    constr:    0.0000
     atom:   40    charge:    2.0756    magn:   -0.0002    constr:    0.0000
     atom:   41    charge:    2.0870    magn:   -0.0000    constr:    0.0000
     atom:   42    charge:    3.1151    magn:   -0.0002    constr:    0.0000
     atom:   43    charge:    2.0802    magn:    0.0030    constr:    0.0000
     atom:   44    charge:    2.0851    magn:    0.0009    constr:    0.0000
     atom:   45    charge:    2.0858    magn:    0.0004    constr:    0.0000
     atom:   46    charge:    3.1148    magn:   -0.0007    constr:    0.0000
     atom:   47    charge:    2.0806    magn:    0.0046    constr:    0.0000
     atom:   48    charge:    2.0837    magn:    0.0136    constr:    0.0000
     atom:   49    charge:    2.0517    magn:    0.2397    constr:    0.0000
     atom:   50    charge:    0.6685    magn:    0.0546    constr:    0.0000
     atom:   51    charge:    0.4227    magn:    0.0010    constr:    0.0000
     atom:   52    charge:    0.4226    magn:    0.0009    constr:    0.0000
     atom:   53    charge:    0.3673    magn:    0.0234    constr:    0.0000
     atom:   54    charge:    0.4156    magn:    0.0006    constr:    0.0000

     total cpu time spent up to now is     1880.2 secs

     total energy              =   -3021.14964037 Ry
     Harris-Foulkes estimate   =   -3021.14965759 Ry
     estimated scf accuracy    <       0.00024821 Ry

     total magnetization       =     1.06 Bohr mag/cell
     absolute magnetization    =     1.23 Bohr mag/cell

     iteration #  5     ecut=    40.42 Ry     beta=0.10
     Davidson diagonalization with overlap
     ethr =  6.24E-08,  avg # of iterations =  1.7

     negative rho (up, down):  1.188E-02 1.195E-02
 
     Magnetic moment per site:
     atom:    1    charge:    3.1244    magn:   -0.0002    constr:    0.0000
     atom:    2    charge:    2.0897    magn:    0.0002    constr:    0.0000
     atom:    3    charge:    3.1198    magn:   -0.0000    constr:    0.0000
     atom:    4    charge:    2.0867    magn:   -0.0001    constr:    0.0000
     atom:    5    charge:    3.1161    magn:   -0.0002    constr:    0.0000
     atom:    6    charge:    2.0795    magn:    0.0021    constr:    0.0000
     atom:    7    charge:    3.1166    magn:   -0.0053    constr:    0.0000
     atom:    8    charge:    2.0791    magn:    0.0250    constr:    0.0000
     atom:    9    charge:    3.1244    magn:   -0.0002    constr:    0.0000
     atom:   10    charge:    2.0898    magn:    0.0002    constr:    0.0000
     atom:   11    charge:    3.1198    magn:   -0.0000    constr:    0.0000
     atom:   12    charge:    2.0870    magn:   -0.0000    constr:    0.0000
     atom:   13    charge:    3.1150    magn:   -0.0002    constr:    0.0000
     atom:   14    charge:    2.0939    magn:    0.0023    constr:    0.0000
     atom:   15    charge:    3.1184    magn:   -0.0008    constr:    0.0000
     atom:   16    charge:    2.0828    magn:    0.0047    constr:    0.0000
     atom:   17    charge:    2.0624    magn:    0.0014    constr:    0.0000
     atom:   18    charge:    3.1239    magn:   -0.0001    constr:    0.0000
     atom:   19    charge:    2.0875    magn:    0.0001    constr:    0.0000
     atom:   20    charge:    2.0847    magn:    0.0001    constr:    0.0000
     atom:   21    charge:    2.0847    magn:    0.0001    constr:    0.0000
     atom:   22    charge:    3.1199    magn:    0.0000    constr:    0.0000
     atom:   23    charge:    2.0908    magn:    0.0002    constr:    0.0000
     atom:   24    charge:    2.0754    magn:   -0.0001    constr:    0.0000
     atom:   25    charge:    2.0867    magn:    0.0000    constr:    0.0000
     atom:   26    charge:    3.1127    magn:   -0.0002    constr:    0.0000
     atom:   27    charge:    2.0803    magn:    0.0026    constr:    0.0000
     atom:   28    charge:    2.0839    magn:    0.0007    constr:    0.0000
     atom:   29    charge:    2.0860    magn:    0.0008    constr:    0.0000
     atom:   30    charge:    3.1171    magn:   -0.0008    constr:    0.0000
     atom:   31    charge:    2.0825    magn:    0.0006    constr:    0.0000
     atom:   32    charge:    2.0828    magn:    0.0065    constr:    0.0000
     atom:   33    charge:    2.0624    magn:    0.0014    constr:    0.0000
     atom:   34    charge:    3.1239    magn:   -0.0001    constr:    0.0000
     atom:   35    charge:    2.0876    magn:    0.0001    constr:    0.0000
     atom:   36    charge:    2.0847    magn:    0.0001    constr:    0.0000
     atom:   37    charge:    2.0847    magn:    0.0001    constr:    0.0000
     atom:   38    charge:    3.1200    magn:    0.0000    constr:    0.0000
     atom:   39    charge:    2.0839    magn:    0.0002    constr:    0.0000
     atom:   40    charge:    2.0756    magn:   -0.0002    constr:    0.0000
     atom:   41    charge:    2.0870    magn:   -0.0000    constr:    0.0000
     atom:   42    charge:    3.1151    magn:   -0.0002    constr:    0.0000
     atom:   43    charge:    2.0803    magn:    0.0031    constr:    0.0000
     atom:   44    charge:    2.0851    magn:    0.0009    constr:    0.0000
     atom:   45    charge:    2.0858    magn:    0.0005    constr:    0.0000
     atom:   46    charge:    3.1148    magn:   -0.0007    constr:    0.0000
     atom:   47    charge:    2.0805    magn:    0.0047    constr:    0.0000
     atom:   48    charge:    2.0836    magn:    0.0136    constr:    0.0000
     atom:   49    charge:    2.0516    magn:    0.2399    constr:    0.0000
     atom:   50    charge:    0.6689    magn:    0.0545    constr:    0.0000
     atom:   51    charge:    0.4226    magn:    0.0010    constr:    0.0000
     atom:   52    charge:    0.4225    magn:    0.0009    constr:    0.0000
     atom:   53    charge:    0.3675    magn:    0.0231    constr:    0.0000
     atom:   54    charge:    0.4156    magn:    0.0005    constr:    0.0000

     total cpu time spent up to now is     2092.7 secs

     total energy              =   -3021.14962687 Ry
     Harris-Foulkes estimate   =   -3021.14964352 Ry
     estimated scf accuracy    <       0.00014369 Ry

     total magnetization       =     1.06 Bohr mag/cell
     absolute magnetization    =     1.23 Bohr mag/cell

     iteration #  6     ecut=    40.42 Ry     beta=0.10
     Davidson diagonalization with overlap
     ethr =  3.61E-08,  avg # of iterations =  2.7

     negative rho (up, down):  1.188E-02 1.195E-02
 
     Magnetic moment per site:
     atom:    1    charge:    3.1244    magn:   -0.0002    constr:    0.0000
     atom:    2    charge:    2.0897    magn:    0.0002    constr:    0.0000
     atom:    3    charge:    3.1198    magn:   -0.0000    constr:    0.0000
     atom:    4    charge:    2.0867    magn:   -0.0001    constr:    0.0000
     atom:    5    charge:    3.1161    magn:   -0.0002    constr:    0.0000
     atom:    6    charge:    2.0795    magn:    0.0021    constr:    0.0000
     atom:    7    charge:    3.1167    magn:   -0.0053    constr:    0.0000
     atom:    8    charge:    2.0792    magn:    0.0250    constr:    0.0000
     atom:    9    charge:    3.1244    magn:   -0.0002    constr:    0.0000
     atom:   10    charge:    2.0898    magn:    0.0002    constr:    0.0000
     atom:   11    charge:    3.1198    magn:   -0.0000    constr:    0.0000
     atom:   12    charge:    2.0870    magn:   -0.0000    constr:    0.0000
     atom:   13    charge:    3.1150    magn:   -0.0002    constr:    0.0000
     atom:   14    charge:    2.0939    magn:    0.0023    constr:    0.0000
     atom:   15    charge:    3.1184    magn:   -0.0008    constr:    0.0000
     atom:   16    charge:    2.0828    magn:    0.0047    constr:    0.0000
     atom:   17    charge:    2.0624    magn:    0.0013    constr:    0.0000
     atom:   18    charge:    3.1239    magn:   -0.0001    constr:    0.0000
     atom:   19    charge:    2.0875    magn:    0.0000    constr:    0.0000
     atom:   20    charge:    2.0847    magn:    0.0001    constr:    0.0000
     atom:   21    charge:    2.0847    magn:    0.0001    constr:    0.0000
     atom:   22    charge:    3.1199    magn:    0.0000    constr:    0.0000
     atom:   23    charge:    2.0908    magn:    0.0002    constr:    0.0000
     atom:   24    charge:    2.0754    magn:   -0.0001    constr:    0.0000
     atom:   25    charge:    2.0867    magn:    0.0000    constr:    0.0000
     atom:   26    charge:    3.1127    magn:   -0.0002    constr:    0.0000
     atom:   27    charge:    2.0803    magn:    0.0026    constr:    0.0000
     atom:   28    charge:    2.0839    magn:    0.0007    constr:    0.0000
     atom:   29    charge:    2.0860    magn:    0.0008    constr:    0.0000
     atom:   30    charge:    3.1171    magn:   -0.0008    constr:    0.0000
     atom:   31    charge:    2.0825    magn:    0.0006    constr:    0.0000
     atom:   32    charge:    2.0828    magn:    0.0065    constr:    0.0000
     atom:   33    charge:    2.0624    magn:    0.0013    constr:    0.0000
     atom:   34    charge:    3.1239    magn:   -0.0001    constr:    0.0000
     atom:   35    charge:    2.0876    magn:    0.0000    constr:    0.0000
     atom:   36    charge:    2.0847    magn:    0.0001    constr:    0.0000
     atom:   37    charge:    2.0847    magn:    0.0001    constr:    0.0000
     atom:   38    charge:    3.1200    magn:    0.0000    constr:    0.0000
     atom:   39    charge:    2.0839    magn:    0.0002    constr:    0.0000
     atom:   40    charge:    2.0756    magn:   -0.0002    constr:    0.0000
     atom:   41    charge:    2.0870    magn:   -0.0000    constr:    0.0000
     atom:   42    charge:    3.1151    magn:   -0.0002    constr:    0.0000
     atom:   43    charge:    2.0803    magn:    0.0031    constr:    0.0000
     atom:   44    charge:    2.0851    magn:    0.0009    constr:    0.0000
     atom:   45    charge:    2.0858    magn:    0.0005    constr:    0.0000
     atom:   46    charge:    3.1148    magn:   -0.0007    constr:    0.0000
     atom:   47    charge:    2.0805    magn:    0.0047    constr:    0.0000
     atom:   48    charge:    2.0836    magn:    0.0137    constr:    0.0000
     atom:   49    charge:    2.0515    magn:    0.2400    constr:    0.0000
     atom:   50    charge:    0.6690    magn:    0.0545    constr:    0.0000
     atom:   51    charge:    0.4226    magn:    0.0010    constr:    0.0000
     atom:   52    charge:    0.4225    magn:    0.0009    constr:    0.0000
     atom:   53    charge:    0.3676    magn:    0.0230    constr:    0.0000
     atom:   54    charge:    0.4156    magn:    0.0005    constr:    0.0000

     total cpu time spent up to now is     2324.4 secs

     total energy              =   -3021.14963469 Ry
     Harris-Foulkes estimate   =   -3021.14963383 Ry
     estimated scf accuracy    <       0.00003096 Ry

     total magnetization       =     1.06 Bohr mag/cell
     absolute magnetization    =     1.23 Bohr mag/cell

     iteration #  7     ecut=    40.42 Ry     beta=0.10
     Davidson diagonalization with overlap
     ethr =  7.78E-09,  avg # of iterations =  3.0

     negative rho (up, down):  1.188E-02 1.195E-02
 
     Magnetic moment per site:
     atom:    1    charge:    3.1244    magn:   -0.0002    constr:    0.0000
     atom:    2    charge:    2.0897    magn:    0.0002    constr:    0.0000
     atom:    3    charge:    3.1198    magn:   -0.0000    constr:    0.0000
     atom:    4    charge:    2.0867    magn:   -0.0001    constr:    0.0000
     atom:    5    charge:    3.1161    magn:   -0.0003    constr:    0.0000
     atom:    6    charge:    2.0795    magn:    0.0021    constr:    0.0000
     atom:    7    charge:    3.1167    magn:   -0.0053    constr:    0.0000
     atom:    8    charge:    2.0793    magn:    0.0250    constr:    0.0000
     atom:    9    charge:    3.1244    magn:   -0.0002    constr:    0.0000
     atom:   10    charge:    2.0898    magn:    0.0002    constr:    0.0000
     atom:   11    charge:    3.1198    magn:   -0.0000    constr:    0.0000
     atom:   12    charge:    2.0870    magn:   -0.0000    constr:    0.0000
     atom:   13    charge:    3.1150    magn:   -0.0002    constr:    0.0000
     atom:   14    charge:    2.0939    magn:    0.0023    constr:    0.0000
     atom:   15    charge:    3.1184    magn:   -0.0008    constr:    0.0000
     atom:   16    charge:    2.0828    magn:    0.0047    constr:    0.0000
     atom:   17    charge:    2.0624    magn:    0.0012    constr:    0.0000
     atom:   18    charge:    3.1239    magn:   -0.0000    constr:    0.0000
     atom:   19    charge:    2.0875    magn:    0.0000    constr:    0.0000
     atom:   20    charge:    2.0847    magn:    0.0001    constr:    0.0000
     atom:   21    charge:    2.0847    magn:    0.0001    constr:    0.0000
     atom:   22    charge:    3.1199    magn:    0.0000    constr:    0.0000
     atom:   23    charge:    2.0908    magn:    0.0003    constr:    0.0000
     atom:   24    charge:    2.0754    magn:   -0.0001    constr:    0.0000
     atom:   25    charge:    2.0867    magn:    0.0000    constr:    0.0000
     atom:   26    charge:    3.1127    magn:   -0.0003    constr:    0.0000
     atom:   27    charge:    2.0803    magn:    0.0026    constr:    0.0000
     atom:   28    charge:    2.0839    magn:    0.0007    constr:    0.0000
     atom:   29    charge:    2.0860    magn:    0.0009    constr:    0.0000
     atom:   30    charge:    3.1171    magn:   -0.0008    constr:    0.0000
     atom:   31    charge:    2.0825    magn:    0.0006    constr:    0.0000
     atom:   32    charge:    2.0829    magn:    0.0065    constr:    0.0000
     atom:   33    charge:    2.0624    magn:    0.0012    constr:    0.0000
     atom:   34    charge:    3.1239    magn:   -0.0000    constr:    0.0000
     atom:   35    charge:    2.0876    magn:    0.0000    constr:    0.0000
     atom:   36    charge:    2.0847    magn:    0.0001    constr:    0.0000
     atom:   37    charge:    2.0847    magn:    0.0001    constr:    0.0000
     atom:   38    charge:    3.1200    magn:    0.0000    constr:    0.0000
     atom:   39    charge:    2.0839    magn:    0.0002    constr:    0.0000
     atom:   40    charge:    2.0756    magn:   -0.0001    constr:    0.0000
     atom:   41    charge:    2.0870    magn:   -0.0000    constr:    0.0000
     atom:   42    charge:    3.1151    magn:   -0.0002    constr:    0.0000
     atom:   43    charge:    2.0803    magn:    0.0032    constr:    0.0000
     atom:   44    charge:    2.0851    magn:    0.0010    constr:    0.0000
     atom:   45    charge:    2.0858    magn:    0.0005    constr:    0.0000
     atom:   46    charge:    3.1147    magn:   -0.0007    constr:    0.0000
     atom:   47    charge:    2.0806    magn:    0.0047    constr:    0.0000
     atom:   48    charge:    2.0837    magn:    0.0137    constr:    0.0000
     atom:   49    charge:    2.0516    magn:    0.2401    constr:    0.0000
     atom:   50    charge:    0.6693    magn:    0.0544    constr:    0.0000
     atom:   51    charge:    0.4224    magn:    0.0010    constr:    0.0000
     atom:   52    charge:    0.4225    magn:    0.0010    constr:    0.0000
     atom:   53    charge:    0.3676    magn:    0.0230    constr:    0.0000
     atom:   54    charge:    0.4155    magn:    0.0005    constr:    0.0000

     total cpu time spent up to now is     2560.3 secs

     total energy              =   -3021.14963453 Ry
     Harris-Foulkes estimate   =   -3021.14963586 Ry
     estimated scf accuracy    <       0.00000938 Ry

     total magnetization       =     1.06 Bohr mag/cell
     absolute magnetization    =     1.23 Bohr mag/cell

     iteration #  8     ecut=    40.42 Ry     beta=0.10
     Davidson diagonalization with overlap
     ethr =  2.36E-09,  avg # of iterations =  3.0

     negative rho (up, down):  1.188E-02 1.195E-02
 
     Magnetic moment per site:
     atom:    1    charge:    3.1244    magn:   -0.0002    constr:    0.0000
     atom:    2    charge:    2.0897    magn:    0.0002    constr:    0.0000
     atom:    3    charge:    3.1198    magn:   -0.0000    constr:    0.0000
     atom:    4    charge:    2.0867    magn:   -0.0001    constr:    0.0000
     atom:    5    charge:    3.1161    magn:   -0.0003    constr:    0.0000
     atom:    6    charge:    2.0795    magn:    0.0022    constr:    0.0000
     atom:    7    charge:    3.1167    magn:   -0.0053    constr:    0.0000
     atom:    8    charge:    2.0793    magn:    0.0250    constr:    0.0000
     atom:    9    charge:    3.1244    magn:   -0.0002    constr:    0.0000
     atom:   10    charge:    2.0898    magn:    0.0002    constr:    0.0000
     atom:   11    charge:    3.1198    magn:   -0.0000    constr:    0.0000
     atom:   12    charge:    2.0870    magn:   -0.0000    constr:    0.0000
     atom:   13    charge:    3.1150    magn:   -0.0002    constr:    0.0000
     atom:   14    charge:    2.0939    magn:    0.0023    constr:    0.0000
     atom:   15    charge:    3.1184    magn:   -0.0008    constr:    0.0000
     atom:   16    charge:    2.0828    magn:    0.0047    constr:    0.0000
     atom:   17    charge:    2.0624    magn:    0.0011    constr:    0.0000
     atom:   18    charge:    3.1239    magn:   -0.0000    constr:    0.0000
     atom:   19    charge:    2.0875    magn:    0.0000    constr:    0.0000
     atom:   20    charge:    2.0847    magn:    0.0001    constr:    0.0000
     atom:   21    charge:    2.0847    magn:    0.0001    constr:    0.0000
     atom:   22    charge:    3.1199    magn:    0.0000    constr:    0.0000
     atom:   23    charge:    2.0908    magn:    0.0003    constr:    0.0000
     atom:   24    charge:    2.0754    magn:   -0.0000    constr:    0.0000
     atom:   25    charge:    2.0867    magn:    0.0000    constr:    0.0000
     atom:   26    charge:    3.1127    magn:   -0.0003    constr:    0.0000
     atom:   27    charge:    2.0802    magn:    0.0027    constr:    0.0000
     atom:   28    charge:    2.0839    magn:    0.0007    constr:    0.0000
     atom:   29    charge:    2.0860    magn:    0.0009    constr:    0.0000
     atom:   30    charge:    3.1171    magn:   -0.0008    constr:    0.0000
     atom:   31    charge:    2.0825    magn:    0.0006    constr:    0.0000
     atom:   32    charge:    2.0829    magn:    0.0065    constr:    0.0000
     atom:   33    charge:    2.0624    magn:    0.0011    constr:    0.0000
     atom:   34    charge:    3.1239    magn:   -0.0000    constr:    0.0000
     atom:   35    charge:    2.0875    magn:    0.0000    constr:    0.0000
     atom:   36    charge:    2.0847    magn:    0.0001    constr:    0.0000
     atom:   37    charge:    2.0847    magn:    0.0001    constr:    0.0000
     atom:   38    charge:    3.1200    magn:    0.0000    constr:    0.0000
     atom:   39    charge:    2.0839    magn:    0.0002    constr:    0.0000
     atom:   40    charge:    2.0756    magn:   -0.0001    constr:    0.0000
     atom:   41    charge:    2.0870    magn:   -0.0000    constr:    0.0000
     atom:   42    charge:    3.1151    magn:   -0.0002    constr:    0.0000
     atom:   43    charge:    2.0803    magn:    0.0032    constr:    0.0000
     atom:   44    charge:    2.0851    magn:    0.0010    constr:    0.0000
     atom:   45    charge:    2.0858    magn:    0.0005    constr:    0.0000
     atom:   46    charge:    3.1148    magn:   -0.0007    constr:    0.0000
     atom:   47    charge:    2.0806    magn:    0.0047    constr:    0.0000
     atom:   48    charge:    2.0837    magn:    0.0137    constr:    0.0000
     atom:   49    charge:    2.0517    magn:    0.2401    constr:    0.0000
     atom:   50    charge:    0.6693    magn:    0.0544    constr:    0.0000
     atom:   51    charge:    0.4224    magn:    0.0010    constr:    0.0000
     atom:   52    charge:    0.4225    magn:    0.0010    constr:    0.0000
     atom:   53    charge:    0.3676    magn:    0.0230    constr:    0.0000
     atom:   54    charge:    0.4155    magn:    0.0005    constr:    0.0000

     total cpu time spent up to now is     2800.0 secs

     total energy              =   -3021.14963523 Ry
     Harris-Foulkes estimate   =   -3021.14963541 Ry
     estimated scf accuracy    <       0.00000330 Ry

     total magnetization       =     1.06 Bohr mag/cell
     absolute magnetization    =     1.23 Bohr mag/cell

     iteration #  9     ecut=    40.42 Ry     beta=0.10
     Davidson diagonalization with overlap
     ethr =  8.30E-10,  avg # of iterations =  3.0

     negative rho (up, down):  1.189E-02 1.195E-02
 
     Magnetic moment per site:
     atom:    1    charge:    3.1244    magn:   -0.0002    constr:    0.0000
     atom:    2    charge:    2.0897    magn:    0.0001    constr:    0.0000
     atom:    3    charge:    3.1198    magn:   -0.0000    constr:    0.0000
     atom:    4    charge:    2.0867    magn:   -0.0001    constr:    0.0000
     atom:    5    charge:    3.1161    magn:   -0.0003    constr:    0.0000
     atom:    6    charge:    2.0795    magn:    0.0022    constr:    0.0000
     atom:    7    charge:    3.1167    magn:   -0.0054    constr:    0.0000
     atom:    8    charge:    2.0793    magn:    0.0251    constr:    0.0000
     atom:    9    charge:    3.1244    magn:   -0.0002    constr:    0.0000
     atom:   10    charge:    2.0898    magn:    0.0002    constr:    0.0000
     atom:   11    charge:    3.1198    magn:   -0.0000    constr:    0.0000
     atom:   12    charge:    2.0870    magn:   -0.0000    constr:    0.0000
     atom:   13    charge:    3.1150    magn:   -0.0002    constr:    0.0000
     atom:   14    charge:    2.0939    magn:    0.0023    constr:    0.0000
     atom:   15    charge:    3.1184    magn:   -0.0008    constr:    0.0000
     atom:   16    charge:    2.0828    magn:    0.0047    constr:    0.0000
     atom:   17    charge:    2.0624    magn:    0.0010    constr:    0.0000
     atom:   18    charge:    3.1239    magn:   -0.0000    constr:    0.0000
     atom:   19    charge:    2.0875    magn:    0.0000    constr:    0.0000
     atom:   20    charge:    2.0847    magn:    0.0001    constr:    0.0000
     atom:   21    charge:    2.0847    magn:    0.0001    constr:    0.0000
     atom:   22    charge:    3.1199    magn:    0.0000    constr:    0.0000
     atom:   23    charge:    2.0908    magn:    0.0003    constr:    0.0000
     atom:   24    charge:    2.0754    magn:   -0.0000    constr:    0.0000
     atom:   25    charge:    2.0867    magn:    0.0000    constr:    0.0000
     atom:   26    charge:    3.1127    magn:   -0.0003    constr:    0.0000
     atom:   27    charge:    2.0802    magn:    0.0027    constr:    0.0000
     atom:   28    charge:    2.0839    magn:    0.0008    constr:    0.0000
     atom:   29    charge:    2.0860    magn:    0.0009    constr:    0.0000
     atom:   30    charge:    3.1171    magn:   -0.0008    constr:    0.0000
     atom:   31    charge:    2.0825    magn:    0.0006    constr:    0.0000
     atom:   32    charge:    2.0829    magn:    0.0065    constr:    0.0000
     atom:   33    charge:    2.0624    magn:    0.0010    constr:    0.0000
     atom:   34    charge:    3.1239    magn:   -0.0000    constr:    0.0000
     atom:   35    charge:    2.0875    magn:    0.0000    constr:    0.0000
     atom:   36    charge:    2.0847    magn:    0.0001    constr:    0.0000
     atom:   37    charge:    2.0847    magn:    0.0001    constr:    0.0000
     atom:   38    charge:    3.1200    magn:    0.0000    constr:    0.0000
     atom:   39    charge:    2.0839    magn:    0.0002    constr:    0.0000
     atom:   40    charge:    2.0756    magn:   -0.0001    constr:    0.0000
     atom:   41    charge:    2.0870    magn:   -0.0000    constr:    0.0000
     atom:   42    charge:    3.1151    magn:   -0.0002    constr:    0.0000
     atom:   43    charge:    2.0803    magn:    0.0032    constr:    0.0000
     atom:   44    charge:    2.0851    magn:    0.0010    constr:    0.0000
     atom:   45    charge:    2.0858    magn:    0.0005    constr:    0.0000
     atom:   46    charge:    3.1148    magn:   -0.0007    constr:    0.0000
     atom:   47    charge:    2.0807    magn:    0.0047    constr:    0.0000
     atom:   48    charge:    2.0837    magn:    0.0137    constr:    0.0000
     atom:   49    charge:    2.0518    magn:    0.2402    constr:    0.0000
     atom:   50    charge:    0.6694    magn:    0.0544    constr:    0.0000
     atom:   51    charge:    0.4223    magn:    0.0010    constr:    0.0000
     atom:   52    charge:    0.4225    magn:    0.0010    constr:    0.0000
     atom:   53    charge:    0.3676    magn:    0.0230    constr:    0.0000
     atom:   54    charge:    0.4155    magn:    0.0005    constr:    0.0000

     total cpu time spent up to now is     3037.9 secs

     total energy              =   -3021.14963536 Ry
     Harris-Foulkes estimate   =   -3021.14963555 Ry
     estimated scf accuracy    <       0.00000120 Ry

     total magnetization       =     1.06 Bohr mag/cell
     absolute magnetization    =     1.23 Bohr mag/cell

     iteration # 10     ecut=    40.42 Ry     beta=0.10
     Davidson diagonalization with overlap
     ethr =  3.01E-10,  avg # of iterations =  3.3

     negative rho (up, down):  1.188E-02 1.195E-02
 
     Magnetic moment per site:
     atom:    1    charge:    3.1244    magn:   -0.0001    constr:    0.0000
     atom:    2    charge:    2.0897    magn:    0.0001    constr:    0.0000
     atom:    3    charge:    3.1198    magn:   -0.0000    constr:    0.0000
     atom:    4    charge:    2.0867    magn:   -0.0001    constr:    0.0000
     atom:    5    charge:    3.1161    magn:   -0.0003    constr:    0.0000
     atom:    6    charge:    2.0795    magn:    0.0022    constr:    0.0000
     atom:    7    charge:    3.1167    magn:   -0.0054    constr:    0.0000
     atom:    8    charge:    2.0793    magn:    0.0251    constr:    0.0000
     atom:    9    charge:    3.1244    magn:   -0.0001    constr:    0.0000
     atom:   10    charge:    2.0898    magn:    0.0001    constr:    0.0000
     atom:   11    charge:    3.1198    magn:   -0.0000    constr:    0.0000
     atom:   12    charge:    2.0870    magn:   -0.0000    constr:    0.0000
     atom:   13    charge:    3.1150    magn:   -0.0002    constr:    0.0000
     atom:   14    charge:    2.0939    magn:    0.0023    constr:    0.0000
     atom:   15    charge:    3.1184    magn:   -0.0008    constr:    0.0000
     atom:   16    charge:    2.0828    magn:    0.0047    constr:    0.0000
     atom:   17    charge:    2.0624    magn:    0.0007    constr:    0.0000
     atom:   18    charge:    3.1239    magn:   -0.0000    constr:    0.0000
     atom:   19    charge:    2.0876    magn:    0.0000    constr:    0.0000
     atom:   20    charge:    2.0847    magn:    0.0001    constr:    0.0000
     atom:   21    charge:    2.0847    magn:    0.0001    constr:    0.0000
     atom:   22    charge:    3.1199    magn:    0.0000    constr:    0.0000
     atom:   23    charge:    2.0908    magn:    0.0003    constr:    0.0000
     atom:   24    charge:    2.0754    magn:   -0.0000    constr:    0.0000
     atom:   25    charge:    2.0867    magn:    0.0000    constr:    0.0000
     atom:   26    charge:    3.1127    magn:   -0.0003    constr:    0.0000
     atom:   27    charge:    2.0803    magn:    0.0027    constr:    0.0000
     atom:   28    charge:    2.0839    magn:    0.0008    constr:    0.0000
     atom:   29    charge:    2.0860    magn:    0.0009    constr:    0.0000
     atom:   30    charge:    3.1171    magn:   -0.0008    constr:    0.0000
     atom:   31    charge:    2.0825    magn:    0.0006    constr:    0.0000
     atom:   32    charge:    2.0829    magn:    0.0066    constr:    0.0000
     atom:   33    charge:    2.0624    magn:    0.0007    constr:    0.0000
     atom:   34    charge:    3.1239    magn:   -0.0000    constr:    0.0000
     atom:   35    charge:    2.0876    magn:    0.0000    constr:    0.0000
     atom:   36    charge:    2.0847    magn:    0.0001    constr:    0.0000
     atom:   37    charge:    2.0847    magn:    0.0000    constr:    0.0000
     atom:   38    charge:    3.1200    magn:    0.0000    constr:    0.0000
     atom:   39    charge:    2.0839    magn:    0.0002    constr:    0.0000
     atom:   40    charge:    2.0756    magn:   -0.0001    constr:    0.0000
     atom:   41    charge:    2.0870    magn:   -0.0000    constr:    0.0000
     atom:   42    charge:    3.1151    magn:   -0.0003    constr:    0.0000
     atom:   43    charge:    2.0803    magn:    0.0033    constr:    0.0000
     atom:   44    charge:    2.0851    magn:    0.0010    constr:    0.0000
     atom:   45    charge:    2.0858    magn:    0.0006    constr:    0.0000
     atom:   46    charge:    3.1148    magn:   -0.0007    constr:    0.0000
     atom:   47    charge:    2.0806    magn:    0.0047    constr:    0.0000
     atom:   48    charge:    2.0837    magn:    0.0137    constr:    0.0000
     atom:   49    charge:    2.0517    magn:    0.2402    constr:    0.0000
     atom:   50    charge:    0.6693    magn:    0.0544    constr:    0.0000
     atom:   51    charge:    0.4224    magn:    0.0010    constr:    0.0000
     atom:   52    charge:    0.4225    magn:    0.0010    constr:    0.0000
     atom:   53    charge:    0.3675    magn:    0.0230    constr:    0.0000
     atom:   54    charge:    0.4154    magn:    0.0005    constr:    0.0000

     total cpu time spent up to now is     3290.1 secs

     End of self-consistent calculation

 ------ SPIN UP ------------


          k = 0.0000 0.0000 0.0000 ( 34665 PWs)   bands (ev):

   -58.3089 -58.2739 -57.3910 -57.3853 -57.3522 -57.3145 -57.2632 -57.0944
   -57.0678 -57.0622 -57.0238 -56.9250 -56.9000 -56.8897 -56.8040 -56.7655
   -34.7541 -34.5775 -34.5487 -34.5155 -34.4205 -34.3636 -33.8860 -33.8736
   -33.7556 -33.6825 -33.6405 -33.5977 -33.5655 -33.5585 -33.5525 -33.5460
   -33.5344 -33.5196 -33.4942 -33.4928 -33.4783 -33.4765 -33.4739 -33.4550
   -33.3444 -33.3388 -33.3350 -33.3324 -33.3195 -33.2914 -33.2858 -33.2658
   -33.2456 -33.2402 -33.2399 -33.2306 -33.2014 -33.1800 -33.1448 -33.1436
   -33.1055 -33.0820 -33.0537 -33.0320 -33.0186 -32.9929 -32.9520 -32.8851
   -18.4742 -18.0415 -17.8172 -17.7166 -17.5563 -17.5346 -17.4909 -17.3890
   -17.3624 -17.2622 -17.0502 -17.0294 -17.0217 -16.9911 -16.9304 -16.8595
   -16.8404 -16.8030 -16.7450 -16.7133 -16.6943 -16.6620 -16.5977 -16.5936
   -16.4708 -16.4232 -16.4040 -16.3669 -16.3306 -16.1507 -16.0897 -15.6043
   -15.5434 -11.1510  -6.0527  -5.5016  -5.2876  -5.2076  -5.0989  -4.9970
    -4.9868  -4.9275  -4.8834  -4.7377  -4.6548  -4.6044  -4.5904  -4.5152
    -4.4340  -4.4186  -4.3573  -4.3212  -4.2360  -4.2234  -4.1966  -4.1469
    -4.0359  -4.0283  -3.9836  -3.9130  -3.8969  -3.8909  -3.8882  -3.8256
    -3.7815  -3.7572  -3.6747  -3.6465  -3.6202  -3.5871  -3.5457  -3.5326
    -3.5064  -3.4232  -3.4123  -3.3651  -3.2776  -3.2368  -3.1927  -3.0914
    -2.9238  -2.9015  -2.8555  -2.8057  -2.7505  -2.6984  -2.6765  -2.6650
    -2.6383  -2.5413  -2.4911  -2.4435  -2.3824  -2.3377  -2.2532  -2.2339
    -2.2297  -2.1648  -2.0728  -2.0457  -2.0042  -1.9640  -1.9344  -1.9034
    -1.8581  -1.7421  -1.6988  -1.6731  -1.6452  -1.6350  -1.5910  -1.5090
    -1.4254  -1.3717  -1.3573  -1.3423  -1.3181  -1.2727  -1.2289  -1.1749
    -1.1642  -1.1149  -1.1129  -1.0990  -1.0683  -0.9846  -0.8778  -0.8382
    -0.8129  -0.6976  -0.6915  -0.6285  -0.5565  -0.5153  -0.4876  -0.1911
     1.0219   1.1187   1.4136   1.6918   1.8001   1.9181   1.9654   2.0121
     2.0423   2.1295   2.2061   2.2268   2.2730   2.3918   2.4671   2.4809
     2.4880   2.5150   2.6179   2.6632   2.6680   2.6846   2.7068   2.8237
     2.8384   2.8830   2.8973   2.9503   2.9649   3.0179   3.0265   3.0481
     3.1018   3.1572   3.1954   3.1966   3.2442   3.2521   3.4079   3.4430
     3.4748   3.5171   3.5942   3.6228   3.6666   3.7109   3.8253   3.9527
     4.1005   4.1318   4.3231   4.4692   4.5910   4.7032   4.7810   4.8320
     5.0818   5.1293   5.2073   5.3503   5.3946   5.3999   5.4244   5.4295
     5.4462   5.5190   5.5513   5.6588   5.7151   5.7329   5.9027   5.9190
     5.9522   6.0717   6.0906   6.1328   6.2148   6.2921   6.4190   6.4862
     6.5393   6.5641   6.7795   6.8110   7.2133   7.9143   8.1508   8.1737
     8.3481   8.3877   8.6414   8.7130   8.7502   8.9667   9.1502   9.2458
     9.3027   9.4477   9.6217

          k = 0.0000 0.0280 0.0000 ( 34717 PWs)   bands (ev):

   -58.3066 -58.2762 -57.3892 -57.3836 -57.3546 -57.3156 -57.2629 -57.0942
   -57.0678 -57.0606 -57.0258 -56.9227 -56.9002 -56.8921 -56.8015 -56.7681
   -34.7287 -34.5755 -34.5506 -34.5092 -34.4270 -34.3907 -33.8606 -33.8482
   -33.7348 -33.6762 -33.6344 -33.5951 -33.5723 -33.5549 -33.5468 -33.5388
   -33.5337 -33.5214 -33.5182 -33.5010 -33.4933 -33.4767 -33.4683 -33.4486
   -33.3389 -33.3329 -33.3195 -33.3173 -33.3126 -33.3080 -33.2833 -33.2641
   -33.2503 -33.2420 -33.2405 -33.2299 -33.2062 -33.2033 -33.1510 -33.1376
   -33.1173 -33.0785 -33.0599 -33.0319 -33.0184 -32.9977 -32.9794 -32.9138
   -18.4159 -17.9818 -17.7673 -17.6864 -17.6110 -17.5116 -17.4420 -17.3770
   -17.3312 -17.2928 -17.1013 -17.0088 -17.0003 -16.9802 -16.9326 -16.8810
   -16.8009 -16.7786 -16.7660 -16.7408 -16.7125 -16.6871 -16.6229 -16.5712
   -16.4849 -16.4485 -16.4108 -16.3902 -16.3628 -16.1694 -16.1313 -15.6183
   -15.5689 -11.1520  -5.9673  -5.4175  -5.2082  -5.1371  -5.0289  -4.9617
    -4.9304  -4.9051  -4.8125  -4.7341  -4.6733  -4.6585  -4.5314  -4.5207
    -4.4216  -4.3817  -4.3678  -4.3280  -4.2626  -4.2155  -4.2026  -4.1813
    -4.1045  -4.0720  -4.0207  -4.0033  -3.9832  -3.9758  -3.9266  -3.8581
    -3.8192  -3.7587  -3.7446  -3.7204  -3.6829  -3.6092  -3.5576  -3.4417
    -3.4068  -3.3249  -3.3052  -3.3013  -3.2723  -3.1284  -3.1089  -2.9494
    -2.9082  -2.8870  -2.8044  -2.7534  -2.7489  -2.7258  -2.6918  -2.6563
    -2.6031  -2.5219  -2.4625  -2.4476  -2.4200  -2.2844  -2.2600  -2.2279
    -2.2171  -2.1576  -2.1494  -2.0327  -1.9880  -1.9626  -1.9301  -1.9176
    -1.8785  -1.7720  -1.7628  -1.7237  -1.6855  -1.6149  -1.5869  -1.5766
    -1.5062  -1.4645  -1.3960  -1.3822  -1.3793  -1.3624  -1.2893  -1.2764
    -1.2398  -1.1794  -1.1530  -1.0742  -0.9978  -0.9579  -0.9334  -0.9014
    -0.8809  -0.8441  -0.7340  -0.6038  -0.5773  -0.5636  -0.5436  -0.2322
     1.1546   1.1597   1.4148   1.8282   1.8725   1.8900   1.9226   1.9990
     2.0574   2.0754   2.2964   2.3046   2.3374   2.4545   2.4905   2.5110
     2.5189   2.5407   2.5456   2.5941   2.7112   2.7289   2.7990   2.8102
     2.8322   2.8966   2.9331   2.9614   2.9779   2.9908   3.0118   3.0627
     3.0830   3.1193   3.1726   3.2314   3.2438   3.3243   3.4327   3.4734
     3.5092   3.5401   3.5623   3.5852   3.6403   3.6637   3.7836   3.9048
     4.0548   4.1990   4.2794   4.5226   4.7017   4.7044   4.8111   4.9070
     5.1086   5.1699   5.2529   5.2994   5.3693   5.4088   5.4315   5.4761
     5.5035   5.5360   5.5465   5.6580   5.7016   5.7105   5.8199   5.8806
     5.9433   5.9883   6.0362   6.0478   6.1770   6.2483   6.3852   6.4305
     6.4479   6.5527   6.7233   6.8139   7.3188   7.4507   7.9950   8.0634
     8.3419   8.4962   8.5269   8.7072   8.7805   8.9902   9.1078   9.3088
     9.3666   9.4466   9.5149

          k = 0.0000 0.0560 0.0000 ( 34721 PWs)   bands (ev):

   -58.3002 -58.2826 -57.3858 -57.3785 -57.3610 -57.3179 -57.2621 -57.0937
   -57.0683 -57.0559 -57.0308 -56.9162 -56.9007 -56.8986 -56.7948 -56.7748
   -34.6588 -34.5703 -34.5558 -34.4921 -34.4638 -34.4446 -33.7908 -33.7787
   -33.6841 -33.6593 -33.6177 -33.5955 -33.5947 -33.5888 -33.5741 -33.5708
   -33.5427 -33.5337 -33.5164 -33.4980 -33.4747 -33.4700 -33.4666 -33.4145
   -33.3734 -33.3287 -33.3263 -33.3114 -33.2848 -33.2749 -33.2595 -33.2594
   -33.2583 -33.2497 -33.2466 -33.2286 -33.2207 -33.2127 -33.1684 -33.1367
   -33.1214 -33.0765 -33.0756 -33.0533 -33.0314 -33.0183 -33.0097 -32.9843
   -18.2547 -17.8171 -17.7947 -17.6374 -17.6037 -17.4138 -17.3947 -17.3764
   -17.3114 -17.2688 -17.2343 -17.0481 -16.9928 -16.9246 -16.9207 -16.9036
   -16.8456 -16.8201 -16.7316 -16.7082 -16.7027 -16.6769 -16.6269 -16.5642
   -16.5177 -16.5121 -16.4567 -16.4446 -16.4177 -16.2347 -16.2120 -15.6468
   -15.6226 -11.1538  -5.7279  -5.1846  -5.0487  -4.9922  -4.9567  -4.9239
    -4.8515  -4.8357  -4.8182  -4.7748  -4.7363  -4.5569  -4.5114  -4.4686
    -4.3969  -4.3959  -4.3542  -4.3232  -4.3086  -4.2906  -4.2530  -4.2164
    -4.2119  -4.1944  -4.1330  -4.0612  -4.0170  -3.9769  -3.9680  -3.9108
    -3.8707  -3.8192  -3.7409  -3.6872  -3.6053  -3.5455  -3.4146  -3.4075
    -3.3668  -3.2880  -3.2488  -3.1360  -3.0916  -3.0726  -3.0415  -3.0139
    -2.9704  -2.9602  -2.8297  -2.7998  -2.7430  -2.6988  -2.6536  -2.5588
    -2.4862  -2.4774  -2.4436  -2.3581  -2.3052  -2.2996  -2.2246  -2.1913
    -2.1560  -2.1422  -2.1217  -2.0895  -2.0569  -2.0131  -1.9983  -1.9723
    -1.9366  -1.8947  -1.8845  -1.8638  -1.8159  -1.7555  -1.6602  -1.6099
    -1.5978  -1.5809  -1.5154  -1.4767  -1.4539  -1.4487  -1.4344  -1.3797
    -1.2952  -1.2745  -1.2179  -1.1998  -1.0929  -1.0080  -0.9816  -0.9473
    -0.8626  -0.8392  -0.7405  -0.7187  -0.6235  -0.5852  -0.5673  -0.3356
     1.2835   1.4252   1.4979   1.7191   1.7958   1.8888   1.9594   2.0571
     2.1377   2.2734   2.2785   2.3302   2.4143   2.4835   2.5027   2.5289
     2.5698   2.6091   2.6596   2.7065   2.7500   2.7672   2.7985   2.8469
     2.8624   2.8812   2.8909   2.9607   3.0071   3.0253   3.0342   3.0610
     3.1221   3.1554   3.1788   3.2570   3.3054   3.3368   3.3836   3.4314
     3.4692   3.4848   3.5606   3.6087   3.6718   3.6837   3.7234   3.7992
     3.9216   4.1567   4.3213   4.6497   4.7401   4.8404   4.9321   5.0702
     5.0760   5.1733   5.2798   5.3311   5.3993   5.4347   5.4679   5.4970
     5.4974   5.5594   5.5793   5.6454   5.6504   5.7511   5.7694   5.8106
     5.8486   5.8651   5.8860   5.9283   6.1149   6.1562   6.2951   6.3695
     6.4216   6.4405   6.7181   6.7463   6.9958   7.2133   7.6122   7.7470
     8.1993   8.3762   8.7010   8.8203   8.8374   8.8827   9.1785   9.3439
     9.4130   9.5986   9.7076

          k = 0.0000-0.0840 0.0000 ( 34678 PWs)   bands (ev):

   -58.2921 -58.2907 -57.3842 -57.3721 -57.3678 -57.3190 -57.2617 -57.0935
   -57.0686 -57.0526 -57.0342 -56.9078 -56.9071 -56.9009 -56.7880 -56.7816
   -34.5639 -34.5629 -34.5620 -34.5614 -34.4690 -34.4678 -33.7069 -33.6938
   -33.6901 -33.6514 -33.6501 -33.6443 -33.6126 -33.5965 -33.5924 -33.5817
   -33.5412 -33.5356 -33.5159 -33.5072 -33.4717 -33.4653 -33.4035 -33.3886
   -33.3836 -33.3676 -33.3302 -33.3255 -33.3083 -33.2770 -33.2641 -33.2551
   -33.2532 -33.2527 -33.2285 -33.2259 -33.1776 -33.1530 -33.1521 -33.1444
   -33.1298 -33.1275 -33.0994 -33.0987 -33.0318 -33.0234 -33.0206 -33.0147
   -18.0297 -18.0289 -17.5973 -17.5881 -17.5144 -17.4904 -17.4901 -17.3999
   -17.2629 -17.2226 -17.1351 -17.1096 -17.0772 -17.0423 -16.8988 -16.8496
   -16.8126 -16.8123 -16.8108 -16.6795 -16.6176 -16.6142 -16.6080 -16.5840
   -16.5526 -16.5303 -16.5121 -16.4797 -16.4706 -16.2771 -16.2533 -15.6561
   -15.6561 -11.1547  -5.3884  -5.3881  -4.9206  -4.8921  -4.8911  -4.8786
    -4.8563  -4.7747  -4.7631  -4.7241  -4.6634  -4.6089  -4.5717  -4.5651
    -4.4966  -4.4739  -4.4507  -4.3963  -4.3806  -4.2705  -4.2583  -4.2505
    -4.1632  -4.1208  -4.0712  -4.0357  -3.9965  -3.9045  -3.8879  -3.8592
    -3.7859  -3.7337  -3.6791  -3.6728  -3.6537  -3.6318  -3.6238  -3.4129
    -3.3653  -3.3501  -3.1536  -3.0817  -3.0758  -3.0334  -2.9316  -2.9311
    -2.9215  -2.8543  -2.8312  -2.7956  -2.7778  -2.6982  -2.6738  -2.6488
    -2.5261  -2.5060  -2.4244  -2.4081  -2.4002  -2.3781  -2.3154  -2.2449
    -2.2319  -2.1697  -2.1236  -2.0611  -2.0101  -1.9842  -1.9800  -1.9744
    -1.9701  -1.9457  -1.8432  -1.8030  -1.7827  -1.7327  -1.6965  -1.6614
    -1.6455  -1.6144  -1.5954  -1.5212  -1.5119  -1.4696  -1.4501  -1.4268
    -1.3857  -1.3352  -1.2835  -1.1823  -1.1419  -1.1208  -1.0951  -1.0699
    -0.8426  -0.8187  -0.6213  -0.6123  -0.6073  -0.5993  -0.5504  -0.5020
     1.4797   1.4824   1.6320   1.6326   1.7116   1.7125   2.0826   2.0834
     2.1465   2.2015   2.3722   2.4069   2.4434   2.4894   2.5372   2.5449
     2.6518   2.6636   2.6730   2.6867   2.7388   2.7491   2.8069   2.8097
     2.9095   2.9446   2.9882   3.0160   3.0210   3.0239   3.0304   3.0338
     3.0411   3.2222   3.2318   3.2623   3.2948   3.3368   3.3631   3.3933
     3.4304   3.4453   3.5004   3.6224   3.6932   3.7324   3.7469   3.7890
     3.8430   4.0339   4.3737   4.7541   4.8296   4.8633   4.8640   5.0496
     5.1416   5.2212   5.3120   5.3278   5.3623   5.4053   5.4658   5.5405
     5.5620   5.5940   5.5967   5.6841   5.6969   5.7160   5.7264   5.7399
     5.7658   5.8065   5.8397   5.9406   6.0228   6.1553   6.2829   6.3840
     6.4581   6.4748   6.5892   6.6066   6.9328   6.9848   7.4499   7.6153
     8.0314   8.2362   8.7159   8.9247   9.1299   9.2191   9.3451   9.3466
     9.4486   9.6124   9.7004

          k = 0.0253 0.0000 0.0000 ( 34707 PWs)   bands (ev):

   -58.3089 -58.2739 -57.3906 -57.3857 -57.3522 -57.3146 -57.2632 -57.0944
   -57.0676 -57.0624 -57.0238 -56.9250 -56.9000 -56.8897 -56.8040 -56.7655
   -34.7544 -34.5775 -34.5487 -34.5147 -34.4205 -34.3637 -33.8862 -33.8756
   -33.7558 -33.6747 -33.6404 -33.5978 -33.5688 -33.5588 -33.5548 -33.5462
   -33.5345 -33.5229 -33.4938 -33.4928 -33.4775 -33.4744 -33.4723 -33.4552
   -33.3443 -33.3399 -33.3329 -33.3315 -33.3164 -33.2914 -33.2859 -33.2669
   -33.2509 -33.2399 -33.2396 -33.2304 -33.2015 -33.1801 -33.1436 -33.1433
   -33.1050 -33.0820 -33.0537 -33.0361 -33.0176 -32.9929 -32.9521 -32.8852
   -18.4296 -18.0036 -17.7952 -17.7894 -17.5659 -17.4620 -17.4538 -17.3883
   -17.3668 -17.3260 -17.1114 -17.0431 -17.0184 -16.9851 -16.9330 -16.8969
   -16.8625 -16.7998 -16.7693 -16.7472 -16.6433 -16.6011 -16.5919 -16.5841
   -16.4691 -16.4483 -16.4046 -16.3888 -16.3282 -16.1490 -16.0898 -15.6032
   -15.5433 -11.1510  -5.9278  -5.3952  -5.2193  -5.2042  -5.0787  -5.0292
    -4.9752  -4.9304  -4.8853  -4.7396  -4.7028  -4.5882  -4.5845  -4.5171
    -4.4893  -4.4138  -4.3323  -4.2670  -4.2627  -4.2022  -4.1933  -4.1091
    -4.0343  -4.0016  -3.9944  -3.9200  -3.9044  -3.8627  -3.8524  -3.8006
    -3.7367  -3.6897  -3.6379  -3.6009  -3.5636  -3.5582  -3.5275  -3.5009
    -3.4446  -3.4189  -3.3234  -3.3194  -3.2783  -3.2620  -3.2417  -3.1560
    -3.0165  -2.9060  -2.8427  -2.8222  -2.7740  -2.7476  -2.7039  -2.6746
    -2.6158  -2.5626  -2.5445  -2.5029  -2.4397  -2.3861  -2.3371  -2.2706
    -2.2525  -2.2031  -2.0954  -2.0501  -2.0092  -1.9602  -1.8874  -1.8551
    -1.8317  -1.8028  -1.7173  -1.6294  -1.5834  -1.5753  -1.5498  -1.5135
    -1.4820  -1.4374  -1.4333  -1.3977  -1.3387  -1.3067  -1.2953  -1.2261
    -1.1907  -1.1600  -1.1099  -1.0873  -1.0463  -1.0274  -0.9606  -0.9160
    -0.8387  -0.8319  -0.6748  -0.6479  -0.6109  -0.5930  -0.5617  -0.2506
     1.1045   1.1191   1.4127   1.7795   1.8157   1.9008   1.9272   2.0463
     2.0821   2.1140   2.2005   2.2412   2.3346   2.3801   2.4383   2.5022
     2.5245   2.5933   2.6254   2.6445   2.6749   2.7001   2.8088   2.8231
     2.8433   2.8466   2.8879   2.8970   2.9420   3.0236   3.0721   3.1304
     3.1873   3.1992   3.2124   3.2143   3.2387   3.3061   3.4037   3.4399
     3.4854   3.5409   3.5894   3.6314   3.6963   3.7607   3.7822   3.9060
     4.0491   4.1879   4.2612   4.4224   4.5781   4.6207   4.8063   4.8249
     4.9570   4.9808   5.0839   5.1681   5.3014   5.3135   5.4251   5.5304
     5.5553   5.7063   5.7395   5.9019   5.9101   5.9352   5.9610   5.9844
     6.0206   6.0300   6.0667   6.1667   6.2257   6.2576   6.4371   6.4928
     6.5399   6.6168   6.7374   6.8077   7.2593   7.6748   7.7589   8.0196
     8.2237   8.2992   8.3781   8.6901   8.7564   8.9682   9.0985   9.2107
     9.4118   9.4970   9.7736

          k = 0.0253 0.0280 0.0000 ( 34687 PWs)   bands (ev):

   -58.3066 -58.2762 -57.3889 -57.3839 -57.3546 -57.3156 -57.2628 -57.0942
   -57.0677 -57.0607 -57.0258 -56.9227 -56.9002 -56.8921 -56.8015 -56.7681
   -34.7290 -34.5755 -34.5506 -34.5085 -34.4269 -34.3907 -33.8608 -33.8502
   -33.7349 -33.6686 -33.6343 -33.5952 -33.5694 -33.5552 -33.5519 -33.5421
   -33.5342 -33.5223 -33.5207 -33.5006 -33.4934 -33.4706 -33.4687 -33.4492
   -33.3391 -33.3289 -33.3194 -33.3187 -33.3092 -33.3078 -33.2834 -33.2651
   -33.2546 -33.2414 -33.2405 -33.2315 -33.2059 -33.2033 -33.1491 -33.1377
   -33.1176 -33.0785 -33.0599 -33.0341 -33.0186 -32.9977 -32.9794 -32.9138
   -18.3722 -17.9453 -17.7777 -17.7418 -17.5252 -17.5230 -17.4155 -17.3702
   -17.3533 -17.3217 -17.1158 -17.0727 -17.0023 -16.9712 -16.9221 -16.8796
   -16.8327 -16.8076 -16.7981 -16.7356 -16.6727 -16.6688 -16.6165 -16.5521
   -16.4905 -16.4681 -16.4129 -16.4083 -16.3598 -16.1676 -16.1320 -15.6173
   -15.5689 -11.1519  -5.8429  -5.3117  -5.1462  -5.1305  -4.9955  -4.9597
    -4.9323  -4.9102  -4.8245  -4.7001  -4.6792  -4.6380  -4.5359  -4.5003
    -4.4417  -4.4039  -4.3154  -4.2963  -4.2463  -4.2064  -4.1844  -4.1577
    -4.1291  -4.0973  -4.0344  -3.9979  -3.9561  -3.9433  -3.9004  -3.8231
    -3.7926  -3.7284  -3.7263  -3.6800  -3.6283  -3.5985  -3.5274  -3.4031
    -3.3461  -3.3249  -3.3146  -3.2692  -3.2376  -3.1937  -3.1197  -3.0985
    -2.9321  -2.8960  -2.8422  -2.7816  -2.7527  -2.7127  -2.6811  -2.6419
    -2.6127  -2.5258  -2.5028  -2.4733  -2.4538  -2.3858  -2.3325  -2.3076
    -2.2310  -2.1915  -2.1319  -2.0678  -2.0181  -1.9567  -1.9396  -1.9119
[...]
    -1.7324  -1.5101  -1.4674  -1.4566  -1.4385  -1.4010  -1.3215  -1.1578
    -1.1472  -1.0907  -1.0731  -1.0570  -0.9741  -0.9139  -0.8751  -0.7903
    -0.7367  -0.7298  -0.7008  -0.6734  -0.5986  -0.5766  -0.5630   0.2900
     1.5986   1.6021   1.6147   1.6200   1.9625   1.9633   2.0922   2.0932
     2.2758   2.2966   2.3098   2.3915   2.4147   2.4846   2.5713   2.6306
     2.6526   2.6972   2.7806   2.8140   2.8707   2.9226   2.9448   2.9727
     2.9873   2.9959   3.0370   3.0949   3.1092   3.2064   3.2320   3.2409
     3.2567   3.2806   3.3379   3.3841   3.3977   3.4030   3.4596   3.4705
     3.4808   3.5085   3.5231   3.5763   3.6336   3.6515   3.7737   3.8750
     3.9108   3.9211   4.1374   4.1379   4.5878   4.6169   4.6393   4.7247
     4.8799   4.8959   4.9285   5.0788   5.1579   5.1628   5.1820   5.4432
     5.6707   5.6797   5.6907   5.9235   5.9289   5.9625   6.0134   6.0164
     6.0914   6.1029   6.1723   6.2641   6.2678   6.2763   6.3801   6.4573
     6.4970   6.6035   7.0617   7.2360   7.3381   7.4017   7.5546   7.5914
     7.7190   7.7720   7.9236   8.1124   8.2955   8.3414   8.4535   8.8693
     9.0147   9.0625   9.2169

          k =-0.0253 0.0280 0.0000 ( 34687 PWs)   bands (ev):

   -58.3068 -58.2764 -57.3889 -57.3839 -57.3545 -57.3157 -57.2637 -57.0982
   -57.0689 -57.0620 -57.0270 -56.9248 -56.9234 -56.8929 -56.8051 -56.7717
   -34.7292 -34.5757 -34.5508 -34.5086 -34.4271 -34.3909 -33.8607 -33.8502
   -33.7358 -33.6686 -33.6343 -33.5954 -33.5694 -33.5553 -33.5519 -33.5429
   -33.5350 -33.5224 -33.5207 -33.5007 -33.4943 -33.4712 -33.4703 -33.4516
   -33.3399 -33.3305 -33.3230 -33.3201 -33.3139 -33.3092 -33.2849 -33.2657
   -33.2553 -33.2421 -33.2420 -33.2333 -33.2168 -33.2065 -33.1695 -33.1384
   -33.1362 -33.0819 -33.0606 -33.0417 -33.0227 -33.0010 -32.9802 -32.9165
   -18.3720 -17.9429 -17.7774 -17.7354 -17.5245 -17.5181 -17.3769 -17.3700
   -17.3467 -17.3170 -17.1133 -17.0704 -16.9857 -16.9406 -16.8746 -16.8318
   -16.7937 -16.7519 -16.7343 -16.6709 -16.6643 -16.5844 -16.5452 -16.4868
   -16.4627 -16.4068 -16.3675 -16.3496 -16.1571 -16.1224 -15.8840 -15.6138
   -15.5651 -10.7539  -5.8428  -5.3115  -5.1453  -5.1272  -4.9953  -4.9544
    -4.9154  -4.8265  -4.7000  -4.6793  -4.6381  -4.5379  -4.4999  -4.4435
    -4.4100  -4.3152  -4.2917  -4.2518  -4.1996  -4.1832  -4.1432  -4.1287
    -4.0955  -4.0495  -4.0130  -3.9932  -3.9553  -3.9151  -3.8827  -3.8010
    -3.7850  -3.7258  -3.6802  -3.6277  -3.5994  -3.5331  -3.5027  -3.3928
    -3.3446  -3.3221  -3.2834  -3.2637  -3.2253  -3.1834  -3.1143  -3.0979
    -2.9216  -2.8835  -2.8241  -2.7793  -2.7236  -2.6865  -2.6763  -2.6193
    -2.5888  -2.5108  -2.5014  -2.4440  -2.4107  -2.3603  -2.2899  -2.2675
    -2.2154  -2.1940  -2.1063  -2.0445  -1.9615  -1.9425  -1.9183  -1.8522
    -1.8412  -1.7932  -1.7474  -1.6869  -1.6379  -1.5971  -1.5644  -1.5126
    -1.4785  -1.4377  -1.4088  -1.3828  -1.3633  -1.3479  -1.3165  -1.2928
    -1.2072  -1.1264  -1.0663  -1.0127  -0.9890  -0.9558  -0.9314  -0.8869
    -0.8451  -0.8222  -0.6335  -0.6119  -0.5875  -0.5242  -0.2673   0.3136
     1.1505   1.2441   1.4282   1.8174   1.8569   1.9240   1.9604   2.0278
     2.0388   2.1880   2.2988   2.3446   2.3860   2.4290   2.4525   2.5025
     2.5227   2.5469   2.5878   2.6482   2.6962   2.7205   2.7762   2.8303
     2.8753   2.9124   2.9289   2.9720   2.9893   3.0130   3.0392   3.0919
     3.1691   3.1896   3.2320   3.2574   3.2928   3.3351   3.4283   3.4633
     3.4934   3.5569   3.6104   3.6411   3.6621   3.7426   3.8196   3.8640
     4.0110   4.2073   4.2833   4.4345   4.6232   4.7214   4.8423   4.8595
     5.0002   5.0240   5.1110   5.1966   5.2400   5.3554   5.4592   5.5470
     5.6623   5.6935   5.7149   5.8016   5.8484   5.8816   5.9078   5.9299
     5.9653   5.9881   6.0636   6.1255   6.1735   6.2810   6.3967   6.4471
     6.4606   6.5807   6.7521   6.8077   7.3768   7.4831   7.7965   7.8917
     8.0935   8.2289   8.4882   8.5296   8.7851   8.8893   9.0759   9.3072
     9.3726   9.5315   9.6141

          k =-0.0253 0.0560 0.0000 ( 34699 PWs)   bands (ev):

   -58.3004 -58.2828 -57.3857 -57.3786 -57.3609 -57.3180 -57.2629 -57.0977
   -57.0695 -57.0573 -57.0320 -56.9253 -56.9170 -56.8994 -56.7983 -56.7785
   -34.6593 -34.5705 -34.5560 -34.4916 -34.4641 -34.4445 -33.7910 -33.7810
   -33.6850 -33.6533 -33.6175 -33.5940 -33.5900 -33.5890 -33.5776 -33.5708
   -33.5444 -33.5346 -33.5211 -33.4993 -33.4863 -33.4689 -33.4583 -33.4176
   -33.3747 -33.3278 -33.3242 -33.3155 -33.2868 -33.2773 -33.2608 -33.2608
   -33.2598 -33.2504 -33.2470 -33.2339 -33.2236 -33.2184 -33.1849 -33.1653
   -33.1221 -33.0789 -33.0772 -33.0540 -33.0387 -33.0251 -33.0131 -32.9871
   -18.2143 -17.8043 -17.7826 -17.6140 -17.6026 -17.4584 -17.3959 -17.3721
   -17.2511 -17.2438 -17.2063 -17.0604 -16.9507 -16.9218 -16.8836 -16.8428
   -16.8000 -16.7462 -16.7354 -16.7201 -16.6858 -16.6003 -16.5504 -16.5336
   -16.5024 -16.4438 -16.4135 -16.4090 -16.2189 -16.2035 -15.8828 -15.6425
   -15.6189 -10.7558  -5.6076  -5.0841  -5.0265  -4.9584  -4.9262  -4.8196
    -4.7976  -4.7604  -4.6901  -4.6757  -4.5284  -4.5116  -4.4485  -4.3979
    -4.3800  -4.3717  -4.3231  -4.2794  -4.2525  -4.2425  -4.2075  -4.1758
    -4.1336  -4.1237  -4.0573  -4.0238  -3.9936  -3.9591  -3.9309  -3.8921
    -3.8311  -3.7957  -3.6824  -3.6059  -3.5412  -3.5252  -3.4591  -3.3868
    -3.3654  -3.2908  -3.1900  -3.1622  -3.1184  -3.1122  -3.0609  -3.0263
    -2.9843  -2.9290  -2.8451  -2.7953  -2.7645  -2.7066  -2.6114  -2.5918
    -2.5263  -2.5125  -2.4584  -2.3933  -2.3780  -2.3202  -2.3025  -2.2612
    -2.1903  -2.1377  -2.1234  -2.0911  -2.0510  -2.0090  -1.9875  -1.9508
    -1.9333  -1.9081  -1.8954  -1.8484  -1.7701  -1.7048  -1.6922  -1.5961
    -1.5748  -1.5466  -1.5205  -1.4871  -1.4450  -1.4155  -1.3864  -1.3274
    -1.2919  -1.2246  -1.1574  -1.0360  -1.0070  -0.9726  -0.9398  -0.8597
    -0.7655  -0.7379  -0.7071  -0.6423  -0.6114  -0.5578  -0.3645   0.2947
     1.2848   1.4668   1.5621   1.7560   1.7714   1.9098   1.9765   2.0560
     2.2632   2.2737   2.3403   2.3765   2.4130   2.4852   2.5204   2.5459
     2.5707   2.5941   2.6516   2.7040   2.7190   2.7626   2.8051   2.8548
     2.8805   2.9155   2.9597   3.0050   3.0308   3.0442   3.0541   3.1076
     3.1571   3.1969   3.2161   3.2868   3.3157   3.3442   3.3760   3.4558
     3.5075   3.5326   3.6105   3.6319   3.6663   3.7253   3.7443   3.7979
     3.8938   4.0976   4.3904   4.4989   4.7139   4.8570   4.9081   4.9591
     4.9935   5.0878   5.1850   5.2058   5.3342   5.3859   5.4320   5.5266
     5.5624   5.5975   5.6501   5.7076   5.7370   5.8019   5.8182   5.8587
     5.9255   5.9418   5.9985   6.0882   6.1310   6.2105   6.3271   6.4304
     6.4575   6.4747   6.7176   6.7677   7.0732   7.2963   7.6719   7.8313
     8.0999   8.2314   8.3180   8.4881   8.7663   8.9001   9.0048   9.1891
     9.3697   9.5533   9.6479

          k =-0.0506 0.0280 0.0000 ( 34685 PWs)   bands (ev):

   -58.3067 -58.2764 -57.3880 -57.3848 -57.3545 -57.3157 -57.2637 -57.0982
   -57.0686 -57.0623 -57.0270 -56.9248 -56.9234 -56.8929 -56.8051 -56.7717
   -34.7299 -34.5757 -34.5508 -34.5071 -34.4271 -34.3910 -33.8612 -33.8542
   -33.7360 -33.6490 -33.6341 -33.5955 -33.5746 -33.5572 -33.5559 -33.5482
   -33.5352 -33.5298 -33.5195 -33.5005 -33.4944 -33.4715 -33.4589 -33.4527
   -33.3400 -33.3237 -33.3222 -33.3199 -33.3098 -33.3087 -33.2851 -33.2677
   -33.2652 -33.2421 -33.2411 -33.2361 -33.2169 -33.2060 -33.1655 -33.1383
   -33.1364 -33.0820 -33.0606 -33.0486 -33.0211 -33.0009 -32.9802 -32.9165
   -18.2636 -17.8656 -17.8533 -17.7027 -17.5892 -17.4571 -17.4395 -17.3460
   -17.3187 -17.2523 -17.1819 -17.0879 -16.9983 -16.9532 -16.9243 -16.8968
   -16.8120 -16.7690 -16.7578 -16.6979 -16.6348 -16.5511 -16.5244 -16.4909
   -16.4627 -16.4078 -16.3915 -16.3545 -16.1536 -16.1228 -15.8848 -15.6119
   -15.5652 -10.7537  -5.5415  -5.1889  -5.1556  -5.1226  -4.9509  -4.8712
    -4.7693  -4.7114  -4.6842  -4.6539  -4.6030  -4.5889  -4.5347  -4.4090
    -4.3649  -4.3245  -4.2428  -4.2171  -4.1805  -4.1661  -4.1498  -4.0579
    -4.0351  -4.0140  -3.9762  -3.9306  -3.8873  -3.8404  -3.8145  -3.7816
    -3.7222  -3.6708  -3.6319  -3.5914  -3.5487  -3.5251  -3.4884  -3.4576
    -3.3813  -3.3685  -3.2934  -3.2668  -3.2056  -3.1486  -3.1200  -3.0599
    -3.0113  -2.9821  -2.9034  -2.8375  -2.7590  -2.7004  -2.6910  -2.6675
    -2.6186  -2.5955  -2.5821  -2.5273  -2.5184  -2.3950  -2.3429  -2.3343
    -2.2719  -2.2026  -2.1875  -2.1609  -2.0827  -2.0124  -2.0061  -1.9449
    -1.9259  -1.8960  -1.8124  -1.7241  -1.7108  -1.6866  -1.6169  -1.5882
    -1.5258  -1.4785  -1.4559  -1.3954  -1.3809  -1.3289  -1.3133  -1.2626
    -1.2461  -1.1229  -1.0598  -1.0368  -1.0127  -0.9584  -0.9269  -0.8785
    -0.8301  -0.7986  -0.7224  -0.6835  -0.6622  -0.5380  -0.3933   0.2983
     1.1374   1.3374   1.4625   1.5634   1.9312   1.9413   1.9638   2.0556
     2.1217   2.1965   2.2513   2.3272   2.4033   2.4372   2.5259   2.5434
     2.5899   2.6482   2.6848   2.6986   2.7523   2.8259   2.8488   2.8792
     2.9378   2.9438   2.9773   2.9820   2.9885   3.0995   3.1065   3.1351
     3.1828   3.2119   3.2874   3.3076   3.3529   3.3800   3.4041   3.4524
     3.4667   3.5451   3.5996   3.6646   3.7398   3.7766   3.7965   3.8980
     3.9557   4.0589   4.1067   4.4046   4.5076   4.6534   4.7451   4.8066
     4.8391   4.9113   4.9637   5.2863   5.3270   5.4098   5.5247   5.5568
     5.6381   5.7641   5.7841   5.8510   5.8967   5.9106   5.9678   6.0541
     6.0913   6.1633   6.2476   6.3321   6.3845   6.4010   6.4408   6.4876
     6.5387   6.5494   6.7096   6.9181   7.0759   7.2198   7.5486   7.6112
     7.7252   8.2201   8.4095   8.4770   8.8614   8.9380   9.0647   9.2131
     9.4271   9.6075   9.6772

          k =-0.0506 0.0560 0.0000 ( 34596 PWs)   bands (ev):

   -58.3004 -58.2828 -57.3853 -57.3790 -57.3609 -57.3180 -57.2629 -57.0977
   -57.0693 -57.0575 -57.0320 -56.9253 -56.9170 -56.8994 -56.7984 -56.7785
   -34.6599 -34.5704 -34.5560 -34.4903 -34.4643 -34.4441 -33.7912 -33.7855
   -33.6852 -33.6375 -33.6174 -33.5932 -33.5916 -33.5888 -33.5720 -33.5708
   -33.5477 -33.5348 -33.5332 -33.4995 -33.4955 -33.4690 -33.4466 -33.4192
   -33.3750 -33.3276 -33.3131 -33.3106 -33.2893 -33.2794 -33.2620 -33.2606
   -33.2594 -33.2502 -33.2466 -33.2439 -33.2243 -33.2186 -33.1843 -33.1611
   -33.1221 -33.0790 -33.0772 -33.0539 -33.0429 -33.0257 -33.0130 -32.9869
   -18.1111 -17.8221 -17.7047 -17.6167 -17.6005 -17.5607 -17.3836 -17.3722
   -17.2220 -17.2096 -17.1206 -17.0983 -16.9808 -16.9153 -16.8708 -16.8456
   -16.8268 -16.8108 -16.7649 -16.7391 -16.7241 -16.6308 -16.6000 -16.5097
   -16.4994 -16.4413 -16.4241 -16.4139 -16.2183 -16.1999 -15.8827 -15.6412
   -15.6193 -10.7556  -5.3050  -4.9951  -4.9444  -4.9364  -4.7864  -4.7787
    -4.7198  -4.6428  -4.5298  -4.5097  -4.5039  -4.4212  -4.4067  -4.3840
    -4.3643  -4.3307  -4.3124  -4.2512  -4.2035  -4.1793  -4.1697  -4.1156
    -4.1051  -4.0621  -4.0472  -3.9964  -3.9826  -3.9072  -3.8890  -3.8300
    -3.7841  -3.7055  -3.6660  -3.6131  -3.5867  -3.5309  -3.5043  -3.4356
    -3.3979  -3.3220  -3.2630  -3.2342  -3.1366  -3.1277  -3.0822  -3.0546
    -2.9982  -2.9808  -2.9610  -2.9047  -2.8034  -2.7667  -2.7521  -2.7089
    -2.6326  -2.5904  -2.5486  -2.5046  -2.4814  -2.4173  -2.3925  -2.3727
    -2.3541  -2.2930  -2.1979  -2.1751  -2.1501  -2.1318  -2.1057  -2.0510
    -2.0161  -1.9743  -1.9473  -1.8737  -1.8512  -1.7848  -1.7341  -1.6601
    -1.5692  -1.5519  -1.5414  -1.4993  -1.4458  -1.3882  -1.3561  -1.3089
    -1.2472  -1.1785  -1.0801  -1.0247  -0.9912  -0.9064  -0.8554  -0.8481
    -0.7962  -0.7095  -0.6954  -0.6740  -0.6587  -0.5560  -0.4784   0.2971
     1.3054   1.4951   1.6438   1.6655   1.8502   2.0013   2.0298   2.0650
     2.2409   2.2535   2.3578   2.3740   2.4303   2.4590   2.5456   2.5827
     2.6479   2.6931   2.7271   2.7417   2.8089   2.8400   2.8685   2.9009
     2.9314   2.9485   3.0041   3.0393   3.0698   3.1109   3.1425   3.1882
     3.1932   3.2482   3.2822   3.3222   3.3314   3.3744   3.4139   3.4646
     3.4790   3.5466   3.5756   3.6385   3.6652   3.7424   3.8021   3.8379
     3.8807   3.9575   4.1501   4.5011   4.5940   4.6136   4.7519   4.8195
     4.8860   4.9625   5.0077   5.1841   5.2994   5.3735   5.4091   5.4413
     5.5922   5.6143   5.6655   5.7145   5.8770   5.8943   5.9849   6.0039
     6.0660   6.1062   6.1681   6.2057   6.3131   6.3348   6.4115   6.4211
     6.5385   6.6130   6.7635   6.8060   7.1836   7.3585   7.5058   7.6215
     7.9358   8.0132   8.1044   8.3724   8.6036   8.7211   8.8076   9.0404
     9.1949   9.3294   9.4358

     the Fermi energy is    -0.2938 ev

!    total energy              =   -3021.14963535 Ry
     Harris-Foulkes estimate   =   -3021.14963558 Ry
     estimated scf accuracy    <       0.00000038 Ry

     The total energy is the sum of the following terms:

     one-electron contribution =  -40438.28580490 Ry
     hartree contribution      =   20290.46818628 Ry
     xc contribution           =    -553.19877660 Ry
     ewald contribution        =   17679.88657391 Ry
     smearing contrib. (-TS)   =      -0.01981406 Ry

     total magnetization       =     1.06 Bohr mag/cell
     absolute magnetization    =     1.23 Bohr mag/cell

     convergence has been achieved in  10 iterations

     Forces acting on atoms (Ry/au):


     negative rho (up, down):  1.188E-02 1.195E-02
     atom    1 type  1   force =     0.00018562   -0.00090025   -0.10469318
     atom    2 type  2   force =     0.00014362    0.00068004    0.04003178
     atom    3 type  1   force =     0.00074758   -0.00175434   -0.02054462
     atom    4 type  2   force =    -0.00326761    0.00312133   -0.00323570
     atom    5 type  1   force =     0.00034704    0.00006755    0.00033071
     atom    6 type  2   force =    -0.00012925   -0.00009853    0.00025071
     atom    7 type  1   force =    -0.00027672    0.00005050   -0.00049366
     atom    8 type  2   force =    -0.00013756   -0.00014055   -0.00019826
     atom    9 type  1   force =    -0.00003380    0.00056320   -0.10482736
     atom   10 type  2   force =     0.00034908   -0.00021364    0.03600580
     atom   11 type  1   force =     0.00067937    0.00183673    0.00261542
     atom   12 type  2   force =    -0.00519430   -0.00267031   -0.00520167
     atom   13 type  1   force =     0.00041251    0.00008405   -0.00024455
     atom   14 type  2   force =     0.00013409   -0.00008075   -0.00004487
     atom   15 type  1   force =    -0.00008400   -0.00009279   -0.00000363
     atom   16 type  2   force =    -0.00017188   -0.00000652   -0.00037030
     atom   17 type  2   force =     0.00001066   -0.00001422    0.06659519
     atom   18 type  1   force =     0.00005747    0.00002893    0.13145994
     atom   19 type  2   force =     0.00017749   -0.00052995   -0.08521339
     atom   20 type  2   force =    -0.05792442    0.00013971   -0.03607752
     atom   21 type  2   force =     0.05781542   -0.00005062   -0.03603695
     atom   22 type  1   force =    -0.00042860    0.00074885    0.08017256
     atom   23 type  2   force =     0.00019768   -0.00005078    0.00004052
     atom   24 type  2   force =     0.00064299    0.00185729   -0.03467250
     atom   25 type  2   force =     0.00413869    0.00332415   -0.00510575
     atom   26 type  1   force =     0.00040793   -0.00004848    0.00010161
     atom   27 type  2   force =    -0.00009887   -0.00012707    0.00003593
     atom   28 type  2   force =     0.00006050   -0.00019790   -0.00002046
     atom   29 type  2   force =    -0.00000353   -0.00007842    0.00007353
     atom   30 type  1   force =    -0.00024313   -0.00019238    0.00011186
     atom   31 type  2   force =     0.00011228   -0.00008516   -0.00006422
     atom   32 type  2   force =    -0.00013539    0.00000415    0.00008677
     atom   33 type  2   force =    -0.00016635    0.00004759    0.06632752
     atom   34 type  1   force =     0.00007767   -0.00003541    0.13124129
     atom   35 type  2   force =     0.00018920   -0.00012993   -0.08482317
     atom   36 type  2   force =    -0.05782031    0.00006293   -0.03568801
     atom   37 type  2   force =     0.05798889   -0.00017814   -0.03608639
     atom   38 type  1   force =    -0.00037458   -0.00020676    0.07984336
     atom   39 type  2   force =     0.00007545   -0.00026503   -0.00008513
     atom   40 type  2   force =     0.00048902    0.00123879   -0.03527523
     atom   41 type  2   force =     0.00588598   -0.00243785   -0.00723021
     atom   42 type  1   force =     0.00024258   -0.00007117    0.00003461
     atom   43 type  2   force =    -0.00019902   -0.00010055    0.00003659
     atom   44 type  2   force =     0.00001106   -0.00016205   -0.00002873
     atom   45 type  2   force =    -0.00000141   -0.00016861    0.00005918
     atom   46 type  1   force =    -0.00016119   -0.00006200    0.00009541
     atom   47 type  2   force =    -0.00000083   -0.00011447   -0.00004454
     atom   48 type  2   force =    -0.00014765   -0.00003426    0.00031632
     atom   49 type  2   force =    -0.00058593   -0.00080526   -0.00037683
     atom   50 type  3   force =    -0.01255082    0.01057243    0.00450359
     atom   51 type  4   force =     0.00076189   -0.00181175   -0.00104917
     atom   52 type  4   force =    -0.00154325    0.00030618    0.00098397
     atom   53 type  4   force =    -0.00206889    0.00057762    0.00155112
     atom   54 type  4   force =     0.01140753   -0.01139612   -0.00516930

     Total force =     0.343152     Total SCF correction =     0.001313
 !ASE

     Writing output data file calc.save
 
     init_run     :     66.95s CPU     77.80s WALL (       1 calls)
     electrons    :   2799.48s CPU   3212.05s WALL (       1 calls)
     forces       :     48.87s CPU     50.86s WALL (       1 calls)

     Called by init_run:
     wfcinit      :     58.85s CPU     69.13s WALL (       1 calls)
     potinit      :      1.32s CPU      1.55s WALL (       1 calls)

     Called by electrons:
     c_bands      :   2456.44s CPU   2810.31s WALL (      11 calls)
     sum_band     :    298.02s CPU    351.64s WALL (      11 calls)
     v_of_rho     :     11.39s CPU     13.78s WALL (      11 calls)
     newd         :     37.36s CPU     40.17s WALL (      11 calls)
     mix_rho      :      0.38s CPU      0.52s WALL (      11 calls)
     vdW_energy   :      2.55s CPU      2.89s WALL (      12 calls)
     vdW_ffts     :      2.92s CPU      3.74s WALL (      24 calls)
     vdW_v        :      1.17s CPU      1.29s WALL (      12 calls)

     Called by c_bands:
     init_us_2    :      6.85s CPU      7.39s WALL (     960 calls)
     cegterg      :   2415.19s CPU   2766.80s WALL (     440 calls)

     Called by *egterg:
     h_psi        :    958.90s CPU   1236.29s WALL (    2010 calls)
     s_psi        :    163.50s CPU    168.52s WALL (    2010 calls)
     g_psi        :      4.80s CPU      4.86s WALL (    1530 calls)
     cdiaghg      :    744.41s CPU    757.59s WALL (    1930 calls)

     Called by h_psi:
     add_vuspsi   :    165.27s CPU    169.62s WALL (    2010 calls)

     General routines
     calbec       :    244.29s CPU    249.53s WALL (    2490 calls)
     fft          :      6.21s CPU      7.91s WALL (     956 calls)
     ffts         :      0.04s CPU      0.06s WALL (      44 calls)
     fftw         :    538.66s CPU    853.70s WALL (  780052 calls)
     interpolate  :      0.33s CPU      0.50s WALL (      44 calls)
     davcio       :      0.01s CPU      0.99s WALL (      40 calls)
 
     Parallel routines
     fft_scatter  :    273.50s CPU    447.87s WALL (  781052 calls)
 
     PWSCF        : 48m37.62s CPU    55m44.75s WALL

 
   This run was terminated on:   3:17:40  27Feb2018            

=------------------------------------------------------------------------------=
   JOB DONE.
=------------------------------------------------------------------------------=
