  python dir          : /home/vossj/suncat/lib/python2.7/site-packages/espresso
  espresso dir        : /home/vossj/suncat/esdld/espresso-dynpy-beef/bin
  pseudo dir          : /home/alatimer/bin/psp/esp_psp_w_gbrvRu/
  ase-espresso py git : ffa2778-git



     Program PWSCF v.5.1rc2 (svn rev. ) starts on 26Feb2018 at  4:16: 5 

     This program is part of the open-source Quantum ESPRESSO suite
     for quantum simulation of materials; please cite
         "P. Giannozzi et al., J. Phys.:Condens. Matter 21 395502 (2009);
          URL http://www.quantum-espresso.org", 
     in publications or presentations arising from this work. More details at
     http://www.quantum-espresso.org/quote

     Parallel version (MPI), running on    16 processors
     R & G space division:  proc/nbgrp/npool/nimage =      16
     Reading input from pw.inp
     Message from routine read_cards :
     DEPRECATED: no units specified in CELL_PARAMETERS card

     Current dimensions of program PWSCF are:
     Max number of different atomic species (ntypx) = 10
     Max number of k-points (npk) =  40000
     Max angular momentum in pseudopotentials (lmaxx) =  3

     **************************************************************************
     Initializing libbeef V0.1.1 with the BEEF-vdW functional.
     Citation: Wellendorff et al., PRB 85, 235149 (2012).
     **************************************************************************


     IMPORTANT: XC functional enforced from input :
     Exchange-correlation      = BEEF ( 1  4 27 13 2)
     Any further DFT definition will be discarded
     Please, verify this is what you really want


     Subspace diagonalization in iterative solution of the eigenvalue problem:
     a serial algorithm will be used

 
     Parallelization info
     --------------------
     sticks:   dense  smooth     PW     G-vecs:    dense   smooth      PW
     Min         281     112     31                68535    17318    2565
     Max         282     113     32                68545    17369    2582
     Sum        4501    1795    503              1096637   277353   41113
 
     Generating pointlists ...
     new r_m :   0.4125 (alat units)  0.7795 (a.u.) for type    1
     new r_m :   0.4125 (alat units)  0.7795 (a.u.) for type    2
     new r_m :   0.4125 (alat units)  0.7795 (a.u.) for type    3
     new r_m :   0.4125 (alat units)  0.7795 (a.u.) for type    4


     bravais-lattice index     =            0
     lattice parameter (alat)  =       1.8897  a.u.
     unit-cell volume          =    7990.9933 (a.u.)^3
     number of atoms/cell      =           54
     number of atomic types    =            4
     number of electrons       =       398.00
     number of Kohn-Sham states=          299
     kinetic-energy cutoff     =      40.4243  Ry
     charge density cutoff     =     404.2426  Ry
     convergence threshold     =      7.3E-07
     mixing beta               =       0.1000
     number of iterations used =           10  plain     mixing
     Exchange-correlation      = BEEF ( 1  4 27 13 2)
     nstep                     =           50


     celldm(1)=   1.889726  celldm(2)=   0.000000  celldm(3)=   0.000000
     celldm(4)=   0.000000  celldm(5)=   0.000000  celldm(6)=   0.000000

     crystal axes: (cart. coord. in units of alat)
               a(1) = (   6.590708   0.000000   0.000000 )  
               a(2) = (   0.000000   5.950229   0.000000 )  
               a(3) = (   0.000000   0.000000  30.195235 )  

     reciprocal axes: (cart. coord. in units 2 pi/alat)
               b(1) = (  0.151729  0.000000  0.000000 )  
               b(2) = (  0.000000  0.168061  0.000000 )  
               b(3) = (  0.000000  0.000000  0.033118 )  


     PseudoPot. # 1 for Ti read from file:
     /home/alatimer/bin/psp/esp_psp_w_gbrvRu/Ti.UPF
     MD5 check sum: 8e4df49b7f0d34bbd5052bf3f5ea0213
     Pseudo is Ultrasoft, Zval = 12.0
     Generated by new atomic code, or converted to UPF format
     Using radial grid of  851 points,  6 beta functions with: 
                l(1) =   0
                l(2) =   0
                l(3) =   1
                l(4) =   1
                l(5) =   2
                l(6) =   2
     Q(r) pseudized with  8 coefficients,  rinner =    1.000   1.000   1.000
                                                       1.000   1.000

     PseudoPot. # 2 for  O read from file:
     /home/alatimer/bin/psp/esp_psp_w_gbrvRu/O.UPF
     MD5 check sum: e057bbcf3229fb5d8c36c0c92f9568b4
     Pseudo is Ultrasoft + core correction, Zval =  6.0
     Generated using "atomic" code by A. Dal Corso  v.5.0.2 svn rev. 9415
     Using radial grid of 1095 points,  4 beta functions with: 
                l(1) =   0
                l(2) =   0
                l(3) =   1
                l(4) =   1
     Q(r) pseudized with 0 coefficients 


     PseudoPot. # 3 for  C read from file:
     /home/alatimer/bin/psp/esp_psp_w_gbrvRu/C.UPF
     MD5 check sum: ab446d787031eba755f1d5ee46644bb0
     Pseudo is Ultrasoft + core correction, Zval =  4.0
     Generated using "atomic" code by A. Dal Corso  v.5.0.2 svn rev. 9415
     Using radial grid of 1073 points,  4 beta functions with: 
                l(1) =   0
                l(2) =   0
                l(3) =   1
                l(4) =   1
     Q(r) pseudized with 0 coefficients 


     PseudoPot. # 4 for  H read from file:
     /home/alatimer/bin/psp/esp_psp_w_gbrvRu/H.UPF
     MD5 check sum: bd57da0722753ddfd9833a65b40bb853
     Pseudo is Ultrasoft, Zval =  1.0
     Generated using "atomic" code by A. Dal Corso  v.5.0.2 svn rev. 9415
     Using radial grid of  929 points,  2 beta functions with: 
                l(1) =   0
                l(2) =   0
     Q(r) pseudized with 0 coefficients 


     vdW kernel table read from file vdW_kernel_table
     MD5 check sum: 095c7af220d748ca6e76c0b4c6cfb241

     atomic species   valence    mass     pseudopotential
        Ti1           12.00    47.88000     Ti( 1.00)
        O1             6.00    15.99940      O( 1.00)
        C1             4.00    12.01100      C( 1.00)
        H1             1.00     1.00794      H( 1.00)

     Starting magnetic structure 
     atomic species   magnetization
        Ti1          0.250
        O1           0.500
        C1           0.750
        H1           0.000

     No symmetry found



   Cartesian axes

     site n.     atom                  positions (alat units)
         1           Ti1 tau(   1) = (   1.6476770   0.7437786   2.6545865  )
         2           O1  tau(   2) = (   1.6476770   2.2313359   3.9361215  )
         3           Ti1 tau(   3) = (   1.6476770   2.2313359   5.9499405  )
         4           O1  tau(   4) = (   0.3661420   0.7437786   5.9499405  )
         5           Ti1 tau(   5) = (   1.6407309   0.9134410   9.3139491  )
         6           O1  tau(   6) = (   1.6648823   2.2608486  10.4895904  )
         7           Ti1 tau(   7) = (   1.7578240   2.2899216  13.0472362  )
         8           O1  tau(   8) = (   0.4801583   0.7600008  12.7739736  )
         9           Ti1 tau(   9) = (   1.6476770   3.7188931   2.6545865  )
        10           O1  tau(  10) = (   1.6476770   5.2064503   3.9361215  )
        11           Ti1 tau(  11) = (   1.6476770   5.2064503   5.9499405  )
        12           O1  tau(  12) = (   0.3661420   3.7188931   5.9499405  )
        13           Ti1 tau(  13) = (   1.6336050   3.7786827   9.1566831  )
        14           O1  tau(  14) = (   1.6678212   5.2513959  10.5409436  )
        15           Ti1 tau(  15) = (   1.7144009   5.2558216  12.3462911  )
        16           O1  tau(  16) = (   0.4635505   3.7986228  12.7318280  )
        17           O1  tau(  17) = (   1.6476770   2.2313359   1.3730516  )
        18           Ti1 tau(  18) = (   4.9430310   2.2313359   2.6545865  )
        19           O1  tau(  19) = (   4.9430310   2.2313359   4.6684056  )
        20           O1  tau(  20) = (   6.2245660   0.7437786   2.6545865  )
        21           O1  tau(  21) = (   3.6614961   0.7437786   2.6545865  )
        22           Ti1 tau(  22) = (   4.9430310   0.7437786   5.9499405  )
        23           O1  tau(  23) = (   1.6683653   2.2752577   7.9427336  )
        24           O1  tau(  24) = (   4.9430310   2.2313359   7.2314755  )
        25           O1  tau(  25) = (   2.9292120   0.7437786   5.9499405  )
        26           Ti1 tau(  26) = (   4.9404121   2.2664794   9.4552217  )
        27           O1  tau(  27) = (   5.0099888   2.2616732  11.2946145  )
        28           O1  tau(  28) = (   6.2612001   0.7714827   9.2659748  )
        29           O1  tau(  29) = (   3.6791272   0.7744986   9.2965846  )
        30           Ti1 tau(  30) = (   5.0117873   0.7976728  12.8161605  )
        31           O1  tau(  31) = (   4.9963122   2.2836652  13.8750618  )
        32           O1  tau(  32) = (   2.9819382   0.7448324  12.7109220  )
        33           O1  tau(  33) = (   1.6476770   5.2064503   1.3730516  )
        34           Ti1 tau(  34) = (   4.9430310   5.2064503   2.6545865  )
        35           O1  tau(  35) = (   4.9430310   5.2064503   4.6684056  )
        36           O1  tau(  36) = (   6.2245660   3.7188931   2.6545865  )
        37           O1  tau(  37) = (   3.6614961   3.7188931   2.6545865  )
        38           Ti1 tau(  38) = (   4.9430310   3.7188931   5.9499405  )
        39           O1  tau(  39) = (   1.6664207   5.2035600   7.9365221  )
        40           O1  tau(  40) = (   4.9430310   5.2064503   7.2314755  )
        41           O1  tau(  41) = (   2.9292120   3.7188931   5.9499405  )
        42           Ti1 tau(  42) = (   4.9524353   5.2460635   9.4426343  )
        43           O1  tau(  43) = (   5.0107556   5.2394944  11.2927493  )
        44           O1  tau(  44) = (   6.2663940   3.7551737   9.2646230  )
        45           O1  tau(  45) = (   3.6780957   3.7542261   9.2971476  )
        46           Ti1 tau(  46) = (   5.0587989   3.7766986  12.8010349  )
        47           O1  tau(  47) = (   5.0196089   5.2502198  13.8813978  )
        48           O1  tau(  48) = (   2.9624133   3.7943242  12.7299881  )
        49           O1  tau(  49) = (   1.7427453   2.2533568  14.8370015  )
        50           C1  tau(  50) = (   2.7196098   4.2826273  16.2018421  )
        51           H1  tau(  51) = (   3.3037454   4.9255546  15.5827400  )
        52           H1  tau(  52) = (   3.3286606   3.7870117  16.9822022  )
        53           H1  tau(  53) = (   2.3125587   3.4026405  15.5729816  )
        54           H1  tau(  54) = (   1.8391288   4.7650601  16.6448379  )

     number of k points=    40  Fermi-Dirac smearing, width (Ry)=  0.0073
                       cart. coord. in units 2pi/alat
        k(    1) = (   0.0000000   0.0000000   0.0000000), wk =   0.0277778
        k(    2) = (   0.0000000   0.0280101   0.0000000), wk =   0.0555556
        k(    3) = (   0.0000000   0.0560203   0.0000000), wk =   0.0555556
        k(    4) = (   0.0000000  -0.0840304   0.0000000), wk =   0.0277778
        k(    5) = (   0.0252881   0.0000000   0.0000000), wk =   0.0555556
        k(    6) = (   0.0252881   0.0280101   0.0000000), wk =   0.0555556
        k(    7) = (   0.0252881   0.0560203   0.0000000), wk =   0.0555556
        k(    8) = (   0.0252881  -0.0840304   0.0000000), wk =   0.0555556
        k(    9) = (   0.0505763   0.0000000   0.0000000), wk =   0.0555556
        k(   10) = (   0.0505763   0.0280101   0.0000000), wk =   0.0555556
        k(   11) = (   0.0505763   0.0560203   0.0000000), wk =   0.0555556
        k(   12) = (   0.0505763  -0.0840304   0.0000000), wk =   0.0555556
        k(   13) = (  -0.0758644   0.0000000   0.0000000), wk =   0.0277778
        k(   14) = (  -0.0758644   0.0280101   0.0000000), wk =   0.0555556
        k(   15) = (  -0.0758644   0.0560203   0.0000000), wk =   0.0555556
        k(   16) = (  -0.0758644  -0.0840304   0.0000000), wk =   0.0277778
        k(   17) = (  -0.0252881   0.0280101   0.0000000), wk =   0.0555556
        k(   18) = (  -0.0252881   0.0560203   0.0000000), wk =   0.0555556
        k(   19) = (  -0.0505763   0.0280101   0.0000000), wk =   0.0555556
        k(   20) = (  -0.0505763   0.0560203   0.0000000), wk =   0.0555556
        k(   21) = (   0.0000000   0.0000000   0.0000000), wk =   0.0277778
        k(   22) = (   0.0000000   0.0280101   0.0000000), wk =   0.0555556
        k(   23) = (   0.0000000   0.0560203   0.0000000), wk =   0.0555556
        k(   24) = (   0.0000000  -0.0840304   0.0000000), wk =   0.0277778
        k(   25) = (   0.0252881   0.0000000   0.0000000), wk =   0.0555556
        k(   26) = (   0.0252881   0.0280101   0.0000000), wk =   0.0555556
        k(   27) = (   0.0252881   0.0560203   0.0000000), wk =   0.0555556
        k(   28) = (   0.0252881  -0.0840304   0.0000000), wk =   0.0555556
        k(   29) = (   0.0505763   0.0000000   0.0000000), wk =   0.0555556
        k(   30) = (   0.0505763   0.0280101   0.0000000), wk =   0.0555556
        k(   31) = (   0.0505763   0.0560203   0.0000000), wk =   0.0555556
        k(   32) = (   0.0505763  -0.0840304   0.0000000), wk =   0.0555556
        k(   33) = (  -0.0758644   0.0000000   0.0000000), wk =   0.0277778
        k(   34) = (  -0.0758644   0.0280101   0.0000000), wk =   0.0555556
        k(   35) = (  -0.0758644   0.0560203   0.0000000), wk =   0.0555556
        k(   36) = (  -0.0758644  -0.0840304   0.0000000), wk =   0.0277778
        k(   37) = (  -0.0252881   0.0280101   0.0000000), wk =   0.0555556
        k(   38) = (  -0.0252881   0.0560203   0.0000000), wk =   0.0555556
        k(   39) = (  -0.0505763   0.0280101   0.0000000), wk =   0.0555556
        k(   40) = (  -0.0505763   0.0560203   0.0000000), wk =   0.0555556

     Dense  grid:  1096637 G-vectors     FFT dimensions: (  80,  72, 375)

     Smooth grid:   277353 G-vectors     FFT dimensions: (  54,  45, 240)

     Largest allocated arrays     est. size (Mb)     dimensions
        Kohn-Sham Wavefunctions         9.95 Mb     (    2180,  299)
        NL pseudopotentials            18.89 Mb     (    2180,  568)
        Each V/rho on FFT grid          4.22 Mb     (  138240,   2)
        Each G-vector array             0.52 Mb     (   68538)
        G-vector shells                 0.25 Mb     (   33046)
     Largest temporary arrays     est. size (Mb)     dimensions
        Auxiliary wavefunctions        39.78 Mb     (    2180, 1196)
        Each subspace H/S matrix       21.83 Mb     (    1196, 1196)
        Each <psi_i|beta_j> matrix      2.59 Mb     (     568,  299)
        Arrays for rho mixing          21.09 Mb     (  138240,   10)

     Check: negative/imaginary core charge=   -0.000049    0.000000

     The initial density is read from file :
     ./calc.save/charge-density.dat


     negative rho (up, down):  1.189E-02 1.196E-02


     ************************************************************************
     *
     * You are using vdW-DF for exchange-correlation in this calculation.
     * Please cite the following three references that made this development
     * possible:
     *
     *   M. Dion, H. Rydberg, E. Schroder, D. C. Langreth, and
     *   B. I. Lundqvist, Phys. Rev. Lett. 92, 246401 (2004).
     *
     *   T. Thonhauser, V. R. Cooper, S. Li, A. Puzder, P. Hyldgaard, and
     *   D. C. Langreth, Phys. Rev. B 76, 125112 (2007).
     *
     *   G. Roman-Perez and J. M. Soler, Phys. Rev. Lett. 103, 096102 (2009).
     *
     *
     * If you are using vdW-DF2, please also cite:
     *
     *   K. Lee, E. D. Murray, L. Kong, B. I. Lundqvist, and
     *   D. C. Langreth, Phys. Rev. B 82, 081101(R) (2010).
     *
     *
     * If you are calculating the stress with vdW-DF, please also cite:
     *
     *   R. Sabatini, E. Kucukbenli, B. Kolb, T. Thonhauser, and
     *   S. de Gironcoli, J. Phys.: Condens. Matter 24, 424209 (2012).
     *
     ************************************************************************

     Carrying out vdW-DF run using the following parameters:

     Nqs =      20    Nr_points =    1024   r_max =   100.000
     q_mesh =
               0.00001000     0.04494208     0.09755937     0.15916263
               0.23128650     0.31572767     0.41458969     0.53033537
               0.66584808     0.82450364     1.01025438     1.22772762
               1.48234092     1.78043706     2.12944203     2.53805004
               3.01644009     3.57652955     4.23227104     5.00000000

     Gradients computed in reciprocal space

     ************************************************************************


     Starting wfc are  300 randomized atomic wfcs

     total cpu time spent up to now is       77.1 secs

     Self-consistent Calculation

     iteration #  1     ecut=    40.42 Ry     beta=0.10
     Davidson diagonalization with overlap
     ethr =  1.00E-05,  avg # of iterations = 15.4

     negative rho (up, down):  1.190E-02 1.196E-02
 
     Magnetic moment per site:
     atom:    1    charge:    3.1243    magn:   -0.0003    constr:    0.0000
     atom:    2    charge:    2.0892    magn:    0.0003    constr:    0.0000
     atom:    3    charge:    3.1198    magn:   -0.0000    constr:    0.0000
     atom:    4    charge:    2.0867    magn:   -0.0000    constr:    0.0000
     atom:    5    charge:    3.1161    magn:   -0.0002    constr:    0.0000
     atom:    6    charge:    2.0801    magn:    0.0020    constr:    0.0000
     atom:    7    charge:    3.1168    magn:   -0.0053    constr:    0.0000
     atom:    8    charge:    2.0794    magn:    0.0250    constr:    0.0000
     atom:    9    charge:    3.1243    magn:   -0.0003    constr:    0.0000
     atom:   10    charge:    2.0893    magn:    0.0004    constr:    0.0000
     atom:   11    charge:    3.1198    magn:   -0.0000    constr:    0.0000
     atom:   12    charge:    2.0870    magn:   -0.0000    constr:    0.0000
     atom:   13    charge:    3.1150    magn:   -0.0002    constr:    0.0000
     atom:   14    charge:    2.0941    magn:    0.0022    constr:    0.0000
     atom:   15    charge:    3.1186    magn:   -0.0008    constr:    0.0000
     atom:   16    charge:    2.0834    magn:    0.0045    constr:    0.0000
     atom:   17    charge:    2.0597    magn:    0.0018    constr:    0.0000
     atom:   18    charge:    3.1238    magn:   -0.0001    constr:    0.0000
     atom:   19    charge:    2.0875    magn:    0.0001    constr:    0.0000
     atom:   20    charge:    2.0845    magn:    0.0002    constr:    0.0000
     atom:   21    charge:    2.0845    magn:    0.0002    constr:    0.0000
     atom:   22    charge:    3.1199    magn:    0.0000    constr:    0.0000
     atom:   23    charge:    2.0909    magn:    0.0002    constr:    0.0000
     atom:   24    charge:    2.0757    magn:   -0.0002    constr:    0.0000
     atom:   25    charge:    2.0867    magn:    0.0000    constr:    0.0000
     atom:   26    charge:    3.1126    magn:   -0.0002    constr:    0.0000
     atom:   27    charge:    2.0810    magn:    0.0024    constr:    0.0000
     atom:   28    charge:    2.0844    magn:    0.0006    constr:    0.0000
     atom:   29    charge:    2.0865    magn:    0.0007    constr:    0.0000
     atom:   30    charge:    3.1171    magn:   -0.0008    constr:    0.0000
     atom:   31    charge:    2.0826    magn:    0.0006    constr:    0.0000
     atom:   32    charge:    2.0835    magn:    0.0063    constr:    0.0000
     atom:   33    charge:    2.0597    magn:    0.0018    constr:    0.0000
     atom:   34    charge:    3.1238    magn:   -0.0001    constr:    0.0000
     atom:   35    charge:    2.0875    magn:    0.0001    constr:    0.0000
     atom:   36    charge:    2.0845    magn:    0.0002    constr:    0.0000
     atom:   37    charge:    2.0845    magn:    0.0002    constr:    0.0000
     atom:   38    charge:    3.1199    magn:    0.0000    constr:    0.0000
     atom:   39    charge:    2.0840    magn:    0.0002    constr:    0.0000
     atom:   40    charge:    2.0760    magn:   -0.0003    constr:    0.0000
     atom:   41    charge:    2.0870    magn:   -0.0000    constr:    0.0000
     atom:   42    charge:    3.1151    magn:   -0.0002    constr:    0.0000
     atom:   43    charge:    2.0811    magn:    0.0030    constr:    0.0000
     atom:   44    charge:    2.0856    magn:    0.0008    constr:    0.0000
     atom:   45    charge:    2.0863    magn:    0.0004    constr:    0.0000
     atom:   46    charge:    3.1149    magn:   -0.0007    constr:    0.0000
     atom:   47    charge:    2.0811    magn:    0.0046    constr:    0.0000
     atom:   48    charge:    2.0843    magn:    0.0136    constr:    0.0000
     atom:   49    charge:    2.0521    magn:    0.2396    constr:    0.0000
     atom:   50    charge:    0.6707    magn:    0.0557    constr:    0.0000
     atom:   51    charge:    0.4241    magn:    0.0010    constr:    0.0000
     atom:   52    charge:    0.4202    magn:    0.0008    constr:    0.0000
     atom:   53    charge:    0.3692    magn:    0.0232    constr:    0.0000
     atom:   54    charge:    0.4217    magn:    0.0007    constr:    0.0000

     total cpu time spent up to now is     1050.6 secs

     total energy              =   -3021.14337938 Ry
     Harris-Foulkes estimate   =   -3021.15931647 Ry
     estimated scf accuracy    <       0.08931652 Ry

     total magnetization       =     1.03 Bohr mag/cell
     absolute magnetization    =     1.20 Bohr mag/cell

     iteration #  2     ecut=    40.42 Ry     beta=0.10
     Davidson diagonalization with overlap
     ethr =  2.24E-05,  avg # of iterations =  7.1

     negative rho (up, down):  1.190E-02 1.196E-02
 
     Magnetic moment per site:
     atom:    1    charge:    3.1243    magn:   -0.0003    constr:    0.0000
     atom:    2    charge:    2.0896    magn:    0.0003    constr:    0.0000
     atom:    3    charge:    3.1198    magn:   -0.0000    constr:    0.0000
     atom:    4    charge:    2.0868    magn:   -0.0000    constr:    0.0000
     atom:    5    charge:    3.1161    magn:   -0.0002    constr:    0.0000
     atom:    6    charge:    2.0796    magn:    0.0020    constr:    0.0000
     atom:    7    charge:    3.1168    magn:   -0.0053    constr:    0.0000
     atom:    8    charge:    2.0790    magn:    0.0251    constr:    0.0000
     atom:    9    charge:    3.1243    magn:   -0.0003    constr:    0.0000
     atom:   10    charge:    2.0897    magn:    0.0003    constr:    0.0000
     atom:   11    charge:    3.1198    magn:   -0.0000    constr:    0.0000
     atom:   12    charge:    2.0872    magn:   -0.0000    constr:    0.0000
     atom:   13    charge:    3.1150    magn:   -0.0002    constr:    0.0000
     atom:   14    charge:    2.0938    magn:    0.0022    constr:    0.0000
     atom:   15    charge:    3.1185    magn:   -0.0008    constr:    0.0000
     atom:   16    charge:    2.0828    magn:    0.0046    constr:    0.0000
     atom:   17    charge:    2.0615    magn:    0.0018    constr:    0.0000
     atom:   18    charge:    3.1239    magn:   -0.0001    constr:    0.0000
     atom:   19    charge:    2.0876    magn:    0.0001    constr:    0.0000
     atom:   20    charge:    2.0847    magn:    0.0002    constr:    0.0000
     atom:   21    charge:    2.0847    magn:    0.0002    constr:    0.0000
     atom:   22    charge:    3.1200    magn:    0.0000    constr:    0.0000
     atom:   23    charge:    2.0909    magn:    0.0002    constr:    0.0000
     atom:   24    charge:    2.0755    magn:   -0.0002    constr:    0.0000
     atom:   25    charge:    2.0869    magn:    0.0000    constr:    0.0000
     atom:   26    charge:    3.1127    magn:   -0.0002    constr:    0.0000
     atom:   27    charge:    2.0803    magn:    0.0024    constr:    0.0000
     atom:   28    charge:    2.0840    magn:    0.0006    constr:    0.0000
     atom:   29    charge:    2.0862    magn:    0.0007    constr:    0.0000
     atom:   30    charge:    3.1171    magn:   -0.0008    constr:    0.0000
     atom:   31    charge:    2.0824    magn:    0.0006    constr:    0.0000
     atom:   32    charge:    2.0829    magn:    0.0064    constr:    0.0000
     atom:   33    charge:    2.0615    magn:    0.0018    constr:    0.0000
     atom:   34    charge:    3.1239    magn:   -0.0001    constr:    0.0000
     atom:   35    charge:    2.0876    magn:    0.0001    constr:    0.0000
     atom:   36    charge:    2.0847    magn:    0.0002    constr:    0.0000
     atom:   37    charge:    2.0847    magn:    0.0002    constr:    0.0000
     atom:   38    charge:    3.1200    magn:    0.0000    constr:    0.0000
     atom:   39    charge:    2.0841    magn:    0.0002    constr:    0.0000
     atom:   40    charge:    2.0758    magn:   -0.0003    constr:    0.0000
     atom:   41    charge:    2.0872    magn:   -0.0000    constr:    0.0000
     atom:   42    charge:    3.1151    magn:   -0.0002    constr:    0.0000
     atom:   43    charge:    2.0803    magn:    0.0030    constr:    0.0000
     atom:   44    charge:    2.0852    magn:    0.0008    constr:    0.0000
     atom:   45    charge:    2.0860    magn:    0.0004    constr:    0.0000
     atom:   46    charge:    3.1148    magn:   -0.0007    constr:    0.0000
     atom:   47    charge:    2.0808    magn:    0.0046    constr:    0.0000
     atom:   48    charge:    2.0840    magn:    0.0136    constr:    0.0000
     atom:   49    charge:    2.0516    magn:    0.2400    constr:    0.0000
     atom:   50    charge:    0.6708    magn:    0.0556    constr:    0.0000
     atom:   51    charge:    0.4247    magn:    0.0010    constr:    0.0000
     atom:   52    charge:    0.4194    magn:    0.0008    constr:    0.0000
     atom:   53    charge:    0.3698    magn:    0.0231    constr:    0.0000
     atom:   54    charge:    0.4212    magn:    0.0007    constr:    0.0000

     total cpu time spent up to now is     1361.8 secs

     total energy              =   -3021.15071209 Ry
     Harris-Foulkes estimate   =   -3021.16362642 Ry
     estimated scf accuracy    <       0.16670417 Ry

     total magnetization       =     1.10 Bohr mag/cell
     absolute magnetization    =     1.26 Bohr mag/cell

     iteration #  3     ecut=    40.42 Ry     beta=0.10
     Davidson diagonalization with overlap
     ethr =  2.24E-05,  avg # of iterations =  5.8

     negative rho (up, down):  1.190E-02 1.196E-02
 
     Magnetic moment per site:
     atom:    1    charge:    3.1244    magn:   -0.0003    constr:    0.0000
     atom:    2    charge:    2.0897    magn:    0.0003    constr:    0.0000
     atom:    3    charge:    3.1198    magn:   -0.0000    constr:    0.0000
     atom:    4    charge:    2.0867    magn:   -0.0001    constr:    0.0000
     atom:    5    charge:    3.1161    magn:   -0.0002    constr:    0.0000
     atom:    6    charge:    2.0795    magn:    0.0020    constr:    0.0000
     atom:    7    charge:    3.1168    magn:   -0.0054    constr:    0.0000
     atom:    8    charge:    2.0791    magn:    0.0251    constr:    0.0000
     atom:    9    charge:    3.1244    magn:   -0.0003    constr:    0.0000
     atom:   10    charge:    2.0898    magn:    0.0003    constr:    0.0000
     atom:   11    charge:    3.1198    magn:   -0.0000    constr:    0.0000
     atom:   12    charge:    2.0870    magn:   -0.0000    constr:    0.0000
     atom:   13    charge:    3.1150    magn:   -0.0002    constr:    0.0000
     atom:   14    charge:    2.0938    magn:    0.0022    constr:    0.0000
     atom:   15    charge:    3.1185    magn:   -0.0008    constr:    0.0000
     atom:   16    charge:    2.0829    magn:    0.0046    constr:    0.0000
     atom:   17    charge:    2.0625    magn:    0.0017    constr:    0.0000
     atom:   18    charge:    3.1239    magn:   -0.0001    constr:    0.0000
     atom:   19    charge:    2.0875    magn:    0.0001    constr:    0.0000
     atom:   20    charge:    2.0847    magn:    0.0002    constr:    0.0000
     atom:   21    charge:    2.0847    magn:    0.0002    constr:    0.0000
     atom:   22    charge:    3.1199    magn:    0.0000    constr:    0.0000
     atom:   23    charge:    2.0907    magn:    0.0002    constr:    0.0000
     atom:   24    charge:    2.0752    magn:   -0.0002    constr:    0.0000
     atom:   25    charge:    2.0867    magn:    0.0000    constr:    0.0000
     atom:   26    charge:    3.1126    magn:   -0.0002    constr:    0.0000
     atom:   27    charge:    2.0802    magn:    0.0025    constr:    0.0000
     atom:   28    charge:    2.0838    magn:    0.0006    constr:    0.0000
     atom:   29    charge:    2.0860    magn:    0.0008    constr:    0.0000
     atom:   30    charge:    3.1171    magn:   -0.0008    constr:    0.0000
     atom:   31    charge:    2.0825    magn:    0.0006    constr:    0.0000
     atom:   32    charge:    2.0830    magn:    0.0064    constr:    0.0000
     atom:   33    charge:    2.0625    magn:    0.0017    constr:    0.0000
     atom:   34    charge:    3.1239    magn:   -0.0001    constr:    0.0000
     atom:   35    charge:    2.0875    magn:    0.0001    constr:    0.0000
     atom:   36    charge:    2.0847    magn:    0.0002    constr:    0.0000
     atom:   37    charge:    2.0847    magn:    0.0002    constr:    0.0000
     atom:   38    charge:    3.1200    magn:    0.0000    constr:    0.0000
     atom:   39    charge:    2.0838    magn:    0.0002    constr:    0.0000
     atom:   40    charge:    2.0755    magn:   -0.0003    constr:    0.0000
     atom:   41    charge:    2.0870    magn:   -0.0000    constr:    0.0000
     atom:   42    charge:    3.1151    magn:   -0.0002    constr:    0.0000
     atom:   43    charge:    2.0803    magn:    0.0030    constr:    0.0000
     atom:   44    charge:    2.0850    magn:    0.0008    constr:    0.0000
     atom:   45    charge:    2.0858    magn:    0.0004    constr:    0.0000
     atom:   46    charge:    3.1148    magn:   -0.0007    constr:    0.0000
     atom:   47    charge:    2.0808    magn:    0.0046    constr:    0.0000
     atom:   48    charge:    2.0840    magn:    0.0136    constr:    0.0000
     atom:   49    charge:    2.0516    magn:    0.2402    constr:    0.0000
     atom:   50    charge:    0.6709    magn:    0.0554    constr:    0.0000
     atom:   51    charge:    0.4258    magn:    0.0010    constr:    0.0000
     atom:   52    charge:    0.4182    magn:    0.0009    constr:    0.0000
     atom:   53    charge:    0.3706    magn:    0.0231    constr:    0.0000
     atom:   54    charge:    0.4205    magn:    0.0007    constr:    0.0000

     total cpu time spent up to now is     1647.5 secs

     total energy              =   -3021.15172097 Ry
     Harris-Foulkes estimate   =   -3021.15419130 Ry
     estimated scf accuracy    <       0.02638566 Ry

     total magnetization       =     1.06 Bohr mag/cell
     absolute magnetization    =     1.23 Bohr mag/cell

     iteration #  4     ecut=    40.42 Ry     beta=0.10
     Davidson diagonalization with overlap
     ethr =  6.63E-06,  avg # of iterations =  5.3

     negative rho (up, down):  1.190E-02 1.196E-02
 
     Magnetic moment per site:
     atom:    1    charge:    3.1246    magn:   -0.0003    constr:    0.0000
     atom:    2    charge:    2.0900    magn:    0.0003    constr:    0.0000
     atom:    3    charge:    3.1198    magn:   -0.0000    constr:    0.0000
     atom:    4    charge:    2.0866    magn:   -0.0001    constr:    0.0000
     atom:    5    charge:    3.1161    magn:   -0.0002    constr:    0.0000
     atom:    6    charge:    2.0792    magn:    0.0021    constr:    0.0000
     atom:    7    charge:    3.1168    magn:   -0.0054    constr:    0.0000
     atom:    8    charge:    2.0791    magn:    0.0254    constr:    0.0000
     atom:    9    charge:    3.1246    magn:   -0.0003    constr:    0.0000
     atom:   10    charge:    2.0901    magn:    0.0003    constr:    0.0000
     atom:   11    charge:    3.1198    magn:   -0.0000    constr:    0.0000
     atom:   12    charge:    2.0869    magn:   -0.0000    constr:    0.0000
     atom:   13    charge:    3.1150    magn:   -0.0002    constr:    0.0000
     atom:   14    charge:    2.0938    magn:    0.0023    constr:    0.0000
     atom:   15    charge:    3.1184    magn:   -0.0008    constr:    0.0000
     atom:   16    charge:    2.0827    magn:    0.0046    constr:    0.0000
     atom:   17    charge:    2.0642    magn:    0.0015    constr:    0.0000
     atom:   18    charge:    3.1239    magn:   -0.0001    constr:    0.0000
     atom:   19    charge:    2.0876    magn:    0.0001    constr:    0.0000
     atom:   20    charge:    2.0848    magn:    0.0001    constr:    0.0000
     atom:   21    charge:    2.0848    magn:    0.0001    constr:    0.0000
     atom:   22    charge:    3.1199    magn:    0.0000    constr:    0.0000
     atom:   23    charge:    2.0906    magn:    0.0002    constr:    0.0000
     atom:   24    charge:    2.0750    magn:   -0.0001    constr:    0.0000
     atom:   25    charge:    2.0866    magn:    0.0000    constr:    0.0000
     atom:   26    charge:    3.1127    magn:   -0.0002    constr:    0.0000
     atom:   27    charge:    2.0800    magn:    0.0025    constr:    0.0000
     atom:   28    charge:    2.0835    magn:    0.0006    constr:    0.0000
     atom:   29    charge:    2.0856    magn:    0.0008    constr:    0.0000
     atom:   30    charge:    3.1172    magn:   -0.0008    constr:    0.0000
     atom:   31    charge:    2.0822    magn:    0.0006    constr:    0.0000
     atom:   32    charge:    2.0828    magn:    0.0065    constr:    0.0000
     atom:   33    charge:    2.0642    magn:    0.0015    constr:    0.0000
     atom:   34    charge:    3.1239    magn:   -0.0001    constr:    0.0000
     atom:   35    charge:    2.0876    magn:    0.0001    constr:    0.0000
     atom:   36    charge:    2.0848    magn:    0.0001    constr:    0.0000
     atom:   37    charge:    2.0848    magn:    0.0001    constr:    0.0000
     atom:   38    charge:    3.1199    magn:    0.0000    constr:    0.0000
     atom:   39    charge:    2.0836    magn:    0.0002    constr:    0.0000
     atom:   40    charge:    2.0753    magn:   -0.0002    constr:    0.0000
     atom:   41    charge:    2.0868    magn:   -0.0000    constr:    0.0000
     atom:   42    charge:    3.1151    magn:   -0.0002    constr:    0.0000
     atom:   43    charge:    2.0800    magn:    0.0031    constr:    0.0000
     atom:   44    charge:    2.0846    magn:    0.0009    constr:    0.0000
     atom:   45    charge:    2.0854    magn:    0.0004    constr:    0.0000
     atom:   46    charge:    3.1148    magn:   -0.0007    constr:    0.0000
     atom:   47    charge:    2.0804    magn:    0.0047    constr:    0.0000
     atom:   48    charge:    2.0838    magn:    0.0136    constr:    0.0000
     atom:   49    charge:    2.0508    magn:    0.2415    constr:    0.0000
     atom:   50    charge:    0.6716    magn:    0.0545    constr:    0.0000
     atom:   51    charge:    0.4320    magn:    0.0011    constr:    0.0000
     atom:   52    charge:    0.4110    magn:    0.0010    constr:    0.0000
     atom:   53    charge:    0.3755    magn:    0.0231    constr:    0.0000
     atom:   54    charge:    0.4164    magn:    0.0008    constr:    0.0000

     total cpu time spent up to now is     1921.5 secs

     total energy              =   -3021.14789607 Ry
     Harris-Foulkes estimate   =   -3021.15250683 Ry
     estimated scf accuracy    <       0.01048820 Ry

     total magnetization       =     1.06 Bohr mag/cell
     absolute magnetization    =     1.23 Bohr mag/cell

     iteration #  5     ecut=    40.42 Ry     beta=0.10
     Davidson diagonalization with overlap
     ethr =  2.64E-06,  avg # of iterations =  7.8

     negative rho (up, down):  1.190E-02 1.196E-02
 
     Magnetic moment per site:
     atom:    1    charge:    3.1245    magn:   -0.0003    constr:    0.0000
     atom:    2    charge:    2.0898    magn:    0.0003    constr:    0.0000
     atom:    3    charge:    3.1198    magn:   -0.0000    constr:    0.0000
     atom:    4    charge:    2.0868    magn:   -0.0001    constr:    0.0000
     atom:    5    charge:    3.1161    magn:   -0.0002    constr:    0.0000
     atom:    6    charge:    2.0793    magn:    0.0021    constr:    0.0000
     atom:    7    charge:    3.1167    magn:   -0.0054    constr:    0.0000
     atom:    8    charge:    2.0792    magn:    0.0254    constr:    0.0000
     atom:    9    charge:    3.1245    magn:   -0.0003    constr:    0.0000
     atom:   10    charge:    2.0900    magn:    0.0003    constr:    0.0000
     atom:   11    charge:    3.1198    magn:   -0.0000    constr:    0.0000
     atom:   12    charge:    2.0871    magn:   -0.0000    constr:    0.0000
     atom:   13    charge:    3.1150    magn:   -0.0002    constr:    0.0000
     atom:   14    charge:    2.0939    magn:    0.0023    constr:    0.0000
     atom:   15    charge:    3.1184    magn:   -0.0008    constr:    0.0000
     atom:   16    charge:    2.0827    magn:    0.0046    constr:    0.0000
     atom:   17    charge:    2.0629    magn:    0.0015    constr:    0.0000
     atom:   18    charge:    3.1240    magn:   -0.0001    constr:    0.0000
     atom:   19    charge:    2.0876    magn:    0.0001    constr:    0.0000
     atom:   20    charge:    2.0848    magn:    0.0001    constr:    0.0000
     atom:   21    charge:    2.0848    magn:    0.0001    constr:    0.0000
     atom:   22    charge:    3.1199    magn:    0.0000    constr:    0.0000
     atom:   23    charge:    2.0908    magn:    0.0002    constr:    0.0000
     atom:   24    charge:    2.0753    magn:   -0.0001    constr:    0.0000
     atom:   25    charge:    2.0868    magn:    0.0000    constr:    0.0000
     atom:   26    charge:    3.1127    magn:   -0.0002    constr:    0.0000
     atom:   27    charge:    2.0801    magn:    0.0025    constr:    0.0000
     atom:   28    charge:    2.0837    magn:    0.0006    constr:    0.0000
     atom:   29    charge:    2.0859    magn:    0.0008    constr:    0.0000
     atom:   30    charge:    3.1172    magn:   -0.0008    constr:    0.0000
     atom:   31    charge:    2.0823    magn:    0.0006    constr:    0.0000
     atom:   32    charge:    2.0828    magn:    0.0065    constr:    0.0000
     atom:   33    charge:    2.0629    magn:    0.0015    constr:    0.0000
     atom:   34    charge:    3.1240    magn:   -0.0001    constr:    0.0000
     atom:   35    charge:    2.0876    magn:    0.0001    constr:    0.0000
     atom:   36    charge:    2.0848    magn:    0.0001    constr:    0.0000
     atom:   37    charge:    2.0847    magn:    0.0001    constr:    0.0000
     atom:   38    charge:    3.1200    magn:    0.0000    constr:    0.0000
     atom:   39    charge:    2.0839    magn:    0.0002    constr:    0.0000
     atom:   40    charge:    2.0756    magn:   -0.0002    constr:    0.0000
     atom:   41    charge:    2.0871    magn:   -0.0000    constr:    0.0000
     atom:   42    charge:    3.1152    magn:   -0.0002    constr:    0.0000
     atom:   43    charge:    2.0801    magn:    0.0031    constr:    0.0000
     atom:   44    charge:    2.0849    magn:    0.0009    constr:    0.0000
     atom:   45    charge:    2.0857    magn:    0.0004    constr:    0.0000
     atom:   46    charge:    3.1148    magn:   -0.0007    constr:    0.0000
     atom:   47    charge:    2.0804    magn:    0.0047    constr:    0.0000
     atom:   48    charge:    2.0837    magn:    0.0136    constr:    0.0000
     atom:   49    charge:    2.0511    magn:    0.2417    constr:    0.0000
     atom:   50    charge:    0.6716    magn:    0.0542    constr:    0.0000
     atom:   51    charge:    0.4330    magn:    0.0011    constr:    0.0000
     atom:   52    charge:    0.4100    magn:    0.0010    constr:    0.0000
     atom:   53    charge:    0.3762    magn:    0.0231    constr:    0.0000
     atom:   54    charge:    0.4159    magn:    0.0008    constr:    0.0000

     total cpu time spent up to now is     2276.3 secs

     total energy              =   -3021.14573932 Ry
     Harris-Foulkes estimate   =   -3021.15113118 Ry
     estimated scf accuracy    <       0.10091918 Ry

     total magnetization       =     1.04 Bohr mag/cell
     absolute magnetization    =     1.21 Bohr mag/cell

     iteration #  6     ecut=    40.42 Ry     beta=0.10
     Davidson diagonalization with overlap
     ethr =  2.64E-06,  avg # of iterations =  6.3

     negative rho (up, down):  1.190E-02 1.196E-02
 
     Magnetic moment per site:
     atom:    1    charge:    3.1244    magn:   -0.0002    constr:    0.0000
     atom:    2    charge:    2.0897    magn:    0.0002    constr:    0.0000
     atom:    3    charge:    3.1198    magn:   -0.0000    constr:    0.0000
     atom:    4    charge:    2.0868    magn:   -0.0001    constr:    0.0000
     atom:    5    charge:    3.1161    magn:   -0.0002    constr:    0.0000
     atom:    6    charge:    2.0795    magn:    0.0021    constr:    0.0000
     atom:    7    charge:    3.1166    magn:   -0.0054    constr:    0.0000
     atom:    8    charge:    2.0793    magn:    0.0254    constr:    0.0000
     atom:    9    charge:    3.1244    magn:   -0.0002    constr:    0.0000
     atom:   10    charge:    2.0899    magn:    0.0003    constr:    0.0000
     atom:   11    charge:    3.1198    magn:   -0.0000    constr:    0.0000
     atom:   12    charge:    2.0871    magn:   -0.0000    constr:    0.0000
     atom:   13    charge:    3.1150    magn:   -0.0002    constr:    0.0000
     atom:   14    charge:    2.0940    magn:    0.0023    constr:    0.0000
     atom:   15    charge:    3.1183    magn:   -0.0008    constr:    0.0000
     atom:   16    charge:    2.0827    magn:    0.0046    constr:    0.0000
     atom:   17    charge:    2.0626    magn:    0.0014    constr:    0.0000
     atom:   18    charge:    3.1240    magn:   -0.0001    constr:    0.0000
     atom:   19    charge:    2.0875    magn:    0.0001    constr:    0.0000
     atom:   20    charge:    2.0847    magn:    0.0001    constr:    0.0000
     atom:   21    charge:    2.0847    magn:    0.0001    constr:    0.0000
     atom:   22    charge:    3.1199    magn:    0.0000    constr:    0.0000
     atom:   23    charge:    2.0909    magn:    0.0002    constr:    0.0000
     atom:   24    charge:    2.0754    magn:   -0.0001    constr:    0.0000
     atom:   25    charge:    2.0868    magn:    0.0000    constr:    0.0000
     atom:   26    charge:    3.1127    magn:   -0.0002    constr:    0.0000
     atom:   27    charge:    2.0802    magn:    0.0026    constr:    0.0000
     atom:   28    charge:    2.0839    magn:    0.0006    constr:    0.0000
     atom:   29    charge:    2.0860    magn:    0.0008    constr:    0.0000
     atom:   30    charge:    3.1172    magn:   -0.0008    constr:    0.0000
     atom:   31    charge:    2.0824    magn:    0.0006    constr:    0.0000
     atom:   32    charge:    2.0828    magn:    0.0065    constr:    0.0000
     atom:   33    charge:    2.0625    magn:    0.0014    constr:    0.0000
     atom:   34    charge:    3.1240    magn:   -0.0001    constr:    0.0000
     atom:   35    charge:    2.0875    magn:    0.0001    constr:    0.0000
     atom:   36    charge:    2.0847    magn:    0.0001    constr:    0.0000
     atom:   37    charge:    2.0847    magn:    0.0001    constr:    0.0000
     atom:   38    charge:    3.1200    magn:    0.0000    constr:    0.0000
     atom:   39    charge:    2.0840    magn:    0.0002    constr:    0.0000
     atom:   40    charge:    2.0757    magn:   -0.0002    constr:    0.0000
     atom:   41    charge:    2.0871    magn:   -0.0000    constr:    0.0000
     atom:   42    charge:    3.1151    magn:   -0.0002    constr:    0.0000
     atom:   43    charge:    2.0802    magn:    0.0031    constr:    0.0000
     atom:   44    charge:    2.0851    magn:    0.0009    constr:    0.0000
     atom:   45    charge:    2.0859    magn:    0.0004    constr:    0.0000
     atom:   46    charge:    3.1147    magn:   -0.0007    constr:    0.0000
     atom:   47    charge:    2.0804    magn:    0.0047    constr:    0.0000
     atom:   48    charge:    2.0834    magn:    0.0137    constr:    0.0000
     atom:   49    charge:    2.0513    magn:    0.2420    constr:    0.0000
     atom:   50    charge:    0.6715    magn:    0.0541    constr:    0.0000
     atom:   51    charge:    0.4331    magn:    0.0011    constr:    0.0000
     atom:   52    charge:    0.4101    magn:    0.0010    constr:    0.0000
     atom:   53    charge:    0.3761    magn:    0.0231    constr:    0.0000
     atom:   54    charge:    0.4159    magn:    0.0008    constr:    0.0000

     total cpu time spent up to now is     2572.0 secs

     total energy              =   -3021.14848721 Ry
     Harris-Foulkes estimate   =   -3021.14852927 Ry
     estimated scf accuracy    <       0.00052850 Ry

     total magnetization       =     1.07 Bohr mag/cell
     absolute magnetization    =     1.23 Bohr mag/cell

     iteration #  7     ecut=    40.42 Ry     beta=0.10
     Davidson diagonalization with overlap
     ethr =  1.33E-07,  avg # of iterations =  2.1

     negative rho (up, down):  1.190E-02 1.196E-02
 
     Magnetic moment per site:
     atom:    1    charge:    3.1245    magn:   -0.0002    constr:    0.0000
     atom:    2    charge:    2.0896    magn:    0.0002    constr:    0.0000
     atom:    3    charge:    3.1198    magn:   -0.0000    constr:    0.0000
     atom:    4    charge:    2.0867    magn:   -0.0001    constr:    0.0000
     atom:    5    charge:    3.1161    magn:   -0.0002    constr:    0.0000
     atom:    6    charge:    2.0795    magn:    0.0021    constr:    0.0000
     atom:    7    charge:    3.1166    magn:   -0.0055    constr:    0.0000
     atom:    8    charge:    2.0794    magn:    0.0255    constr:    0.0000
     atom:    9    charge:    3.1245    magn:   -0.0002    constr:    0.0000
     atom:   10    charge:    2.0898    magn:    0.0002    constr:    0.0000
     atom:   11    charge:    3.1198    magn:   -0.0000    constr:    0.0000
     atom:   12    charge:    2.0870    magn:   -0.0000    constr:    0.0000
     atom:   13    charge:    3.1150    magn:   -0.0002    constr:    0.0000
     atom:   14    charge:    2.0939    magn:    0.0023    constr:    0.0000
     atom:   15    charge:    3.1183    magn:   -0.0008    constr:    0.0000
     atom:   16    charge:    2.0828    magn:    0.0047    constr:    0.0000
     atom:   17    charge:    2.0627    magn:    0.0014    constr:    0.0000
     atom:   18    charge:    3.1240    magn:   -0.0001    constr:    0.0000
     atom:   19    charge:    2.0875    magn:    0.0001    constr:    0.0000
     atom:   20    charge:    2.0847    magn:    0.0001    constr:    0.0000
     atom:   21    charge:    2.0847    magn:    0.0001    constr:    0.0000
     atom:   22    charge:    3.1199    magn:    0.0000    constr:    0.0000
     atom:   23    charge:    2.0908    magn:    0.0002    constr:    0.0000
     atom:   24    charge:    2.0754    magn:   -0.0001    constr:    0.0000
     atom:   25    charge:    2.0867    magn:    0.0000    constr:    0.0000
     atom:   26    charge:    3.1127    magn:   -0.0002    constr:    0.0000
     atom:   27    charge:    2.0803    magn:    0.0026    constr:    0.0000
     atom:   28    charge:    2.0839    magn:    0.0007    constr:    0.0000
     atom:   29    charge:    2.0860    magn:    0.0008    constr:    0.0000
     atom:   30    charge:    3.1171    magn:   -0.0008    constr:    0.0000
     atom:   31    charge:    2.0825    magn:    0.0006    constr:    0.0000
     atom:   32    charge:    2.0828    magn:    0.0065    constr:    0.0000
     atom:   33    charge:    2.0627    magn:    0.0014    constr:    0.0000
     atom:   34    charge:    3.1240    magn:   -0.0001    constr:    0.0000
     atom:   35    charge:    2.0875    magn:    0.0000    constr:    0.0000
     atom:   36    charge:    2.0847    magn:    0.0001    constr:    0.0000
     atom:   37    charge:    2.0847    magn:    0.0001    constr:    0.0000
     atom:   38    charge:    3.1200    magn:    0.0000    constr:    0.0000
     atom:   39    charge:    2.0839    magn:    0.0002    constr:    0.0000
     atom:   40    charge:    2.0756    magn:   -0.0002    constr:    0.0000
     atom:   41    charge:    2.0870    magn:   -0.0000    constr:    0.0000
     atom:   42    charge:    3.1151    magn:   -0.0002    constr:    0.0000
     atom:   43    charge:    2.0803    magn:    0.0031    constr:    0.0000
     atom:   44    charge:    2.0851    magn:    0.0009    constr:    0.0000
     atom:   45    charge:    2.0859    magn:    0.0005    constr:    0.0000
     atom:   46    charge:    3.1147    magn:   -0.0007    constr:    0.0000
     atom:   47    charge:    2.0804    magn:    0.0047    constr:    0.0000
     atom:   48    charge:    2.0834    magn:    0.0137    constr:    0.0000
     atom:   49    charge:    2.0515    magn:    0.2422    constr:    0.0000
     atom:   50    charge:    0.6714    magn:    0.0539    constr:    0.0000
     atom:   51    charge:    0.4332    magn:    0.0011    constr:    0.0000
     atom:   52    charge:    0.4102    magn:    0.0010    constr:    0.0000
     atom:   53    charge:    0.3760    magn:    0.0232    constr:    0.0000
     atom:   54    charge:    0.4160    magn:    0.0008    constr:    0.0000

     total cpu time spent up to now is     2794.6 secs

     total energy              =   -3021.14839379 Ry
     Harris-Foulkes estimate   =   -3021.14857998 Ry
     estimated scf accuracy    <       0.00301809 Ry

     total magnetization       =     1.06 Bohr mag/cell
     absolute magnetization    =     1.23 Bohr mag/cell

     iteration #  8     ecut=    40.42 Ry     beta=0.10
     Davidson diagonalization with overlap
     ethr =  1.33E-07,  avg # of iterations =  1.0

     negative rho (up, down):  1.189E-02 1.195E-02
 
     Magnetic moment per site:
     atom:    1    charge:    3.1244    magn:   -0.0002    constr:    0.0000
     atom:    2    charge:    2.0896    magn:    0.0002    constr:    0.0000
     atom:    3    charge:    3.1198    magn:   -0.0000    constr:    0.0000
     atom:    4    charge:    2.0867    magn:   -0.0001    constr:    0.0000
     atom:    5    charge:    3.1161    magn:   -0.0003    constr:    0.0000
     atom:    6    charge:    2.0795    magn:    0.0021    constr:    0.0000
     atom:    7    charge:    3.1167    magn:   -0.0055    constr:    0.0000
     atom:    8    charge:    2.0792    magn:    0.0255    constr:    0.0000
     atom:    9    charge:    3.1244    magn:   -0.0002    constr:    0.0000
     atom:   10    charge:    2.0898    magn:    0.0002    constr:    0.0000
     atom:   11    charge:    3.1198    magn:   -0.0000    constr:    0.0000
     atom:   12    charge:    2.0870    magn:   -0.0000    constr:    0.0000
     atom:   13    charge:    3.1150    magn:   -0.0002    constr:    0.0000
     atom:   14    charge:    2.0939    magn:    0.0023    constr:    0.0000
     atom:   15    charge:    3.1183    magn:   -0.0008    constr:    0.0000
     atom:   16    charge:    2.0828    magn:    0.0047    constr:    0.0000
     atom:   17    charge:    2.0625    magn:    0.0012    constr:    0.0000
     atom:   18    charge:    3.1239    magn:   -0.0000    constr:    0.0000
     atom:   19    charge:    2.0876    magn:    0.0000    constr:    0.0000
     atom:   20    charge:    2.0847    magn:    0.0001    constr:    0.0000
     atom:   21    charge:    2.0847    magn:    0.0001    constr:    0.0000
     atom:   22    charge:    3.1199    magn:    0.0000    constr:    0.0000
     atom:   23    charge:    2.0908    magn:    0.0002    constr:    0.0000
     atom:   24    charge:    2.0753    magn:   -0.0001    constr:    0.0000
     atom:   25    charge:    2.0867    magn:    0.0000    constr:    0.0000
     atom:   26    charge:    3.1127    magn:   -0.0002    constr:    0.0000
     atom:   27    charge:    2.0803    magn:    0.0026    constr:    0.0000
     atom:   28    charge:    2.0839    magn:    0.0007    constr:    0.0000
     atom:   29    charge:    2.0860    magn:    0.0008    constr:    0.0000
     atom:   30    charge:    3.1171    magn:   -0.0008    constr:    0.0000
     atom:   31    charge:    2.0825    magn:    0.0006    constr:    0.0000
     atom:   32    charge:    2.0829    magn:    0.0065    constr:    0.0000
     atom:   33    charge:    2.0625    magn:    0.0012    constr:    0.0000
     atom:   34    charge:    3.1239    magn:   -0.0000    constr:    0.0000
     atom:   35    charge:    2.0876    magn:    0.0000    constr:    0.0000
     atom:   36    charge:    2.0847    magn:    0.0001    constr:    0.0000
     atom:   37    charge:    2.0847    magn:    0.0001    constr:    0.0000
     atom:   38    charge:    3.1200    magn:    0.0000    constr:    0.0000
     atom:   39    charge:    2.0839    magn:    0.0002    constr:    0.0000
     atom:   40    charge:    2.0756    magn:   -0.0002    constr:    0.0000
     atom:   41    charge:    2.0870    magn:   -0.0000    constr:    0.0000
     atom:   42    charge:    3.1151    magn:   -0.0002    constr:    0.0000
     atom:   43    charge:    2.0803    magn:    0.0031    constr:    0.0000
     atom:   44    charge:    2.0851    magn:    0.0009    constr:    0.0000
     atom:   45    charge:    2.0859    magn:    0.0005    constr:    0.0000
     atom:   46    charge:    3.1147    magn:   -0.0007    constr:    0.0000
     atom:   47    charge:    2.0806    magn:    0.0048    constr:    0.0000
     atom:   48    charge:    2.0836    magn:    0.0138    constr:    0.0000
     atom:   49    charge:    2.0517    magn:    0.2428    constr:    0.0000
     atom:   50    charge:    0.6712    magn:    0.0536    constr:    0.0000
     atom:   51    charge:    0.4331    magn:    0.0010    constr:    0.0000
     atom:   52    charge:    0.4107    magn:    0.0010    constr:    0.0000
     atom:   53    charge:    0.3757    magn:    0.0232    constr:    0.0000
     atom:   54    charge:    0.4163    magn:    0.0008    constr:    0.0000

     total cpu time spent up to now is     2996.9 secs

     total energy              =   -3021.14846053 Ry
     Harris-Foulkes estimate   =   -3021.14847439 Ry
     estimated scf accuracy    <       0.00006517 Ry

     total magnetization       =     1.06 Bohr mag/cell
     absolute magnetization    =     1.23 Bohr mag/cell

     iteration #  9     ecut=    40.42 Ry     beta=0.10
     Davidson diagonalization with overlap
     ethr =  1.64E-08,  avg # of iterations =  3.0

     negative rho (up, down):  1.189E-02 1.195E-02
 
     Magnetic moment per site:
     atom:    1    charge:    3.1244    magn:   -0.0002    constr:    0.0000
     atom:    2    charge:    2.0897    magn:    0.0002    constr:    0.0000
     atom:    3    charge:    3.1198    magn:   -0.0000    constr:    0.0000
     atom:    4    charge:    2.0867    magn:   -0.0001    constr:    0.0000
     atom:    5    charge:    3.1161    magn:   -0.0003    constr:    0.0000
     atom:    6    charge:    2.0795    magn:    0.0021    constr:    0.0000
     atom:    7    charge:    3.1167    magn:   -0.0055    constr:    0.0000
     atom:    8    charge:    2.0792    magn:    0.0256    constr:    0.0000
     atom:    9    charge:    3.1244    magn:   -0.0002    constr:    0.0000
     atom:   10    charge:    2.0898    magn:    0.0002    constr:    0.0000
     atom:   11    charge:    3.1198    magn:   -0.0000    constr:    0.0000
     atom:   12    charge:    2.0870    magn:   -0.0000    constr:    0.0000
     atom:   13    charge:    3.1150    magn:   -0.0002    constr:    0.0000
     atom:   14    charge:    2.0938    magn:    0.0023    constr:    0.0000
     atom:   15    charge:    3.1184    magn:   -0.0008    constr:    0.0000
     atom:   16    charge:    2.0828    magn:    0.0047    constr:    0.0000
     atom:   17    charge:    2.0624    magn:    0.0011    constr:    0.0000
     atom:   18    charge:    3.1239    magn:   -0.0000    constr:    0.0000
     atom:   19    charge:    2.0876    magn:    0.0000    constr:    0.0000
     atom:   20    charge:    2.0847    magn:    0.0001    constr:    0.0000
     atom:   21    charge:    2.0847    magn:    0.0001    constr:    0.0000
     atom:   22    charge:    3.1199    magn:    0.0000    constr:    0.0000
     atom:   23    charge:    2.0908    magn:    0.0003    constr:    0.0000
     atom:   24    charge:    2.0754    magn:   -0.0001    constr:    0.0000
     atom:   25    charge:    2.0867    magn:    0.0000    constr:    0.0000
     atom:   26    charge:    3.1127    magn:   -0.0003    constr:    0.0000
     atom:   27    charge:    2.0803    magn:    0.0026    constr:    0.0000
     atom:   28    charge:    2.0839    magn:    0.0007    constr:    0.0000
     atom:   29    charge:    2.0860    magn:    0.0009    constr:    0.0000
     atom:   30    charge:    3.1171    magn:   -0.0008    constr:    0.0000
     atom:   31    charge:    2.0825    magn:    0.0006    constr:    0.0000
     atom:   32    charge:    2.0829    magn:    0.0065    constr:    0.0000
     atom:   33    charge:    2.0624    magn:    0.0012    constr:    0.0000
     atom:   34    charge:    3.1239    magn:   -0.0000    constr:    0.0000
     atom:   35    charge:    2.0876    magn:    0.0000    constr:    0.0000
     atom:   36    charge:    2.0847    magn:    0.0001    constr:    0.0000
     atom:   37    charge:    2.0847    magn:    0.0001    constr:    0.0000
     atom:   38    charge:    3.1200    magn:    0.0000    constr:    0.0000
     atom:   39    charge:    2.0839    magn:    0.0002    constr:    0.0000
     atom:   40    charge:    2.0756    magn:   -0.0001    constr:    0.0000
     atom:   41    charge:    2.0870    magn:   -0.0000    constr:    0.0000
     atom:   42    charge:    3.1151    magn:   -0.0002    constr:    0.0000
     atom:   43    charge:    2.0803    magn:    0.0032    constr:    0.0000
     atom:   44    charge:    2.0851    magn:    0.0009    constr:    0.0000
     atom:   45    charge:    2.0858    magn:    0.0005    constr:    0.0000
     atom:   46    charge:    3.1148    magn:   -0.0007    constr:    0.0000
     atom:   47    charge:    2.0806    magn:    0.0048    constr:    0.0000
     atom:   48    charge:    2.0837    magn:    0.0138    constr:    0.0000
     atom:   49    charge:    2.0517    magn:    0.2430    constr:    0.0000
     atom:   50    charge:    0.6712    magn:    0.0534    constr:    0.0000
     atom:   51    charge:    0.4329    magn:    0.0010    constr:    0.0000
     atom:   52    charge:    0.4111    magn:    0.0010    constr:    0.0000
     atom:   53    charge:    0.3754    magn:    0.0233    constr:    0.0000
     atom:   54    charge:    0.4166    magn:    0.0008    constr:    0.0000

     total cpu time spent up to now is     3238.6 secs

     total energy              =   -3021.14846539 Ry
     Harris-Foulkes estimate   =   -3021.14846763 Ry
     estimated scf accuracy    <       0.00003563 Ry

     total magnetization       =     1.06 Bohr mag/cell
     absolute magnetization    =     1.23 Bohr mag/cell

     iteration # 10     ecut=    40.42 Ry     beta=0.10
     Davidson diagonalization with overlap
     ethr =  8.95E-09,  avg # of iterations =  2.2

     negative rho (up, down):  1.189E-02 1.195E-02
 
     Magnetic moment per site:
     atom:    1    charge:    3.1244    magn:   -0.0002    constr:    0.0000
     atom:    2    charge:    2.0897    magn:    0.0002    constr:    0.0000
     atom:    3    charge:    3.1198    magn:   -0.0000    constr:    0.0000
     atom:    4    charge:    2.0867    magn:   -0.0001    constr:    0.0000
     atom:    5    charge:    3.1161    magn:   -0.0003    constr:    0.0000
     atom:    6    charge:    2.0795    magn:    0.0021    constr:    0.0000
     atom:    7    charge:    3.1167    magn:   -0.0056    constr:    0.0000
     atom:    8    charge:    2.0792    magn:    0.0256    constr:    0.0000
     atom:    9    charge:    3.1244    magn:   -0.0002    constr:    0.0000
     atom:   10    charge:    2.0898    magn:    0.0002    constr:    0.0000
     atom:   11    charge:    3.1198    magn:   -0.0000    constr:    0.0000
     atom:   12    charge:    2.0870    magn:   -0.0000    constr:    0.0000
     atom:   13    charge:    3.1150    magn:   -0.0002    constr:    0.0000
     atom:   14    charge:    2.0939    magn:    0.0023    constr:    0.0000
     atom:   15    charge:    3.1184    magn:   -0.0008    constr:    0.0000
     atom:   16    charge:    2.0828    magn:    0.0047    constr:    0.0000
     atom:   17    charge:    2.0624    magn:    0.0011    constr:    0.0000
     atom:   18    charge:    3.1239    magn:   -0.0000    constr:    0.0000
     atom:   19    charge:    2.0876    magn:    0.0000    constr:    0.0000
     atom:   20    charge:    2.0847    magn:    0.0001    constr:    0.0000
     atom:   21    charge:    2.0847    magn:    0.0001    constr:    0.0000
     atom:   22    charge:    3.1199    magn:    0.0000    constr:    0.0000
     atom:   23    charge:    2.0908    magn:    0.0003    constr:    0.0000
     atom:   24    charge:    2.0754    magn:   -0.0000    constr:    0.0000
     atom:   25    charge:    2.0867    magn:    0.0000    constr:    0.0000
     atom:   26    charge:    3.1127    magn:   -0.0003    constr:    0.0000
     atom:   27    charge:    2.0802    magn:    0.0027    constr:    0.0000
     atom:   28    charge:    2.0839    magn:    0.0007    constr:    0.0000
     atom:   29    charge:    2.0860    magn:    0.0009    constr:    0.0000
     atom:   30    charge:    3.1171    magn:   -0.0008    constr:    0.0000
     atom:   31    charge:    2.0825    magn:    0.0006    constr:    0.0000
     atom:   32    charge:    2.0829    magn:    0.0065    constr:    0.0000
     atom:   33    charge:    2.0624    magn:    0.0011    constr:    0.0000
     atom:   34    charge:    3.1239    magn:   -0.0000    constr:    0.0000
     atom:   35    charge:    2.0876    magn:    0.0000    constr:    0.0000
     atom:   36    charge:    2.0847    magn:    0.0001    constr:    0.0000
     atom:   37    charge:    2.0847    magn:    0.0001    constr:    0.0000
     atom:   38    charge:    3.1200    magn:    0.0000    constr:    0.0000
     atom:   39    charge:    2.0839    magn:    0.0002    constr:    0.0000
     atom:   40    charge:    2.0756    magn:   -0.0001    constr:    0.0000
     atom:   41    charge:    2.0870    magn:   -0.0000    constr:    0.0000
     atom:   42    charge:    3.1151    magn:   -0.0002    constr:    0.0000
     atom:   43    charge:    2.0803    magn:    0.0032    constr:    0.0000
     atom:   44    charge:    2.0851    magn:    0.0010    constr:    0.0000
     atom:   45    charge:    2.0858    magn:    0.0005    constr:    0.0000
     atom:   46    charge:    3.1148    magn:   -0.0007    constr:    0.0000
     atom:   47    charge:    2.0806    magn:    0.0048    constr:    0.0000
     atom:   48    charge:    2.0837    magn:    0.0138    constr:    0.0000
     atom:   49    charge:    2.0518    magn:    0.2433    constr:    0.0000
     atom:   50    charge:    0.6712    magn:    0.0533    constr:    0.0000
     atom:   51    charge:    0.4328    magn:    0.0010    constr:    0.0000
     atom:   52    charge:    0.4113    magn:    0.0010    constr:    0.0000
     atom:   53    charge:    0.3754    magn:    0.0233    constr:    0.0000
     atom:   54    charge:    0.4166    magn:    0.0008    constr:    0.0000

     total cpu time spent up to now is     3462.1 secs

     total energy              =   -3021.14846528 Ry
     Harris-Foulkes estimate   =   -3021.14846670 Ry
     estimated scf accuracy    <       0.00002576 Ry

     total magnetization       =     1.06 Bohr mag/cell
     absolute magnetization    =     1.23 Bohr mag/cell

     iteration # 11     ecut=    40.42 Ry     beta=0.10
     Davidson diagonalization with overlap
     ethr =  6.47E-09,  avg # of iterations =  3.0

     negative rho (up, down):  1.189E-02 1.195E-02
 
     Magnetic moment per site:
     atom:    1    charge:    3.1244    magn:   -0.0002    constr:    0.0000
     atom:    2    charge:    2.0897    magn:    0.0001    constr:    0.0000
     atom:    3    charge:    3.1198    magn:   -0.0000    constr:    0.0000
     atom:    4    charge:    2.0867    magn:   -0.0001    constr:    0.0000
     atom:    5    charge:    3.1161    magn:   -0.0003    constr:    0.0000
     atom:    6    charge:    2.0795    magn:    0.0022    constr:    0.0000
     atom:    7    charge:    3.1167    magn:   -0.0056    constr:    0.0000
     atom:    8    charge:    2.0793    magn:    0.0257    constr:    0.0000
     atom:    9    charge:    3.1244    magn:   -0.0002    constr:    0.0000
     atom:   10    charge:    2.0898    magn:    0.0002    constr:    0.0000
     atom:   11    charge:    3.1198    magn:   -0.0000    constr:    0.0000
     atom:   12    charge:    2.0871    magn:   -0.0000    constr:    0.0000
     atom:   13    charge:    3.1150    magn:   -0.0002    constr:    0.0000
     atom:   14    charge:    2.0939    magn:    0.0023    constr:    0.0000
     atom:   15    charge:    3.1184    magn:   -0.0008    constr:    0.0000
     atom:   16    charge:    2.0828    magn:    0.0047    constr:    0.0000
     atom:   17    charge:    2.0624    magn:    0.0010    constr:    0.0000
     atom:   18    charge:    3.1239    magn:   -0.0000    constr:    0.0000
     atom:   19    charge:    2.0875    magn:    0.0000    constr:    0.0000
     atom:   20    charge:    2.0847    magn:    0.0001    constr:    0.0000
     atom:   21    charge:    2.0847    magn:    0.0001    constr:    0.0000
     atom:   22    charge:    3.1199    magn:    0.0000    constr:    0.0000
     atom:   23    charge:    2.0908    magn:    0.0003    constr:    0.0000
     atom:   24    charge:    2.0754    magn:   -0.0000    constr:    0.0000
     atom:   25    charge:    2.0867    magn:    0.0000    constr:    0.0000
     atom:   26    charge:    3.1127    magn:   -0.0003    constr:    0.0000
     atom:   27    charge:    2.0802    magn:    0.0027    constr:    0.0000
     atom:   28    charge:    2.0839    magn:    0.0008    constr:    0.0000
     atom:   29    charge:    2.0860    magn:    0.0009    constr:    0.0000
     atom:   30    charge:    3.1171    magn:   -0.0008    constr:    0.0000
     atom:   31    charge:    2.0825    magn:    0.0006    constr:    0.0000
     atom:   32    charge:    2.0829    magn:    0.0066    constr:    0.0000
     atom:   33    charge:    2.0624    magn:    0.0010    constr:    0.0000
     atom:   34    charge:    3.1239    magn:   -0.0000    constr:    0.0000
     atom:   35    charge:    2.0875    magn:    0.0000    constr:    0.0000
     atom:   36    charge:    2.0847    magn:    0.0001    constr:    0.0000
     atom:   37    charge:    2.0847    magn:    0.0001    constr:    0.0000
     atom:   38    charge:    3.1200    magn:    0.0000    constr:    0.0000
     atom:   39    charge:    2.0839    magn:    0.0002    constr:    0.0000
     atom:   40    charge:    2.0756    magn:   -0.0001    constr:    0.0000
     atom:   41    charge:    2.0870    magn:   -0.0000    constr:    0.0000
     atom:   42    charge:    3.1151    magn:   -0.0002    constr:    0.0000
     atom:   43    charge:    2.0803    magn:    0.0032    constr:    0.0000
     atom:   44    charge:    2.0851    magn:    0.0010    constr:    0.0000
     atom:   45    charge:    2.0858    magn:    0.0005    constr:    0.0000
     atom:   46    charge:    3.1148    magn:   -0.0007    constr:    0.0000
     atom:   47    charge:    2.0806    magn:    0.0048    constr:    0.0000
     atom:   48    charge:    2.0837    magn:    0.0138    constr:    0.0000
     atom:   49    charge:    2.0518    magn:    0.2435    constr:    0.0000
     atom:   50    charge:    0.6712    magn:    0.0532    constr:    0.0000
     atom:   51    charge:    0.4327    magn:    0.0010    constr:    0.0000
     atom:   52    charge:    0.4113    magn:    0.0010    constr:    0.0000
     atom:   53    charge:    0.3754    magn:    0.0233    constr:    0.0000
     atom:   54    charge:    0.4167    magn:    0.0008    constr:    0.0000

     total cpu time spent up to now is     3694.1 secs

     total energy              =   -3021.14846629 Ry
     Harris-Foulkes estimate   =   -3021.14846666 Ry
     estimated scf accuracy    <       0.00000460 Ry

     total magnetization       =     1.06 Bohr mag/cell
     absolute magnetization    =     1.23 Bohr mag/cell

     iteration # 12     ecut=    40.42 Ry     beta=0.10
     Davidson diagonalization with overlap
     ethr =  1.16E-09,  avg # of iterations =  2.6

     negative rho (up, down):  1.189E-02 1.195E-02
 
     Magnetic moment per site:
     atom:    1    charge:    3.1244    magn:   -0.0002    constr:    0.0000
     atom:    2    charge:    2.0897    magn:    0.0001    constr:    0.0000
     atom:    3    charge:    3.1198    magn:   -0.0000    constr:    0.0000
     atom:    4    charge:    2.0867    magn:   -0.0001    constr:    0.0000
     atom:    5    charge:    3.1161    magn:   -0.0003    constr:    0.0000
     atom:    6    charge:    2.0795    magn:    0.0022    constr:    0.0000
     atom:    7    charge:    3.1167    magn:   -0.0056    constr:    0.0000
     atom:    8    charge:    2.0793    magn:    0.0257    constr:    0.0000
     atom:    9    charge:    3.1244    magn:   -0.0002    constr:    0.0000
     atom:   10    charge:    2.0898    magn:    0.0001    constr:    0.0000
     atom:   11    charge:    3.1198    magn:   -0.0000    constr:    0.0000
     atom:   12    charge:    2.0871    magn:   -0.0000    constr:    0.0000
     atom:   13    charge:    3.1150    magn:   -0.0002    constr:    0.0000
     atom:   14    charge:    2.0939    magn:    0.0023    constr:    0.0000
     atom:   15    charge:    3.1184    magn:   -0.0008    constr:    0.0000
     atom:   16    charge:    2.0828    magn:    0.0047    constr:    0.0000
     atom:   17    charge:    2.0624    magn:    0.0009    constr:    0.0000
     atom:   18    charge:    3.1239    magn:   -0.0000    constr:    0.0000
     atom:   19    charge:    2.0875    magn:    0.0000    constr:    0.0000
     atom:   20    charge:    2.0847    magn:    0.0001    constr:    0.0000
     atom:   21    charge:    2.0847    magn:    0.0001    constr:    0.0000
     atom:   22    charge:    3.1199    magn:    0.0000    constr:    0.0000
     atom:   23    charge:    2.0908    magn:    0.0003    constr:    0.0000
     atom:   24    charge:    2.0754    magn:   -0.0000    constr:    0.0000
     atom:   25    charge:    2.0867    magn:    0.0000    constr:    0.0000
     atom:   26    charge:    3.1127    magn:   -0.0003    constr:    0.0000
     atom:   27    charge:    2.0803    magn:    0.0027    constr:    0.0000
     atom:   28    charge:    2.0839    magn:    0.0008    constr:    0.0000
     atom:   29    charge:    2.0860    magn:    0.0009    constr:    0.0000
     atom:   30    charge:    3.1171    magn:   -0.0008    constr:    0.0000
     atom:   31    charge:    2.0825    magn:    0.0006    constr:    0.0000
     atom:   32    charge:    2.0829    magn:    0.0066    constr:    0.0000
     atom:   33    charge:    2.0624    magn:    0.0009    constr:    0.0000
     atom:   34    charge:    3.1239    magn:   -0.0000    constr:    0.0000
     atom:   35    charge:    2.0875    magn:    0.0000    constr:    0.0000
     atom:   36    charge:    2.0847    magn:    0.0001    constr:    0.0000
     atom:   37    charge:    2.0847    magn:    0.0001    constr:    0.0000
     atom:   38    charge:    3.1200    magn:    0.0000    constr:    0.0000
     atom:   39    charge:    2.0839    magn:    0.0002    constr:    0.0000
     atom:   40    charge:    2.0756    magn:   -0.0001    constr:    0.0000
     atom:   41    charge:    2.0870    magn:   -0.0000    constr:    0.0000
     atom:   42    charge:    3.1151    magn:   -0.0003    constr:    0.0000
     atom:   43    charge:    2.0803    magn:    0.0032    constr:    0.0000
     atom:   44    charge:    2.0851    magn:    0.0010    constr:    0.0000
     atom:   45    charge:    2.0858    magn:    0.0005    constr:    0.0000
     atom:   46    charge:    3.1148    magn:   -0.0007    constr:    0.0000
     atom:   47    charge:    2.0806    magn:    0.0048    constr:    0.0000
     atom:   48    charge:    2.0837    magn:    0.0138    constr:    0.0000
     atom:   49    charge:    2.0518    magn:    0.2435    constr:    0.0000
     atom:   50    charge:    0.6713    magn:    0.0532    constr:    0.0000
     atom:   51    charge:    0.4327    magn:    0.0010    constr:    0.0000
     atom:   52    charge:    0.4114    magn:    0.0010    constr:    0.0000
     atom:   53    charge:    0.3753    magn:    0.0233    constr:    0.0000
     atom:   54    charge:    0.4167    magn:    0.0008    constr:    0.0000

     total cpu time spent up to now is     3921.6 secs

     total energy              =   -3021.14846665 Ry
     Harris-Foulkes estimate   =   -3021.14846704 Ry
     estimated scf accuracy    <       0.00000942 Ry

     total magnetization       =     1.06 Bohr mag/cell
     absolute magnetization    =     1.23 Bohr mag/cell

     iteration # 13     ecut=    40.42 Ry     beta=0.10
     Davidson diagonalization with overlap
     ethr =  1.16E-09,  avg # of iterations =  1.0

     negative rho (up, down):  1.189E-02 1.195E-02
 
     Magnetic moment per site:
     atom:    1    charge:    3.1244    magn:   -0.0001    constr:    0.0000
     atom:    2    charge:    2.0897    magn:    0.0001    constr:    0.0000
     atom:    3    charge:    3.1198    magn:   -0.0000    constr:    0.0000
     atom:    4    charge:    2.0867    magn:   -0.0001    constr:    0.0000
     atom:    5    charge:    3.1161    magn:   -0.0003    constr:    0.0000
     atom:    6    charge:    2.0795    magn:    0.0022    constr:    0.0000
     atom:    7    charge:    3.1167    magn:   -0.0057    constr:    0.0000
     atom:    8    charge:    2.0792    magn:    0.0257    constr:    0.0000
     atom:    9    charge:    3.1244    magn:   -0.0001    constr:    0.0000
     atom:   10    charge:    2.0898    magn:    0.0001    constr:    0.0000
     atom:   11    charge:    3.1198    magn:   -0.0000    constr:    0.0000
     atom:   12    charge:    2.0870    magn:   -0.0000    constr:    0.0000
     atom:   13    charge:    3.1150    magn:   -0.0002    constr:    0.0000
     atom:   14    charge:    2.0939    magn:    0.0023    constr:    0.0000
     atom:   15    charge:    3.1184    magn:   -0.0008    constr:    0.0000
     atom:   16    charge:    2.0828    magn:    0.0047    constr:    0.0000
     atom:   17    charge:    2.0625    magn:    0.0007    constr:    0.0000
     atom:   18    charge:    3.1240    magn:   -0.0000    constr:    0.0000
     atom:   19    charge:    2.0876    magn:    0.0000    constr:    0.0000
     atom:   20    charge:    2.0847    magn:    0.0000    constr:    0.0000
     atom:   21    charge:    2.0847    magn:    0.0000    constr:    0.0000
     atom:   22    charge:    3.1199    magn:    0.0000    constr:    0.0000
     atom:   23    charge:    2.0908    magn:    0.0003    constr:    0.0000
     atom:   24    charge:    2.0754    magn:   -0.0000    constr:    0.0000
     atom:   25    charge:    2.0867    magn:    0.0000    constr:    0.0000
     atom:   26    charge:    3.1127    magn:   -0.0003    constr:    0.0000
     atom:   27    charge:    2.0803    magn:    0.0028    constr:    0.0000
     atom:   28    charge:    2.0839    magn:    0.0008    constr:    0.0000
     atom:   29    charge:    2.0860    magn:    0.0009    constr:    0.0000
     atom:   30    charge:    3.1171    magn:   -0.0008    constr:    0.0000
     atom:   31    charge:    2.0825    magn:    0.0006    constr:    0.0000
     atom:   32    charge:    2.0829    magn:    0.0066    constr:    0.0000
     atom:   33    charge:    2.0624    magn:    0.0007    constr:    0.0000
     atom:   34    charge:    3.1239    magn:   -0.0000    constr:    0.0000
     atom:   35    charge:    2.0876    magn:    0.0000    constr:    0.0000
     atom:   36    charge:    2.0847    magn:    0.0000    constr:    0.0000
     atom:   37    charge:    2.0847    magn:    0.0000    constr:    0.0000
     atom:   38    charge:    3.1200    magn:    0.0000    constr:    0.0000
     atom:   39    charge:    2.0839    magn:    0.0002    constr:    0.0000
     atom:   40    charge:    2.0756    magn:   -0.0001    constr:    0.0000
     atom:   41    charge:    2.0870    magn:   -0.0000    constr:    0.0000
     atom:   42    charge:    3.1151    magn:   -0.0003    constr:    0.0000
     atom:   43    charge:    2.0803    magn:    0.0033    constr:    0.0000
     atom:   44    charge:    2.0851    magn:    0.0010    constr:    0.0000
     atom:   45    charge:    2.0858    magn:    0.0006    constr:    0.0000
     atom:   46    charge:    3.1148    magn:   -0.0008    constr:    0.0000
     atom:   47    charge:    2.0806    magn:    0.0048    constr:    0.0000
     atom:   48    charge:    2.0837    magn:    0.0139    constr:    0.0000
     atom:   49    charge:    2.0518    magn:    0.2439    constr:    0.0000
     atom:   50    charge:    0.6712    magn:    0.0530    constr:    0.0000
     atom:   51    charge:    0.4326    magn:    0.0009    constr:    0.0000
     atom:   52    charge:    0.4114    magn:    0.0011    constr:    0.0000
     atom:   53    charge:    0.3753    magn:    0.0234    constr:    0.0000
     atom:   54    charge:    0.4167    magn:    0.0008    constr:    0.0000

     total cpu time spent up to now is     4123.1 secs

     End of self-consistent calculation

 ------ SPIN UP ------------


          k = 0.0000 0.0000 0.0000 ( 34665 PWs)   bands (ev):

   -58.3205 -58.2854 -57.4023 -57.3966 -57.3636 -57.3260 -57.2747 -57.1064
   -57.0793 -57.0735 -57.0351 -56.9365 -56.9123 -56.9012 -56.8134 -56.7750
   -34.7657 -34.5890 -34.5603 -34.5270 -34.4321 -34.3752 -33.8973 -33.8850
   -33.7672 -33.6939 -33.6519 -33.6091 -33.5767 -33.5699 -33.5639 -33.5573
   -33.5460 -33.5310 -33.5055 -33.5043 -33.4898 -33.4886 -33.4853 -33.4668
   -33.3559 -33.3483 -33.3464 -33.3440 -33.3314 -33.3030 -33.2970 -33.2772
   -33.2571 -33.2516 -33.2510 -33.2419 -33.2139 -33.1913 -33.1573 -33.1551
   -33.1175 -33.0914 -33.0652 -33.0419 -33.0285 -33.0022 -32.9635 -32.8944
   -18.4856 -18.0529 -17.8288 -17.7280 -17.5681 -17.5460 -17.5031 -17.4004
   -17.3739 -17.2736 -17.0619 -17.0408 -17.0338 -17.0116 -16.9482 -16.8708
   -16.8519 -16.8145 -16.7565 -16.7258 -16.7060 -16.6739 -16.6086 -16.6049
   -16.4822 -16.4348 -16.4150 -16.3792 -16.3422 -16.1602 -16.0986 -15.6158
   -15.5550 -11.1395  -6.0641  -5.5130  -5.2990  -5.2191  -5.1108  -5.0116
    -4.9985  -4.9632  -4.8949  -4.7500  -4.6663  -4.6158  -4.6018  -4.5271
    -4.4458  -4.4300  -4.3687  -4.3328  -4.2494  -4.2347  -4.2112  -4.1578
    -4.0472  -4.0401  -3.9952  -3.9248  -3.9086  -3.9024  -3.9000  -3.8411
    -3.7930  -3.7678  -3.7029  -3.6495  -3.6020  -3.5577  -3.5441  -3.5342
    -3.4559  -3.4299  -3.4187  -3.3700  -3.2890  -3.2476  -3.2030  -3.1029
    -2.9364  -2.9129  -2.8684  -2.8180  -2.7619  -2.7099  -2.6880  -2.6755
    -2.6502  -2.5526  -2.5009  -2.4549  -2.3936  -2.3497  -2.2686  -2.2454
    -2.2414  -2.1762  -2.0831  -2.0573  -2.0232  -1.9754  -1.9461  -1.9151
    -1.8699  -1.7542  -1.7120  -1.6862  -1.6568  -1.6467  -1.6041  -1.5222
    -1.4371  -1.3836  -1.3688  -1.3544  -1.3276  -1.2847  -1.2417  -1.1868
    -1.1754  -1.1262  -1.1255  -1.1142  -1.0816  -0.9966  -0.8892  -0.8531
    -0.8243  -0.7090  -0.7030  -0.6400  -0.5680  -0.5268  -0.4991  -0.2028
     1.0104   1.1072   1.4021   1.6805   1.7888   1.9067   1.9540   2.0007
[...]
    -1.7435  -1.5217  -1.4779  -1.4664  -1.4502  -1.4123  -1.3334  -1.1726
    -1.1581  -1.1020  -1.0841  -1.0684  -0.9875  -0.9248  -0.8869  -0.8017
    -0.7483  -0.7414  -0.7128  -0.6848  -0.6102  -0.5881  -0.5746   0.2745
     1.5872   1.5906   1.6032   1.6086   1.9511   1.9519   2.0809   2.0819
     2.2644   2.2854   2.2986   2.3802   2.4036   2.4732   2.5609   2.6192
     2.6412   2.6858   2.7692   2.8027   2.8587   2.9111   2.9334   2.9613
     2.9760   2.9847   3.0258   3.0835   3.0976   3.1950   3.2209   3.2296
     3.2453   3.2696   3.3266   3.3728   3.3867   3.3917   3.4489   3.4594
     3.4698   3.4973   3.5120   3.5655   3.6230   3.6417   3.7626   3.8649
     3.9021   3.9107   4.1259   4.1264   4.5774   4.6055   4.6279   4.7133
     4.8687   4.8845   4.9167   5.0672   5.1468   5.1518   5.1708   5.4303
     5.6598   5.6688   5.6796   5.9122   5.9176   5.9511   6.0034   6.0063
     6.0812   6.0917   6.1631   6.2542   6.2568   6.2667   6.3687   6.4459
     6.4871   6.5932   7.0778   7.2470   7.3502   7.4122   7.5563   7.5910
     7.7255   7.7764   7.9338   8.1155   8.2994   8.3521   8.4588   8.8712
     9.0390   9.0645   9.2263

          k =-0.0253 0.0280 0.0000 ( 34687 PWs)   bands (ev):

   -58.3183 -58.2880 -57.4003 -57.3953 -57.3659 -57.3271 -57.2752 -57.1103
   -57.0805 -57.0732 -57.0383 -56.9383 -56.9349 -56.9043 -56.8145 -56.7812
   -34.7407 -34.5873 -34.5624 -34.5202 -34.4387 -34.4024 -33.8721 -33.8616
   -33.7473 -33.6800 -33.6456 -33.6068 -33.5808 -33.5667 -33.5633 -33.5542
   -33.5465 -33.5338 -33.5320 -33.5121 -33.5059 -33.4829 -33.4821 -33.4637
   -33.3515 -33.3419 -33.3346 -33.3316 -33.3239 -33.3207 -33.2960 -33.2772
   -33.2667 -33.2535 -33.2531 -33.2446 -33.2308 -33.2178 -33.1826 -33.1498
   -33.1491 -33.0914 -33.0720 -33.0516 -33.0326 -33.0104 -32.9916 -32.9258
   -18.3834 -17.9543 -17.7888 -17.7469 -17.5359 -17.5295 -17.3882 -17.3814
   -17.3581 -17.3284 -17.1247 -17.0818 -16.9971 -16.9520 -16.8860 -16.8425
   -16.8047 -16.7635 -16.7457 -16.6822 -16.6756 -16.5959 -16.5563 -16.4982
   -16.4742 -16.4177 -16.3792 -16.3612 -16.1664 -16.1311 -15.8964 -15.6255
   -15.5768 -10.7521  -5.8542  -5.3228  -5.1567  -5.1387  -5.0067  -4.9658
    -4.9268  -4.8381  -4.7115  -4.6907  -4.6495  -4.5494  -4.5113  -4.4549
    -4.4218  -4.3267  -4.3033  -4.2657  -4.2134  -4.1978  -4.1545  -4.1404
    -4.1103  -4.0717  -4.0323  -4.0057  -3.9663  -3.9277  -3.9066  -3.8124
    -3.7956  -3.7372  -3.7132  -3.6356  -3.6149  -3.5231  -3.4115  -3.3642
    -3.3342  -3.3305  -3.3028  -3.2754  -3.2365  -3.1933  -3.1234  -3.1093
    -2.9323  -2.8951  -2.8347  -2.7907  -2.7347  -2.6984  -2.6873  -2.6304
    -2.5999  -2.5220  -2.5128  -2.4553  -2.4208  -2.3715  -2.3013  -2.2787
    -2.2263  -2.2047  -2.1175  -2.0559  -1.9733  -1.9537  -1.9298  -1.8630
    -1.8526  -1.8048  -1.7587  -1.6994  -1.6497  -1.6090  -1.5760  -1.5254
    -1.4903  -1.4488  -1.4204  -1.3961  -1.3734  -1.3591  -1.3283  -1.3052
    -1.2189  -1.1368  -1.0781  -1.0241  -1.0012  -0.9675  -0.9427  -0.8981
    -0.8567  -0.8332  -0.6450  -0.6235  -0.5990  -0.5358  -0.2789   0.2973
     1.1391   1.2327   1.4167   1.8060   1.8456   1.9126   1.9490   2.0164
     2.0274   2.1766   2.2873   2.3332   2.3747   2.4172   2.4410   2.4912
     2.5114   2.5357   2.5765   2.6370   2.6853   2.7093   2.7656   2.8190
     2.8641   2.9008   2.9174   2.9602   2.9779   3.0017   3.0282   3.0805
     3.1579   3.1785   3.2208   3.2465   3.2816   3.3249   3.4169   3.4521
     3.4822   3.5470   3.5996   3.6306   3.6509   3.7314   3.8102   3.8532
     4.0005   4.1968   4.2732   4.4230   4.6124   4.7108   4.8311   4.8482
     4.9894   5.0133   5.0995   5.1855   5.2296   5.3457   5.4485   5.5362
     5.6637   5.6826   5.7128   5.7906   5.8378   5.8703   5.8966   5.9186
     5.9549   5.9772   6.0540   6.1266   6.1627   6.2721   6.3856   6.4363
     6.4497   6.5743   6.7490   6.8057   7.3831   7.4741   7.7974   7.8900
     8.0985   8.2376   8.4853   8.5347   8.7954   8.8926   9.1019   9.3040
     9.3696   9.5486   9.6103

          k =-0.0253 0.0560 0.0000 ( 34699 PWs)   bands (ev):

   -58.3120 -58.2944 -57.3971 -57.3900 -57.3723 -57.3294 -57.2744 -57.1098
   -57.0810 -57.0685 -57.0433 -56.9388 -56.9284 -56.9108 -56.8078 -56.7880
   -34.6708 -34.5820 -34.5676 -34.5032 -34.4756 -34.4561 -33.8023 -33.7924
   -33.6966 -33.6647 -33.6289 -33.6053 -33.6013 -33.6004 -33.5890 -33.5821
   -33.5558 -33.5461 -33.5325 -33.5109 -33.4976 -33.4805 -33.4696 -33.4298
   -33.3863 -33.3394 -33.3356 -33.3275 -33.2980 -33.2885 -33.2722 -33.2720
   -33.2708 -33.2619 -33.2585 -33.2453 -33.2337 -33.2318 -33.1983 -33.1783
   -33.1336 -33.0887 -33.0883 -33.0655 -33.0485 -33.0351 -33.0225 -32.9965
   -18.2257 -17.8157 -17.7941 -17.6254 -17.6140 -17.4698 -17.4073 -17.3835
   -17.2625 -17.2552 -17.2177 -17.0718 -16.9621 -16.9332 -16.8950 -16.8542
   -16.8114 -16.7575 -16.7467 -16.7314 -16.6967 -16.6118 -16.5618 -16.5449
   -16.5138 -16.4553 -16.4246 -16.4205 -16.2273 -16.2126 -15.8952 -15.6542
   -15.6306 -10.7541  -5.6190  -5.0955  -5.0379  -4.9698  -4.9376  -4.8310
    -4.8090  -4.7718  -4.7015  -4.6872  -4.5398  -4.5231  -4.4599  -4.4095
    -4.3914  -4.3832  -4.3347  -4.2911  -4.2639  -4.2541  -4.2216  -4.1891
    -4.1449  -4.1363  -4.0810  -4.0421  -4.0064  -3.9781  -3.9441  -3.9036
    -3.8457  -3.8160  -3.7171  -3.6015  -3.5497  -3.4790  -3.4014  -3.3864
    -3.3496  -3.2987  -3.2013  -3.1730  -3.1311  -3.1250  -3.0720  -3.0375
    -2.9954  -2.9404  -2.8552  -2.8064  -2.7755  -2.7175  -2.6223  -2.6006
    -2.5376  -2.5238  -2.4694  -2.4048  -2.3892  -2.3309  -2.3138  -2.2723
    -2.2015  -2.1490  -2.1347  -2.1025  -2.0621  -2.0205  -1.9988  -1.9623
    -1.9445  -1.9193  -1.9067  -1.8594  -1.7816  -1.7163  -1.7034  -1.6084
    -1.5864  -1.5582  -1.5328  -1.4981  -1.4567  -1.4276  -1.3992  -1.3400
    -1.3040  -1.2366  -1.1679  -1.0479  -1.0186  -0.9840  -0.9510  -0.8711
    -0.7771  -0.7489  -0.7186  -0.6539  -0.6231  -0.5694  -0.3762   0.2785
     1.2734   1.4554   1.5506   1.7446   1.7600   1.8983   1.9653   2.0446
     2.2519   2.2623   2.3290   2.3652   2.4017   2.4739   2.5092   2.5343
     2.5594   2.5827   2.6400   2.6931   2.7076   2.7514   2.7937   2.8432
     2.8693   2.9042   2.9483   2.9940   3.0194   3.0329   3.0428   3.0963
     3.1460   3.1857   3.2049   3.2753   3.3044   3.3329   3.3650   3.4444
     3.4966   3.5217   3.5997   3.6214   3.6571   3.7149   3.7339   3.7878
     3.8832   4.0871   4.3804   4.4874   4.7028   4.8457   4.8967   4.9481
     4.9822   5.0765   5.1737   5.1947   5.3231   5.3747   5.4207   5.5157
     5.5516   5.5865   5.6390   5.6964   5.7258   5.7908   5.8070   5.8476
     5.9148   5.9323   6.0071   6.0773   6.1200   6.2016   6.3180   6.4215
     6.4527   6.4718   6.7094   6.7586   7.0835   7.3036   7.6809   7.8356
     8.1009   8.2315   8.3290   8.4953   8.7859   8.8996   8.9980   9.1991
     9.3860   9.5589   9.6375

          k =-0.0506 0.0280 0.0000 ( 34685 PWs)   bands (ev):

   -58.3183 -58.2880 -57.3994 -57.3962 -57.3659 -57.3271 -57.2752 -57.1103
   -57.0802 -57.0735 -57.0383 -56.9383 -56.9349 -56.9043 -56.8146 -56.7812
   -34.7415 -34.5873 -34.5624 -34.5186 -34.4386 -34.4025 -33.8725 -33.8656
   -33.7476 -33.6604 -33.6455 -33.6070 -33.5859 -33.5685 -33.5672 -33.5595
   -33.5467 -33.5412 -33.5309 -33.5119 -33.5060 -33.4835 -33.4704 -33.4647
   -33.3516 -33.3348 -33.3334 -33.3314 -33.3207 -33.3202 -33.2962 -33.2792
   -33.2767 -33.2532 -33.2525 -33.2474 -33.2310 -33.2172 -33.1787 -33.1498
   -33.1493 -33.0915 -33.0720 -33.0584 -33.0310 -33.0104 -32.9916 -32.9259
   -18.2750 -17.8770 -17.8647 -17.7141 -17.6007 -17.4685 -17.4509 -17.3574
   -17.3300 -17.2637 -17.1932 -17.0993 -17.0097 -16.9646 -16.9357 -16.9075
   -16.8236 -16.7804 -16.7692 -16.7093 -16.6460 -16.5626 -16.5358 -16.5021
   -16.4742 -16.4187 -16.4031 -16.3660 -16.1628 -16.1314 -15.8972 -15.6236
   -15.5769 -10.7519  -5.5529  -5.2003  -5.1670  -5.1341  -4.9623  -4.8826
    -4.7807  -4.7228  -4.6957  -4.6654  -4.6144  -4.6004  -4.5464  -4.4204
    -4.3782  -4.3362  -4.2552  -4.2288  -4.1951  -4.1781  -4.1614  -4.0707
    -4.0642  -4.0264  -3.9885  -3.9475  -3.9020  -3.8521  -3.8307  -3.8076
    -3.7349  -3.6824  -3.6555  -3.6003  -3.5468  -3.5039  -3.4768  -3.4111
    -3.3855  -3.3210  -3.3128  -3.2779  -3.2173  -3.1614  -3.1295  -3.0710
    -3.0226  -2.9936  -2.9139  -2.8475  -2.7706  -2.7117  -2.7019  -2.6789
    -2.6301  -2.6070  -2.5935  -2.5389  -2.5297  -2.4052  -2.3543  -2.3453
    -2.2822  -2.2147  -2.1989  -2.1720  -2.0940  -2.0242  -2.0175  -1.9563
    -1.9377  -1.9076  -1.8233  -1.7354  -1.7218  -1.6983  -1.6291  -1.6006
    -1.5382  -1.4922  -1.4673  -1.4057  -1.3920  -1.3392  -1.3238  -1.2736
    -1.2595  -1.1345  -1.0711  -1.0482  -1.0242  -0.9700  -0.9387  -0.8896
    -0.8414  -0.8096  -0.7345  -0.6951  -0.6738  -0.5497  -0.4049   0.2816
     1.1260   1.3260   1.4511   1.5519   1.9199   1.9299   1.9523   2.0441
     2.1103   2.1850   2.2399   2.3158   2.3925   2.4259   2.5146   2.5323
     2.5785   2.6365   2.6735   2.6874   2.7411   2.8146   2.8376   2.8678
     2.9267   2.9324   2.9656   2.9707   2.9771   3.0881   3.0954   3.1238
     3.1717   3.2007   3.2774   3.2972   3.3418   3.3686   3.3926   3.4411
     3.4559   3.5347   3.5888   3.6537   3.7288   3.7656   3.7854   3.8878
     3.9460   4.0486   4.0952   4.3946   4.4963   4.6422   4.7337   4.7957
     4.8281   4.9001   4.9522   5.2757   5.3164   5.3994   5.5141   5.5460
     5.6275   5.7529   5.7729   5.8397   5.8867   5.8992   5.9747   6.0466
     6.0799   6.1534   6.2366   6.3222   6.3740   6.4017   6.4318   6.4770
     6.5277   6.5389   6.7009   6.9250   7.0831   7.2220   7.5395   7.6178
     7.7302   8.2259   8.4171   8.4902   8.8627   8.9430   9.0698   9.2362
     9.4330   9.6085   9.6714

          k =-0.0506 0.0560 0.0000 ( 34596 PWs)   bands (ev):

   -58.3119 -58.2944 -57.3967 -57.3903 -57.3723 -57.3294 -57.2744 -57.1098
   -57.0809 -57.0687 -57.0433 -56.9388 -56.9285 -56.9108 -56.8078 -56.7880
   -34.6714 -34.5820 -34.5675 -34.5019 -34.4758 -34.4557 -33.8026 -33.7969
   -33.6967 -33.6489 -33.6287 -33.6045 -33.6029 -33.6002 -33.5833 -33.5821
   -33.5591 -33.5463 -33.5447 -33.5111 -33.5069 -33.4807 -33.4580 -33.4314
   -33.3867 -33.3392 -33.3250 -33.3221 -33.3006 -33.2906 -33.2734 -33.2717
   -33.2706 -33.2617 -33.2580 -33.2553 -33.2348 -33.2319 -33.1977 -33.1741
   -33.1336 -33.0886 -33.0884 -33.0654 -33.0527 -33.0356 -33.0225 -32.9963
   -18.1225 -17.8335 -17.7162 -17.6282 -17.6119 -17.5722 -17.3951 -17.3836
   -17.2335 -17.2209 -17.1319 -17.1097 -16.9922 -16.9267 -16.8822 -16.8568
   -16.8382 -16.8222 -16.7759 -16.7505 -16.7355 -16.6424 -16.6114 -16.5210
   -16.5108 -16.4529 -16.4354 -16.4250 -16.2267 -16.2090 -15.8951 -15.6530
   -15.6311 -10.7539  -5.3164  -5.0065  -4.9559  -4.9479  -4.7979  -4.7902
    -4.7312  -4.6542  -4.5412  -4.5211  -4.5153  -4.4327  -4.4182  -4.3954
    -4.3759  -4.3422  -4.3243  -4.2638  -4.2156  -4.1907  -4.1839  -4.1285
    -4.1186  -4.0857  -4.0581  -4.0109  -3.9947  -3.9280  -3.9059  -3.8467
    -3.7979  -3.7273  -3.6952  -3.6258  -3.5735  -3.5249  -3.4506  -3.4211
    -3.3563  -3.3310  -3.2747  -3.2453  -3.1475  -3.1392  -3.0941  -3.0640
    -3.0094  -2.9922  -2.9721  -2.9142  -2.8133  -2.7768  -2.7630  -2.7201
    -2.6443  -2.6014  -2.5592  -2.5158  -2.4925  -2.4286  -2.4035  -2.3838
    -2.3656  -2.3045  -2.2097  -2.1861  -2.1614  -2.1431  -2.1172  -2.0628
    -2.0274  -1.9852  -1.9584  -1.8858  -1.8625  -1.7965  -1.7456  -1.6717
    -1.5809  -1.5633  -1.5532  -1.5108  -1.4563  -1.3995  -1.3676  -1.3211
    -1.2595  -1.1916  -1.0918  -1.0357  -1.0028  -0.9179  -0.8665  -0.8594
    -0.8085  -0.7211  -0.7068  -0.6856  -0.6703  -0.5676  -0.4901   0.2813
     1.2940   1.4836   1.6323   1.6541   1.8387   1.9898   2.0185   2.0536
     2.2295   2.2422   2.3469   2.3627   2.4189   2.4477   2.5343   2.5715
     2.6368   2.6821   2.7158   2.7303   2.7974   2.8283   2.8571   2.8895
     2.9199   2.9371   2.9927   3.0281   3.0586   3.0996   3.1312   3.1768
     3.1818   3.2375   3.2710   3.3110   3.3203   3.3631   3.4029   3.4533
     3.4686   3.5354   3.5650   3.6273   3.6543   3.7324   3.7921   3.8273
     3.8707   3.9476   4.1386   4.4909   4.5826   4.6022   4.7406   4.8080
     4.8748   4.9513   4.9967   5.1727   5.2881   5.3622   5.3975   5.4292
     5.5816   5.6047   5.6542   5.7037   5.8659   5.8832   5.9735   5.9932
     6.0557   6.0951   6.1588   6.1996   6.3099   6.3270   6.4062   6.4115
     6.5288   6.6052   6.7667   6.7969   7.1948   7.3611   7.5149   7.6254
     7.9438   8.0230   8.1063   8.3874   8.6075   8.7287   8.8141   9.0401
     9.2134   9.3273   9.4429

     the Fermi energy is    -0.3054 ev

!    total energy              =   -3021.14846706 Ry
     Harris-Foulkes estimate   =   -3021.14846693 Ry
     estimated scf accuracy    <       0.00000024 Ry

     The total energy is the sum of the following terms:

     one-electron contribution =  -40444.95673155 Ry
     hartree contribution      =   20293.64809957 Ry
     xc contribution           =    -553.20926017 Ry
     ewald contribution        =   17683.38924706 Ry
     smearing contrib. (-TS)   =      -0.01982197 Ry

     total magnetization       =     1.06 Bohr mag/cell
     absolute magnetization    =     1.23 Bohr mag/cell

     convergence has been achieved in  13 iterations

     Forces acting on atoms (Ry/au):


     negative rho (up, down):  1.189E-02 1.195E-02
     atom    1 type  1   force =     0.00018586   -0.00089795   -0.10470207
     atom    2 type  2   force =     0.00014688    0.00067829    0.04004865
     atom    3 type  1   force =     0.00074876   -0.00175435   -0.02054821
     atom    4 type  2   force =    -0.00326825    0.00312216   -0.00322368
     atom    5 type  1   force =     0.00035488    0.00008452    0.00030005
     atom    6 type  2   force =    -0.00013634   -0.00011904    0.00021042
     atom    7 type  1   force =    -0.00020832    0.00000423   -0.00157008
     atom    8 type  2   force =     0.00001498    0.00010660   -0.00004731
     atom    9 type  1   force =    -0.00003173    0.00056355   -0.10483631
     atom   10 type  2   force =     0.00035057   -0.00021262    0.03602226
     atom   11 type  1   force =     0.00068301    0.00183586    0.00261159
     atom   12 type  2   force =    -0.00519350   -0.00267147   -0.00519023
     atom   13 type  1   force =     0.00041683    0.00007221   -0.00026380
     atom   14 type  2   force =     0.00012345   -0.00006169   -0.00001015
     atom   15 type  1   force =     0.00003198   -0.00023520    0.00019488
     atom   16 type  2   force =    -0.00006231   -0.00004655   -0.00039476
     atom   17 type  2   force =     0.00000933   -0.00001610    0.06656819
     atom   18 type  1   force =     0.00005647    0.00002908    0.13143250
     atom   19 type  2   force =     0.00017812   -0.00052967   -0.08520155
     atom   20 type  2   force =    -0.05791026    0.00014057   -0.03604975
     atom   21 type  2   force =     0.05780116   -0.00004802   -0.03600554
     atom   22 type  1   force =    -0.00042828    0.00074862    0.08016383
     atom   23 type  2   force =     0.00020131   -0.00005008    0.00004381
     atom   24 type  2   force =     0.00064035    0.00185991   -0.03467044
     atom   25 type  2   force =     0.00414047    0.00332416   -0.00509507
     atom   26 type  1   force =     0.00040885   -0.00005228    0.00012806
     atom   27 type  2   force =    -0.00009578   -0.00014262   -0.00006843
     atom   28 type  2   force =     0.00007109   -0.00020080   -0.00002370
     atom   29 type  2   force =    -0.00000913   -0.00007637    0.00007357
     atom   30 type  1   force =    -0.00042421   -0.00020183    0.00040066
     atom   31 type  2   force =     0.00012317   -0.00013454   -0.00029289
     atom   32 type  2   force =    -0.00021543    0.00005118    0.00006570
     atom   33 type  2   force =    -0.00016789    0.00004714    0.06630391
     atom   34 type  1   force =     0.00007940   -0.00003669    0.13121544
     atom   35 type  2   force =     0.00018751   -0.00013207   -0.08481004
     atom   36 type  2   force =    -0.05780782    0.00006172   -0.03565903
     atom   37 type  2   force =     0.05797884   -0.00017423   -0.03605885
     atom   38 type  1   force =    -0.00037573   -0.00020922    0.07983533
     atom   39 type  2   force =     0.00007878   -0.00026779   -0.00008503
     atom   40 type  2   force =     0.00049066    0.00123659   -0.03527636
     atom   41 type  2   force =     0.00588729   -0.00243551   -0.00721352
     atom   42 type  1   force =     0.00023948   -0.00006960    0.00005188
     atom   43 type  2   force =    -0.00019561   -0.00008465   -0.00005776
     atom   44 type  2   force =     0.00002399   -0.00015813   -0.00003361
     atom   45 type  2   force =    -0.00000602   -0.00016791    0.00005158
     atom   46 type  1   force =    -0.00018406   -0.00003357    0.00037822
     atom   47 type  2   force =     0.00005915   -0.00008850   -0.00031529
     atom   48 type  2   force =    -0.00029740   -0.00025077    0.00028735
     atom   49 type  2   force =    -0.00205232   -0.00361459   -0.00175498
     atom   50 type  3   force =    -0.00820284   -0.01143928    0.05233432
     atom   51 type  4   force =     0.01031618    0.01238402   -0.01574643
     atom   52 type  4   force =    -0.01123412    0.00918649   -0.01887452
     atom   53 type  4   force =    -0.00230937   -0.00425524   -0.00492941
     atom   54 type  4   force =     0.00878798   -0.00466793   -0.00971340

     Total force =     0.348426     Total SCF correction =     0.001172
 !ASE

     Writing output data file calc.save
 
     init_run     :     65.72s CPU     76.57s WALL (       1 calls)
     electrons    :   3545.23s CPU   4046.43s WALL (       1 calls)
     forces       :     49.10s CPU     50.50s WALL (       1 calls)

     Called by init_run:
     wfcinit      :     57.78s CPU     67.89s WALL (       1 calls)
     potinit      :      1.38s CPU      1.67s WALL (       1 calls)

     Called by electrons:
     c_bands      :   3135.82s CPU   3567.18s WALL (      13 calls)
     sum_band     :    351.28s CPU    414.68s WALL (      13 calls)
     v_of_rho     :     14.45s CPU     17.22s WALL (      14 calls)
     newd         :     46.94s CPU     50.83s WALL (      14 calls)
     mix_rho      :      0.60s CPU      0.78s WALL (      13 calls)
     vdW_energy   :      3.15s CPU      3.54s WALL (      15 calls)
     vdW_ffts     :      3.72s CPU      4.60s WALL (      30 calls)
     vdW_v        :      1.45s CPU      1.60s WALL (      15 calls)

     Called by c_bands:
     init_us_2    :      7.95s CPU      8.58s WALL (    1120 calls)
     cegterg      :   3083.83s CPU   3512.43s WALL (     520 calls)

     Called by *egterg:
     h_psi        :   1117.43s CPU   1441.64s WALL (    3066 calls)
     s_psi        :    192.44s CPU    198.53s WALL (    3066 calls)
     g_psi        :      5.54s CPU      5.62s WALL (    2506 calls)
     cdiaghg      :   1121.88s CPU   1147.58s WALL (    3026 calls)

     Called by h_psi:
     add_vuspsi   :    194.60s CPU    200.24s WALL (    3066 calls)

     General routines
     calbec       :    286.21s CPU    292.25s WALL (    3626 calls)
     fft          :      7.60s CPU      9.40s WALL (    1191 calls)
     ffts         :      0.06s CPU      0.08s WALL (      54 calls)
     fftw         :    629.93s CPU    997.09s WALL (  904964 calls)
     interpolate  :      0.41s CPU      0.61s WALL (      54 calls)
     davcio       :      0.15s CPU      3.65s WALL (      40 calls)
 
     Parallel routines
     fft_scatter  :    319.40s CPU    520.87s WALL (  906209 calls)
 
     PWSCF        :     1h 1m CPU        1h 9m WALL

 
   This run was terminated on:   5:25:44  26Feb2018            

=------------------------------------------------------------------------------=
   JOB DONE.
=------------------------------------------------------------------------------=
