  python dir          : /home/vossj/suncat/lib/python2.7/site-packages/espresso
  espresso dir        : /home/vossj/suncat/esdld/espresso-dynpy-beef/bin
  pseudo dir          : /home/alatimer/bin/psp/esp_psp_w_gbrvRu/
  ase-espresso py git : ffa2778-git



     Program PWSCF v.5.1rc2 (svn rev. ) starts on 12Feb2018 at 20:41:56 

     This program is part of the open-source Quantum ESPRESSO suite
     for quantum simulation of materials; please cite
         "P. Giannozzi et al., J. Phys.:Condens. Matter 21 395502 (2009);
          URL http://www.quantum-espresso.org", 
     in publications or presentations arising from this work. More details at
     http://www.quantum-espresso.org/quote

     Parallel version (MPI), running on    16 processors
     R & G space division:  proc/nbgrp/npool/nimage =      16
     Reading input from pw.inp
     Message from routine read_cards :
     DEPRECATED: no units specified in CELL_PARAMETERS card

     Current dimensions of program PWSCF are:
     Max number of different atomic species (ntypx) = 10
     Max number of k-points (npk) =  40000
     Max angular momentum in pseudopotentials (lmaxx) =  3

     **************************************************************************
     Initializing libbeef V0.1.1 with the BEEF-vdW functional.
     Citation: Wellendorff et al., PRB 85, 235149 (2012).
     **************************************************************************


     IMPORTANT: XC functional enforced from input :
     Exchange-correlation      = BEEF ( 1  4 27 13 2)
     Any further DFT definition will be discarded
     Please, verify this is what you really want


     Subspace diagonalization in iterative solution of the eigenvalue problem:
     a serial algorithm will be used

 
     Parallelization info
     --------------------
     sticks:   dense  smooth     PW     G-vecs:    dense   smooth      PW
     Min         281     112     31                68535    17318    2565
     Max         282     113     32                68545    17369    2582
     Sum        4501    1795    503              1096637   277353   41113
 
     Generating pointlists ...
     new r_m :   0.4125 (alat units)  0.7795 (a.u.) for type    1
     new r_m :   0.3995 (alat units)  0.7549 (a.u.) for type    2
     new r_m :   0.4125 (alat units)  0.7795 (a.u.) for type    3
     new r_m :   0.3995 (alat units)  0.7549 (a.u.) for type    4


     bravais-lattice index     =            0
     lattice parameter (alat)  =       1.8897  a.u.
     unit-cell volume          =    7990.9933 (a.u.)^3
     number of atoms/cell      =           54
     number of atomic types    =            4
     number of electrons       =       398.00
     number of Kohn-Sham states=          299
     kinetic-energy cutoff     =      40.4243  Ry
     charge density cutoff     =     404.2426  Ry
     convergence threshold     =      7.3E-07
     mixing beta               =       0.1000
     number of iterations used =           10  plain     mixing
     Exchange-correlation      = BEEF ( 1  4 27 13 2)
     nstep                     =           50


     celldm(1)=   1.889726  celldm(2)=   0.000000  celldm(3)=   0.000000
     celldm(4)=   0.000000  celldm(5)=   0.000000  celldm(6)=   0.000000

     crystal axes: (cart. coord. in units of alat)
               a(1) = (   6.590708   0.000000   0.000000 )  
               a(2) = (   0.000000   5.950229   0.000000 )  
               a(3) = (   0.000000   0.000000  30.195235 )  

     reciprocal axes: (cart. coord. in units 2 pi/alat)
               b(1) = (  0.151729  0.000000  0.000000 )  
               b(2) = (  0.000000  0.168061  0.000000 )  
               b(3) = (  0.000000  0.000000  0.033118 )  


     PseudoPot. # 1 for Ti read from file:
     /home/alatimer/bin/psp/esp_psp_w_gbrvRu/Ti.UPF
     MD5 check sum: 8e4df49b7f0d34bbd5052bf3f5ea0213
     Pseudo is Ultrasoft, Zval = 12.0
     Generated by new atomic code, or converted to UPF format
     Using radial grid of  851 points,  6 beta functions with: 
                l(1) =   0
                l(2) =   0
                l(3) =   1
                l(4) =   1
                l(5) =   2
                l(6) =   2
     Q(r) pseudized with  8 coefficients,  rinner =    1.000   1.000   1.000
                                                       1.000   1.000

     PseudoPot. # 2 for  O read from file:
     /home/alatimer/bin/psp/esp_psp_w_gbrvRu/O.UPF
     MD5 check sum: e057bbcf3229fb5d8c36c0c92f9568b4
     Pseudo is Ultrasoft + core correction, Zval =  6.0
     Generated using "atomic" code by A. Dal Corso  v.5.0.2 svn rev. 9415
     Using radial grid of 1095 points,  4 beta functions with: 
                l(1) =   0
                l(2) =   0
                l(3) =   1
                l(4) =   1
     Q(r) pseudized with 0 coefficients 


     PseudoPot. # 3 for  C read from file:
     /home/alatimer/bin/psp/esp_psp_w_gbrvRu/C.UPF
     MD5 check sum: ab446d787031eba755f1d5ee46644bb0
     Pseudo is Ultrasoft + core correction, Zval =  4.0
     Generated using "atomic" code by A. Dal Corso  v.5.0.2 svn rev. 9415
     Using radial grid of 1073 points,  4 beta functions with: 
                l(1) =   0
                l(2) =   0
                l(3) =   1
                l(4) =   1
     Q(r) pseudized with 0 coefficients 


     PseudoPot. # 4 for  H read from file:
     /home/alatimer/bin/psp/esp_psp_w_gbrvRu/H.UPF
     MD5 check sum: bd57da0722753ddfd9833a65b40bb853
     Pseudo is Ultrasoft, Zval =  1.0
     Generated using "atomic" code by A. Dal Corso  v.5.0.2 svn rev. 9415
     Using radial grid of  929 points,  2 beta functions with: 
                l(1) =   0
                l(2) =   0
     Q(r) pseudized with 0 coefficients 


     vdW kernel table read from file vdW_kernel_table
     MD5 check sum: 095c7af220d748ca6e76c0b4c6cfb241

     atomic species   valence    mass     pseudopotential
        Ti1           12.00    47.88000     Ti( 1.00)
        O1             6.00    15.99940      O( 1.00)
        C1             4.00    12.01100      C( 1.00)
        H1             1.00     1.00794      H( 1.00)

     Starting magnetic structure 
     atomic species   magnetization
        Ti1          0.250
        O1           0.500
        C1           0.750
        H1           0.000

     No symmetry found



   Cartesian axes

     site n.     atom                  positions (alat units)
         1           Ti1 tau(   1) = (   1.6476770   0.7437786   2.6545865  )
         2           O1  tau(   2) = (   1.6476770   2.2313359   3.9361215  )
         3           Ti1 tau(   3) = (   1.6476770   2.2313359   5.9499405  )
         4           O1  tau(   4) = (   0.3661420   0.7437786   5.9499405  )
         5           Ti1 tau(   5) = (   1.7592931   0.7557636   9.1813031  )
         6           O1  tau(   6) = (   1.6162490   2.2572048  10.5951269  )
         7           Ti1 tau(   7) = (   1.5595004   2.2680265  12.4668274  )
         8           O1  tau(   8) = (   0.3709531   0.7738127  12.6996540  )
         9           Ti1 tau(   9) = (   1.6476770   3.7188931   2.6545865  )
        10           O1  tau(  10) = (   1.6476770   5.2064503   3.9361215  )
        11           Ti1 tau(  11) = (   1.6476770   5.2064503   5.9499405  )
        12           O1  tau(  12) = (   0.3661420   3.7188931   5.9499405  )
        13           Ti1 tau(  13) = (   1.7607536   3.7112867   9.1949733  )
        14           O1  tau(  14) = (   1.6133076   5.2250699  10.5465640  )
        15           Ti1 tau(  15) = (   1.6492307   5.2431137  12.3448001  )
        16           O1  tau(  16) = (   0.3719744   3.7598389  12.7007434  )
        17           O1  tau(  17) = (   1.6476770   2.2313359   1.3730516  )
        18           Ti1 tau(  18) = (   4.9430310   2.2313359   2.6545865  )
        19           O1  tau(  19) = (   4.9430310   2.2313359   4.6684056  )
        20           O1  tau(  20) = (   6.2245660   0.7437786   2.6545865  )
        21           O1  tau(  21) = (   3.6614961   0.7437786   2.6545865  )
        22           Ti1 tau(  22) = (   4.9430310   0.7437786   5.9499405  )
        23           O1  tau(  23) = (   1.6387103   2.2391978   8.0037664  )
        24           O1  tau(  24) = (   4.9430310   2.2313359   7.2314755  )
        25           O1  tau(  25) = (   2.9292120   0.7437786   5.9499405  )
        26           Ti1 tau(  26) = (   5.0158092   2.2383949   9.3973727  )
        27           O1  tau(  27) = (   4.9391445   2.2276729  11.2675731  )
        28           O1  tau(  28) = (   6.2094020   0.7514556   9.2742047  )
        29           O1  tau(  29) = (   3.6131301   0.7515640   9.2682932  )
        30           Ti1 tau(  30) = (   4.8940083   0.8207741  12.7348365  )
        31           O1  tau(  31) = (   4.8487174   2.2703822  13.8475395  )
        32           O1  tau(  32) = (   2.8766274   0.7418004  12.6316555  )
        33           O1  tau(  33) = (   1.6476770   5.2064503   1.3730516  )
        34           Ti1 tau(  34) = (   4.9430310   5.2064503   2.6545865  )
        35           O1  tau(  35) = (   4.9430310   5.2064503   4.6684056  )
        36           O1  tau(  36) = (   6.2245660   3.7188931   2.6545865  )
        37           O1  tau(  37) = (   3.6614961   3.7188931   2.6545865  )
        38           Ti1 tau(  38) = (   4.9430310   3.7188931   5.9499405  )
        39           O1  tau(  39) = (   1.6418458   5.2133935   8.0066417  )
        40           O1  tau(  40) = (   4.9430310   5.2064503   7.2314755  )
        41           O1  tau(  41) = (   2.9292120   3.7188931   5.9499405  )
        42           Ti1 tau(  42) = (   5.0218241   5.2139137   9.3870600  )
        43           O1  tau(  43) = (   4.9399496   5.2040061  11.2598200  )
        44           O1  tau(  44) = (   6.2073000   3.7245411   9.2731052  )
        45           O1  tau(  45) = (   3.6137513   3.7232133   9.2682466  )
        46           Ti1 tau(  46) = (   4.8936935   3.8094630  12.7397413  )
        47           O1  tau(  47) = (   4.9051259   5.2510468  13.8339921  )
        48           O1  tau(  48) = (   2.8743370   3.7938830  12.6403791  )
        49           C1  tau(  49) = (   1.0587210   2.2268971  15.9066084  )
        50           O1  tau(  50) = (   1.8917182   2.2355032  14.7378010  )
        51           H1  tau(  51) = (   0.0310076   2.2200215  15.5303933  )
        52           H1  tau(  52) = (   2.8355400   2.2288152  14.9543747  )
        53           H1  tau(  53) = (   1.2478062   1.3326534  16.5039879  )
        54           H1  tau(  54) = (   1.2341453   3.1195140  16.5098874  )

     number of k points=    40  Fermi-Dirac smearing, width (Ry)=  0.0073
                       cart. coord. in units 2pi/alat
        k(    1) = (   0.0000000   0.0000000   0.0000000), wk =   0.0277778
        k(    2) = (   0.0000000   0.0280101   0.0000000), wk =   0.0555556
        k(    3) = (   0.0000000   0.0560203   0.0000000), wk =   0.0555556
        k(    4) = (   0.0000000  -0.0840304   0.0000000), wk =   0.0277778
        k(    5) = (   0.0252881   0.0000000   0.0000000), wk =   0.0555556
        k(    6) = (   0.0252881   0.0280101   0.0000000), wk =   0.0555556
        k(    7) = (   0.0252881   0.0560203   0.0000000), wk =   0.0555556
        k(    8) = (   0.0252881  -0.0840304   0.0000000), wk =   0.0555556
        k(    9) = (   0.0505763   0.0000000   0.0000000), wk =   0.0555556
        k(   10) = (   0.0505763   0.0280101   0.0000000), wk =   0.0555556
        k(   11) = (   0.0505763   0.0560203   0.0000000), wk =   0.0555556
        k(   12) = (   0.0505763  -0.0840304   0.0000000), wk =   0.0555556
        k(   13) = (  -0.0758644   0.0000000   0.0000000), wk =   0.0277778
        k(   14) = (  -0.0758644   0.0280101   0.0000000), wk =   0.0555556
        k(   15) = (  -0.0758644   0.0560203   0.0000000), wk =   0.0555556
        k(   16) = (  -0.0758644  -0.0840304   0.0000000), wk =   0.0277778
        k(   17) = (  -0.0252881   0.0280101   0.0000000), wk =   0.0555556
        k(   18) = (  -0.0252881   0.0560203   0.0000000), wk =   0.0555556
        k(   19) = (  -0.0505763   0.0280101   0.0000000), wk =   0.0555556
        k(   20) = (  -0.0505763   0.0560203   0.0000000), wk =   0.0555556
        k(   21) = (   0.0000000   0.0000000   0.0000000), wk =   0.0277778
        k(   22) = (   0.0000000   0.0280101   0.0000000), wk =   0.0555556
        k(   23) = (   0.0000000   0.0560203   0.0000000), wk =   0.0555556
        k(   24) = (   0.0000000  -0.0840304   0.0000000), wk =   0.0277778
        k(   25) = (   0.0252881   0.0000000   0.0000000), wk =   0.0555556
        k(   26) = (   0.0252881   0.0280101   0.0000000), wk =   0.0555556
        k(   27) = (   0.0252881   0.0560203   0.0000000), wk =   0.0555556
        k(   28) = (   0.0252881  -0.0840304   0.0000000), wk =   0.0555556
        k(   29) = (   0.0505763   0.0000000   0.0000000), wk =   0.0555556
        k(   30) = (   0.0505763   0.0280101   0.0000000), wk =   0.0555556
        k(   31) = (   0.0505763   0.0560203   0.0000000), wk =   0.0555556
        k(   32) = (   0.0505763  -0.0840304   0.0000000), wk =   0.0555556
        k(   33) = (  -0.0758644   0.0000000   0.0000000), wk =   0.0277778
        k(   34) = (  -0.0758644   0.0280101   0.0000000), wk =   0.0555556
        k(   35) = (  -0.0758644   0.0560203   0.0000000), wk =   0.0555556
        k(   36) = (  -0.0758644  -0.0840304   0.0000000), wk =   0.0277778
        k(   37) = (  -0.0252881   0.0280101   0.0000000), wk =   0.0555556
        k(   38) = (  -0.0252881   0.0560203   0.0000000), wk =   0.0555556
        k(   39) = (  -0.0505763   0.0280101   0.0000000), wk =   0.0555556
        k(   40) = (  -0.0505763   0.0560203   0.0000000), wk =   0.0555556

     Dense  grid:  1096637 G-vectors     FFT dimensions: (  80,  72, 375)

     Smooth grid:   277353 G-vectors     FFT dimensions: (  54,  45, 240)

     Largest allocated arrays     est. size (Mb)     dimensions
        Kohn-Sham Wavefunctions         9.95 Mb     (    2180,  299)
        NL pseudopotentials            18.89 Mb     (    2180,  568)
        Each V/rho on FFT grid          4.22 Mb     (  138240,   2)
        Each G-vector array             0.52 Mb     (   68538)
        G-vector shells                 0.25 Mb     (   33046)
     Largest temporary arrays     est. size (Mb)     dimensions
        Auxiliary wavefunctions        39.78 Mb     (    2180, 1196)
        Each subspace H/S matrix       21.83 Mb     (    1196, 1196)
        Each <psi_i|beta_j> matrix      2.59 Mb     (     568,  299)
        Arrays for rho mixing          21.09 Mb     (  138240,   10)

     Check: negative/imaginary core charge=   -0.000049    0.000000

     The initial density is read from file :
     ./calc.save/charge-density.dat


     negative rho (up, down):  1.209E-02 1.209E-02


     ************************************************************************
     *
     * You are using vdW-DF for exchange-correlation in this calculation.
     * Please cite the following three references that made this development
     * possible:
     *
     *   M. Dion, H. Rydberg, E. Schroder, D. C. Langreth, and
     *   B. I. Lundqvist, Phys. Rev. Lett. 92, 246401 (2004).
     *
     *   T. Thonhauser, V. R. Cooper, S. Li, A. Puzder, P. Hyldgaard, and
     *   D. C. Langreth, Phys. Rev. B 76, 125112 (2007).
     *
     *   G. Roman-Perez and J. M. Soler, Phys. Rev. Lett. 103, 096102 (2009).
     *
     *
     * If you are using vdW-DF2, please also cite:
     *
     *   K. Lee, E. D. Murray, L. Kong, B. I. Lundqvist, and
     *   D. C. Langreth, Phys. Rev. B 82, 081101(R) (2010).
     *
     *
     * If you are calculating the stress with vdW-DF, please also cite:
     *
     *   R. Sabatini, E. Kucukbenli, B. Kolb, T. Thonhauser, and
     *   S. de Gironcoli, J. Phys.: Condens. Matter 24, 424209 (2012).
     *
     ************************************************************************

     Carrying out vdW-DF run using the following parameters:

     Nqs =      20    Nr_points =    1024   r_max =   100.000
     q_mesh =
               0.00001000     0.04494208     0.09755937     0.15916263
               0.23128650     0.31572767     0.41458969     0.53033537
               0.66584808     0.82450364     1.01025438     1.22772762
               1.48234092     1.78043706     2.12944203     2.53805004
               3.01644009     3.57652955     4.23227104     5.00000000

     Gradients computed in reciprocal space

     ************************************************************************


     Starting wfc are  300 randomized atomic wfcs

     total cpu time spent up to now is       74.2 secs

     Self-consistent Calculation

     iteration #  1     ecut=    40.42 Ry     beta=0.10
     Davidson diagonalization with overlap
     ethr =  1.00E-05,  avg # of iterations = 14.8

     Threshold (ethr) on eigenvalues was too large:
     Diagonalizing with lowered threshold

     Davidson diagonalization with overlap
     ethr =  4.18E-07,  avg # of iterations =  1.0

     negative rho (up, down):  1.209E-02 1.209E-02
 
     Magnetic moment per site:
     atom:    1    charge:    3.1250    magn:   -0.0002    constr:    0.0000
     atom:    2    charge:    1.9451    magn:    0.0000    constr:    0.0000
     atom:    3    charge:    3.1198    magn:    0.0000    constr:    0.0000
     atom:    4    charge:    1.9504    magn:   -0.0001    constr:    0.0000
     atom:    5    charge:    3.1166    magn:    0.0000    constr:    0.0000
     atom:    6    charge:    1.9476    magn:   -0.0001    constr:    0.0000
     atom:    7    charge:    3.1158    magn:    0.0001    constr:    0.0000
     atom:    8    charge:    1.9453    magn:   -0.0001    constr:    0.0000
     atom:    9    charge:    3.1250    magn:   -0.0002    constr:    0.0000
     atom:   10    charge:    1.9452    magn:    0.0000    constr:    0.0000
     atom:   11    charge:    3.1197    magn:    0.0000    constr:    0.0000
     atom:   12    charge:    1.9504    magn:   -0.0001    constr:    0.0000
     atom:   13    charge:    3.1158    magn:    0.0000    constr:    0.0000
     atom:   14    charge:    1.9587    magn:   -0.0001    constr:    0.0000
     atom:   15    charge:    3.1188    magn:    0.0001    constr:    0.0000
     atom:   16    charge:    1.9446    magn:   -0.0001    constr:    0.0000
     atom:   17    charge:    1.9183    magn:    0.0004    constr:    0.0000
     atom:   18    charge:    3.1239    magn:   -0.0001    constr:    0.0000
     atom:   19    charge:    1.9408    magn:   -0.0000    constr:    0.0000
     atom:   20    charge:    1.9471    magn:    0.0000    constr:    0.0000
     atom:   21    charge:    1.9471    magn:    0.0000    constr:    0.0000
     atom:   22    charge:    3.1196    magn:    0.0000    constr:    0.0000
     atom:   23    charge:    1.9566    magn:   -0.0001    constr:    0.0000
     atom:   24    charge:    1.9379    magn:   -0.0001    constr:    0.0000
     atom:   25    charge:    1.9505    magn:   -0.0001    constr:    0.0000
     atom:   26    charge:    3.1145    magn:    0.0001    constr:    0.0000
     atom:   27    charge:    1.9398    magn:   -0.0001    constr:    0.0000
     atom:   28    charge:    1.9517    magn:   -0.0001    constr:    0.0000
     atom:   29    charge:    1.9476    magn:   -0.0001    constr:    0.0000
     atom:   30    charge:    3.1167    magn:    0.0000    constr:    0.0000
     atom:   31    charge:    1.9448    magn:   -0.0000    constr:    0.0000
     atom:   32    charge:    1.9440    magn:   -0.0001    constr:    0.0000
     atom:   33    charge:    1.9183    magn:    0.0004    constr:    0.0000
     atom:   34    charge:    3.1239    magn:   -0.0001    constr:    0.0000
     atom:   35    charge:    1.9408    magn:   -0.0000    constr:    0.0000
     atom:   36    charge:    1.9471    magn:    0.0000    constr:    0.0000
     atom:   37    charge:    1.9471    magn:    0.0000    constr:    0.0000
     atom:   38    charge:    3.1196    magn:    0.0000    constr:    0.0000
     atom:   39    charge:    1.9549    magn:   -0.0001    constr:    0.0000
     atom:   40    charge:    1.9383    magn:   -0.0001    constr:    0.0000
     atom:   41    charge:    1.9505    magn:   -0.0001    constr:    0.0000
     atom:   42    charge:    3.1141    magn:    0.0001    constr:    0.0000
     atom:   43    charge:    1.9413    magn:   -0.0001    constr:    0.0000
     atom:   44    charge:    1.9517    magn:   -0.0001    constr:    0.0000
     atom:   45    charge:    1.9468    magn:   -0.0001    constr:    0.0000
     atom:   46    charge:    3.1165    magn:    0.0000    constr:    0.0000
     atom:   47    charge:    1.9430    magn:   -0.0000    constr:    0.0000
     atom:   48    charge:    1.9444    magn:   -0.0001    constr:    0.0000
     atom:   49    charge:    0.6576    magn:   -0.0001    constr:    0.0000
     atom:   50    charge:    1.9581    magn:   -0.0001    constr:    0.0000
     atom:   51    charge:    0.3965    magn:    0.0000    constr:    0.0000
     atom:   52    charge:    0.4006    magn:    0.0000    constr:    0.0000
     atom:   53    charge:    0.4033    magn:    0.0000    constr:    0.0000
     atom:   54    charge:    0.4039    magn:    0.0000    constr:    0.0000

     total cpu time spent up to now is     1011.9 secs

     total energy              =   -3021.42010359 Ry
     Harris-Foulkes estimate   =   -3021.42025814 Ry
     estimated scf accuracy    <       0.00166335 Ry

     total magnetization       =     0.00 Bohr mag/cell
     absolute magnetization    =     0.01 Bohr mag/cell

     iteration #  2     ecut=    40.42 Ry     beta=0.10
     Davidson diagonalization with overlap
     ethr =  4.18E-07,  avg # of iterations =  1.1

     negative rho (up, down):  1.209E-02 1.209E-02
 
     Magnetic moment per site:
     atom:    1    charge:    3.1250    magn:   -0.0001    constr:    0.0000
     atom:    2    charge:    1.9451    magn:    0.0000    constr:    0.0000
     atom:    3    charge:    3.1198    magn:    0.0000    constr:    0.0000
     atom:    4    charge:    1.9504    magn:   -0.0000    constr:    0.0000
     atom:    5    charge:    3.1166    magn:    0.0000    constr:    0.0000
     atom:    6    charge:    1.9476    magn:   -0.0001    constr:    0.0000
     atom:    7    charge:    3.1158    magn:    0.0000    constr:    0.0000
     atom:    8    charge:    1.9454    magn:   -0.0001    constr:    0.0000
     atom:    9    charge:    3.1250    magn:   -0.0001    constr:    0.0000
     atom:   10    charge:    1.9452    magn:    0.0000    constr:    0.0000
     atom:   11    charge:    3.1197    magn:    0.0000    constr:    0.0000
     atom:   12    charge:    1.9504    magn:   -0.0000    constr:    0.0000
     atom:   13    charge:    3.1158    magn:    0.0000    constr:    0.0000
     atom:   14    charge:    1.9587    magn:   -0.0001    constr:    0.0000
     atom:   15    charge:    3.1188    magn:    0.0001    constr:    0.0000
     atom:   16    charge:    1.9447    magn:   -0.0001    constr:    0.0000
     atom:   17    charge:    1.9183    magn:    0.0004    constr:    0.0000
     atom:   18    charge:    3.1239    magn:   -0.0001    constr:    0.0000
     atom:   19    charge:    1.9408    magn:   -0.0000    constr:    0.0000
     atom:   20    charge:    1.9471    magn:    0.0000    constr:    0.0000
     atom:   21    charge:    1.9471    magn:    0.0000    constr:    0.0000
     atom:   22    charge:    3.1196    magn:    0.0000    constr:    0.0000
     atom:   23    charge:    1.9566    magn:   -0.0001    constr:    0.0000
     atom:   24    charge:    1.9379    magn:   -0.0000    constr:    0.0000
     atom:   25    charge:    1.9505    magn:   -0.0000    constr:    0.0000
     atom:   26    charge:    3.1145    magn:    0.0000    constr:    0.0000
     atom:   27    charge:    1.9398    magn:   -0.0001    constr:    0.0000
     atom:   28    charge:    1.9517    magn:   -0.0001    constr:    0.0000
     atom:   29    charge:    1.9476    magn:   -0.0001    constr:    0.0000
     atom:   30    charge:    3.1167    magn:    0.0000    constr:    0.0000
     atom:   31    charge:    1.9450    magn:   -0.0000    constr:    0.0000
     atom:   32    charge:    1.9440    magn:   -0.0001    constr:    0.0000
     atom:   33    charge:    1.9183    magn:    0.0004    constr:    0.0000
     atom:   34    charge:    3.1239    magn:   -0.0001    constr:    0.0000
     atom:   35    charge:    1.9408    magn:   -0.0000    constr:    0.0000
     atom:   36    charge:    1.9471    magn:    0.0000    constr:    0.0000
     atom:   37    charge:    1.9471    magn:    0.0000    constr:    0.0000
     atom:   38    charge:    3.1196    magn:    0.0000    constr:    0.0000
     atom:   39    charge:    1.9549    magn:   -0.0001    constr:    0.0000
     atom:   40    charge:    1.9383    magn:   -0.0000    constr:    0.0000
     atom:   41    charge:    1.9505    magn:   -0.0000    constr:    0.0000
     atom:   42    charge:    3.1141    magn:    0.0000    constr:    0.0000
     atom:   43    charge:    1.9413    magn:   -0.0001    constr:    0.0000
     atom:   44    charge:    1.9517    magn:   -0.0001    constr:    0.0000
     atom:   45    charge:    1.9468    magn:   -0.0001    constr:    0.0000
     atom:   46    charge:    3.1165    magn:    0.0000    constr:    0.0000
     atom:   47    charge:    1.9430    magn:   -0.0000    constr:    0.0000
     atom:   48    charge:    1.9444    magn:   -0.0001    constr:    0.0000
     atom:   49    charge:    0.6563    magn:   -0.0000    constr:    0.0000
     atom:   50    charge:    1.9587    magn:   -0.0001    constr:    0.0000
     atom:   51    charge:    0.3969    magn:    0.0000    constr:    0.0000
     atom:   52    charge:    0.4006    magn:    0.0000    constr:    0.0000
     atom:   53    charge:    0.4032    magn:    0.0000    constr:    0.0000
     atom:   54    charge:    0.4038    magn:    0.0000    constr:    0.0000

     total cpu time spent up to now is     1188.5 secs

     total energy              =   -3021.41985753 Ry
     Harris-Foulkes estimate   =   -3021.42011884 Ry
     estimated scf accuracy    <       0.00111293 Ry

     total magnetization       =     0.00 Bohr mag/cell
     absolute magnetization    =     0.01 Bohr mag/cell

     iteration #  3     ecut=    40.42 Ry     beta=0.10
     Davidson diagonalization with overlap
     ethr =  2.80E-07,  avg # of iterations =  3.4

     negative rho (up, down):  1.209E-02 1.209E-02
 
     Magnetic moment per site:
     atom:    1    charge:    3.1250    magn:   -0.0001    constr:    0.0000
     atom:    2    charge:    1.9452    magn:    0.0000    constr:    0.0000
     atom:    3    charge:    3.1197    magn:    0.0000    constr:    0.0000
     atom:    4    charge:    1.9504    magn:   -0.0000    constr:    0.0000
     atom:    5    charge:    3.1166    magn:    0.0000    constr:    0.0000
     atom:    6    charge:    1.9477    magn:   -0.0001    constr:    0.0000
     atom:    7    charge:    3.1156    magn:    0.0000    constr:    0.0000
     atom:    8    charge:    1.9453    magn:   -0.0001    constr:    0.0000
     atom:    9    charge:    3.1250    magn:   -0.0001    constr:    0.0000
     atom:   10    charge:    1.9452    magn:    0.0000    constr:    0.0000
     atom:   11    charge:    3.1196    magn:    0.0000    constr:    0.0000
     atom:   12    charge:    1.9504    magn:   -0.0000    constr:    0.0000
     atom:   13    charge:    3.1158    magn:    0.0000    constr:    0.0000
     atom:   14    charge:    1.9587    magn:   -0.0001    constr:    0.0000
     atom:   15    charge:    3.1188    magn:    0.0000    constr:    0.0000
     atom:   16    charge:    1.9446    magn:   -0.0001    constr:    0.0000
     atom:   17    charge:    1.9185    magn:    0.0003    constr:    0.0000
     atom:   18    charge:    3.1240    magn:   -0.0001    constr:    0.0000
     atom:   19    charge:    1.9408    magn:   -0.0000    constr:    0.0000
     atom:   20    charge:    1.9471    magn:    0.0000    constr:    0.0000
     atom:   21    charge:    1.9471    magn:    0.0000    constr:    0.0000
     atom:   22    charge:    3.1196    magn:    0.0000    constr:    0.0000
     atom:   23    charge:    1.9566    magn:   -0.0001    constr:    0.0000
     atom:   24    charge:    1.9379    magn:   -0.0000    constr:    0.0000
     atom:   25    charge:    1.9505    magn:   -0.0000    constr:    0.0000
     atom:   26    charge:    3.1145    magn:    0.0000    constr:    0.0000
     atom:   27    charge:    1.9397    magn:   -0.0000    constr:    0.0000
     atom:   28    charge:    1.9517    magn:   -0.0001    constr:    0.0000
     atom:   29    charge:    1.9476    magn:   -0.0001    constr:    0.0000
     atom:   30    charge:    3.1167    magn:    0.0000    constr:    0.0000
     atom:   31    charge:    1.9448    magn:   -0.0000    constr:    0.0000
     atom:   32    charge:    1.9440    magn:   -0.0001    constr:    0.0000
     atom:   33    charge:    1.9185    magn:    0.0003    constr:    0.0000
     atom:   34    charge:    3.1240    magn:   -0.0001    constr:    0.0000
     atom:   35    charge:    1.9408    magn:   -0.0000    constr:    0.0000
     atom:   36    charge:    1.9471    magn:    0.0000    constr:    0.0000
     atom:   37    charge:    1.9471    magn:    0.0000    constr:    0.0000
     atom:   38    charge:    3.1196    magn:    0.0000    constr:    0.0000
     atom:   39    charge:    1.9550    magn:   -0.0001    constr:    0.0000
     atom:   40    charge:    1.9382    magn:   -0.0000    constr:    0.0000
     atom:   41    charge:    1.9505    magn:   -0.0000    constr:    0.0000
     atom:   42    charge:    3.1141    magn:    0.0000    constr:    0.0000
     atom:   43    charge:    1.9413    magn:   -0.0000    constr:    0.0000
     atom:   44    charge:    1.9517    magn:   -0.0001    constr:    0.0000
     atom:   45    charge:    1.9468    magn:   -0.0001    constr:    0.0000
     atom:   46    charge:    3.1165    magn:    0.0000    constr:    0.0000
     atom:   47    charge:    1.9431    magn:   -0.0000    constr:    0.0000
     atom:   48    charge:    1.9444    magn:   -0.0001    constr:    0.0000
     atom:   49    charge:    0.6560    magn:   -0.0000    constr:    0.0000
     atom:   50    charge:    1.9585    magn:   -0.0000    constr:    0.0000
     atom:   51    charge:    0.3970    magn:    0.0000    constr:    0.0000
     atom:   52    charge:    0.4007    magn:    0.0000    constr:    0.0000
     atom:   53    charge:    0.4032    magn:    0.0000    constr:    0.0000
     atom:   54    charge:    0.4038    magn:    0.0000    constr:    0.0000

     total cpu time spent up to now is     1397.6 secs

     total energy              =   -3021.41987325 Ry
     Harris-Foulkes estimate   =   -3021.41992421 Ry
     estimated scf accuracy    <       0.00032009 Ry

     total magnetization       =     0.00 Bohr mag/cell
     absolute magnetization    =     0.00 Bohr mag/cell

     iteration #  4     ecut=    40.42 Ry     beta=0.10
     Davidson diagonalization with overlap
     ethr =  8.04E-08,  avg # of iterations =  3.0

     negative rho (up, down):  1.210E-02 1.210E-02
 
     Magnetic moment per site:
     atom:    1    charge:    3.1250    magn:   -0.0001    constr:    0.0000
     atom:    2    charge:    1.9452    magn:    0.0000    constr:    0.0000
     atom:    3    charge:    3.1198    magn:    0.0000    constr:    0.0000
     atom:    4    charge:    1.9504    magn:   -0.0000    constr:    0.0000
     atom:    5    charge:    3.1166    magn:    0.0000    constr:    0.0000
     atom:    6    charge:    1.9477    magn:   -0.0000    constr:    0.0000
     atom:    7    charge:    3.1156    magn:    0.0000    constr:    0.0000
     atom:    8    charge:    1.9451    magn:   -0.0000    constr:    0.0000
     atom:    9    charge:    3.1250    magn:   -0.0001    constr:    0.0000
     atom:   10    charge:    1.9452    magn:    0.0000    constr:    0.0000
     atom:   11    charge:    3.1197    magn:    0.0000    constr:    0.0000
     atom:   12    charge:    1.9504    magn:   -0.0000    constr:    0.0000
     atom:   13    charge:    3.1158    magn:    0.0000    constr:    0.0000
     atom:   14    charge:    1.9587    magn:   -0.0000    constr:    0.0000
     atom:   15    charge:    3.1189    magn:    0.0000    constr:    0.0000
     atom:   16    charge:    1.9445    magn:   -0.0000    constr:    0.0000
     atom:   17    charge:    1.9184    magn:    0.0002    constr:    0.0000
     atom:   18    charge:    3.1240    magn:   -0.0000    constr:    0.0000
     atom:   19    charge:    1.9408    magn:   -0.0000    constr:    0.0000
     atom:   20    charge:    1.9471    magn:    0.0000    constr:    0.0000
     atom:   21    charge:    1.9471    magn:    0.0000    constr:    0.0000
     atom:   22    charge:    3.1196    magn:    0.0000    constr:    0.0000
     atom:   23    charge:    1.9566    magn:   -0.0000    constr:    0.0000
     atom:   24    charge:    1.9379    magn:   -0.0000    constr:    0.0000
     atom:   25    charge:    1.9505    magn:   -0.0000    constr:    0.0000
     atom:   26    charge:    3.1145    magn:    0.0000    constr:    0.0000
     atom:   27    charge:    1.9398    magn:   -0.0000    constr:    0.0000
     atom:   28    charge:    1.9517    magn:   -0.0000    constr:    0.0000
     atom:   29    charge:    1.9476    magn:   -0.0000    constr:    0.0000
     atom:   30    charge:    3.1167    magn:    0.0000    constr:    0.0000
     atom:   31    charge:    1.9446    magn:   -0.0000    constr:    0.0000
     atom:   32    charge:    1.9440    magn:   -0.0000    constr:    0.0000
     atom:   33    charge:    1.9184    magn:    0.0002    constr:    0.0000
     atom:   34    charge:    3.1240    magn:   -0.0000    constr:    0.0000
     atom:   35    charge:    1.9408    magn:   -0.0000    constr:    0.0000
     atom:   36    charge:    1.9471    magn:    0.0000    constr:    0.0000
     atom:   37    charge:    1.9471    magn:    0.0000    constr:    0.0000
     atom:   38    charge:    3.1196    magn:    0.0000    constr:    0.0000
     atom:   39    charge:    1.9550    magn:   -0.0000    constr:    0.0000
     atom:   40    charge:    1.9383    magn:   -0.0000    constr:    0.0000
     atom:   41    charge:    1.9505    magn:   -0.0000    constr:    0.0000
     atom:   42    charge:    3.1141    magn:    0.0000    constr:    0.0000
     atom:   43    charge:    1.9413    magn:   -0.0000    constr:    0.0000
     atom:   44    charge:    1.9518    magn:   -0.0000    constr:    0.0000
     atom:   45    charge:    1.9469    magn:   -0.0000    constr:    0.0000
     atom:   46    charge:    3.1165    magn:    0.0000    constr:    0.0000
     atom:   47    charge:    1.9432    magn:   -0.0000    constr:    0.0000
     atom:   48    charge:    1.9445    magn:   -0.0000    constr:    0.0000
     atom:   49    charge:    0.6560    magn:   -0.0000    constr:    0.0000
     atom:   50    charge:    1.9580    magn:   -0.0000    constr:    0.0000
     atom:   51    charge:    0.3971    magn:    0.0000    constr:    0.0000
     atom:   52    charge:    0.4008    magn:    0.0000    constr:    0.0000
     atom:   53    charge:    0.4032    magn:    0.0000    constr:    0.0000
     atom:   54    charge:    0.4038    magn:    0.0000    constr:    0.0000

     total cpu time spent up to now is     1601.6 secs

     total energy              =   -3021.41988274 Ry
     Harris-Foulkes estimate   =   -3021.41988712 Ry
     estimated scf accuracy    <       0.00008690 Ry

     total magnetization       =     0.00 Bohr mag/cell
     absolute magnetization    =     0.00 Bohr mag/cell

     iteration #  5     ecut=    40.42 Ry     beta=0.10
     Davidson diagonalization with overlap
     ethr =  2.18E-08,  avg # of iterations =  3.1

     negative rho (up, down):  1.209E-02 1.209E-02
 
     Magnetic moment per site:
     atom:    1    charge:    3.1250    magn:   -0.0001    constr:    0.0000
     atom:    2    charge:    1.9451    magn:    0.0000    constr:    0.0000
     atom:    3    charge:    3.1198    magn:    0.0000    constr:    0.0000
     atom:    4    charge:    1.9504    magn:   -0.0000    constr:    0.0000
     atom:    5    charge:    3.1166    magn:    0.0000    constr:    0.0000
     atom:    6    charge:    1.9476    magn:   -0.0000    constr:    0.0000
     atom:    7    charge:    3.1157    magn:    0.0000    constr:    0.0000
     atom:    8    charge:    1.9452    magn:   -0.0000    constr:    0.0000
     atom:    9    charge:    3.1250    magn:   -0.0001    constr:    0.0000
     atom:   10    charge:    1.9452    magn:    0.0000    constr:    0.0000
     atom:   11    charge:    3.1197    magn:    0.0000    constr:    0.0000
     atom:   12    charge:    1.9504    magn:   -0.0000    constr:    0.0000
     atom:   13    charge:    3.1158    magn:    0.0000    constr:    0.0000
     atom:   14    charge:    1.9587    magn:   -0.0000    constr:    0.0000
     atom:   15    charge:    3.1188    magn:    0.0000    constr:    0.0000
     atom:   16    charge:    1.9445    magn:   -0.0000    constr:    0.0000
     atom:   17    charge:    1.9184    magn:    0.0002    constr:    0.0000
     atom:   18    charge:    3.1239    magn:   -0.0000    constr:    0.0000
     atom:   19    charge:    1.9408    magn:   -0.0000    constr:    0.0000
     atom:   20    charge:    1.9471    magn:    0.0000    constr:    0.0000
     atom:   21    charge:    1.9471    magn:    0.0000    constr:    0.0000
     atom:   22    charge:    3.1196    magn:    0.0000    constr:    0.0000
     atom:   23    charge:    1.9566    magn:   -0.0000    constr:    0.0000
     atom:   24    charge:    1.9379    magn:   -0.0000    constr:    0.0000
     atom:   25    charge:    1.9505    magn:   -0.0000    constr:    0.0000
     atom:   26    charge:    3.1145    magn:    0.0000    constr:    0.0000
     atom:   27    charge:    1.9398    magn:   -0.0000    constr:    0.0000
     atom:   28    charge:    1.9517    magn:   -0.0000    constr:    0.0000
     atom:   29    charge:    1.9476    magn:   -0.0000    constr:    0.0000
     atom:   30    charge:    3.1167    magn:    0.0000    constr:    0.0000
     atom:   31    charge:    1.9446    magn:   -0.0000    constr:    0.0000
     atom:   32    charge:    1.9440    magn:   -0.0000    constr:    0.0000
     atom:   33    charge:    1.9184    magn:    0.0002    constr:    0.0000
     atom:   34    charge:    3.1239    magn:   -0.0000    constr:    0.0000
     atom:   35    charge:    1.9408    magn:   -0.0000    constr:    0.0000
     atom:   36    charge:    1.9471    magn:    0.0000    constr:    0.0000
     atom:   37    charge:    1.9471    magn:    0.0000    constr:    0.0000
     atom:   38    charge:    3.1196    magn:    0.0000    constr:    0.0000
     atom:   39    charge:    1.9549    magn:   -0.0000    constr:    0.0000
     atom:   40    charge:    1.9383    magn:   -0.0000    constr:    0.0000
     atom:   41    charge:    1.9505    magn:   -0.0000    constr:    0.0000
     atom:   42    charge:    3.1141    magn:    0.0000    constr:    0.0000
     atom:   43    charge:    1.9413    magn:   -0.0000    constr:    0.0000
     atom:   44    charge:    1.9517    magn:   -0.0000    constr:    0.0000
     atom:   45    charge:    1.9468    magn:   -0.0000    constr:    0.0000
     atom:   46    charge:    3.1165    magn:    0.0000    constr:    0.0000
     atom:   47    charge:    1.9431    magn:   -0.0000    constr:    0.0000
     atom:   48    charge:    1.9444    magn:   -0.0000    constr:    0.0000
     atom:   49    charge:    0.6566    magn:   -0.0000    constr:    0.0000
     atom:   50    charge:    1.9575    magn:   -0.0000    constr:    0.0000
     atom:   51    charge:    0.3969    magn:    0.0000    constr:    0.0000
     atom:   52    charge:    0.4009    magn:    0.0000    constr:    0.0000
     atom:   53    charge:    0.4032    magn:    0.0000    constr:    0.0000
     atom:   54    charge:    0.4038    magn:    0.0000    constr:    0.0000

     total cpu time spent up to now is     1805.2 secs

     total energy              =   -3021.41988135 Ry
     Harris-Foulkes estimate   =   -3021.41988735 Ry
     estimated scf accuracy    <       0.00002388 Ry

     total magnetization       =     0.00 Bohr mag/cell
     absolute magnetization    =     0.00 Bohr mag/cell

     iteration #  6     ecut=    40.42 Ry     beta=0.10
     Davidson diagonalization with overlap
     ethr =  6.00E-09,  avg # of iterations =  3.7

     negative rho (up, down):  1.209E-02 1.209E-02
 
     Magnetic moment per site:
     atom:    1    charge:    3.1250    magn:   -0.0001    constr:    0.0000
     atom:    2    charge:    1.9451    magn:    0.0000    constr:    0.0000
     atom:    3    charge:    3.1198    magn:    0.0000    constr:    0.0000
     atom:    4    charge:    1.9504    magn:   -0.0000    constr:    0.0000
     atom:    5    charge:    3.1166    magn:    0.0000    constr:    0.0000
     atom:    6    charge:    1.9476    magn:   -0.0000    constr:    0.0000
     atom:    7    charge:    3.1157    magn:    0.0000    constr:    0.0000
     atom:    8    charge:    1.9452    magn:   -0.0000    constr:    0.0000
     atom:    9    charge:    3.1250    magn:   -0.0001    constr:    0.0000
     atom:   10    charge:    1.9452    magn:    0.0000    constr:    0.0000
     atom:   11    charge:    3.1197    magn:    0.0000    constr:    0.0000
     atom:   12    charge:    1.9504    magn:   -0.0000    constr:    0.0000
     atom:   13    charge:    3.1158    magn:    0.0000    constr:    0.0000
     atom:   14    charge:    1.9587    magn:   -0.0000    constr:    0.0000
     atom:   15    charge:    3.1188    magn:    0.0000    constr:    0.0000
     atom:   16    charge:    1.9445    magn:   -0.0000    constr:    0.0000
     atom:   17    charge:    1.9184    magn:    0.0002    constr:    0.0000
     atom:   18    charge:    3.1239    magn:   -0.0000    constr:    0.0000
     atom:   19    charge:    1.9408    magn:   -0.0000    constr:    0.0000
     atom:   20    charge:    1.9471    magn:    0.0000    constr:    0.0000
     atom:   21    charge:    1.9471    magn:    0.0000    constr:    0.0000
     atom:   22    charge:    3.1196    magn:    0.0000    constr:    0.0000
     atom:   23    charge:    1.9566    magn:   -0.0000    constr:    0.0000
     atom:   24    charge:    1.9379    magn:   -0.0000    constr:    0.0000
     atom:   25    charge:    1.9505    magn:   -0.0000    constr:    0.0000
     atom:   26    charge:    3.1145    magn:    0.0000    constr:    0.0000
     atom:   27    charge:    1.9398    magn:   -0.0000    constr:    0.0000
     atom:   28    charge:    1.9517    magn:   -0.0000    constr:    0.0000
     atom:   29    charge:    1.9476    magn:   -0.0000    constr:    0.0000
     atom:   30    charge:    3.1167    magn:    0.0000    constr:    0.0000
     atom:   31    charge:    1.9447    magn:   -0.0000    constr:    0.0000
     atom:   32    charge:    1.9440    magn:   -0.0000    constr:    0.0000
     atom:   33    charge:    1.9184    magn:    0.0002    constr:    0.0000
     atom:   34    charge:    3.1239    magn:   -0.0000    constr:    0.0000
     atom:   35    charge:    1.9408    magn:   -0.0000    constr:    0.0000
     atom:   36    charge:    1.9471    magn:    0.0000    constr:    0.0000
     atom:   37    charge:    1.9471    magn:    0.0000    constr:    0.0000
     atom:   38    charge:    3.1196    magn:    0.0000    constr:    0.0000
     atom:   39    charge:    1.9549    magn:   -0.0000    constr:    0.0000
     atom:   40    charge:    1.9383    magn:   -0.0000    constr:    0.0000
     atom:   41    charge:    1.9505    magn:   -0.0000    constr:    0.0000
     atom:   42    charge:    3.1141    magn:    0.0000    constr:    0.0000
     atom:   43    charge:    1.9413    magn:   -0.0000    constr:    0.0000
     atom:   44    charge:    1.9517    magn:   -0.0000    constr:    0.0000
     atom:   45    charge:    1.9468    magn:   -0.0000    constr:    0.0000
     atom:   46    charge:    3.1165    magn:    0.0000    constr:    0.0000
     atom:   47    charge:    1.9431    magn:   -0.0000    constr:    0.0000
     atom:   48    charge:    1.9444    magn:   -0.0000    constr:    0.0000
     atom:   49    charge:    0.6566    magn:   -0.0000    constr:    0.0000
     atom:   50    charge:    1.9577    magn:   -0.0000    constr:    0.0000
     atom:   51    charge:    0.3969    magn:    0.0000    constr:    0.0000
     atom:   52    charge:    0.4009    magn:    0.0000    constr:    0.0000
     atom:   53    charge:    0.4032    magn:    0.0000    constr:    0.0000
     atom:   54    charge:    0.4038    magn:    0.0000    constr:    0.0000

     total cpu time spent up to now is     2024.8 secs

     total energy              =   -3021.41988506 Ry
     Harris-Foulkes estimate   =   -3021.41988531 Ry
     estimated scf accuracy    <       0.00000663 Ry

     total magnetization       =     0.00 Bohr mag/cell
     absolute magnetization    =     0.00 Bohr mag/cell

     iteration #  7     ecut=    40.42 Ry     beta=0.10
     Davidson diagonalization with overlap
     ethr =  1.67E-09,  avg # of iterations =  3.0

     negative rho (up, down):  1.209E-02 1.209E-02
 
     Magnetic moment per site:
     atom:    1    charge:    3.1250    magn:   -0.0000    constr:    0.0000
     atom:    2    charge:    1.9452    magn:    0.0000    constr:    0.0000
     atom:    3    charge:    3.1198    magn:    0.0000    constr:    0.0000
     atom:    4    charge:    1.9504    magn:   -0.0000    constr:    0.0000
     atom:    5    charge:    3.1166    magn:    0.0000    constr:    0.0000
     atom:    6    charge:    1.9476    magn:   -0.0000    constr:    0.0000
     atom:    7    charge:    3.1157    magn:    0.0000    constr:    0.0000
     atom:    8    charge:    1.9453    magn:   -0.0000    constr:    0.0000
     atom:    9    charge:    3.1250    magn:   -0.0000    constr:    0.0000
     atom:   10    charge:    1.9452    magn:    0.0000    constr:    0.0000
     atom:   11    charge:    3.1197    magn:    0.0000    constr:    0.0000
     atom:   12    charge:    1.9504    magn:   -0.0000    constr:    0.0000
     atom:   13    charge:    3.1158    magn:    0.0000    constr:    0.0000
     atom:   14    charge:    1.9587    magn:   -0.0000    constr:    0.0000
     atom:   15    charge:    3.1188    magn:    0.0000    constr:    0.0000
     atom:   16    charge:    1.9446    magn:   -0.0000    constr:    0.0000
     atom:   17    charge:    1.9184    magn:    0.0001    constr:    0.0000
     atom:   18    charge:    3.1239    magn:   -0.0000    constr:    0.0000
     atom:   19    charge:    1.9408    magn:   -0.0000    constr:    0.0000
     atom:   20    charge:    1.9471    magn:    0.0000    constr:    0.0000
     atom:   21    charge:    1.9471    magn:    0.0000    constr:    0.0000
     atom:   22    charge:    3.1196    magn:    0.0000    constr:    0.0000
     atom:   23    charge:    1.9566    magn:   -0.0000    constr:    0.0000
     atom:   24    charge:    1.9379    magn:   -0.0000    constr:    0.0000
     atom:   25    charge:    1.9505    magn:   -0.0000    constr:    0.0000
     atom:   26    charge:    3.1145    magn:    0.0000    constr:    0.0000
     atom:   27    charge:    1.9398    magn:   -0.0000    constr:    0.0000
     atom:   28    charge:    1.9517    magn:   -0.0000    constr:    0.0000
     atom:   29    charge:    1.9476    magn:   -0.0000    constr:    0.0000
     atom:   30    charge:    3.1167    magn:    0.0000    constr:    0.0000
     atom:   31    charge:    1.9447    magn:   -0.0000    constr:    0.0000
     atom:   32    charge:    1.9440    magn:   -0.0000    constr:    0.0000
     atom:   33    charge:    1.9184    magn:    0.0001    constr:    0.0000
     atom:   34    charge:    3.1239    magn:   -0.0000    constr:    0.0000
     atom:   35    charge:    1.9408    magn:   -0.0000    constr:    0.0000
     atom:   36    charge:    1.9471    magn:    0.0000    constr:    0.0000
     atom:   37    charge:    1.9471    magn:    0.0000    constr:    0.0000
     atom:   38    charge:    3.1196    magn:    0.0000    constr:    0.0000
     atom:   39    charge:    1.9549    magn:   -0.0000    constr:    0.0000
     atom:   40    charge:    1.9383    magn:   -0.0000    constr:    0.0000
     atom:   41    charge:    1.9505    magn:   -0.0000    constr:    0.0000
     atom:   42    charge:    3.1141    magn:    0.0000    constr:    0.0000
     atom:   43    charge:    1.9413    magn:   -0.0000    constr:    0.0000
     atom:   44    charge:    1.9517    magn:   -0.0000    constr:    0.0000
     atom:   45    charge:    1.9468    magn:   -0.0000    constr:    0.0000
     atom:   46    charge:    3.1165    magn:    0.0000    constr:    0.0000
     atom:   47    charge:    1.9431    magn:   -0.0000    constr:    0.0000
     atom:   48    charge:    1.9444    magn:   -0.0000    constr:    0.0000
     atom:   49    charge:    0.6568    magn:   -0.0000    constr:    0.0000
     atom:   50    charge:    1.9578    magn:   -0.0000    constr:    0.0000
     atom:   51    charge:    0.3969    magn:    0.0000    constr:    0.0000
     atom:   52    charge:    0.4009    magn:    0.0000    constr:    0.0000
     atom:   53    charge:    0.4033    magn:    0.0000    constr:    0.0000
     atom:   54    charge:    0.4039    magn:    0.0000    constr:    0.0000

     total cpu time spent up to now is     2230.7 secs

     total energy              =   -3021.41988529 Ry
     Harris-Foulkes estimate   =   -3021.41988547 Ry
     estimated scf accuracy    <       0.00000285 Ry

     total magnetization       =     0.00 Bohr mag/cell
     absolute magnetization    =     0.00 Bohr mag/cell

     iteration #  8     ecut=    40.42 Ry     beta=0.10
     Davidson diagonalization with overlap
     ethr =  7.16E-10,  avg # of iterations =  3.5

     negative rho (up, down):  1.209E-02 1.209E-02
 
     Magnetic moment per site:
     atom:    1    charge:    3.1250    magn:   -0.0000    constr:    0.0000
     atom:    2    charge:    1.9452    magn:    0.0000    constr:    0.0000
     atom:    3    charge:    3.1198    magn:    0.0000    constr:    0.0000
     atom:    4    charge:    1.9504    magn:   -0.0000    constr:    0.0000
     atom:    5    charge:    3.1166    magn:    0.0000    constr:    0.0000
     atom:    6    charge:    1.9476    magn:   -0.0000    constr:    0.0000
     atom:    7    charge:    3.1157    magn:    0.0000    constr:    0.0000
     atom:    8    charge:    1.9452    magn:   -0.0000    constr:    0.0000
     atom:    9    charge:    3.1250    magn:   -0.0000    constr:    0.0000
     atom:   10    charge:    1.9452    magn:    0.0000    constr:    0.0000
     atom:   11    charge:    3.1197    magn:    0.0000    constr:    0.0000
     atom:   12    charge:    1.9504    magn:   -0.0000    constr:    0.0000
     atom:   13    charge:    3.1158    magn:    0.0000    constr:    0.0000
     atom:   14    charge:    1.9587    magn:   -0.0000    constr:    0.0000
     atom:   15    charge:    3.1188    magn:    0.0000    constr:    0.0000
     atom:   16    charge:    1.9446    magn:   -0.0000    constr:    0.0000
     atom:   17    charge:    1.9184    magn:    0.0001    constr:    0.0000
     atom:   18    charge:    3.1239    magn:   -0.0000    constr:    0.0000
     atom:   19    charge:    1.9408    magn:   -0.0000    constr:    0.0000
     atom:   20    charge:    1.9471    magn:    0.0000    constr:    0.0000
     atom:   21    charge:    1.9471    magn:    0.0000    constr:    0.0000
     atom:   22    charge:    3.1196    magn:    0.0000    constr:    0.0000
     atom:   23    charge:    1.9566    magn:   -0.0000    constr:    0.0000
     atom:   24    charge:    1.9379    magn:   -0.0000    constr:    0.0000
     atom:   25    charge:    1.9505    magn:   -0.0000    constr:    0.0000
     atom:   26    charge:    3.1145    magn:    0.0000    constr:    0.0000
     atom:   27    charge:    1.9398    magn:   -0.0000    constr:    0.0000
     atom:   28    charge:    1.9517    magn:   -0.0000    constr:    0.0000
     atom:   29    charge:    1.9476    magn:   -0.0000    constr:    0.0000
     atom:   30    charge:    3.1167    magn:    0.0000    constr:    0.0000
     atom:   31    charge:    1.9447    magn:   -0.0000    constr:    0.0000
     atom:   32    charge:    1.9440    magn:   -0.0000    constr:    0.0000
     atom:   33    charge:    1.9184    magn:    0.0001    constr:    0.0000
     atom:   34    charge:    3.1239    magn:   -0.0000    constr:    0.0000
     atom:   35    charge:    1.9408    magn:   -0.0000    constr:    0.0000
     atom:   36    charge:    1.9471    magn:    0.0000    constr:    0.0000
     atom:   37    charge:    1.9471    magn:    0.0000    constr:    0.0000
     atom:   38    charge:    3.1196    magn:    0.0000    constr:    0.0000
     atom:   39    charge:    1.9549    magn:   -0.0000    constr:    0.0000
     atom:   40    charge:    1.9383    magn:   -0.0000    constr:    0.0000
     atom:   41    charge:    1.9505    magn:   -0.0000    constr:    0.0000
     atom:   42    charge:    3.1141    magn:    0.0000    constr:    0.0000
     atom:   43    charge:    1.9413    magn:   -0.0000    constr:    0.0000
     atom:   44    charge:    1.9517    magn:   -0.0000    constr:    0.0000
     atom:   45    charge:    1.9468    magn:   -0.0000    constr:    0.0000
     atom:   46    charge:    3.1165    magn:    0.0000    constr:    0.0000
     atom:   47    charge:    1.9431    magn:   -0.0000    constr:    0.0000
     atom:   48    charge:    1.9444    magn:   -0.0000    constr:    0.0000
     atom:   49    charge:    0.6567    magn:   -0.0000    constr:    0.0000
     atom:   50    charge:    1.9579    magn:   -0.0000    constr:    0.0000
     atom:   51    charge:    0.3969    magn:    0.0000    constr:    0.0000
     atom:   52    charge:    0.4009    magn:    0.0000    constr:    0.0000
     atom:   53    charge:    0.4033    magn:    0.0000    constr:    0.0000
     atom:   54    charge:    0.4039    magn:    0.0000    constr:    0.0000

     total cpu time spent up to now is     2446.5 secs

     total energy              =   -3021.41988552 Ry
     Harris-Foulkes estimate   =   -3021.41988577 Ry
     estimated scf accuracy    <       0.00000125 Ry

     total magnetization       =     0.00 Bohr mag/cell
     absolute magnetization    =     0.00 Bohr mag/cell

     iteration #  9     ecut=    40.42 Ry     beta=0.10
     Davidson diagonalization with overlap
     ethr =  3.15E-10,  avg # of iterations =  3.0

     negative rho (up, down):  1.209E-02 1.209E-02
 
     Magnetic moment per site:
     atom:    1    charge:    3.1250    magn:   -0.0000    constr:    0.0000
     atom:    2    charge:    1.9452    magn:    0.0000    constr:    0.0000
     atom:    3    charge:    3.1198    magn:    0.0000    constr:    0.0000
     atom:    4    charge:    1.9504    magn:   -0.0000    constr:    0.0000
     atom:    5    charge:    3.1166    magn:    0.0000    constr:    0.0000
     atom:    6    charge:    1.9476    magn:   -0.0000    constr:    0.0000
     atom:    7    charge:    3.1157    magn:    0.0000    constr:    0.0000
     atom:    8    charge:    1.9452    magn:   -0.0000    constr:    0.0000
     atom:    9    charge:    3.1250    magn:   -0.0000    constr:    0.0000
     atom:   10    charge:    1.9452    magn:    0.0000    constr:    0.0000
     atom:   11    charge:    3.1197    magn:    0.0000    constr:    0.0000
     atom:   12    charge:    1.9504    magn:   -0.0000    constr:    0.0000
     atom:   13    charge:    3.1158    magn:    0.0000    constr:    0.0000
     atom:   14    charge:    1.9587    magn:   -0.0000    constr:    0.0000
     atom:   15    charge:    3.1188    magn:    0.0000    constr:    0.0000
     atom:   16    charge:    1.9446    magn:   -0.0000    constr:    0.0000
     atom:   17    charge:    1.9184    magn:    0.0001    constr:    0.0000
     atom:   18    charge:    3.1239    magn:   -0.0000    constr:    0.0000
     atom:   19    charge:    1.9408    magn:   -0.0000    constr:    0.0000
     atom:   20    charge:    1.9471    magn:    0.0000    constr:    0.0000
     atom:   21    charge:    1.9471    magn:    0.0000    constr:    0.0000
     atom:   22    charge:    3.1196    magn:    0.0000    constr:    0.0000
     atom:   23    charge:    1.9566    magn:   -0.0000    constr:    0.0000
     atom:   24    charge:    1.9379    magn:   -0.0000    constr:    0.0000
     atom:   25    charge:    1.9505    magn:   -0.0000    constr:    0.0000
     atom:   26    charge:    3.1145    magn:    0.0000    constr:    0.0000
     atom:   27    charge:    1.9398    magn:   -0.0000    constr:    0.0000
     atom:   28    charge:    1.9517    magn:   -0.0000    constr:    0.0000
     atom:   29    charge:    1.9476    magn:   -0.0000    constr:    0.0000
     atom:   30    charge:    3.1167    magn:    0.0000    constr:    0.0000
     atom:   31    charge:    1.9447    magn:   -0.0000    constr:    0.0000
     atom:   32    charge:    1.9440    magn:   -0.0000    constr:    0.0000
     atom:   33    charge:    1.9184    magn:    0.0001    constr:    0.0000
     atom:   34    charge:    3.1239    magn:   -0.0000    constr:    0.0000
     atom:   35    charge:    1.9408    magn:   -0.0000    constr:    0.0000
     atom:   36    charge:    1.9471    magn:    0.0000    constr:    0.0000
     atom:   37    charge:    1.9471    magn:    0.0000    constr:    0.0000
     atom:   38    charge:    3.1196    magn:    0.0000    constr:    0.0000
     atom:   39    charge:    1.9549    magn:   -0.0000    constr:    0.0000
     atom:   40    charge:    1.9383    magn:   -0.0000    constr:    0.0000
     atom:   41    charge:    1.9505    magn:   -0.0000    constr:    0.0000
     atom:   42    charge:    3.1141    magn:    0.0000    constr:    0.0000
     atom:   43    charge:    1.9413    magn:   -0.0000    constr:    0.0000
     atom:   44    charge:    1.9517    magn:   -0.0000    constr:    0.0000
     atom:   45    charge:    1.9468    magn:   -0.0000    constr:    0.0000
     atom:   46    charge:    3.1165    magn:    0.0000    constr:    0.0000
     atom:   47    charge:    1.9431    magn:   -0.0000    constr:    0.0000
     atom:   48    charge:    1.9444    magn:   -0.0000    constr:    0.0000
     atom:   49    charge:    0.6566    magn:   -0.0000    constr:    0.0000
     atom:   50    charge:    1.9581    magn:   -0.0000    constr:    0.0000
     atom:   51    charge:    0.3969    magn:    0.0000    constr:    0.0000
     atom:   52    charge:    0.4008    magn:    0.0000    constr:    0.0000
     atom:   53    charge:    0.4033    magn:    0.0000    constr:    0.0000
     atom:   54    charge:    0.4038    magn:    0.0000    constr:    0.0000

     total cpu time spent up to now is     2651.5 secs

     End of self-consistent calculation

 ------ SPIN UP ------------


          k = 0.0000 0.0000 0.0000 ( 34665 PWs)   bands (ev):

   -57.7002 -57.6653 -57.3194 -57.2831 -57.2345 -57.1112 -57.0749 -57.0740
   -57.0528 -57.0393 -56.9918 -56.9563 -56.7326 -56.6951 -56.1506 -56.1154
   -34.1363 -33.9824 -33.9539 -33.9012 -33.8717 -33.8069 -33.7464 -33.6553
   -33.6201 -33.6067 -33.5693 -33.5424 -33.5203 -33.5094 -33.4914 -33.4874
   -33.4667 -33.4560 -33.4330 -33.4003 -33.3257 -33.2935 -33.2733 -33.2640
   -33.2568 -33.2559 -33.2452 -33.2447 -33.2387 -33.2312 -33.2312 -33.2140
   -33.1821 -33.1818 -33.1763 -33.1426 -33.1200 -32.9987 -32.9806 -32.9595
   -32.9102 -32.8074 -32.5685 -32.5029 -32.4769 -32.3726 -32.2810 -32.1727
   -20.2944 -18.0143 -17.8428 -17.5587 -17.4637 -17.3744 -17.2535 -17.0792
   -17.0676 -16.9762 -16.9403 -16.8855 -16.7858 -16.7795 -16.7314 -16.7090
   -16.7055 -16.6643 -16.6124 -16.6066 -16.5375 -16.4173 -16.4048 -16.3995
   -16.3235 -16.2693 -16.1963 -16.1690 -16.1514 -15.9823 -15.9316 -14.7350
   -14.6513 -11.4343  -7.2375  -5.4550  -5.3930  -5.2923  -5.2059  -5.1997
    -5.1469  -5.1270  -4.8406  -4.8188  -4.4735  -4.4446  -4.3610  -4.3571
    -4.3232  -4.2339  -4.0915  -4.0635  -4.0577  -4.0193  -4.0010  -3.9927
    -3.9620  -3.9530  -3.9521  -3.8415  -3.7902  -3.7678  -3.7379  -3.7192
    -3.6341  -3.6187  -3.5889  -3.5795  -3.5214  -3.5092  -3.4103  -3.3946
    -3.3741  -3.2714  -3.2369  -3.1905  -3.0152  -2.9374  -2.8801  -2.8352
    -2.6964  -2.6091  -2.5914  -2.5814  -2.5770  -2.5705  -2.4337  -2.4160
    -2.3375  -2.2707  -2.2488  -2.2063  -2.2020  -2.1674  -2.1403  -2.0945
    -2.0494  -2.0309  -2.0219  -1.8881  -1.8673  -1.7630  -1.7378  -1.6256
    -1.5448  -1.5426  -1.4920  -1.4825  -1.4645  -1.4250  -1.3242  -1.3110
    -1.3039  -1.2815  -1.2444  -1.1374  -1.0882  -1.0805  -1.0689  -1.0224
    -0.9560  -0.9172  -0.8203  -0.7658  -0.6120  -0.5890  -0.5705  -0.4814
    -0.3781  -0.2433  -0.0860  -0.0281   0.1301   0.2470   0.2607   1.6413
     1.6737   1.9842   2.0007   2.0637   2.0934   2.2035   2.2421   2.2854
     2.4283   2.4956   2.5244   2.5294   2.5405   2.6295   2.6476   2.6558
     2.7137   2.7980   2.8252   2.8372   2.9092   2.9979   3.0316   3.0974
     3.1040   3.1124   3.1597   3.2006   3.2065   3.2253   3.2383   3.2498
     3.2594   3.2873   3.3953   3.4304   3.4549   3.4646   3.5272   3.5840
     3.6514   3.6933   3.8061   3.9797   4.0147   4.0898   4.1787   4.3188
     4.3369   4.3906   4.5877   4.5985   4.8098   4.8370   5.0856   5.1652
     5.2444   5.3294   5.4787   5.5160   5.5290   5.5913   5.6768   5.7100
     5.7984   5.8636   5.8749   5.8846   5.9530   6.0402   6.0467   6.0717
     6.1433   6.2277   6.2415   6.2954   6.3767   6.5820   6.6346   6.7563
     6.8395   7.0082   7.0383   7.1648   7.3012   7.5850   7.9092   8.2522
     8.3365   8.6792   8.7938   8.8750   8.9389   9.0091   9.1745   9.2381
     9.3517   9.3820   9.5306

          k = 0.0000 0.0280 0.0000 ( 34717 PWs)   bands (ev):

   -57.6979 -57.6676 -57.3170 -57.2856 -57.2341 -57.1090 -57.0769 -57.0719
   -57.0532 -57.0416 -56.9894 -56.9587 -56.7302 -56.6976 -56.1483 -56.1177
   -34.1109 -33.9804 -33.9558 -33.8950 -33.8458 -33.8134 -33.7734 -33.6326
   -33.6133 -33.5817 -33.5439 -33.5394 -33.5223 -33.5024 -33.4944 -33.4860
   -33.4733 -33.4639 -33.4310 -33.3934 -33.3196 -33.2917 -33.2870 -33.2655
   -33.2611 -33.2544 -33.2521 -33.2411 -33.2395 -33.2378 -33.2374 -33.2196
   -33.2042 -33.1869 -33.1788 -33.1466 -33.1434 -32.9948 -32.9792 -32.9609
   -32.9153 -32.8354 -32.5428 -32.5012 -32.4787 -32.3665 -32.2872 -32.2002
   -20.2943 -17.9525 -17.7851 -17.5057 -17.4115 -17.3308 -17.2269 -17.0931
   -17.0374 -16.9997 -16.9945 -16.8873 -16.8214 -16.7633 -16.7094 -16.6911
   -16.6775 -16.6670 -16.6587 -16.6431 -16.5965 -16.4411 -16.3862 -16.3696
   -16.3501 -16.2989 -16.2133 -16.1757 -16.1551 -16.0132 -15.9685 -14.7450
   -14.6747 -11.4340  -7.2371  -5.4059  -5.3132  -5.2420  -5.2040  -5.1317
    -5.0698  -5.0484  -4.7651  -4.7045  -4.4373  -4.4019  -4.3955  -4.3136
    -4.3028  -4.1613  -4.1258  -4.1155  -4.0931  -4.0721  -4.0344  -4.0329
    -3.9671  -3.9628  -3.9515  -3.8931  -3.8549  -3.8480  -3.8396  -3.7674
    -3.7230  -3.7086  -3.6674  -3.6174  -3.5770  -3.5582  -3.4319  -3.3587
    -3.3130  -3.2380  -3.2023  -3.1052  -2.9360  -2.8728  -2.7478  -2.7264
    -2.6152  -2.6020  -2.5269  -2.5114  -2.4797  -2.4421  -2.4137  -2.4097
    -2.3884  -2.3638  -2.2896  -2.2784  -2.1696  -2.1439  -2.1379  -2.0962
    -2.0236  -1.9992  -1.9557  -1.8783  -1.8120  -1.7687  -1.7088  -1.6838
    -1.6445  -1.6276  -1.5656  -1.5273  -1.4827  -1.4400  -1.4371  -1.3978
    -1.3558  -1.2728  -1.2199  -1.2151  -1.1606  -1.0913  -1.0706  -1.0237
    -1.0107  -0.9061  -0.8673  -0.7924  -0.7622  -0.7081  -0.6098  -0.5931
    -0.3964  -0.2715  -0.0928  -0.0823   0.1450   0.2006   0.2272   1.7276
     1.7736   1.9845   2.0633   2.1286   2.1501   2.2168   2.2726   2.3113
     2.4228   2.4597   2.4977   2.5337   2.5843   2.6017   2.6287   2.6901
     2.7310   2.7688   2.7953   2.9105   2.9208   2.9494   2.9743   3.0086
     3.1093   3.1149   3.1332   3.1734   3.1910   3.2037   3.2564   3.3026
     3.3340   3.3694   3.4052   3.4716   3.5049   3.5505   3.5601   3.6477
     3.6632   3.6839   3.7697   3.9578   4.0322   4.1130   4.1899   4.2844
     4.3219   4.3948   4.5396   4.6910   4.8639   4.9236   5.0893   5.2570
     5.3024   5.3339   5.5359   5.5670   5.6017   5.6257   5.6842   5.7194
     5.7829   5.7909   5.8499   5.8763   5.8971   5.9465   6.0684   6.1215
     6.1482   6.1554   6.1761   6.2058   6.2738   6.5577   6.6013   6.6946
     6.8455   6.9479   6.9804   7.0863   7.2307   7.5873   7.9232   8.0126
     8.0596   8.4553   8.5670   8.8433   8.9134   8.9982   9.0887   9.1325
     9.2726   9.4288   9.4983

          k = 0.0000 0.0560 0.0000 ( 34721 PWs)   bands (ev):

   -57.6915 -57.6740 -57.3105 -57.2921 -57.2333 -57.1029 -57.0830 -57.0656
   -57.0541 -57.0481 -56.9830 -56.9652 -56.7236 -56.7042 -56.1418 -56.1242
   -34.0411 -33.9751 -33.9608 -33.8780 -33.8464 -33.8308 -33.7747 -33.5977
   -33.5748 -33.5736 -33.5366 -33.5291 -33.5079 -33.5058 -33.4786 -33.4738
   -33.4582 -33.4281 -33.4205 -33.3740 -33.3181 -33.3145 -33.3143 -33.3031
   -33.2874 -33.2778 -33.2692 -33.2657 -33.2550 -33.2481 -33.2357 -33.2336
   -33.2119 -33.2000 -33.1723 -33.1669 -33.1283 -32.9898 -32.9756 -32.9642
   -32.9282 -32.9051 -32.4965 -32.4835 -32.4721 -32.3500 -32.3041 -32.2743
   -20.2940 -17.7814 -17.6265 -17.3743 -17.2777 -17.2620 -17.2207 -17.1683
   -17.1379 -16.9643 -16.9545 -16.9201 -16.8754 -16.8217 -16.7902 -16.7269
   -16.7175 -16.6858 -16.6271 -16.5984 -16.5421 -16.5066 -16.4249 -16.3795
   -16.3643 -16.3033 -16.2424 -16.1968 -16.1587 -16.1137 -16.0416 -14.7632
   -14.7253 -11.4332  -7.2361  -5.3590  -5.2148  -5.0773  -5.0375  -4.9259
    -4.8599  -4.8261  -4.5634  -4.5066  -4.4746  -4.4192  -4.4109  -4.3682
    -4.3331  -4.2614  -4.2366  -4.2134  -4.1977  -4.1883  -4.1576  -4.0770
    -4.0594  -4.0079  -3.9893  -3.9705  -3.9321  -3.8931  -3.8585  -3.8195
    -3.7986  -3.7327  -3.6371  -3.5873  -3.4352  -3.4287  -3.3346  -3.2693
    -3.2407  -3.2155  -3.1945  -3.0845  -2.8931  -2.8452  -2.8386  -2.8003
    -2.7235  -2.6701  -2.5493  -2.4749  -2.4457  -2.3238  -2.3172  -2.3128
    -2.3049  -2.2506  -2.2088  -2.1810  -2.1492  -2.1189  -2.0334  -2.0120
    -1.9627  -1.9492  -1.9193  -1.9065  -1.8849  -1.8508  -1.8187  -1.7843
    -1.7469  -1.6966  -1.6269  -1.5437  -1.5291  -1.5115  -1.4576  -1.4216
    -1.3822  -1.3661  -1.3516  -1.2923  -1.2409  -1.2190  -1.1572  -1.1037
    -1.0829  -1.0253  -0.9245  -0.8917  -0.8524  -0.7866  -0.7650  -0.6615
    -0.5887  -0.4650  -0.2438   0.0899   0.1422   0.1773   0.1839   1.8632
     2.0232   2.0958   2.1077   2.2077   2.2327   2.2678   2.3645   2.3875
     2.3944   2.4095   2.4324   2.4745   2.5017   2.5360   2.6724   2.6934
     2.7319   2.7736   2.8286   2.9018   2.9135   2.9362   2.9701   2.9712
     3.0133   3.0968   3.1354   3.1553   3.2483   3.2596   3.2843   3.3278
     3.3662   3.3842   3.4389   3.5355   3.5417   3.6344   3.6751   3.7252
     3.7583   3.8215   3.8559   3.8885   3.9296   4.1287   4.1400   4.1569
     4.3255   4.3741   4.5617   4.9050   5.0140   5.0645   5.1727   5.3768
     5.3804   5.4763   5.5161   5.5477   5.6460   5.7210   5.7225   5.7315
     5.7776   5.7859   5.7979   5.8549   5.8836   5.9471   5.9757   5.9897
     5.9995   6.0530   6.1538   6.1694   6.3084   6.3734   6.4101   6.6162
     6.6596   6.7796   6.8687   7.0418   7.2154   7.3341   7.4458   7.7310
     8.0875   8.2084   8.3457   8.6197   8.8907   8.9899   9.3138   9.3346
     9.4290   9.4426   9.5631

          k = 0.0000-0.0840 0.0000 ( 34678 PWs)   bands (ev):

   -57.6829 -57.6827 -57.3030 -57.2997 -57.2328 -57.0974 -57.0885 -57.0569
   -57.0568 -57.0545 -56.9746 -56.9736 -56.7166 -56.7112 -56.1331 -56.1330
   -33.9680 -33.9678 -33.9446 -33.9445 -33.8545 -33.8544 -33.6879 -33.6639
   -33.5678 -33.5644 -33.5306 -33.5198 -33.5154 -33.4789 -33.4553 -33.4259
   -33.4155 -33.4090 -33.3767 -33.3765 -33.3645 -33.3486 -33.3427 -33.3259
   -33.3246 -33.2863 -33.2796 -33.2775 -33.2706 -33.2691 -33.2342 -33.2324
   -33.2173 -33.2155 -33.1654 -33.1646 -33.0511 -33.0304 -32.9726 -32.9670
   -32.9421 -32.9390 -32.4899 -32.4899 -32.3741 -32.3741 -32.3270 -32.3270
   -20.2938 -17.5708 -17.5071 -17.4117 -17.3915 -17.2310 -17.1772 -17.0676
   -17.0636 -17.0177 -17.0051 -16.9913 -16.8740 -16.8409 -16.8409 -16.8025
   -16.7958 -16.5981 -16.5961 -16.5278 -16.5255 -16.4901 -16.4886 -16.4066
   -16.4047 -16.2647 -16.2627 -16.2028 -16.1986 -16.1349 -16.1036 -14.7620
   -14.7619 -11.4328  -7.2356  -5.3483  -5.2207  -4.8015  -4.7346  -4.7336
    -4.6570  -4.6440  -4.6391  -4.6035  -4.5740  -4.5119  -4.5039  -4.4024
    -4.3750  -4.3409  -4.3391  -4.3102  -4.2970  -4.2817  -4.2765  -4.0567
    -4.0348  -4.0253  -4.0126  -3.9942  -3.9447  -3.8114  -3.7950  -3.7884
    -3.7173  -3.6963  -3.6418  -3.5079  -3.4748  -3.3412  -3.3282  -3.2522
    -3.1402  -3.1180  -3.0456  -3.0206  -2.9647  -2.9264  -2.8058  -2.7902
    -2.6995  -2.6951  -2.5787  -2.5410  -2.5147  -2.4967  -2.4777  -2.4490
    -2.4403  -2.4191  -2.3320  -2.2475  -2.0299  -2.0088  -1.9692  -1.9427
    -1.9293  -1.8303  -1.8241  -1.8107  -1.7838  -1.7466  -1.7326  -1.7020
    -1.6670  -1.6422  -1.6167  -1.5606  -1.5177  -1.4893  -1.4828  -1.4551
    -1.4267  -1.4191  -1.4114  -1.3842  -1.3611  -1.3282  -1.2221  -1.1893
    -1.1019  -1.0745  -1.0100  -0.9796  -0.9721  -0.9615  -0.9438  -0.5260
    -0.5208  -0.4587  -0.4446   0.1422   0.1423   0.1849   0.1867   2.0376
     2.0408   2.2167   2.2185   2.2192   2.2348   2.2828   2.3379   2.3457
     2.3457   2.3706   2.3813   2.5257   2.5524   2.5534   2.5992   2.6625
     2.7134   2.7355   2.7484   2.8897   2.9209   2.9881   2.9957   3.0553
     3.0565   3.1003   3.1109   3.1781   3.2162   3.2314   3.2442   3.4019
     3.4245   3.4355   3.4383   3.4712   3.4819   3.7231   3.7639   3.8023
     3.8053   3.8302   3.9074   3.9297   3.9668   4.0721   4.0745   4.1245
     4.1251   4.4165   4.6695   4.9587   4.9989   5.2592   5.3291   5.4557
     5.4874   5.5069   5.5069   5.5740   5.6069   5.6451   5.6635   5.6691
     5.7973   5.8024   5.8245   5.8499   5.8604   5.8652   5.8810   5.9722
     6.0182   6.0579   6.0709   6.1576   6.1947   6.4059   6.4661   6.5640
     6.6035   6.7462   6.7733   6.9804   7.0305   7.1030   7.3279   7.7060
     7.8849   8.1719   8.4173   8.7831   8.8419   8.8659   9.1544   9.6841
     9.7021   9.7470   9.7939

          k = 0.0253 0.0000 0.0000 ( 34707 PWs)   bands (ev):

   -57.7002 -57.6653 -57.3194 -57.2831 -57.2345 -57.1112 -57.0748 -57.0741
   -57.0528 -57.0393 -56.9918 -56.9563 -56.7326 -56.6951 -56.1506 -56.1154
   -34.1366 -33.9824 -33.9539 -33.9005 -33.8718 -33.8069 -33.7465 -33.6560
   -33.6201 -33.6083 -33.5696 -33.5390 -33.5341 -33.5102 -33.4875 -33.4766
   -33.4655 -33.4560 -33.4330 -33.3934 -33.3256 -33.2936 -33.2730 -33.2640
   -33.2601 -33.2594 -33.2459 -33.2429 -33.2415 -33.2313 -33.2312 -33.2138
   -33.1820 -33.1817 -33.1766 -33.1426 -33.1201 -32.9987 -32.9830 -32.9587
   -32.9102 -32.8075 -32.5684 -32.5040 -32.4763 -32.3726 -32.2810 -32.1728
   -20.2942 -17.9845 -17.8028 -17.5163 -17.4348 -17.3578 -17.2601 -17.1457
   -17.0938 -16.9770 -16.9398 -16.8730 -16.8203 -16.8079 -16.7914 -16.7817
   -16.7318 -16.6941 -16.5583 -16.5360 -16.4555 -16.4542 -16.4057 -16.3715
   -16.3410 -16.3139 -16.1849 -16.1668 -16.1527 -15.9821 -15.9313 -14.7338
   -14.6511 -11.4331  -7.2347  -5.4430  -5.2888  -5.2609  -5.1987  -5.0991
    -5.0458  -5.0182  -4.8353  -4.8141  -4.6193  -4.4705  -4.4369  -4.3323
    -4.3130  -4.3030  -4.2494  -4.1005  -4.0381  -4.0342  -3.9981  -3.9461
    -3.9391  -3.9112  -3.8321  -3.8018  -3.7532  -3.7208  -3.6963  -3.6937
    -3.6224  -3.5997  -3.5719  -3.5643  -3.5180  -3.4486  -3.3319  -3.3115
    -3.2531  -3.2344  -3.1828  -3.1080  -3.0354  -2.9782  -2.9248  -2.8973
    -2.7526  -2.6760  -2.6345  -2.6020  -2.5806  -2.5314  -2.5212  -2.5051
    -2.4335  -2.3369  -2.3238  -2.2380  -2.2224  -2.1833  -2.1596  -2.0722
    -2.0111  -2.0019  -1.9646  -1.8842  -1.8512  -1.7546  -1.7410  -1.6521
    -1.5872  -1.5836  -1.5396  -1.4652  -1.4597  -1.3679  -1.3591  -1.3459
    -1.3386  -1.2920  -1.2753  -1.1916  -1.1287  -1.1186  -1.0792  -1.0472
    -0.9739  -0.9166  -0.8310  -0.7861  -0.7758  -0.6526  -0.6444  -0.5520
    -0.4227  -0.2377  -0.1172  -0.0552   0.1160   0.2043   0.2051   1.6606
     1.7237   1.9999   2.0700   2.1472   2.2215   2.2363   2.2683   2.3767
     2.3837   2.4561   2.5029   2.5206   2.5399   2.5769   2.5959   2.6348
     2.6543   2.7327   2.7560   2.8654   2.8822   2.9681   3.0290   3.1020
     3.1199   3.1421   3.1612   3.2019   3.2069   3.2523   3.2682   3.3384
     3.3756   3.4007   3.4493   3.4715   3.5344   3.5585   3.5903   3.5986
     3.6625   3.7283   3.7455   3.9122   4.0002   4.0948   4.1729   4.2745
     4.3732   4.3934   4.5520   4.6768   4.8617   4.9106   4.9245   5.0684
     5.1199   5.1446   5.1868   5.3495   5.5685   5.6222   5.6927   5.8647
     5.8812   5.9232   5.9579   6.0292   6.0787   6.1159   6.1589   6.2079
     6.2175   6.2504   6.2569   6.3066   6.4474   6.5247   6.6413   6.6662
     6.8196   6.8678   7.0330   7.1487   7.3010   7.7542   7.8554   8.0858
     8.3358   8.3543   8.4296   8.6854   8.8448   8.9656   9.1455   9.3433
     9.3624   9.4683   9.4939

          k = 0.0253 0.0280 0.0000 ( 34687 PWs)   bands (ev):

   -57.6979 -57.6676 -57.3170 -57.2856 -57.2341 -57.1089 -57.0769 -57.0720
   -57.0532 -57.0416 -56.9894 -56.9587 -56.7302 -56.6976 -56.1483 -56.1177
   -34.1112 -33.9804 -33.9558 -33.8943 -33.8459 -33.8133 -33.7735 -33.6332
   -33.6133 -33.5834 -33.5442 -33.5362 -33.5236 -33.5178 -33.4947 -33.4741
   -33.4676 -33.4627 -33.4310 -33.3866 -33.3195 -33.2919 -33.2848 -33.2655
   -33.2611 -33.2559 -33.2545 -33.2491 -33.2391 -33.2377 -33.2365 -33.2184
   -33.2043 -33.1869 -33.1789 -33.1465 -33.1433 -32.9948 -32.9813 -32.9601
   -32.9152 -32.8354 -32.5427 -32.5021 -32.4782 -32.3665 -32.2872 -32.2001
   -20.2941 -17.9242 -17.7461 -17.4651 -17.3850 -17.3108 -17.2336 -17.1294
   -17.0994 -17.0076 -16.9644 -16.8602 -16.8314 -16.8074 -16.7858 -16.7716
   -16.7140 -16.7018 -16.6018 -16.5816 -16.5078 -16.4767 -16.3832 -16.3668
   -16.3578 -16.3308 -16.2020 -16.1752 -16.1548 -16.0136 -15.9682 -14.7440
   -14.6747 -11.4327  -7.2342  -5.4058  -5.2311  -5.2030  -5.1820  -5.0227
    -4.9675  -4.9380  -4.7601  -4.7015  -4.5635  -4.4045  -4.3727  -4.3468
    -4.2612  -4.2546  -4.1881  -4.1199  -4.0879  -4.0662  -4.0345  -4.0222
    -3.9775  -3.9439  -3.9143  -3.8692  -3.8235  -3.8113  -3.7856  -3.7210
    -3.6990  -3.6660  -3.6166  -3.6066  -3.5423  -3.5267  -3.3542  -3.2967
    -3.2537  -3.2162  -3.1512  -3.0751  -2.9832  -2.9514  -2.7859  -2.7082
    -2.6822  -2.6377  -2.6117  -2.5361  -2.5050  -2.4557  -2.4492  -2.4221
    -2.4064  -2.3878  -2.3417  -2.3038  -2.2172  -2.1794  -2.1173  -2.1019
    -2.0681  -1.9960  -1.9509  -1.8931  -1.8663  -1.8279  -1.7636  -1.6761
    -1.6464  -1.6180  -1.5901  -1.5637  -1.5106  -1.4632  -1.4416  -1.4019
    -1.3460  -1.3293  -1.2710  -1.2569  -1.2087  -1.1088  -1.0987  -1.0621
    -1.0108  -0.8879  -0.8400  -0.8364  -0.7661  -0.7403  -0.6980  -0.6600
    -0.4337  -0.2825  -0.1356  -0.0868   0.1481   0.1775   0.1877   1.7197
     1.8438   2.0152   2.0974   2.1942   2.2430   2.2806   2.3149   2.3955
     2.4164   2.4656   2.4875   2.5231   2.5316   2.5509   2.5889   2.6727
     2.7039   2.7260   2.7858   2.8052   2.9288   2.9853   3.0084   3.0332
     3.1047   3.1327   3.1446   3.1712   3.2072   3.2406   3.3425   3.3722
     3.4049   3.4348   3.4613   3.5086   3.5508   3.5674   3.6348   3.6599
     3.6721   3.7065   3.7482   3.8930   3.9918   4.1370   4.1844   4.2511
     4.3055   4.4506   4.5082   4.7716   4.9276   4.9517   4.9918   5.0768
     5.1585   5.1740   5.2217   5.3855   5.6423   5.6820   5.7314   5.7768
     5.8530   5.8641   5.8700   6.0056   6.0698   6.0844   6.1180   6.1434
     6.1955   6.2076   6.2193   6.2346   6.4275   6.5288   6.6112   6.6607
     6.7861   6.8650   6.9621   7.1520   7.2262   7.5064   7.9346   8.0312
     8.0931   8.2493   8.4474   8.5789   8.6529   8.7769   8.9463   9.2680
     9.3524   9.4553   9.5118

          k = 0.0253 0.0560 0.0000 ( 34699 PWs)   bands (ev):

   -57.6915 -57.6740 -57.3105 -57.2921 -57.2333 -57.1028 -57.0830 -57.0656
   -57.0541 -57.0481 -56.9830 -56.9652 -56.7236 -56.7042 -56.1418 -56.1242
   -34.0414 -33.9751 -33.9608 -33.8774 -33.8465 -33.8306 -33.7748 -33.5977
   -33.5754 -33.5737 -33.5367 -33.5270 -33.5103 -33.5091 -33.4787 -33.4742
   -33.4573 -33.4282 -33.4152 -33.3685 -33.3185 -33.3151 -33.3100 -33.3029
   -33.2876 -33.2782 -33.2692 -33.2645 -33.2551 -33.2503 -33.2398 -33.2360
   -33.2120 -33.2007 -33.1723 -33.1667 -33.1282 -32.9898 -32.9771 -32.9641
   -32.9282 -32.9050 -32.4971 -32.4832 -32.4720 -32.3500 -32.3042 -32.2742
   -20.2938 -17.7579 -17.5907 -17.3450 -17.2658 -17.2465 -17.1951 -17.1692
   -17.1410 -16.9971 -16.9718 -16.8819 -16.8775 -16.8313 -16.7982 -16.7737
   -16.7493 -16.6721 -16.6249 -16.6066 -16.5808 -16.5320 -16.4283 -16.4141
   -16.3576 -16.2863 -16.2355 -16.1961 -16.1584 -16.1145 -16.0410 -14.7626
   -14.7255 -11.4319  -7.2332  -5.3666  -5.2140  -5.0308  -4.9499  -4.8145
    -4.7583  -4.7165  -4.5597  -4.4994  -4.4916  -4.4152  -4.3953  -4.3409
    -4.2723  -4.2327  -4.2170  -4.1936  -4.1492  -4.1426  -4.1076  -4.0630
    -4.0342  -4.0144  -3.9949  -3.9372  -3.9259  -3.8768  -3.8612  -3.8228
    -3.7758  -3.7169  -3.6561  -3.5731  -3.4746  -3.3967  -3.3249  -3.2826
    -3.2385  -3.2248  -3.1888  -3.0136  -2.9380  -2.8650  -2.8309  -2.7809
    -2.7595  -2.6472  -2.5944  -2.5109  -2.4904  -2.4395  -2.3940  -2.3666
    -2.3442  -2.3257  -2.2895  -2.2647  -2.1913  -2.1423  -2.1291  -2.0414
    -2.0132  -2.0110  -1.9481  -1.9397  -1.9045  -1.8629  -1.8363  -1.8137
    -1.7464  -1.7052  -1.6802  -1.6389  -1.5743  -1.5395  -1.4959  -1.4769
    -1.4324  -1.3746  -1.3400  -1.3037  -1.2250  -1.2072  -1.1312  -1.1069
    -1.0602  -1.0140  -0.9137  -0.8755  -0.8227  -0.8009  -0.7455  -0.6820
    -0.6082  -0.4669  -0.2576   0.0909   0.1274   0.1545   0.1871   1.8606
     2.0468   2.1306   2.1777   2.2299   2.2701   2.3045   2.3459   2.3835
     2.4244   2.4606   2.4792   2.5063   2.5191   2.5822   2.6921   2.7198
     2.7374   2.7751   2.8222   2.8384   2.9023   2.9508   2.9730   2.9843
     3.0257   3.0323   3.1546   3.2058   3.2848   3.3282   3.3387   3.3815
     3.4058   3.4375   3.4591   3.5390   3.5583   3.6293   3.6542   3.7328
     3.7912   3.8177   3.8601   3.8988   3.9033   4.0702   4.1156   4.1641
     4.3419   4.3832   4.6132   4.9637   5.0108   5.1281   5.1415   5.1567
     5.2606   5.2877   5.3117   5.4353   5.5083   5.5601   5.6354   5.7568
     5.8219   5.8488   5.8899   5.9328   5.9597   6.0020   6.0477   6.0610
     6.1348   6.1558   6.2210   6.3305   6.3781   6.4026   6.4811   6.6428
     6.6911   6.7953   6.8470   7.0351   7.1538   7.3633   7.4858   7.5911
     7.9815   8.1786   8.3534   8.5214   8.6485   8.8559   9.0509   9.1127
     9.1871   9.4929   9.6168

          k = 0.0253-0.0840 0.0000 ( 34722 PWs)   bands (ev):

   -57.6829 -57.6827 -57.3030 -57.2997 -57.2328 -57.0974 -57.0885 -57.0569
   -57.0568 -57.0545 -56.9746 -56.9736 -56.7166 -56.7112 -56.1331 -56.1330
   -33.9680 -33.9678 -33.9448 -33.9447 -33.8542 -33.8540 -33.6880 -33.6640
   -33.5678 -33.5645 -33.5312 -33.5196 -33.5153 -33.4789 -33.4545 -33.4260
   -33.4176 -33.4115 -33.3777 -33.3775 -33.3653 -33.3417 -33.3358 -33.3245
   -33.3231 -33.2861 -33.2794 -33.2777 -33.2708 -33.2677 -33.2377 -33.2363
   -33.2190 -33.2172 -33.1654 -33.1646 -33.0511 -33.0304 -32.9731 -32.9678
[...]
    -1.2988  -1.2683  -1.2500  -1.1912  -1.1518  -1.0328  -1.0212  -1.0131
    -0.9900  -0.9500  -0.9069  -0.8396  -0.7582  -0.7027  -0.6476  -0.5953
    -0.5912  -0.5362  -0.5192   0.0650   0.0651   0.2097   0.2114   2.1522
     2.1531   2.1996   2.2015   2.2367   2.2375   2.2647   2.2963   2.4866
     2.4922   2.5239   2.5536   2.6075   2.6151   2.6781   2.6801   2.6894
     2.6906   2.8424   2.9082   2.9814   2.9964   3.0327   3.0403   3.0965
     3.2182   3.2478   3.2708   3.3313   3.3721   3.3888   3.4433   3.4911
     3.4986   3.5210   3.5474   3.5792   3.6020   3.6782   3.6981   3.7434
     3.8329   3.8891   3.9055   3.9517   3.9520   4.0950   4.1018   4.1106
     4.1111   4.6127   4.7817   4.7859   4.7999   4.8690   4.9189   4.9241
     4.9402   4.9827   5.0251   5.2475   5.3380   5.3572   5.3680   5.7321
     5.7986   5.9094   5.9256   5.9787   6.0424   6.1508   6.2995   6.3478
     6.3636   6.3728   6.4080   6.5751   6.6230   6.6640   6.6641   6.7016
     6.7644   6.8438   6.8448   6.8512   6.8521   7.3612   7.4107   7.5257
     7.6644   7.8265   8.0171   8.1715   8.2223   8.3195   8.3866   8.8167
     8.9140   9.0484   9.0825

          k =-0.0253 0.0280 0.0000 ( 34687 PWs)   bands (ev):

   -57.6980 -57.6677 -57.3170 -57.2855 -57.2340 -57.1089 -57.0769 -57.0720
   -57.0531 -57.0416 -56.9894 -56.9587 -56.7301 -56.6976 -56.1485 -56.1179
   -34.1113 -33.9805 -33.9558 -33.8944 -33.8458 -33.8134 -33.7735 -33.6332
   -33.6133 -33.5833 -33.5442 -33.5362 -33.5236 -33.5178 -33.4946 -33.4740
   -33.4676 -33.4626 -33.4310 -33.3866 -33.3195 -33.2919 -33.2848 -33.2655
   -33.2608 -33.2559 -33.2547 -33.2490 -33.2391 -33.2377 -33.2365 -33.2184
   -33.2043 -33.1869 -33.1788 -33.1464 -33.1433 -32.9948 -32.9812 -32.9601
   -32.9152 -32.8353 -32.5429 -32.5023 -32.4783 -32.3667 -32.2874 -32.2003
   -20.2941 -17.9242 -17.7461 -17.4651 -17.3851 -17.3108 -17.2337 -17.1294
   -17.0996 -17.0073 -16.9644 -16.8606 -16.8314 -16.8084 -16.7854 -16.7715
   -16.7140 -16.7020 -16.6016 -16.5813 -16.5078 -16.4767 -16.3833 -16.3669
   -16.3578 -16.3308 -16.2020 -16.1752 -16.1548 -16.0136 -15.9683 -14.7437
   -14.6743 -11.4327  -7.2342  -5.4057  -5.2310  -5.2030  -5.1820  -5.0231
    -4.9676  -4.9383  -4.7602  -4.7023  -4.5634  -4.4042  -4.3727  -4.3471
    -4.2625  -4.2513  -4.1894  -4.1183  -4.0922  -4.0658  -4.0371  -4.0223
    -3.9762  -3.9422  -3.9157  -3.8702  -3.8236  -3.8128  -3.7857  -3.7210
    -3.7018  -3.6647  -3.6163  -3.6057  -3.5407  -3.5258  -3.3584  -3.2901
    -3.2545  -3.2174  -3.1497  -3.0731  -2.9843  -2.9476  -2.7848  -2.7075
    -2.6815  -2.6383  -2.6115  -2.5336  -2.5059  -2.4530  -2.4487  -2.4241
    -2.4072  -2.3859  -2.3411  -2.3028  -2.2191  -2.1766  -2.1229  -2.1052
    -2.0639  -1.9923  -1.9523  -1.8963  -1.8647  -1.8284  -1.7442  -1.7093
    -1.6542  -1.6004  -1.5944  -1.5614  -1.5172  -1.4716  -1.4375  -1.3940
    -1.3460  -1.3339  -1.2822  -1.2439  -1.1980  -1.1106  -1.0990  -1.0603
    -1.0113  -0.8933  -0.8420  -0.8310  -0.7569  -0.7398  -0.7102  -0.6609
    -0.4347  -0.2825  -0.1361  -0.0866   0.1483   0.1778   0.1880   1.7196
     1.8438   2.0151   2.0988   2.1940   2.2444   2.2838   2.3177   2.4025
     2.4143   2.4486   2.4845   2.5286   2.5314   2.5458   2.6063   2.6672
     2.7040   2.7376   2.7742   2.8106   2.9373   2.9846   3.0027   3.0257
     3.1058   3.1342   3.1450   3.1729   3.2074   3.2379   3.3460   3.3712
     3.4026   3.4185   3.4629   3.5051   3.5599   3.5692   3.6357   3.6598
     3.6719   3.7075   3.7476   3.8919   3.9906   4.1388   4.1844   4.2516
     4.3055   4.4509   4.5085   4.7726   4.9356   4.9508   4.9825   5.0767
     5.1574   5.1736   5.2215   5.3844   5.6437   5.6754   5.7285   5.7865
     5.8511   5.8640   5.8709   6.0044   6.0725   6.0773   6.1226   6.1441
     6.1956   6.2066   6.2153   6.2429   6.4274   6.5267   6.6110   6.6661
     6.7904   6.8584   6.9620   7.1521   7.2265   7.5061   7.9342   8.0303
     8.0931   8.2474   8.4426   8.5805   8.6490   8.7782   8.9521   9.2732
     9.3482   9.4569   9.5091

          k =-0.0253 0.0560 0.0000 ( 34699 PWs)   bands (ev):

   -57.6916 -57.6741 -57.3105 -57.2921 -57.2332 -57.1028 -57.0830 -57.0656
   -57.0540 -57.0480 -56.9829 -56.9652 -56.7235 -56.7042 -56.1420 -56.1244
   -34.0415 -33.9752 -33.9609 -33.8775 -33.8466 -33.8307 -33.7748 -33.5976
   -33.5753 -33.5737 -33.5367 -33.5270 -33.5103 -33.5091 -33.4786 -33.4742
   -33.4572 -33.4281 -33.4151 -33.3685 -33.3184 -33.3151 -33.3099 -33.3029
   -33.2876 -33.2781 -33.2692 -33.2645 -33.2550 -33.2504 -33.2397 -33.2359
   -33.2119 -33.2006 -33.1723 -33.1667 -33.1281 -32.9898 -32.9769 -32.9641
   -32.9282 -32.9050 -32.4973 -32.4834 -32.4721 -32.3502 -32.3043 -32.2744
   -20.2938 -17.7579 -17.5907 -17.3450 -17.2658 -17.2467 -17.1953 -17.1691
   -17.1408 -16.9971 -16.9718 -16.8820 -16.8778 -16.8318 -16.7986 -16.7737
   -16.7491 -16.6718 -16.6248 -16.6062 -16.5808 -16.5322 -16.4283 -16.4142
   -16.3577 -16.2862 -16.2356 -16.1961 -16.1583 -16.1145 -16.0410 -14.7622
   -14.7251 -11.4319  -7.2332  -5.3665  -5.2140  -5.0304  -4.9499  -4.8151
    -4.7583  -4.7166  -4.5597  -4.4978  -4.4921  -4.4149  -4.3956  -4.3457
    -4.2726  -4.2338  -4.2165  -4.1936  -4.1491  -4.1420  -4.1091  -4.0630
    -4.0332  -4.0117  -3.9962  -3.9383  -3.9256  -3.8747  -3.8650  -3.8234
    -3.7753  -3.7151  -3.6570  -3.5732  -3.4740  -3.3965  -3.3307  -3.2822
    -3.2396  -3.2185  -3.1825  -3.0146  -2.9356  -2.8662  -2.8276  -2.7844
    -2.7570  -2.6466  -2.5935  -2.5115  -2.4888  -2.4408  -2.3952  -2.3636
    -2.3444  -2.3253  -2.2920  -2.2671  -2.1910  -2.1422  -2.1282  -2.0383
    -2.0216  -2.0044  -1.9466  -1.9440  -1.9058  -1.8631  -1.8318  -1.8084
    -1.7445  -1.7122  -1.6738  -1.6436  -1.5809  -1.5408  -1.5064  -1.4617
    -1.4322  -1.3736  -1.3487  -1.3023  -1.2252  -1.2074  -1.1298  -1.1052
    -1.0611  -1.0148  -0.9257  -0.8765  -0.8153  -0.8011  -0.7392  -0.6816
    -0.6082  -0.4685  -0.2590   0.0911   0.1277   0.1549   0.1873   1.8604
     2.0467   2.1335   2.1776   2.2267   2.2683   2.3052   2.3317   2.3826
     2.4429   2.4576   2.4841   2.5117   2.5195   2.5822   2.6913   2.7228
     2.7432   2.7746   2.8263   2.8395   2.8917   2.9482   2.9692   2.9852
     3.0225   3.0334   3.1687   3.2064   3.2888   3.3152   3.3326   3.3693
     3.4101   3.4352   3.4586   3.5415   3.5580   3.6334   3.6556   3.7333
     3.7915   3.8152   3.8610   3.8971   3.9054   4.0710   4.1155   4.1643
     4.3416   4.3833   4.6140   4.9649   5.0178   5.1247   5.1385   5.1549
     5.2581   5.2856   5.3135   5.4267   5.5102   5.5598   5.6385   5.7613
     5.8231   5.8469   5.8936   5.9353   5.9548   5.9961   6.0520   6.0630
     6.1347   6.1543   6.2278   6.3226   6.3783   6.4089   6.4782   6.6464
     6.6941   6.7952   6.8406   7.0356   7.1518   7.3633   7.4864   7.5897
     7.9803   8.1778   8.3537   8.5231   8.6487   8.8589   9.0566   9.1145
     9.1834   9.4976   9.6162

          k =-0.0506 0.0280 0.0000 ( 34685 PWs)   bands (ev):

   -57.6980 -57.6677 -57.3170 -57.2855 -57.2340 -57.1087 -57.0769 -57.0721
   -57.0531 -57.0416 -56.9894 -56.9587 -56.7302 -56.6976 -56.1485 -56.1179
   -34.1120 -33.9805 -33.9558 -33.8930 -33.8461 -33.8133 -33.7736 -33.6346
   -33.6133 -33.5867 -33.5448 -33.5371 -33.5291 -33.5213 -33.4945 -33.4737
   -33.4603 -33.4503 -33.4310 -33.3704 -33.3192 -33.2921 -33.2804 -33.2668
   -33.2655 -33.2630 -33.2605 -33.2553 -33.2391 -33.2377 -33.2354 -33.2160
   -33.2048 -33.1871 -33.1788 -33.1463 -33.1432 -32.9948 -32.9856 -32.9587
   -32.9152 -32.8353 -32.5428 -32.5041 -32.4774 -32.3667 -32.2874 -32.2003
   -20.2937 -17.8620 -17.6524 -17.3703 -17.3431 -17.2513 -17.2260 -17.2157
   -17.1239 -17.0448 -16.9648 -16.9222 -16.8727 -16.8590 -16.8561 -16.8346
   -16.7650 -16.7461 -16.5609 -16.5296 -16.5057 -16.4394 -16.4168 -16.3781
   -16.3705 -16.3129 -16.1930 -16.1736 -16.1536 -16.0148 -15.9681 -14.7417
   -14.6744 -11.4301  -7.2285  -5.4169  -5.2182  -5.2014  -4.8934  -4.8354
    -4.7219  -4.7062  -4.6770  -4.6567  -4.6316  -4.5106  -4.4291  -4.3470
    -4.3198  -4.3030  -4.1607  -4.1280  -4.0618  -4.0282  -4.0100  -3.9946
    -3.9839  -3.9108  -3.8611  -3.8172  -3.7749  -3.7624  -3.7200  -3.6920
    -3.6569  -3.6349  -3.5841  -3.5528  -3.4455  -3.3173  -3.2819  -3.2623
    -3.2237  -3.1714  -3.1031  -3.0597  -2.9550  -2.9389  -2.8761  -2.8416
    -2.7443  -2.6949  -2.6613  -2.6510  -2.6056  -2.5919  -2.5368  -2.4965
    -2.4382  -2.3887  -2.3822  -2.3367  -2.3101  -2.2557  -2.1807  -2.1371
    -2.1149  -2.0635  -2.0274  -1.9755  -1.9411  -1.9063  -1.8612  -1.8328
    -1.7559  -1.7414  -1.7131  -1.6422  -1.5413  -1.5079  -1.4864  -1.4185
    -1.3686  -1.3489  -1.2801  -1.2614  -1.2389  -1.1482  -1.1118  -1.0144
    -0.9776  -0.8810  -0.8567  -0.8147  -0.7795  -0.7650  -0.7065  -0.6909
    -0.5142  -0.3130  -0.2607  -0.0739   0.1090   0.1384   0.1617   1.7030
     1.9039   2.0593   2.1214   2.1262   2.1714   2.2396   2.3598   2.3710
     2.4050   2.4367   2.5167   2.5663   2.5735   2.6016   2.6825   2.6953
     2.7419   2.8014   2.8318   2.9016   2.9545   2.9803   3.0404   3.0590
     3.0895   3.1591   3.1701   3.1995   3.3012   3.3549   3.3750   3.4090
     3.4444   3.4567   3.5456   3.5848   3.6031   3.6522   3.6750   3.6835
     3.7158   3.7696   3.8174   3.8680   3.9307   4.0575   4.1677   4.2810
     4.2918   4.4218   4.6205   4.6883   4.7633   4.8099   4.8539   4.9871
     5.0110   5.1264   5.2227   5.4687   5.5936   5.6400   5.7213   5.8051
     5.8604   5.8715   5.9239   5.9462   5.9803   6.0926   6.1165   6.1382
     6.2316   6.4308   6.4819   6.5388   6.5765   6.6075   6.6841   6.7424
     6.7962   6.8164   6.9728   7.1174   7.1667   7.3978   7.5712   7.7040
     8.1317   8.1629   8.2479   8.3918   8.7439   8.9675   9.0129   9.0485
     9.3792   9.4456   9.6089

          k =-0.0506 0.0560 0.0000 ( 34596 PWs)   bands (ev):

   -57.6916 -57.6741 -57.3104 -57.2921 -57.2332 -57.1027 -57.0829 -57.0657
   -57.0540 -57.0481 -56.9829 -56.9652 -56.7235 -56.7042 -56.1420 -56.1244
   -34.0420 -33.9752 -33.9609 -33.8763 -33.8467 -33.8303 -33.7749 -33.5976
   -33.5765 -33.5737 -33.5370 -33.5230 -33.5168 -33.5123 -33.4787 -33.4749
   -33.4552 -33.4281 -33.4055 -33.3549 -33.3195 -33.3192 -33.3026 -33.3002
   -33.2879 -33.2781 -33.2690 -33.2622 -33.2551 -33.2549 -33.2491 -33.2410
   -33.2120 -33.2022 -33.1723 -33.1664 -33.1277 -32.9898 -32.9797 -32.9639
   -32.9281 -32.9048 -32.4984 -32.4830 -32.4720 -32.3502 -32.3043 -32.2743
   -20.2934 -17.7075 -17.5017 -17.2927 -17.2411 -17.1993 -17.1749 -17.1633
   -17.0914 -17.0382 -17.0074 -16.9149 -16.8580 -16.8504 -16.8461 -16.8079
   -16.7776 -16.7238 -16.6641 -16.6240 -16.6143 -16.5521 -16.5139 -16.4008
   -16.3450 -16.2648 -16.2278 -16.1946 -16.1577 -16.1162 -16.0402 -14.7610
   -14.7254 -11.4292  -7.2272  -5.3823  -5.2128  -5.0212  -4.6603  -4.6185
    -4.5169  -4.5006  -4.4852  -4.4581  -4.4338  -4.3689  -4.3261  -4.3030
    -4.2273  -4.2071  -4.1475  -4.1334  -4.0841  -4.0688  -4.0476  -4.0379
    -4.0159  -3.9978  -3.9703  -3.9162  -3.8957  -3.8897  -3.8239  -3.7889
    -3.7320  -3.6610  -3.6314  -3.5239  -3.4875  -3.3730  -3.3296  -3.2633
    -3.2580  -3.2460  -3.1414  -3.0139  -2.9345  -2.9064  -2.8524  -2.8322
    -2.7578  -2.7280  -2.6861  -2.6112  -2.5931  -2.5691  -2.5289  -2.4912
    -2.4298  -2.4071  -2.3672  -2.3307  -2.3178  -2.3014  -2.2568  -2.1798
    -2.1540  -2.1226  -2.1157  -2.0788  -2.0489  -2.0038  -1.9857  -1.9032
    -1.8928  -1.8532  -1.8344  -1.7260  -1.6392  -1.6076  -1.5743  -1.4799
    -1.4097  -1.3764  -1.3088  -1.2491  -1.2073  -1.1112  -1.0747  -1.0186
    -1.0031  -0.9380  -0.8539  -0.8211  -0.7714  -0.7577  -0.6938  -0.6583
    -0.6528  -0.5190  -0.3259   0.0771   0.1112   0.1292   0.1928   1.8657
     2.0755   2.1640   2.1980   2.2198   2.2425   2.2971   2.3466   2.3918
     2.4025   2.5363   2.5689   2.5780   2.6063   2.6270   2.6821   2.7535
     2.7809   2.8030   2.8375   2.8797   2.9622   3.0029   3.0271   3.0607
     3.0959   3.1349   3.1664   3.2555   3.3344   3.3660   3.3956   3.4396
     3.4774   3.4984   3.5204   3.5412   3.6138   3.6461   3.7101   3.7431
     3.7784   3.8497   3.8787   3.9184   3.9242   3.9528   4.1107   4.1738
     4.2884   4.4720   4.7231   4.8057   4.8152   4.8951   4.9406   5.0908
     5.1640   5.2309   5.2709   5.3298   5.3710   5.4334   5.4945   5.6248
     5.7799   5.8297   5.8801   5.9509   6.0414   6.1232   6.2164   6.2583
     6.2854   6.3470   6.4148   6.4491   6.5032   6.5772   6.6492   6.7151
     6.7298   6.8239   6.8519   6.9835   7.0543   7.4102   7.4347   7.5787
     7.7461   7.9428   8.0738   8.3861   8.5709   8.6121   8.7394   9.0073
     9.2227   9.3235   9.4532

     the Fermi energy is     0.9960 ev

!    total energy              =   -3021.41988552 Ry
     Harris-Foulkes estimate   =   -3021.41988559 Ry
     estimated scf accuracy    <       0.00000032 Ry

     The total energy is the sum of the following terms:

     one-electron contribution =  -41243.17732874 Ry
     hartree contribution      =   20695.82632919 Ry
     xc contribution           =    -553.68552629 Ry
     ewald contribution        =   18079.61685166 Ry
     smearing contrib. (-TS)   =      -0.00021134 Ry

     total magnetization       =     0.00 Bohr mag/cell
     absolute magnetization    =     0.00 Bohr mag/cell

     convergence has been achieved in   9 iterations

     Forces acting on atoms (Ry/au):


     negative rho (up, down):  1.209E-02 1.209E-02
     atom    1 type  1   force =     0.00002093   -0.00035543   -0.13381579
     atom    2 type  2   force =     0.00000990    0.00002972    0.07213510
     atom    3 type  1   force =    -0.00134991    0.00030894   -0.06097958
     atom    4 type  2   force =     0.00290648    0.00048647    0.00638795
     atom    5 type  1   force =     0.00027271    0.00184487    0.00352374
     atom    6 type  2   force =     0.00006017    0.00000802   -0.00286030
     atom    7 type  1   force =    -0.00013304   -0.00074108    0.00450672
     atom    8 type  2   force =     0.00091135   -0.00018210   -0.00066674
     atom    9 type  1   force =    -0.00002483    0.00002031   -0.13357291
     atom   10 type  2   force =    -0.00006437    0.00006534    0.07131588
     atom   11 type  1   force =    -0.00131436   -0.00024197   -0.05588957
     atom   12 type  2   force =     0.00299968   -0.00006787    0.00610671
     atom   13 type  1   force =     0.00029660   -0.00147471    0.00346050
     atom   14 type  2   force =    -0.00119381   -0.00038670   -0.00289832
     atom   15 type  1   force =    -0.00048835    0.00020327    0.00450715
     atom   16 type  2   force =     0.00054240   -0.00020168   -0.00006446
     atom   17 type  2   force =    -0.00006801   -0.00007172    0.07940864
     atom   18 type  1   force =     0.00014118   -0.00017245    0.11909427
     atom   19 type  2   force =    -0.00010461   -0.00017401   -0.06668314
     atom   20 type  2   force =    -0.06322074    0.00014717   -0.03223946
     atom   21 type  2   force =     0.06320478    0.00001444   -0.03244451
     atom   22 type  1   force =     0.00072590    0.00108150    0.05974097
     atom   23 type  2   force =    -0.00017114    0.00005559   -0.00173777
     atom   24 type  2   force =    -0.00143027   -0.00000532   -0.02324689
     atom   25 type  2   force =    -0.00312950    0.00059094    0.00787692
     atom   26 type  1   force =     0.00064428    0.00029253    0.00459399
     atom   27 type  2   force =     0.00052587    0.00059605   -0.00379930
     atom   28 type  2   force =     0.00014468   -0.00008773   -0.00119554
     atom   29 type  2   force =     0.00021704   -0.00034745   -0.00058098
     atom   30 type  1   force =     0.00019702   -0.00082502    0.00378495
     atom   31 type  2   force =     0.00009010    0.00011831   -0.00266809
     atom   32 type  2   force =     0.00003087   -0.00007292   -0.00121835
     atom   33 type  2   force =    -0.00011520    0.00003866    0.07901404
     atom   34 type  1   force =     0.00007205   -0.00021907    0.11900866
     atom   35 type  2   force =    -0.00030151   -0.00005436   -0.06638391
     atom   36 type  2   force =    -0.06318133   -0.00005344   -0.03232801
     atom   37 type  2   force =     0.06333504   -0.00020188   -0.03248336
     atom   38 type  1   force =     0.00066400   -0.00098111    0.05995932
     atom   39 type  2   force =    -0.00045383    0.00010423   -0.00248572
     atom   40 type  2   force =    -0.00118540    0.00030651   -0.02215472
     atom   41 type  2   force =    -0.00316792   -0.00014870    0.00790396
     atom   42 type  1   force =     0.00052116    0.00006307    0.00371795
     atom   43 type  2   force =     0.00069787    0.00023504   -0.00297440
     atom   44 type  2   force =     0.00022956    0.00010165   -0.00114947
     atom   45 type  2   force =     0.00019467    0.00031210   -0.00061236
     atom   46 type  1   force =     0.00046572    0.00042448    0.00388986
     atom   47 type  2   force =     0.00007381   -0.00032451   -0.00136148
     atom   48 type  2   force =     0.00010777    0.00012010   -0.00095973
     atom   49 type  3   force =    -0.01261258   -0.00077735   -0.00664545
     atom   50 type  2   force =     0.00576875   -0.00021498   -0.00269599
     atom   51 type  4   force =     0.00968217    0.00012128    0.01049892
     atom   52 type  4   force =     0.00066996    0.00035863    0.00023560
     atom   53 type  4   force =    -0.00146691    0.00075364   -0.00100174
     atom   54 type  4   force =    -0.00124686   -0.00041934   -0.00087376

     Total force =     0.363215     Total SCF correction =     0.001557
 !ASE

     Writing output data file calc.save
 
     init_run     :     57.93s CPU     73.62s WALL (       1 calls)
     electrons    :   2073.23s CPU   2577.72s WALL (       1 calls)
     forces       :     40.48s CPU     41.49s WALL (       1 calls)

     Called by init_run:
     wfcinit      :     49.50s CPU     64.43s WALL (       1 calls)
     potinit      :      1.35s CPU      1.69s WALL (       1 calls)

     Called by electrons:
     c_bands      :   1799.94s CPU   2234.50s WALL (      10 calls)
     sum_band     :    233.29s CPU    297.40s WALL (      10 calls)
     v_of_rho     :      9.86s CPU     12.43s WALL (      10 calls)
     newd         :     34.08s CPU     37.54s WALL (      10 calls)
     mix_rho      :      0.35s CPU      0.49s WALL (      10 calls)
     vdW_energy   :      1.80s CPU      2.20s WALL (      11 calls)
     vdW_ffts     :      2.57s CPU      3.41s WALL (      22 calls)
     vdW_v        :      1.00s CPU      1.17s WALL (      11 calls)

     Called by c_bands:
     init_us_2    :      6.04s CPU      6.50s WALL (     880 calls)
     cegterg      :   1763.59s CPU   2195.94s WALL (     400 calls)

     Called by *egterg:
     h_psi        :    748.89s CPU   1104.30s WALL (    2029 calls)
     s_psi        :     89.97s CPU     94.21s WALL (    2029 calls)
     g_psi        :      4.88s CPU      5.06s WALL (    1589 calls)
     cdiaghg      :    590.74s CPU    606.00s WALL (    1949 calls)

     Called by h_psi:
     add_vuspsi   :     90.53s CPU     94.79s WALL (    2029 calls)

     General routines
     calbec       :    138.58s CPU    142.10s WALL (    2469 calls)
     fft          :      5.59s CPU      7.28s WALL (     875 calls)
     ffts         :      0.04s CPU      0.06s WALL (      40 calls)
     fftw         :    499.00s CPU    896.77s WALL (  723908 calls)
     interpolate  :      0.32s CPU      0.51s WALL (      40 calls)
     davcio       :      0.13s CPU      3.35s WALL (      40 calls)
 
     Parallel routines
     fft_scatter  :    271.66s CPU    474.98s WALL (  724823 calls)
 
     PWSCF        : 36m12.70s CPU    44m58.02s WALL

 
   This run was terminated on:  21:26:54  12Feb2018            

=------------------------------------------------------------------------------=
   JOB DONE.
=------------------------------------------------------------------------------=
