  python dir          : /home/vossj/suncat/lib/python2.7/site-packages/espresso
  espresso dir        : /home/vossj/suncat/esdld/espresso-dynpy-beef/bin
  pseudo dir          : /home/alatimer/bin/psp/esp_psp_w_gbrvRu/
  ase-espresso py git : ffa2778-git



     Program PWSCF v.5.1rc2 (svn rev. ) starts on 12Feb2018 at 21:26:56 

     This program is part of the open-source Quantum ESPRESSO suite
     for quantum simulation of materials; please cite
         "P. Giannozzi et al., J. Phys.:Condens. Matter 21 395502 (2009);
          URL http://www.quantum-espresso.org", 
     in publications or presentations arising from this work. More details at
     http://www.quantum-espresso.org/quote

     Parallel version (MPI), running on    16 processors
     R & G space division:  proc/nbgrp/npool/nimage =      16
     Reading input from pw.inp
     Message from routine read_cards :
     DEPRECATED: no units specified in CELL_PARAMETERS card

     Current dimensions of program PWSCF are:
     Max number of different atomic species (ntypx) = 10
     Max number of k-points (npk) =  40000
     Max angular momentum in pseudopotentials (lmaxx) =  3

     **************************************************************************
     Initializing libbeef V0.1.1 with the BEEF-vdW functional.
     Citation: Wellendorff et al., PRB 85, 235149 (2012).
     **************************************************************************


     IMPORTANT: XC functional enforced from input :
     Exchange-correlation      = BEEF ( 1  4 27 13 2)
     Any further DFT definition will be discarded
     Please, verify this is what you really want


     Subspace diagonalization in iterative solution of the eigenvalue problem:
     a serial algorithm will be used

 
     Parallelization info
     --------------------
     sticks:   dense  smooth     PW     G-vecs:    dense   smooth      PW
     Min         281     112     31                68535    17318    2565
     Max         282     113     32                68545    17369    2582
     Sum        4501    1795    503              1096637   277353   41113
 
     Generating pointlists ...
     new r_m :   0.4125 (alat units)  0.7795 (a.u.) for type    1
     new r_m :   0.3995 (alat units)  0.7549 (a.u.) for type    2
     new r_m :   0.4125 (alat units)  0.7795 (a.u.) for type    3
     new r_m :   0.3995 (alat units)  0.7549 (a.u.) for type    4


     bravais-lattice index     =            0
     lattice parameter (alat)  =       1.8897  a.u.
     unit-cell volume          =    7990.9933 (a.u.)^3
     number of atoms/cell      =           54
     number of atomic types    =            4
     number of electrons       =       398.00
     number of Kohn-Sham states=          299
     kinetic-energy cutoff     =      40.4243  Ry
     charge density cutoff     =     404.2426  Ry
     convergence threshold     =      7.3E-07
     mixing beta               =       0.1000
     number of iterations used =           10  plain     mixing
     Exchange-correlation      = BEEF ( 1  4 27 13 2)
     nstep                     =           50


     celldm(1)=   1.889726  celldm(2)=   0.000000  celldm(3)=   0.000000
     celldm(4)=   0.000000  celldm(5)=   0.000000  celldm(6)=   0.000000

     crystal axes: (cart. coord. in units of alat)
               a(1) = (   6.590708   0.000000   0.000000 )  
               a(2) = (   0.000000   5.950229   0.000000 )  
               a(3) = (   0.000000   0.000000  30.195235 )  

     reciprocal axes: (cart. coord. in units 2 pi/alat)
               b(1) = (  0.151729  0.000000  0.000000 )  
               b(2) = (  0.000000  0.168061  0.000000 )  
               b(3) = (  0.000000  0.000000  0.033118 )  


     PseudoPot. # 1 for Ti read from file:
     /home/alatimer/bin/psp/esp_psp_w_gbrvRu/Ti.UPF
     MD5 check sum: 8e4df49b7f0d34bbd5052bf3f5ea0213
     Pseudo is Ultrasoft, Zval = 12.0
     Generated by new atomic code, or converted to UPF format
     Using radial grid of  851 points,  6 beta functions with: 
                l(1) =   0
                l(2) =   0
                l(3) =   1
                l(4) =   1
                l(5) =   2
                l(6) =   2
     Q(r) pseudized with  8 coefficients,  rinner =    1.000   1.000   1.000
                                                       1.000   1.000

     PseudoPot. # 2 for  O read from file:
     /home/alatimer/bin/psp/esp_psp_w_gbrvRu/O.UPF
     MD5 check sum: e057bbcf3229fb5d8c36c0c92f9568b4
     Pseudo is Ultrasoft + core correction, Zval =  6.0
     Generated using "atomic" code by A. Dal Corso  v.5.0.2 svn rev. 9415
     Using radial grid of 1095 points,  4 beta functions with: 
                l(1) =   0
                l(2) =   0
                l(3) =   1
                l(4) =   1
     Q(r) pseudized with 0 coefficients 


     PseudoPot. # 3 for  C read from file:
     /home/alatimer/bin/psp/esp_psp_w_gbrvRu/C.UPF
     MD5 check sum: ab446d787031eba755f1d5ee46644bb0
     Pseudo is Ultrasoft + core correction, Zval =  4.0
     Generated using "atomic" code by A. Dal Corso  v.5.0.2 svn rev. 9415
     Using radial grid of 1073 points,  4 beta functions with: 
                l(1) =   0
                l(2) =   0
                l(3) =   1
                l(4) =   1
     Q(r) pseudized with 0 coefficients 


     PseudoPot. # 4 for  H read from file:
     /home/alatimer/bin/psp/esp_psp_w_gbrvRu/H.UPF
     MD5 check sum: bd57da0722753ddfd9833a65b40bb853
     Pseudo is Ultrasoft, Zval =  1.0
     Generated using "atomic" code by A. Dal Corso  v.5.0.2 svn rev. 9415
     Using radial grid of  929 points,  2 beta functions with: 
                l(1) =   0
                l(2) =   0
     Q(r) pseudized with 0 coefficients 


     vdW kernel table read from file vdW_kernel_table
     MD5 check sum: 095c7af220d748ca6e76c0b4c6cfb241

     atomic species   valence    mass     pseudopotential
        Ti1           12.00    47.88000     Ti( 1.00)
        O1             6.00    15.99940      O( 1.00)
        C1             4.00    12.01100      C( 1.00)
        H1             1.00     1.00794      H( 1.00)

     Starting magnetic structure 
     atomic species   magnetization
        Ti1          0.250
        O1           0.500
        C1           0.750
        H1           0.000

     No symmetry found



   Cartesian axes

     site n.     atom                  positions (alat units)
         1           Ti1 tau(   1) = (   1.6476770   0.7437786   2.6545865  )
         2           O1  tau(   2) = (   1.6476770   2.2313359   3.9361215  )
         3           Ti1 tau(   3) = (   1.6476770   2.2313359   5.9499405  )
         4           O1  tau(   4) = (   0.3661420   0.7437786   5.9499405  )
         5           Ti1 tau(   5) = (   1.7592931   0.7557636   9.1813031  )
         6           O1  tau(   6) = (   1.6162490   2.2572048  10.5951269  )
         7           Ti1 tau(   7) = (   1.5595004   2.2680265  12.4668274  )
         8           O1  tau(   8) = (   0.3709531   0.7738127  12.6996540  )
         9           Ti1 tau(   9) = (   1.6476770   3.7188931   2.6545865  )
        10           O1  tau(  10) = (   1.6476770   5.2064503   3.9361215  )
        11           Ti1 tau(  11) = (   1.6476770   5.2064503   5.9499405  )
        12           O1  tau(  12) = (   0.3661420   3.7188931   5.9499405  )
        13           Ti1 tau(  13) = (   1.7607536   3.7112867   9.1949733  )
        14           O1  tau(  14) = (   1.6133076   5.2250699  10.5465640  )
        15           Ti1 tau(  15) = (   1.6492307   5.2431137  12.3448001  )
        16           O1  tau(  16) = (   0.3719744   3.7598389  12.7007434  )
        17           O1  tau(  17) = (   1.6476770   2.2313359   1.3730516  )
        18           Ti1 tau(  18) = (   4.9430310   2.2313359   2.6545865  )
        19           O1  tau(  19) = (   4.9430310   2.2313359   4.6684056  )
        20           O1  tau(  20) = (   6.2245660   0.7437786   2.6545865  )
        21           O1  tau(  21) = (   3.6614961   0.7437786   2.6545865  )
        22           Ti1 tau(  22) = (   4.9430310   0.7437786   5.9499405  )
        23           O1  tau(  23) = (   1.6387103   2.2391978   8.0037664  )
        24           O1  tau(  24) = (   4.9430310   2.2313359   7.2314755  )
        25           O1  tau(  25) = (   2.9292120   0.7437786   5.9499405  )
        26           Ti1 tau(  26) = (   5.0158092   2.2383949   9.3973727  )
        27           O1  tau(  27) = (   4.9391445   2.2276729  11.2675731  )
        28           O1  tau(  28) = (   6.2094020   0.7514556   9.2742047  )
        29           O1  tau(  29) = (   3.6131301   0.7515640   9.2682932  )
        30           Ti1 tau(  30) = (   4.8940083   0.8207741  12.7348365  )
        31           O1  tau(  31) = (   4.8487174   2.2703822  13.8475395  )
        32           O1  tau(  32) = (   2.8766274   0.7418004  12.6316555  )
        33           O1  tau(  33) = (   1.6476770   5.2064503   1.3730516  )
        34           Ti1 tau(  34) = (   4.9430310   5.2064503   2.6545865  )
        35           O1  tau(  35) = (   4.9430310   5.2064503   4.6684056  )
        36           O1  tau(  36) = (   6.2245660   3.7188931   2.6545865  )
        37           O1  tau(  37) = (   3.6614961   3.7188931   2.6545865  )
        38           Ti1 tau(  38) = (   4.9430310   3.7188931   5.9499405  )
        39           O1  tau(  39) = (   1.6418458   5.2133935   8.0066417  )
        40           O1  tau(  40) = (   4.9430310   5.2064503   7.2314755  )
        41           O1  tau(  41) = (   2.9292120   3.7188931   5.9499405  )
        42           Ti1 tau(  42) = (   5.0218241   5.2139137   9.3870600  )
        43           O1  tau(  43) = (   4.9399496   5.2040061  11.2598200  )
        44           O1  tau(  44) = (   6.2073000   3.7245411   9.2731052  )
        45           O1  tau(  45) = (   3.6137513   3.7232133   9.2682466  )
        46           Ti1 tau(  46) = (   4.8936935   3.8094630  12.7397413  )
        47           O1  tau(  47) = (   4.9051259   5.2510468  13.8339921  )
        48           O1  tau(  48) = (   2.8743370   3.7938830  12.6403791  )
        49           C1  tau(  49) = (   1.0587210   2.2268971  15.9066084  )
        50           O1  tau(  50) = (   1.8917182   2.2355032  14.7378010  )
        51           H1  tau(  51) = (   0.0310076   2.2200215  15.5903933  )
        52           H1  tau(  52) = (   2.8355400   2.2288152  14.9543747  )
        53           H1  tau(  53) = (   1.2478062   1.3326534  16.5039879  )
        54           H1  tau(  54) = (   1.2341453   3.1195140  16.5098874  )

     number of k points=    40  Fermi-Dirac smearing, width (Ry)=  0.0073
                       cart. coord. in units 2pi/alat
        k(    1) = (   0.0000000   0.0000000   0.0000000), wk =   0.0277778
        k(    2) = (   0.0000000   0.0280101   0.0000000), wk =   0.0555556
        k(    3) = (   0.0000000   0.0560203   0.0000000), wk =   0.0555556
        k(    4) = (   0.0000000  -0.0840304   0.0000000), wk =   0.0277778
        k(    5) = (   0.0252881   0.0000000   0.0000000), wk =   0.0555556
        k(    6) = (   0.0252881   0.0280101   0.0000000), wk =   0.0555556
        k(    7) = (   0.0252881   0.0560203   0.0000000), wk =   0.0555556
        k(    8) = (   0.0252881  -0.0840304   0.0000000), wk =   0.0555556
        k(    9) = (   0.0505763   0.0000000   0.0000000), wk =   0.0555556
        k(   10) = (   0.0505763   0.0280101   0.0000000), wk =   0.0555556
        k(   11) = (   0.0505763   0.0560203   0.0000000), wk =   0.0555556
        k(   12) = (   0.0505763  -0.0840304   0.0000000), wk =   0.0555556
        k(   13) = (  -0.0758644   0.0000000   0.0000000), wk =   0.0277778
        k(   14) = (  -0.0758644   0.0280101   0.0000000), wk =   0.0555556
        k(   15) = (  -0.0758644   0.0560203   0.0000000), wk =   0.0555556
        k(   16) = (  -0.0758644  -0.0840304   0.0000000), wk =   0.0277778
        k(   17) = (  -0.0252881   0.0280101   0.0000000), wk =   0.0555556
        k(   18) = (  -0.0252881   0.0560203   0.0000000), wk =   0.0555556
        k(   19) = (  -0.0505763   0.0280101   0.0000000), wk =   0.0555556
        k(   20) = (  -0.0505763   0.0560203   0.0000000), wk =   0.0555556
        k(   21) = (   0.0000000   0.0000000   0.0000000), wk =   0.0277778
        k(   22) = (   0.0000000   0.0280101   0.0000000), wk =   0.0555556
        k(   23) = (   0.0000000   0.0560203   0.0000000), wk =   0.0555556
        k(   24) = (   0.0000000  -0.0840304   0.0000000), wk =   0.0277778
        k(   25) = (   0.0252881   0.0000000   0.0000000), wk =   0.0555556
        k(   26) = (   0.0252881   0.0280101   0.0000000), wk =   0.0555556
        k(   27) = (   0.0252881   0.0560203   0.0000000), wk =   0.0555556
        k(   28) = (   0.0252881  -0.0840304   0.0000000), wk =   0.0555556
        k(   29) = (   0.0505763   0.0000000   0.0000000), wk =   0.0555556
        k(   30) = (   0.0505763   0.0280101   0.0000000), wk =   0.0555556
        k(   31) = (   0.0505763   0.0560203   0.0000000), wk =   0.0555556
        k(   32) = (   0.0505763  -0.0840304   0.0000000), wk =   0.0555556
        k(   33) = (  -0.0758644   0.0000000   0.0000000), wk =   0.0277778
        k(   34) = (  -0.0758644   0.0280101   0.0000000), wk =   0.0555556
        k(   35) = (  -0.0758644   0.0560203   0.0000000), wk =   0.0555556
        k(   36) = (  -0.0758644  -0.0840304   0.0000000), wk =   0.0277778
        k(   37) = (  -0.0252881   0.0280101   0.0000000), wk =   0.0555556
        k(   38) = (  -0.0252881   0.0560203   0.0000000), wk =   0.0555556
        k(   39) = (  -0.0505763   0.0280101   0.0000000), wk =   0.0555556
        k(   40) = (  -0.0505763   0.0560203   0.0000000), wk =   0.0555556

     Dense  grid:  1096637 G-vectors     FFT dimensions: (  80,  72, 375)

     Smooth grid:   277353 G-vectors     FFT dimensions: (  54,  45, 240)

     Largest allocated arrays     est. size (Mb)     dimensions
        Kohn-Sham Wavefunctions         9.95 Mb     (    2180,  299)
        NL pseudopotentials            18.89 Mb     (    2180,  568)
        Each V/rho on FFT grid          4.22 Mb     (  138240,   2)
        Each G-vector array             0.52 Mb     (   68538)
        G-vector shells                 0.25 Mb     (   33046)
     Largest temporary arrays     est. size (Mb)     dimensions
        Auxiliary wavefunctions        39.78 Mb     (    2180, 1196)
        Each subspace H/S matrix       21.83 Mb     (    1196, 1196)
        Each <psi_i|beta_j> matrix      2.59 Mb     (     568,  299)
        Arrays for rho mixing          21.09 Mb     (  138240,   10)

     Check: negative/imaginary core charge=   -0.000049    0.000000

     The initial density is read from file :
     ./calc.save/charge-density.dat


     negative rho (up, down):  1.209E-02 1.209E-02


     ************************************************************************
     *
     * You are using vdW-DF for exchange-correlation in this calculation.
     * Please cite the following three references that made this development
     * possible:
     *
     *   M. Dion, H. Rydberg, E. Schroder, D. C. Langreth, and
     *   B. I. Lundqvist, Phys. Rev. Lett. 92, 246401 (2004).
     *
     *   T. Thonhauser, V. R. Cooper, S. Li, A. Puzder, P. Hyldgaard, and
     *   D. C. Langreth, Phys. Rev. B 76, 125112 (2007).
     *
     *   G. Roman-Perez and J. M. Soler, Phys. Rev. Lett. 103, 096102 (2009).
     *
     *
     * If you are using vdW-DF2, please also cite:
     *
     *   K. Lee, E. D. Murray, L. Kong, B. I. Lundqvist, and
     *   D. C. Langreth, Phys. Rev. B 82, 081101(R) (2010).
     *
     *
     * If you are calculating the stress with vdW-DF, please also cite:
     *
     *   R. Sabatini, E. Kucukbenli, B. Kolb, T. Thonhauser, and
     *   S. de Gironcoli, J. Phys.: Condens. Matter 24, 424209 (2012).
     *
     ************************************************************************

     Carrying out vdW-DF run using the following parameters:

     Nqs =      20    Nr_points =    1024   r_max =   100.000
     q_mesh =
               0.00001000     0.04494208     0.09755937     0.15916263
               0.23128650     0.31572767     0.41458969     0.53033537
               0.66584808     0.82450364     1.01025438     1.22772762
               1.48234092     1.78043706     2.12944203     2.53805004
               3.01644009     3.57652955     4.23227104     5.00000000

     Gradients computed in reciprocal space

     ************************************************************************


     Starting wfc are  300 randomized atomic wfcs

     total cpu time spent up to now is       73.2 secs

     Self-consistent Calculation

     iteration #  1     ecut=    40.42 Ry     beta=0.10
     Davidson diagonalization with overlap
     ethr =  1.00E-05,  avg # of iterations = 14.6

     Threshold (ethr) on eigenvalues was too large:
     Diagonalizing with lowered threshold

     Davidson diagonalization with overlap
     ethr =  4.14E-07,  avg # of iterations =  1.0

     negative rho (up, down):  1.209E-02 1.209E-02
 
     Magnetic moment per site:
     atom:    1    charge:    3.1250    magn:   -0.0002    constr:    0.0000
     atom:    2    charge:    1.9452    magn:    0.0000    constr:    0.0000
     atom:    3    charge:    3.1197    magn:    0.0000    constr:    0.0000
     atom:    4    charge:    1.9504    magn:   -0.0001    constr:    0.0000
     atom:    5    charge:    3.1166    magn:    0.0000    constr:    0.0000
     atom:    6    charge:    1.9477    magn:   -0.0001    constr:    0.0000
     atom:    7    charge:    3.1156    magn:    0.0001    constr:    0.0000
     atom:    8    charge:    1.9451    magn:   -0.0001    constr:    0.0000
     atom:    9    charge:    3.1250    magn:   -0.0002    constr:    0.0000
     atom:   10    charge:    1.9452    magn:    0.0000    constr:    0.0000
     atom:   11    charge:    3.1197    magn:    0.0000    constr:    0.0000
     atom:   12    charge:    1.9504    magn:   -0.0001    constr:    0.0000
     atom:   13    charge:    3.1158    magn:    0.0000    constr:    0.0000
     atom:   14    charge:    1.9587    magn:   -0.0001    constr:    0.0000
     atom:   15    charge:    3.1189    magn:    0.0001    constr:    0.0000
     atom:   16    charge:    1.9445    magn:   -0.0001    constr:    0.0000
     atom:   17    charge:    1.9185    magn:    0.0004    constr:    0.0000
     atom:   18    charge:    3.1240    magn:   -0.0001    constr:    0.0000
     atom:   19    charge:    1.9408    magn:   -0.0000    constr:    0.0000
     atom:   20    charge:    1.9471    magn:    0.0000    constr:    0.0000
     atom:   21    charge:    1.9471    magn:    0.0000    constr:    0.0000
     atom:   22    charge:    3.1196    magn:    0.0000    constr:    0.0000
     atom:   23    charge:    1.9566    magn:   -0.0001    constr:    0.0000
     atom:   24    charge:    1.9379    magn:   -0.0001    constr:    0.0000
     atom:   25    charge:    1.9505    magn:   -0.0001    constr:    0.0000
     atom:   26    charge:    3.1145    magn:    0.0001    constr:    0.0000
     atom:   27    charge:    1.9397    magn:   -0.0001    constr:    0.0000
     atom:   28    charge:    1.9517    magn:   -0.0001    constr:    0.0000
     atom:   29    charge:    1.9476    magn:   -0.0001    constr:    0.0000
     atom:   30    charge:    3.1167    magn:    0.0000    constr:    0.0000
     atom:   31    charge:    1.9445    magn:   -0.0000    constr:    0.0000
     atom:   32    charge:    1.9440    magn:   -0.0001    constr:    0.0000
     atom:   33    charge:    1.9185    magn:    0.0004    constr:    0.0000
     atom:   34    charge:    3.1240    magn:   -0.0001    constr:    0.0000
     atom:   35    charge:    1.9408    magn:   -0.0000    constr:    0.0000
     atom:   36    charge:    1.9471    magn:    0.0000    constr:    0.0000
     atom:   37    charge:    1.9471    magn:    0.0000    constr:    0.0000
     atom:   38    charge:    3.1196    magn:    0.0000    constr:    0.0000
     atom:   39    charge:    1.9550    magn:   -0.0001    constr:    0.0000
     atom:   40    charge:    1.9382    magn:   -0.0001    constr:    0.0000
     atom:   41    charge:    1.9505    magn:   -0.0001    constr:    0.0000
     atom:   42    charge:    3.1141    magn:    0.0001    constr:    0.0000
     atom:   43    charge:    1.9413    magn:   -0.0001    constr:    0.0000
     atom:   44    charge:    1.9518    magn:   -0.0001    constr:    0.0000
     atom:   45    charge:    1.9468    magn:   -0.0001    constr:    0.0000
     atom:   46    charge:    3.1165    magn:    0.0000    constr:    0.0000
     atom:   47    charge:    1.9432    magn:   -0.0000    constr:    0.0000
     atom:   48    charge:    1.9444    magn:   -0.0001    constr:    0.0000
     atom:   49    charge:    0.6585    magn:   -0.0001    constr:    0.0000
     atom:   50    charge:    1.9575    magn:   -0.0001    constr:    0.0000
     atom:   51    charge:    0.4062    magn:    0.0000    constr:    0.0000
     atom:   52    charge:    0.4006    magn:    0.0000    constr:    0.0000
     atom:   53    charge:    0.4034    magn:    0.0000    constr:    0.0000
     atom:   54    charge:    0.4040    magn:    0.0000    constr:    0.0000

     total cpu time spent up to now is     1005.8 secs

     total energy              =   -3021.42011083 Ry
     Harris-Foulkes estimate   =   -3021.42026531 Ry
     estimated scf accuracy    <       0.00164814 Ry

     total magnetization       =     0.00 Bohr mag/cell
     absolute magnetization    =     0.01 Bohr mag/cell

     iteration #  2     ecut=    40.42 Ry     beta=0.10
     Davidson diagonalization with overlap
     ethr =  4.14E-07,  avg # of iterations =  1.4

     negative rho (up, down):  1.209E-02 1.209E-02
 
     Magnetic moment per site:
     atom:    1    charge:    3.1250    magn:   -0.0001    constr:    0.0000
     atom:    2    charge:    1.9452    magn:    0.0000    constr:    0.0000
     atom:    3    charge:    3.1198    magn:    0.0000    constr:    0.0000
     atom:    4    charge:    1.9504    magn:   -0.0000    constr:    0.0000
     atom:    5    charge:    3.1166    magn:    0.0000    constr:    0.0000
     atom:    6    charge:    1.9477    magn:   -0.0001    constr:    0.0000
     atom:    7    charge:    3.1156    magn:    0.0000    constr:    0.0000
     atom:    8    charge:    1.9451    magn:   -0.0001    constr:    0.0000
     atom:    9    charge:    3.1250    magn:   -0.0001    constr:    0.0000
     atom:   10    charge:    1.9452    magn:    0.0000    constr:    0.0000
     atom:   11    charge:    3.1197    magn:    0.0000    constr:    0.0000
     atom:   12    charge:    1.9504    magn:   -0.0000    constr:    0.0000
     atom:   13    charge:    3.1158    magn:    0.0000    constr:    0.0000
     atom:   14    charge:    1.9587    magn:   -0.0001    constr:    0.0000
     atom:   15    charge:    3.1189    magn:    0.0001    constr:    0.0000
     atom:   16    charge:    1.9444    magn:   -0.0001    constr:    0.0000
     atom:   17    charge:    1.9184    magn:    0.0004    constr:    0.0000
     atom:   18    charge:    3.1240    magn:   -0.0001    constr:    0.0000
     atom:   19    charge:    1.9408    magn:   -0.0000    constr:    0.0000
     atom:   20    charge:    1.9471    magn:    0.0000    constr:    0.0000
     atom:   21    charge:    1.9471    magn:    0.0000    constr:    0.0000
     atom:   22    charge:    3.1196    magn:    0.0000    constr:    0.0000
     atom:   23    charge:    1.9566    magn:   -0.0001    constr:    0.0000
     atom:   24    charge:    1.9379    magn:   -0.0000    constr:    0.0000
     atom:   25    charge:    1.9505    magn:   -0.0000    constr:    0.0000
     atom:   26    charge:    3.1145    magn:    0.0000    constr:    0.0000
     atom:   27    charge:    1.9398    magn:   -0.0001    constr:    0.0000
     atom:   28    charge:    1.9517    magn:   -0.0001    constr:    0.0000
     atom:   29    charge:    1.9476    magn:   -0.0001    constr:    0.0000
     atom:   30    charge:    3.1166    magn:    0.0000    constr:    0.0000
     atom:   31    charge:    1.9443    magn:   -0.0000    constr:    0.0000
     atom:   32    charge:    1.9441    magn:   -0.0001    constr:    0.0000
     atom:   33    charge:    1.9184    magn:    0.0004    constr:    0.0000
     atom:   34    charge:    3.1240    magn:   -0.0001    constr:    0.0000
     atom:   35    charge:    1.9408    magn:   -0.0000    constr:    0.0000
     atom:   36    charge:    1.9471    magn:    0.0000    constr:    0.0000
     atom:   37    charge:    1.9471    magn:    0.0000    constr:    0.0000
     atom:   38    charge:    3.1196    magn:    0.0000    constr:    0.0000
     atom:   39    charge:    1.9550    magn:   -0.0001    constr:    0.0000
     atom:   40    charge:    1.9383    magn:   -0.0000    constr:    0.0000
     atom:   41    charge:    1.9505    magn:   -0.0000    constr:    0.0000
     atom:   42    charge:    3.1141    magn:    0.0000    constr:    0.0000
     atom:   43    charge:    1.9413    magn:   -0.0001    constr:    0.0000
     atom:   44    charge:    1.9518    magn:   -0.0001    constr:    0.0000
     atom:   45    charge:    1.9469    magn:   -0.0001    constr:    0.0000
     atom:   46    charge:    3.1165    magn:    0.0000    constr:    0.0000
     atom:   47    charge:    1.9432    magn:   -0.0000    constr:    0.0000
     atom:   48    charge:    1.9445    magn:   -0.0001    constr:    0.0000
     atom:   49    charge:    0.6596    magn:   -0.0000    constr:    0.0000
     atom:   50    charge:    1.9569    magn:   -0.0001    constr:    0.0000
     atom:   51    charge:    0.4064    magn:    0.0000    constr:    0.0000
     atom:   52    charge:    0.4006    magn:    0.0000    constr:    0.0000
     atom:   53    charge:    0.4035    magn:    0.0000    constr:    0.0000
     atom:   54    charge:    0.4041    magn:    0.0000    constr:    0.0000

     total cpu time spent up to now is     1185.7 secs

     total energy              =   -3021.41986914 Ry
     Harris-Foulkes estimate   =   -3021.42012594 Ry
     estimated scf accuracy    <       0.00110479 Ry

     total magnetization       =     0.00 Bohr mag/cell
     absolute magnetization    =     0.01 Bohr mag/cell

     iteration #  3     ecut=    40.42 Ry     beta=0.10
     Davidson diagonalization with overlap
     ethr =  2.78E-07,  avg # of iterations =  3.5

     negative rho (up, down):  1.208E-02 1.208E-02
 
     Magnetic moment per site:
     atom:    1    charge:    3.1250    magn:   -0.0001    constr:    0.0000
     atom:    2    charge:    1.9451    magn:    0.0000    constr:    0.0000
     atom:    3    charge:    3.1198    magn:    0.0000    constr:    0.0000
     atom:    4    charge:    1.9504    magn:   -0.0000    constr:    0.0000
     atom:    5    charge:    3.1166    magn:    0.0000    constr:    0.0000
     atom:    6    charge:    1.9476    magn:   -0.0001    constr:    0.0000
     atom:    7    charge:    3.1158    magn:    0.0000    constr:    0.0000
     atom:    8    charge:    1.9452    magn:   -0.0001    constr:    0.0000
     atom:    9    charge:    3.1250    magn:   -0.0001    constr:    0.0000
     atom:   10    charge:    1.9452    magn:    0.0000    constr:    0.0000
     atom:   11    charge:    3.1197    magn:    0.0000    constr:    0.0000
     atom:   12    charge:    1.9504    magn:   -0.0000    constr:    0.0000
     atom:   13    charge:    3.1158    magn:    0.0000    constr:    0.0000
     atom:   14    charge:    1.9587    magn:   -0.0001    constr:    0.0000
     atom:   15    charge:    3.1188    magn:    0.0000    constr:    0.0000
     atom:   16    charge:    1.9445    magn:   -0.0001    constr:    0.0000
     atom:   17    charge:    1.9183    magn:    0.0003    constr:    0.0000
     atom:   18    charge:    3.1239    magn:   -0.0001    constr:    0.0000
     atom:   19    charge:    1.9408    magn:   -0.0000    constr:    0.0000
     atom:   20    charge:    1.9471    magn:    0.0000    constr:    0.0000
     atom:   21    charge:    1.9471    magn:    0.0000    constr:    0.0000
     atom:   22    charge:    3.1196    magn:    0.0000    constr:    0.0000
     atom:   23    charge:    1.9566    magn:   -0.0001    constr:    0.0000
     atom:   24    charge:    1.9380    magn:   -0.0000    constr:    0.0000
     atom:   25    charge:    1.9505    magn:   -0.0000    constr:    0.0000
     atom:   26    charge:    3.1145    magn:    0.0000    constr:    0.0000
     atom:   27    charge:    1.9399    magn:   -0.0000    constr:    0.0000
     atom:   28    charge:    1.9517    magn:   -0.0001    constr:    0.0000
     atom:   29    charge:    1.9476    magn:   -0.0001    constr:    0.0000
     atom:   30    charge:    3.1167    magn:    0.0000    constr:    0.0000
     atom:   31    charge:    1.9445    magn:   -0.0000    constr:    0.0000
     atom:   32    charge:    1.9440    magn:   -0.0001    constr:    0.0000
     atom:   33    charge:    1.9183    magn:    0.0003    constr:    0.0000
     atom:   34    charge:    3.1239    magn:   -0.0001    constr:    0.0000
     atom:   35    charge:    1.9408    magn:   -0.0000    constr:    0.0000
     atom:   36    charge:    1.9471    magn:    0.0000    constr:    0.0000
     atom:   37    charge:    1.9471    magn:    0.0000    constr:    0.0000
     atom:   38    charge:    3.1196    magn:    0.0000    constr:    0.0000
     atom:   39    charge:    1.9549    magn:   -0.0001    constr:    0.0000
     atom:   40    charge:    1.9383    magn:   -0.0000    constr:    0.0000
     atom:   41    charge:    1.9505    magn:   -0.0000    constr:    0.0000
     atom:   42    charge:    3.1141    magn:    0.0000    constr:    0.0000
     atom:   43    charge:    1.9413    magn:   -0.0000    constr:    0.0000
     atom:   44    charge:    1.9517    magn:   -0.0001    constr:    0.0000
     atom:   45    charge:    1.9468    magn:   -0.0001    constr:    0.0000
     atom:   46    charge:    3.1165    magn:    0.0000    constr:    0.0000
     atom:   47    charge:    1.9431    magn:   -0.0000    constr:    0.0000
     atom:   48    charge:    1.9444    magn:   -0.0001    constr:    0.0000
     atom:   49    charge:    0.6600    magn:   -0.0000    constr:    0.0000
     atom:   50    charge:    1.9571    magn:   -0.0000    constr:    0.0000
     atom:   51    charge:    0.4066    magn:    0.0000    constr:    0.0000
     atom:   52    charge:    0.4005    magn:    0.0000    constr:    0.0000
     atom:   53    charge:    0.4035    magn:    0.0000    constr:    0.0000
     atom:   54    charge:    0.4041    magn:    0.0000    constr:    0.0000

     total cpu time spent up to now is     1396.6 secs

     total energy              =   -3021.41987484 Ry
     Harris-Foulkes estimate   =   -3021.41993058 Ry
     estimated scf accuracy    <       0.00033215 Ry

     total magnetization       =     0.00 Bohr mag/cell
     absolute magnetization    =     0.00 Bohr mag/cell

     iteration #  4     ecut=    40.42 Ry     beta=0.10
     Davidson diagonalization with overlap
     ethr =  8.35E-08,  avg # of iterations =  3.0

     negative rho (up, down):  1.208E-02 1.208E-02
 
     Magnetic moment per site:
     atom:    1    charge:    3.1250    magn:   -0.0001    constr:    0.0000
     atom:    2    charge:    1.9451    magn:    0.0000    constr:    0.0000
     atom:    3    charge:    3.1198    magn:    0.0000    constr:    0.0000
     atom:    4    charge:    1.9504    magn:   -0.0000    constr:    0.0000
     atom:    5    charge:    3.1166    magn:    0.0000    constr:    0.0000
     atom:    6    charge:    1.9476    magn:   -0.0000    constr:    0.0000
     atom:    7    charge:    3.1158    magn:    0.0000    constr:    0.0000
     atom:    8    charge:    1.9453    magn:   -0.0000    constr:    0.0000
     atom:    9    charge:    3.1250    magn:   -0.0001    constr:    0.0000
     atom:   10    charge:    1.9452    magn:    0.0000    constr:    0.0000
     atom:   11    charge:    3.1197    magn:    0.0000    constr:    0.0000
     atom:   12    charge:    1.9504    magn:   -0.0000    constr:    0.0000
     atom:   13    charge:    3.1158    magn:    0.0000    constr:    0.0000
     atom:   14    charge:    1.9587    magn:   -0.0000    constr:    0.0000
     atom:   15    charge:    3.1188    magn:    0.0000    constr:    0.0000
     atom:   16    charge:    1.9446    magn:   -0.0000    constr:    0.0000
     atom:   17    charge:    1.9183    magn:    0.0002    constr:    0.0000
     atom:   18    charge:    3.1239    magn:   -0.0000    constr:    0.0000
     atom:   19    charge:    1.9408    magn:   -0.0000    constr:    0.0000
     atom:   20    charge:    1.9471    magn:    0.0000    constr:    0.0000
     atom:   21    charge:    1.9471    magn:    0.0000    constr:    0.0000
     atom:   22    charge:    3.1196    magn:    0.0000    constr:    0.0000
     atom:   23    charge:    1.9566    magn:   -0.0000    constr:    0.0000
     atom:   24    charge:    1.9379    magn:   -0.0000    constr:    0.0000
     atom:   25    charge:    1.9505    magn:   -0.0000    constr:    0.0000
     atom:   26    charge:    3.1145    magn:    0.0000    constr:    0.0000
     atom:   27    charge:    1.9398    magn:   -0.0000    constr:    0.0000
     atom:   28    charge:    1.9517    magn:   -0.0000    constr:    0.0000
     atom:   29    charge:    1.9476    magn:   -0.0000    constr:    0.0000
     atom:   30    charge:    3.1167    magn:    0.0000    constr:    0.0000
     atom:   31    charge:    1.9447    magn:   -0.0000    constr:    0.0000
     atom:   32    charge:    1.9440    magn:   -0.0000    constr:    0.0000
     atom:   33    charge:    1.9183    magn:    0.0002    constr:    0.0000
     atom:   34    charge:    3.1239    magn:   -0.0000    constr:    0.0000
     atom:   35    charge:    1.9408    magn:   -0.0000    constr:    0.0000
     atom:   36    charge:    1.9471    magn:    0.0000    constr:    0.0000
     atom:   37    charge:    1.9471    magn:    0.0000    constr:    0.0000
     atom:   38    charge:    3.1196    magn:    0.0000    constr:    0.0000
     atom:   39    charge:    1.9549    magn:   -0.0000    constr:    0.0000
     atom:   40    charge:    1.9383    magn:   -0.0000    constr:    0.0000
     atom:   41    charge:    1.9505    magn:   -0.0000    constr:    0.0000
     atom:   42    charge:    3.1141    magn:    0.0000    constr:    0.0000
     atom:   43    charge:    1.9413    magn:   -0.0000    constr:    0.0000
     atom:   44    charge:    1.9517    magn:   -0.0000    constr:    0.0000
     atom:   45    charge:    1.9468    magn:   -0.0000    constr:    0.0000
     atom:   46    charge:    3.1165    magn:    0.0000    constr:    0.0000
     atom:   47    charge:    1.9430    magn:   -0.0000    constr:    0.0000
     atom:   48    charge:    1.9444    magn:   -0.0000    constr:    0.0000
     atom:   49    charge:    0.6599    magn:   -0.0000    constr:    0.0000
     atom:   50    charge:    1.9576    magn:   -0.0000    constr:    0.0000
     atom:   51    charge:    0.4069    magn:    0.0000    constr:    0.0000
     atom:   52    charge:    0.4004    magn:    0.0000    constr:    0.0000
     atom:   53    charge:    0.4035    magn:    0.0000    constr:    0.0000
     atom:   54    charge:    0.4041    magn:    0.0000    constr:    0.0000

     total cpu time spent up to now is     1601.3 secs

     total energy              =   -3021.41988568 Ry
     Harris-Foulkes estimate   =   -3021.41988992 Ry
     estimated scf accuracy    <       0.00008551 Ry

     total magnetization       =     0.00 Bohr mag/cell
     absolute magnetization    =     0.00 Bohr mag/cell

     iteration #  5     ecut=    40.42 Ry     beta=0.10
     Davidson diagonalization with overlap
     ethr =  2.15E-08,  avg # of iterations =  3.0

     negative rho (up, down):  1.209E-02 1.209E-02
 
     Magnetic moment per site:
     atom:    1    charge:    3.1250    magn:   -0.0001    constr:    0.0000
     atom:    2    charge:    1.9452    magn:    0.0000    constr:    0.0000
     atom:    3    charge:    3.1197    magn:    0.0000    constr:    0.0000
     atom:    4    charge:    1.9504    magn:   -0.0000    constr:    0.0000
     atom:    5    charge:    3.1166    magn:    0.0000    constr:    0.0000
     atom:    6    charge:    1.9477    magn:   -0.0000    constr:    0.0000
     atom:    7    charge:    3.1157    magn:    0.0000    constr:    0.0000
     atom:    8    charge:    1.9453    magn:   -0.0000    constr:    0.0000
     atom:    9    charge:    3.1250    magn:   -0.0001    constr:    0.0000
     atom:   10    charge:    1.9452    magn:    0.0000    constr:    0.0000
     atom:   11    charge:    3.1197    magn:    0.0000    constr:    0.0000
     atom:   12    charge:    1.9504    magn:   -0.0000    constr:    0.0000
     atom:   13    charge:    3.1158    magn:    0.0000    constr:    0.0000
     atom:   14    charge:    1.9587    magn:   -0.0000    constr:    0.0000
     atom:   15    charge:    3.1188    magn:    0.0000    constr:    0.0000
     atom:   16    charge:    1.9446    magn:   -0.0000    constr:    0.0000
     atom:   17    charge:    1.9184    magn:    0.0002    constr:    0.0000
     atom:   18    charge:    3.1239    magn:   -0.0000    constr:    0.0000
     atom:   19    charge:    1.9408    magn:   -0.0000    constr:    0.0000
     atom:   20    charge:    1.9471    magn:    0.0000    constr:    0.0000
     atom:   21    charge:    1.9471    magn:    0.0000    constr:    0.0000
     atom:   22    charge:    3.1196    magn:    0.0000    constr:    0.0000
     atom:   23    charge:    1.9566    magn:   -0.0000    constr:    0.0000
     atom:   24    charge:    1.9379    magn:   -0.0000    constr:    0.0000
     atom:   25    charge:    1.9505    magn:   -0.0000    constr:    0.0000
     atom:   26    charge:    3.1145    magn:    0.0000    constr:    0.0000
     atom:   27    charge:    1.9397    magn:   -0.0000    constr:    0.0000
     atom:   28    charge:    1.9517    magn:   -0.0000    constr:    0.0000
     atom:   29    charge:    1.9476    magn:   -0.0000    constr:    0.0000
     atom:   30    charge:    3.1167    magn:    0.0000    constr:    0.0000
     atom:   31    charge:    1.9447    magn:   -0.0000    constr:    0.0000
     atom:   32    charge:    1.9440    magn:   -0.0000    constr:    0.0000
     atom:   33    charge:    1.9184    magn:    0.0002    constr:    0.0000
     atom:   34    charge:    3.1239    magn:   -0.0000    constr:    0.0000
     atom:   35    charge:    1.9408    magn:   -0.0000    constr:    0.0000
     atom:   36    charge:    1.9471    magn:    0.0000    constr:    0.0000
     atom:   37    charge:    1.9471    magn:    0.0000    constr:    0.0000
     atom:   38    charge:    3.1196    magn:    0.0000    constr:    0.0000
     atom:   39    charge:    1.9550    magn:   -0.0000    constr:    0.0000
     atom:   40    charge:    1.9382    magn:   -0.0000    constr:    0.0000
     atom:   41    charge:    1.9505    magn:   -0.0000    constr:    0.0000
     atom:   42    charge:    3.1141    magn:    0.0000    constr:    0.0000
     atom:   43    charge:    1.9413    magn:   -0.0000    constr:    0.0000
     atom:   44    charge:    1.9517    magn:   -0.0000    constr:    0.0000
     atom:   45    charge:    1.9468    magn:   -0.0000    constr:    0.0000
     atom:   46    charge:    3.1165    magn:    0.0000    constr:    0.0000
     atom:   47    charge:    1.9431    magn:   -0.0000    constr:    0.0000
     atom:   48    charge:    1.9444    magn:   -0.0000    constr:    0.0000
     atom:   49    charge:    0.6594    magn:   -0.0000    constr:    0.0000
     atom:   50    charge:    1.9580    magn:   -0.0000    constr:    0.0000
     atom:   51    charge:    0.4071    magn:    0.0000    constr:    0.0000
     atom:   52    charge:    0.4003    magn:    0.0000    constr:    0.0000
     atom:   53    charge:    0.4034    magn:    0.0000    constr:    0.0000
     atom:   54    charge:    0.4040    magn:    0.0000    constr:    0.0000

     total cpu time spent up to now is     1804.1 secs

     total energy              =   -3021.41988528 Ry
     Harris-Foulkes estimate   =   -3021.41989002 Ry
     estimated scf accuracy    <       0.00002332 Ry

     total magnetization       =     0.00 Bohr mag/cell
     absolute magnetization    =     0.00 Bohr mag/cell

     iteration #  6     ecut=    40.42 Ry     beta=0.10
     Davidson diagonalization with overlap
     ethr =  5.86E-09,  avg # of iterations =  3.7

     negative rho (up, down):  1.209E-02 1.209E-02
 
     Magnetic moment per site:
     atom:    1    charge:    3.1250    magn:   -0.0001    constr:    0.0000
     atom:    2    charge:    1.9452    magn:    0.0000    constr:    0.0000
     atom:    3    charge:    3.1198    magn:    0.0000    constr:    0.0000
     atom:    4    charge:    1.9504    magn:   -0.0000    constr:    0.0000
     atom:    5    charge:    3.1166    magn:    0.0000    constr:    0.0000
     atom:    6    charge:    1.9477    magn:   -0.0000    constr:    0.0000
     atom:    7    charge:    3.1157    magn:    0.0000    constr:    0.0000
     atom:    8    charge:    1.9453    magn:   -0.0000    constr:    0.0000
     atom:    9    charge:    3.1250    magn:   -0.0001    constr:    0.0000
     atom:   10    charge:    1.9452    magn:    0.0000    constr:    0.0000
     atom:   11    charge:    3.1197    magn:    0.0000    constr:    0.0000
     atom:   12    charge:    1.9504    magn:   -0.0000    constr:    0.0000
     atom:   13    charge:    3.1158    magn:    0.0000    constr:    0.0000
     atom:   14    charge:    1.9587    magn:   -0.0000    constr:    0.0000
     atom:   15    charge:    3.1188    magn:    0.0000    constr:    0.0000
     atom:   16    charge:    1.9446    magn:   -0.0000    constr:    0.0000
     atom:   17    charge:    1.9184    magn:    0.0002    constr:    0.0000
     atom:   18    charge:    3.1239    magn:   -0.0000    constr:    0.0000
     atom:   19    charge:    1.9408    magn:   -0.0000    constr:    0.0000
     atom:   20    charge:    1.9471    magn:    0.0000    constr:    0.0000
     atom:   21    charge:    1.9471    magn:    0.0000    constr:    0.0000
     atom:   22    charge:    3.1196    magn:    0.0000    constr:    0.0000
     atom:   23    charge:    1.9566    magn:   -0.0000    constr:    0.0000
     atom:   24    charge:    1.9379    magn:   -0.0000    constr:    0.0000
     atom:   25    charge:    1.9505    magn:   -0.0000    constr:    0.0000
     atom:   26    charge:    3.1145    magn:    0.0000    constr:    0.0000
     atom:   27    charge:    1.9398    magn:   -0.0000    constr:    0.0000
     atom:   28    charge:    1.9517    magn:   -0.0000    constr:    0.0000
     atom:   29    charge:    1.9476    magn:   -0.0000    constr:    0.0000
     atom:   30    charge:    3.1167    magn:    0.0000    constr:    0.0000
     atom:   31    charge:    1.9447    magn:   -0.0000    constr:    0.0000
     atom:   32    charge:    1.9440    magn:   -0.0000    constr:    0.0000
     atom:   33    charge:    1.9184    magn:    0.0002    constr:    0.0000
     atom:   34    charge:    3.1239    magn:   -0.0000    constr:    0.0000
     atom:   35    charge:    1.9408    magn:   -0.0000    constr:    0.0000
     atom:   36    charge:    1.9471    magn:    0.0000    constr:    0.0000
     atom:   37    charge:    1.9471    magn:    0.0000    constr:    0.0000
     atom:   38    charge:    3.1196    magn:    0.0000    constr:    0.0000
     atom:   39    charge:    1.9550    magn:   -0.0000    constr:    0.0000
     atom:   40    charge:    1.9383    magn:   -0.0000    constr:    0.0000
     atom:   41    charge:    1.9505    magn:   -0.0000    constr:    0.0000
     atom:   42    charge:    3.1141    magn:    0.0000    constr:    0.0000
     atom:   43    charge:    1.9413    magn:   -0.0000    constr:    0.0000
     atom:   44    charge:    1.9517    magn:   -0.0000    constr:    0.0000
     atom:   45    charge:    1.9468    magn:   -0.0000    constr:    0.0000
     atom:   46    charge:    3.1165    magn:    0.0000    constr:    0.0000
     atom:   47    charge:    1.9431    magn:   -0.0000    constr:    0.0000
     atom:   48    charge:    1.9444    magn:   -0.0000    constr:    0.0000
     atom:   49    charge:    0.6595    magn:   -0.0000    constr:    0.0000
     atom:   50    charge:    1.9579    magn:   -0.0000    constr:    0.0000
     atom:   51    charge:    0.4072    magn:    0.0000    constr:    0.0000
     atom:   52    charge:    0.4003    magn:    0.0000    constr:    0.0000
     atom:   53    charge:    0.4034    magn:    0.0000    constr:    0.0000
     atom:   54    charge:    0.4040    magn:    0.0000    constr:    0.0000

     total cpu time spent up to now is     2022.1 secs

     total energy              =   -3021.41988842 Ry
     Harris-Foulkes estimate   =   -3021.41988847 Ry
     estimated scf accuracy    <       0.00000615 Ry

     total magnetization       =     0.00 Bohr mag/cell
     absolute magnetization    =     0.00 Bohr mag/cell

     iteration #  7     ecut=    40.42 Ry     beta=0.10
     Davidson diagonalization with overlap
     ethr =  1.54E-09,  avg # of iterations =  3.0

     negative rho (up, down):  1.209E-02 1.209E-02
 
     Magnetic moment per site:
     atom:    1    charge:    3.1250    magn:   -0.0000    constr:    0.0000
     atom:    2    charge:    1.9452    magn:    0.0000    constr:    0.0000
     atom:    3    charge:    3.1198    magn:    0.0000    constr:    0.0000
     atom:    4    charge:    1.9504    magn:   -0.0000    constr:    0.0000
     atom:    5    charge:    3.1166    magn:    0.0000    constr:    0.0000
     atom:    6    charge:    1.9477    magn:   -0.0000    constr:    0.0000
     atom:    7    charge:    3.1157    magn:    0.0000    constr:    0.0000
     atom:    8    charge:    1.9452    magn:   -0.0000    constr:    0.0000
     atom:    9    charge:    3.1250    magn:   -0.0000    constr:    0.0000
     atom:   10    charge:    1.9452    magn:    0.0000    constr:    0.0000
     atom:   11    charge:    3.1197    magn:    0.0000    constr:    0.0000
     atom:   12    charge:    1.9504    magn:   -0.0000    constr:    0.0000
     atom:   13    charge:    3.1158    magn:    0.0000    constr:    0.0000
     atom:   14    charge:    1.9587    magn:   -0.0000    constr:    0.0000
     atom:   15    charge:    3.1188    magn:    0.0000    constr:    0.0000
     atom:   16    charge:    1.9445    magn:   -0.0000    constr:    0.0000
     atom:   17    charge:    1.9184    magn:    0.0001    constr:    0.0000
     atom:   18    charge:    3.1239    magn:   -0.0000    constr:    0.0000
     atom:   19    charge:    1.9408    magn:   -0.0000    constr:    0.0000
     atom:   20    charge:    1.9471    magn:    0.0000    constr:    0.0000
     atom:   21    charge:    1.9471    magn:    0.0000    constr:    0.0000
     atom:   22    charge:    3.1196    magn:    0.0000    constr:    0.0000
     atom:   23    charge:    1.9566    magn:   -0.0000    constr:    0.0000
     atom:   24    charge:    1.9379    magn:   -0.0000    constr:    0.0000
     atom:   25    charge:    1.9505    magn:   -0.0000    constr:    0.0000
     atom:   26    charge:    3.1145    magn:    0.0000    constr:    0.0000
     atom:   27    charge:    1.9398    magn:   -0.0000    constr:    0.0000
     atom:   28    charge:    1.9517    magn:   -0.0000    constr:    0.0000
     atom:   29    charge:    1.9476    magn:   -0.0000    constr:    0.0000
     atom:   30    charge:    3.1167    magn:    0.0000    constr:    0.0000
     atom:   31    charge:    1.9447    magn:   -0.0000    constr:    0.0000
     atom:   32    charge:    1.9440    magn:   -0.0000    constr:    0.0000
     atom:   33    charge:    1.9184    magn:    0.0001    constr:    0.0000
     atom:   34    charge:    3.1239    magn:   -0.0000    constr:    0.0000
     atom:   35    charge:    1.9408    magn:   -0.0000    constr:    0.0000
     atom:   36    charge:    1.9471    magn:    0.0000    constr:    0.0000
     atom:   37    charge:    1.9471    magn:    0.0000    constr:    0.0000
     atom:   38    charge:    3.1196    magn:    0.0000    constr:    0.0000
     atom:   39    charge:    1.9549    magn:   -0.0000    constr:    0.0000
     atom:   40    charge:    1.9383    magn:   -0.0000    constr:    0.0000
     atom:   41    charge:    1.9505    magn:   -0.0000    constr:    0.0000
     atom:   42    charge:    3.1141    magn:    0.0000    constr:    0.0000
     atom:   43    charge:    1.9413    magn:   -0.0000    constr:    0.0000
     atom:   44    charge:    1.9517    magn:   -0.0000    constr:    0.0000
     atom:   45    charge:    1.9468    magn:   -0.0000    constr:    0.0000
     atom:   46    charge:    3.1165    magn:    0.0000    constr:    0.0000
     atom:   47    charge:    1.9431    magn:   -0.0000    constr:    0.0000
     atom:   48    charge:    1.9444    magn:   -0.0000    constr:    0.0000
     atom:   49    charge:    0.6593    magn:   -0.0000    constr:    0.0000
     atom:   50    charge:    1.9578    magn:   -0.0000    constr:    0.0000
     atom:   51    charge:    0.4073    magn:    0.0000    constr:    0.0000
     atom:   52    charge:    0.4003    magn:    0.0000    constr:    0.0000
     atom:   53    charge:    0.4034    magn:    0.0000    constr:    0.0000
     atom:   54    charge:    0.4040    magn:    0.0000    constr:    0.0000

     total cpu time spent up to now is     2226.1 secs

     total energy              =   -3021.41988851 Ry
     Harris-Foulkes estimate   =   -3021.41988878 Ry
     estimated scf accuracy    <       0.00000292 Ry

     total magnetization       =     0.00 Bohr mag/cell
     absolute magnetization    =     0.00 Bohr mag/cell

     iteration #  8     ecut=    40.42 Ry     beta=0.10
     Davidson diagonalization with overlap
     ethr =  7.34E-10,  avg # of iterations =  3.5

     negative rho (up, down):  1.209E-02 1.209E-02
 
     Magnetic moment per site:
     atom:    1    charge:    3.1250    magn:   -0.0000    constr:    0.0000
     atom:    2    charge:    1.9452    magn:    0.0000    constr:    0.0000
     atom:    3    charge:    3.1198    magn:    0.0000    constr:    0.0000
     atom:    4    charge:    1.9504    magn:   -0.0000    constr:    0.0000
     atom:    5    charge:    3.1166    magn:    0.0000    constr:    0.0000
     atom:    6    charge:    1.9476    magn:   -0.0000    constr:    0.0000
     atom:    7    charge:    3.1157    magn:    0.0000    constr:    0.0000
     atom:    8    charge:    1.9452    magn:   -0.0000    constr:    0.0000
     atom:    9    charge:    3.1250    magn:   -0.0000    constr:    0.0000
     atom:   10    charge:    1.9452    magn:    0.0000    constr:    0.0000
     atom:   11    charge:    3.1197    magn:    0.0000    constr:    0.0000
     atom:   12    charge:    1.9504    magn:   -0.0000    constr:    0.0000
     atom:   13    charge:    3.1158    magn:    0.0000    constr:    0.0000
     atom:   14    charge:    1.9587    magn:   -0.0000    constr:    0.0000
     atom:   15    charge:    3.1188    magn:    0.0000    constr:    0.0000
     atom:   16    charge:    1.9445    magn:   -0.0000    constr:    0.0000
     atom:   17    charge:    1.9184    magn:    0.0001    constr:    0.0000
     atom:   18    charge:    3.1239    magn:   -0.0000    constr:    0.0000
     atom:   19    charge:    1.9408    magn:   -0.0000    constr:    0.0000
     atom:   20    charge:    1.9471    magn:    0.0000    constr:    0.0000
     atom:   21    charge:    1.9471    magn:    0.0000    constr:    0.0000
     atom:   22    charge:    3.1196    magn:    0.0000    constr:    0.0000
     atom:   23    charge:    1.9566    magn:   -0.0000    constr:    0.0000
     atom:   24    charge:    1.9379    magn:   -0.0000    constr:    0.0000
     atom:   25    charge:    1.9505    magn:   -0.0000    constr:    0.0000
     atom:   26    charge:    3.1145    magn:    0.0000    constr:    0.0000
     atom:   27    charge:    1.9398    magn:   -0.0000    constr:    0.0000
     atom:   28    charge:    1.9517    magn:   -0.0000    constr:    0.0000
     atom:   29    charge:    1.9476    magn:   -0.0000    constr:    0.0000
     atom:   30    charge:    3.1167    magn:    0.0000    constr:    0.0000
     atom:   31    charge:    1.9447    magn:   -0.0000    constr:    0.0000
     atom:   32    charge:    1.9440    magn:   -0.0000    constr:    0.0000
     atom:   33    charge:    1.9184    magn:    0.0001    constr:    0.0000
     atom:   34    charge:    3.1239    magn:   -0.0000    constr:    0.0000
     atom:   35    charge:    1.9408    magn:   -0.0000    constr:    0.0000
     atom:   36    charge:    1.9471    magn:    0.0000    constr:    0.0000
     atom:   37    charge:    1.9471    magn:    0.0000    constr:    0.0000
     atom:   38    charge:    3.1196    magn:    0.0000    constr:    0.0000
     atom:   39    charge:    1.9549    magn:   -0.0000    constr:    0.0000
     atom:   40    charge:    1.9383    magn:   -0.0000    constr:    0.0000
     atom:   41    charge:    1.9505    magn:   -0.0000    constr:    0.0000
     atom:   42    charge:    3.1141    magn:    0.0000    constr:    0.0000
     atom:   43    charge:    1.9413    magn:   -0.0000    constr:    0.0000
     atom:   44    charge:    1.9517    magn:   -0.0000    constr:    0.0000
     atom:   45    charge:    1.9468    magn:   -0.0000    constr:    0.0000
     atom:   46    charge:    3.1165    magn:    0.0000    constr:    0.0000
     atom:   47    charge:    1.9431    magn:   -0.0000    constr:    0.0000
     atom:   48    charge:    1.9444    magn:   -0.0000    constr:    0.0000
     atom:   49    charge:    0.6593    magn:   -0.0000    constr:    0.0000
     atom:   50    charge:    1.9577    magn:   -0.0000    constr:    0.0000
     atom:   51    charge:    0.4073    magn:    0.0000    constr:    0.0000
     atom:   52    charge:    0.4003    magn:    0.0000    constr:    0.0000
     atom:   53    charge:    0.4034    magn:    0.0000    constr:    0.0000
     atom:   54    charge:    0.4040    magn:    0.0000    constr:    0.0000

     total cpu time spent up to now is     2443.7 secs

     total energy              =   -3021.41988877 Ry
     Harris-Foulkes estimate   =   -3021.41988901 Ry
     estimated scf accuracy    <       0.00000104 Ry

     total magnetization       =     0.00 Bohr mag/cell
     absolute magnetization    =     0.00 Bohr mag/cell

     iteration #  9     ecut=    40.42 Ry     beta=0.10
     Davidson diagonalization with overlap
     ethr =  2.61E-10,  avg # of iterations =  3.3

     negative rho (up, down):  1.209E-02 1.209E-02
 
     Magnetic moment per site:
     atom:    1    charge:    3.1250    magn:   -0.0000    constr:    0.0000
     atom:    2    charge:    1.9452    magn:    0.0000    constr:    0.0000
     atom:    3    charge:    3.1198    magn:    0.0000    constr:    0.0000
     atom:    4    charge:    1.9504    magn:   -0.0000    constr:    0.0000
     atom:    5    charge:    3.1166    magn:    0.0000    constr:    0.0000
     atom:    6    charge:    1.9477    magn:   -0.0000    constr:    0.0000
     atom:    7    charge:    3.1157    magn:    0.0000    constr:    0.0000
     atom:    8    charge:    1.9452    magn:   -0.0000    constr:    0.0000
     atom:    9    charge:    3.1250    magn:   -0.0000    constr:    0.0000
     atom:   10    charge:    1.9452    magn:    0.0000    constr:    0.0000
     atom:   11    charge:    3.1197    magn:    0.0000    constr:    0.0000
     atom:   12    charge:    1.9504    magn:   -0.0000    constr:    0.0000
     atom:   13    charge:    3.1158    magn:    0.0000    constr:    0.0000
     atom:   14    charge:    1.9587    magn:   -0.0000    constr:    0.0000
     atom:   15    charge:    3.1188    magn:    0.0000    constr:    0.0000
     atom:   16    charge:    1.9445    magn:   -0.0000    constr:    0.0000
     atom:   17    charge:    1.9184    magn:    0.0001    constr:    0.0000
     atom:   18    charge:    3.1239    magn:   -0.0000    constr:    0.0000
     atom:   19    charge:    1.9408    magn:   -0.0000    constr:    0.0000
     atom:   20    charge:    1.9471    magn:    0.0000    constr:    0.0000
     atom:   21    charge:    1.9471    magn:    0.0000    constr:    0.0000
     atom:   22    charge:    3.1196    magn:    0.0000    constr:    0.0000
     atom:   23    charge:    1.9566    magn:   -0.0000    constr:    0.0000
     atom:   24    charge:    1.9379    magn:   -0.0000    constr:    0.0000
     atom:   25    charge:    1.9505    magn:   -0.0000    constr:    0.0000
     atom:   26    charge:    3.1145    magn:    0.0000    constr:    0.0000
     atom:   27    charge:    1.9398    magn:   -0.0000    constr:    0.0000
     atom:   28    charge:    1.9517    magn:   -0.0000    constr:    0.0000
     atom:   29    charge:    1.9476    magn:   -0.0000    constr:    0.0000
     atom:   30    charge:    3.1167    magn:    0.0000    constr:    0.0000
     atom:   31    charge:    1.9446    magn:   -0.0000    constr:    0.0000
     atom:   32    charge:    1.9440    magn:   -0.0000    constr:    0.0000
     atom:   33    charge:    1.9184    magn:    0.0001    constr:    0.0000
     atom:   34    charge:    3.1239    magn:   -0.0000    constr:    0.0000
     atom:   35    charge:    1.9408    magn:   -0.0000    constr:    0.0000
     atom:   36    charge:    1.9471    magn:    0.0000    constr:    0.0000
     atom:   37    charge:    1.9471    magn:    0.0000    constr:    0.0000
     atom:   38    charge:    3.1196    magn:    0.0000    constr:    0.0000
     atom:   39    charge:    1.9549    magn:   -0.0000    constr:    0.0000
     atom:   40    charge:    1.9383    magn:   -0.0000    constr:    0.0000
     atom:   41    charge:    1.9505    magn:   -0.0000    constr:    0.0000
     atom:   42    charge:    3.1141    magn:    0.0000    constr:    0.0000
     atom:   43    charge:    1.9413    magn:   -0.0000    constr:    0.0000
     atom:   44    charge:    1.9518    magn:   -0.0000    constr:    0.0000
     atom:   45    charge:    1.9468    magn:   -0.0000    constr:    0.0000
     atom:   46    charge:    3.1165    magn:    0.0000    constr:    0.0000
     atom:   47    charge:    1.9431    magn:   -0.0000    constr:    0.0000
     atom:   48    charge:    1.9444    magn:   -0.0000    constr:    0.0000
     atom:   49    charge:    0.6595    magn:   -0.0000    constr:    0.0000
     atom:   50    charge:    1.9576    magn:   -0.0000    constr:    0.0000
     atom:   51    charge:    0.4072    magn:    0.0000    constr:    0.0000
     atom:   52    charge:    0.4003    magn:    0.0000    constr:    0.0000
     atom:   53    charge:    0.4034    magn:    0.0000    constr:    0.0000
     atom:   54    charge:    0.4040    magn:    0.0000    constr:    0.0000

     total cpu time spent up to now is     2653.6 secs

     End of self-consistent calculation

 ------ SPIN UP ------------


          k = 0.0000 0.0000 0.0000 ( 34665 PWs)   bands (ev):

   -57.6974 -57.6625 -57.3161 -57.2798 -57.2305 -57.1084 -57.0719 -57.0709
   -57.0490 -57.0361 -56.9883 -56.9528 -56.7284 -56.6910 -56.1482 -56.1129
   -34.1335 -33.9797 -33.9511 -33.8984 -33.8684 -33.8041 -33.7437 -33.6513
   -33.6168 -33.6038 -33.5661 -33.5391 -33.5169 -33.5060 -33.4881 -33.4835
   -33.4626 -33.4527 -33.4293 -33.3974 -33.3226 -33.2906 -33.2704 -33.2611
   -33.2530 -33.2524 -33.2416 -33.2409 -33.2356 -33.2280 -33.2274 -33.2111
   -33.1785 -33.1782 -33.1731 -33.1390 -33.1165 -32.9945 -32.9763 -32.9554
   -32.9060 -32.8031 -32.5660 -32.5005 -32.4744 -32.3702 -32.2785 -32.1702
   -20.3053 -18.0110 -17.8401 -17.5554 -17.4602 -17.3711 -17.2503 -17.0761
   -17.0651 -16.9730 -16.9374 -16.8830 -16.7823 -16.7760 -16.7273 -16.7059
   -16.7012 -16.6609 -16.6099 -16.6028 -16.5346 -16.4139 -16.4008 -16.3968
   -16.3196 -16.2663 -16.1929 -16.1659 -16.1485 -15.9766 -15.9279 -14.7326
   -14.6489 -11.4941  -7.2446  -5.4970  -5.3974  -5.3283  -5.2068  -5.2040
    -5.1444  -5.1256  -4.8377  -4.8158  -4.4706  -4.4413  -4.3578  -4.3539
    -4.3203  -4.2313  -4.0884  -4.0586  -4.0532  -4.0163  -3.9977  -3.9898
    -3.9594  -3.9513  -3.9498  -3.8385  -3.7866  -3.7635  -3.7356  -3.7182
    -3.6308  -3.6154  -3.5854  -3.5762  -3.5184  -3.5066  -3.4071  -3.3928
    -3.3720  -3.2712  -3.2364  -3.1886  -3.0121  -2.9339  -2.8776  -2.8319
    -2.6934  -2.6054  -2.5885  -2.5788  -2.5736  -2.5668  -2.4300  -2.4129
    -2.3347  -2.2677  -2.2457  -2.2033  -2.1987  -2.1650  -2.1370  -2.0914
    -2.0464  -2.0269  -2.0186  -1.8848  -1.8648  -1.7613  -1.7344  -1.6229
    -1.5413  -1.5399  -1.4887  -1.4792  -1.4617  -1.4220  -1.3221  -1.3079
    -1.3010  -1.2783  -1.2412  -1.1341  -1.0851  -1.0826  -1.0657  -1.0172
    -0.9528  -0.9139  -0.8200  -0.7638  -0.6089  -0.5859  -0.5680  -0.4772
    -0.3747  -0.2410  -0.0836  -0.0249   0.1325   0.2494   0.2631   1.6440
     1.6765   1.9871   2.0034   2.0671   2.0972   2.2065   2.2456   2.2887
     2.4316   2.4989   2.5275   2.5321   2.5436   2.6327   2.6505   2.6587
     2.7170   2.8013   2.8292   2.8408   2.9129   3.0015   3.0352   3.1012
     3.1066   3.1161   3.1625   3.2038   3.2100   3.2278   3.2416   3.2532
     3.2620   3.2906   3.3987   3.4329   3.4586   3.4683   3.5296   3.5874
     3.6552   3.6966   3.8097   3.9826   4.0179   4.0939   4.1812   4.3220
     4.3405   4.3931   4.5846   4.6004   4.8113   4.8406   5.0886   5.1686
     5.2473   5.3321   5.4790   5.5191   5.5266   5.5953   5.6793   5.7139
     5.8013   5.8671   5.8783   5.8883   5.9563   6.0376   6.0494   6.0731
     6.1458   6.2308   6.2454   6.2989   6.3797   6.5823   6.6381   6.7553
     6.8431   7.0096   7.0403   7.1587   7.3037   7.5724   7.9096   8.2542
     8.3316   8.6748   8.7955   8.8694   8.9390   9.0070   9.1760   9.2722
     9.3528   9.3808   9.5331

          k = 0.0000 0.0280 0.0000 ( 34717 PWs)   bands (ev):

   -57.6951 -57.6648 -57.3137 -57.2823 -57.2301 -57.1061 -57.0741 -57.0688
   -57.0494 -57.0385 -56.9859 -56.9552 -56.7260 -56.6934 -56.1458 -56.1153
   -34.1082 -33.9776 -33.9530 -33.8922 -33.8425 -33.8106 -33.7707 -33.6286
   -33.6099 -33.5788 -33.5408 -33.5361 -33.5190 -33.4990 -33.4907 -33.4825
   -33.4698 -33.4598 -33.4273 -33.3905 -33.3164 -33.2888 -33.2841 -33.2626
   -33.2573 -33.2506 -33.2486 -33.2382 -33.2364 -33.2346 -33.2343 -33.2154
   -33.2010 -33.1834 -33.1753 -33.1431 -33.1398 -32.9906 -32.9749 -32.9568
   -32.9111 -32.8311 -32.5403 -32.4988 -32.4763 -32.3640 -32.2848 -32.1977
   -20.3052 -17.9492 -17.7824 -17.5024 -17.4080 -17.3274 -17.2236 -17.0899
   -17.0349 -16.9970 -16.9914 -16.8846 -16.8180 -16.7598 -16.7051 -16.6878
   -16.6744 -16.6630 -16.6548 -16.6406 -16.5935 -16.4377 -16.3823 -16.3670
   -16.3462 -16.2959 -16.2100 -16.1722 -16.1524 -16.0073 -15.9650 -14.7427
   -14.6723 -11.4938  -7.2443  -5.4721  -5.3149  -5.2588  -5.2112  -5.1292
    -5.0671  -5.0458  -4.7622  -4.7016  -4.4340  -4.3988  -4.3927  -4.3105
    -4.2998  -4.1587  -4.1223  -4.1124  -4.0902  -4.0692  -4.0309  -4.0279
    -3.9646  -3.9600  -3.9484  -3.8899  -3.8516  -3.8453  -3.8360  -3.7651
    -3.7203  -3.7044  -3.6644  -3.6145  -3.5739  -3.5555  -3.4289  -3.3571
    -3.3122  -3.2327  -3.2060  -3.1028  -2.9329  -2.8694  -2.7445  -2.7232
    -2.6125  -2.5992  -2.5237  -2.5083  -2.4765  -2.4388  -2.4107  -2.4063
    -2.3851  -2.3601  -2.2869  -2.2752  -2.1665  -2.1410  -2.1348  -2.0926
    -2.0207  -1.9960  -1.9525  -1.8755  -1.8094  -1.7663  -1.7056  -1.6806
    -1.6412  -1.6240  -1.5622  -1.5242  -1.4802  -1.4366  -1.4343  -1.3947
    -1.3533  -1.2700  -1.2166  -1.2123  -1.1578  -1.0891  -1.0698  -1.0206
    -1.0075  -0.9029  -0.8673  -0.7893  -0.7602  -0.7050  -0.6066  -0.5891
    -0.3930  -0.2691  -0.0904  -0.0791   0.1474   0.2030   0.2296   1.7303
     1.7762   1.9873   2.0667   2.1324   2.1530   2.2201   2.2757   2.3146
     2.4261   2.4628   2.5004   2.5371   2.5876   2.6045   2.6320   2.6932
     2.7343   2.7722   2.7987   2.9143   2.9243   2.9532   2.9779   3.0115
     3.1128   3.1185   3.1360   3.1765   3.1940   3.2071   3.2600   3.3059
     3.3368   3.3723   3.4088   3.4751   3.5084   3.5532   3.5634   3.6502
     3.6665   3.6876   3.7733   3.9617   4.0362   4.1155   4.1923   4.2881
     4.3245   4.3986   4.5422   4.6875   4.8646   4.9271   5.0926   5.2600
     5.3057   5.3365   5.5389   5.5679   5.6055   5.6241   5.6876   5.7215
     5.7858   5.7940   5.8533   5.8797   5.9009   5.9491   6.0700   6.1238
     6.1507   6.1590   6.1755   6.2082   6.2767   6.5596   6.6048   6.6951
     6.8471   6.9500   6.9814   7.0797   7.2316   7.5789   7.9157   8.0126
     8.0610   8.4568   8.5629   8.8379   8.9040   8.9977   9.0884   9.1350
     9.2727   9.4401   9.4950

          k = 0.0000 0.0560 0.0000 ( 34721 PWs)   bands (ev):

   -57.6887 -57.6712 -57.3072 -57.2888 -57.2293 -57.1000 -57.0802 -57.0624
   -57.0503 -57.0449 -56.9794 -56.9617 -56.7193 -56.7001 -56.1394 -56.1217
   -34.0384 -33.9723 -33.9580 -33.8752 -33.8437 -33.8281 -33.7714 -33.5944
   -33.5709 -33.5703 -33.5332 -33.5257 -33.5049 -33.5025 -33.4748 -33.4707
   -33.4541 -33.4245 -33.4170 -33.3710 -33.3143 -33.3115 -33.3114 -33.3000
   -33.2845 -33.2746 -33.2663 -33.2619 -33.2518 -33.2446 -33.2326 -33.2305
   -33.2084 -33.1964 -33.1688 -33.1631 -33.1243 -32.9856 -32.9713 -32.9601
   -32.9240 -32.9008 -32.4940 -32.4810 -32.4696 -32.3475 -32.3017 -32.2718
   -20.3049 -17.7781 -17.6238 -17.3711 -17.2742 -17.2586 -17.2174 -17.1656
   -17.1347 -16.9609 -16.9520 -16.9173 -16.8723 -16.8178 -16.7867 -16.7244
   -16.7146 -16.6824 -16.6233 -16.5954 -16.5378 -16.5031 -16.4211 -16.3765
   -16.3607 -16.3005 -16.2391 -16.1934 -16.1558 -16.1079 -16.0377 -14.7609
   -14.7229 -11.4930  -7.2434  -5.4469  -5.2222  -5.0755  -5.0379  -4.9228
    -4.8570  -4.8225  -4.5603  -4.5046  -4.4716  -4.4162  -4.4082  -4.3651
    -4.3299  -4.2586  -4.2334  -4.2104  -4.1948  -4.1851  -4.1546  -4.0740
    -4.0561  -4.0039  -3.9854  -3.9670  -3.9292  -3.8895  -3.8547  -3.8161
    -3.7957  -3.7298  -3.6343  -3.5845  -3.4322  -3.4255  -3.3381  -3.2671
    -3.2373  -3.2097  -3.1912  -3.0808  -2.8933  -2.8419  -2.8364  -2.7973
    -2.7204  -2.6670  -2.5465  -2.4722  -2.4423  -2.3210  -2.3148  -2.3097
    -2.3020  -2.2479  -2.2055  -2.1778  -2.1467  -2.1161  -2.0304  -2.0087
    -1.9594  -1.9462  -1.9155  -1.9038  -1.8821  -1.8476  -1.8152  -1.7815
    -1.7435  -1.6927  -1.6235  -1.5406  -1.5257  -1.5083  -1.4541  -1.4185
    -1.3788  -1.3634  -1.3487  -1.2890  -1.2374  -1.2155  -1.1553  -1.1030
    -1.0832  -1.0223  -0.9226  -0.8903  -0.8491  -0.7837  -0.7616  -0.6589
    -0.5855  -0.4617  -0.2405   0.0923   0.1446   0.1796   0.1863   1.8659
     2.0259   2.0992   2.1104   2.2112   2.2360   2.2707   2.3681   2.3906
     2.3971   2.4128   2.4358   2.4775   2.5044   2.5395   2.6757   2.6968
     2.7354   2.7765   2.8315   2.9052   2.9170   2.9398   2.9730   2.9750
     3.0168   3.1001   3.1391   3.1585   3.2517   3.2632   3.2877   3.3306
     3.3696   3.3879   3.4419   3.5386   3.5448   3.6381   3.6785   3.7288
     3.7620   3.8244   3.8597   3.8912   3.9335   4.1318   4.1431   4.1595
     4.3282   4.3766   4.5663   4.9074   5.0171   5.0592   5.1759   5.3795
     5.3832   5.4797   5.5195   5.5510   5.6499   5.7246   5.7252   5.7348
     5.7806   5.7889   5.8002   5.8573   5.8867   5.9463   5.9792   5.9916
     6.0028   6.0559   6.1563   6.1721   6.3060   6.3740   6.4106   6.6143
     6.6616   6.7820   6.8710   7.0423   7.2129   7.3346   7.4427   7.7271
     8.0776   8.2033   8.3372   8.6137   8.8855   8.9920   9.3087   9.3292
     9.4277   9.4408   9.5606

          k = 0.0000-0.0840 0.0000 ( 34678 PWs)   bands (ev):

   -57.6801 -57.6799 -57.2997 -57.2964 -57.2288 -57.0945 -57.0856 -57.0537
   -57.0536 -57.0507 -56.9711 -56.9700 -56.7122 -56.7072 -56.1306 -56.1306
   -33.9653 -33.9651 -33.9418 -33.9417 -33.8518 -33.8516 -33.6846 -33.6606
   -33.5644 -33.5610 -33.5266 -33.5165 -33.5121 -33.4751 -33.4512 -33.4223
   -33.4126 -33.4061 -33.3736 -33.3733 -33.3607 -33.3457 -33.3398 -33.3224
   -33.3210 -33.2834 -33.2765 -33.2744 -33.2677 -33.2654 -33.2311 -33.2293
   -33.2139 -33.2119 -33.1619 -33.1610 -33.0470 -33.0260 -32.9682 -32.9630
   -32.9379 -32.9349 -32.4875 -32.4875 -32.3716 -32.3716 -32.3246 -32.3246
   -20.3048 -17.5674 -17.5039 -17.4091 -17.3888 -17.2278 -17.1737 -17.0646
   -17.0602 -17.0143 -17.0014 -16.9879 -16.8703 -16.8384 -16.8384 -16.7995
   -16.7929 -16.5947 -16.5927 -16.5239 -16.5215 -16.4871 -16.4857 -16.4030
   -16.4005 -16.2612 -16.2590 -16.1997 -16.1959 -16.1291 -16.1002 -14.7596
   -14.7595 -11.4926  -7.2429  -5.4396  -5.2281  -4.7982  -4.7321  -4.7310
    -4.6549  -4.6407  -4.6362  -4.6005  -4.5727  -4.5081  -4.5002  -4.3992
    -4.3718  -4.3379  -4.3361  -4.3072  -4.2941  -4.2790  -4.2735  -4.0530
    -4.0313  -4.0220  -4.0090  -3.9909  -3.9409  -3.8085  -3.7919  -3.7871
    -3.7142  -3.6931  -3.6384  -3.5064  -3.4720  -3.3385  -3.3251  -3.2475
    -3.1372  -3.1150  -3.0424  -3.0182  -2.9612  -2.9253  -2.8034  -2.7869
    -2.6965  -2.6924  -2.5752  -2.5378  -2.5113  -2.4937  -2.4788  -2.4461
    -2.4372  -2.4173  -2.3288  -2.2437  -2.0273  -2.0059  -1.9667  -1.9400
    -1.9257  -1.8275  -1.8211  -1.8077  -1.7803  -1.7435  -1.7297  -1.6984
    -1.6637  -1.6389  -1.6126  -1.5567  -1.5138  -1.4862  -1.4798  -1.4512
    -1.4239  -1.4161  -1.4086  -1.3799  -1.3575  -1.3246  -1.2204  -1.1865
    -1.1004  -1.0717  -1.0118  -0.9766  -0.9694  -0.9586  -0.9436  -0.5225
    -0.5176  -0.4555  -0.4412   0.1446   0.1447   0.1873   0.1890   2.0404
     2.0436   2.2200   2.2212   2.2221   2.2383   2.2865   2.3414   2.3484
     2.3484   2.3740   2.3848   2.5293   2.5552   2.5562   2.6027   2.6659
     2.7166   2.7384   2.7514   2.8931   2.9241   2.9913   2.9989   3.0589
     3.0602   3.1036   3.1144   3.1818   3.2198   3.2348   3.2476   3.4053
     3.4276   3.4386   3.4413   3.4744   3.4854   3.7270   3.7675   3.8060
     3.8099   3.8337   3.9103   3.9327   3.9704   4.0747   4.0770   4.1270
     4.1276   4.4196   4.6746   4.9619   5.0021   5.2613   5.3322   5.4588
     5.4906   5.5096   5.5096   5.5708   5.5994   5.6482   5.6669   5.6729
     5.8008   5.8058   5.8278   5.8536   5.8633   5.8681   5.8849   5.9752
     6.0217   6.0606   6.0721   6.1601   6.1976   6.4049   6.4670   6.5652
     6.6050   6.7462   6.7742   6.9795   7.0322   7.0998   7.3271   7.6961
     7.8845   8.1646   8.4054   8.7797   8.8358   8.8553   9.1362   9.6977
     9.7042   9.7491   9.7954

          k = 0.0253 0.0000 0.0000 ( 34707 PWs)   bands (ev):

   -57.6974 -57.6625 -57.3161 -57.2798 -57.2305 -57.1083 -57.0719 -57.0710
   -57.0490 -57.0361 -56.9883 -56.9528 -56.7284 -56.6909 -56.1482 -56.1129
   -34.1339 -33.9797 -33.9512 -33.8977 -33.8685 -33.8042 -33.7437 -33.6521
   -33.6167 -33.6054 -33.5664 -33.5356 -33.5306 -33.5069 -33.4835 -33.4732
   -33.4614 -33.4527 -33.4293 -33.3905 -33.3224 -33.2907 -33.2701 -33.2612
   -33.2565 -33.2555 -33.2428 -33.2397 -33.2373 -33.2281 -33.2274 -33.2109
   -33.1784 -33.1782 -33.1735 -33.1390 -33.1166 -32.9945 -32.9788 -32.9545
   -32.9061 -32.8033 -32.5659 -32.5015 -32.4739 -32.3701 -32.2786 -32.1703
   -20.3051 -17.9812 -17.8001 -17.5131 -17.4313 -17.3544 -17.2569 -17.1432
   -17.0907 -16.9738 -16.9369 -16.8696 -16.8175 -16.8038 -16.7875 -16.7790
   -16.7278 -16.6915 -16.5548 -16.5322 -16.4525 -16.4508 -16.4017 -16.3688
   -16.3371 -16.3109 -16.1814 -16.1637 -16.1498 -15.9764 -15.9276 -14.7315
   -14.6488 -11.4930  -7.2420  -5.4965  -5.3167  -5.2641  -5.2058  -5.0959
    -5.0429  -5.0144  -4.8323  -4.8111  -4.6163  -4.4676  -4.4343  -4.3291
    -4.3096  -4.2998  -4.2460  -4.0973  -4.0351  -4.0312  -3.9949  -3.9436
    -3.9364  -3.9084  -3.8291  -3.7999  -3.7495  -3.7191  -3.6933  -3.6905
    -3.6185  -3.5963  -3.5684  -3.5609  -3.5150  -3.4461  -3.3343  -3.3080
    -3.2489  -3.2344  -3.1815  -3.1049  -3.0320  -2.9748  -2.9226  -2.8947
    -2.7490  -2.6722  -2.6306  -2.5983  -2.5780  -2.5284  -2.5181  -2.5021
    -2.4300  -2.3340  -2.3209  -2.2351  -2.2191  -2.1805  -2.1571  -2.0689
    -2.0077  -1.9980  -1.9617  -1.8808  -1.8491  -1.7516  -1.7382  -1.6495
    -1.5841  -1.5805  -1.5364  -1.4620  -1.4563  -1.3650  -1.3562  -1.3425
    -1.3355  -1.2887  -1.2725  -1.1881  -1.1255  -1.1159  -1.0781  -1.0467
    -0.9714  -0.9135  -0.8282  -0.7853  -0.7728  -0.6494  -0.6406  -0.5495
    -0.4194  -0.2354  -0.1143  -0.0525   0.1185   0.2066   0.2075   1.6634
     1.7264   2.0027   2.0731   2.1502   2.2251   2.2397   2.2715   2.3797
     2.3871   2.4594   2.5062   2.5240   2.5426   2.5799   2.5992   2.6379
     2.6574   2.7362   2.7593   2.8690   2.8859   2.9717   3.0327   3.1059
     3.1225   3.1459   3.1640   3.2050   3.2103   3.2555   3.2709   3.3409
     3.3795   3.4042   3.4528   3.4746   3.5369   3.5623   3.5936   3.6013
     3.6659   3.7318   3.7491   3.9156   4.0037   4.0981   4.1754   4.2784
     4.3757   4.3965   4.5544   4.6734   4.8654   4.9123   4.9280   5.0711
     5.1231   5.1476   5.1908   5.3523   5.5680   5.6213   5.6946   5.8680
     5.8846   5.9266   5.9606   6.0309   6.0818   6.1138   6.1624   6.2113
     6.2205   6.2536   6.2608   6.3095   6.4499   6.5226   6.6422   6.6665
     6.8217   6.8694   7.0355   7.1450   7.3035   7.7494   7.8518   8.0889
     8.3359   8.3498   8.4317   8.6817   8.8465   8.9697   9.1529   9.3471
     9.3636   9.4617   9.4934

          k = 0.0253 0.0280 0.0000 ( 34687 PWs)   bands (ev):

   -57.6951 -57.6648 -57.3137 -57.2823 -57.2301 -57.1060 -57.0741 -57.0688
   -57.0494 -57.0385 -56.9859 -56.9552 -56.7260 -56.6934 -56.1458 -56.1153
   -34.1085 -33.9777 -33.9530 -33.8916 -33.8426 -33.8105 -33.7707 -33.6293
   -33.6100 -33.5805 -33.5410 -33.5329 -33.5202 -33.5144 -33.4910 -33.4705
   -33.4642 -33.4586 -33.4274 -33.3837 -33.3163 -33.2890 -33.2819 -33.2626
   -33.2573 -33.2524 -33.2507 -33.2460 -33.2360 -33.2346 -33.2335 -33.2142
   -33.2012 -33.1834 -33.1753 -33.1430 -33.1397 -32.9907 -32.9771 -32.9560
   -32.9111 -32.8311 -32.5402 -32.4997 -32.4757 -32.3641 -32.2848 -32.1976
   -20.3050 -17.9209 -17.7434 -17.4619 -17.3815 -17.3074 -17.2304 -17.1269
   -17.0962 -17.0045 -16.9616 -16.8568 -16.8288 -16.8037 -16.7821 -16.7685
   -16.7115 -16.6975 -16.5984 -16.5778 -16.5048 -16.4733 -16.3793 -16.3633
   -16.3545 -16.3279 -16.1985 -16.1718 -16.1521 -16.0077 -15.9647 -14.7417
   -14.6724 -11.4926  -7.2415  -5.4769  -5.2469  -5.2102  -5.1805  -5.0195
    -4.9645  -4.9341  -4.7572  -4.6986  -4.5606  -4.4016  -4.3695  -4.3442
    -4.2579  -4.2511  -4.1850  -4.1168  -4.0852  -4.0627  -4.0324  -4.0183
    -3.9747  -3.9409  -3.9112  -3.8661  -3.8204  -3.8083  -3.7825  -3.7182
    -3.6957  -3.6621  -3.6135  -3.6034  -3.5393  -3.5248  -3.3523  -3.2964
    -3.2498  -3.2179  -3.1488  -3.0721  -2.9802  -2.9478  -2.7832  -2.7041
    -2.6789  -2.6344  -2.6093  -2.5328  -2.5017  -2.4526  -2.4463  -2.4190
    -2.4034  -2.3849  -2.3384  -2.3008  -2.2142  -2.1765  -2.1140  -2.0985
    -2.0652  -1.9932  -1.9474  -1.8903  -1.8635  -1.8248  -1.7604  -1.6727
    -1.6433  -1.6150  -1.5870  -1.5605  -1.5074  -1.4600  -1.4384  -1.3990
    -1.3431  -1.3261  -1.2678  -1.2534  -1.2061  -1.1079  -1.0962  -1.0589
    -1.0100  -0.8861  -0.8384  -0.8336  -0.7627  -0.7378  -0.6942  -0.6569
    -0.4304  -0.2800  -0.1324  -0.0845   0.1506   0.1799   0.1901   1.7224
     1.8465   2.0179   2.1007   2.1975   2.2466   2.2837   2.3181   2.3988
     2.4192   2.4689   2.4907   2.5263   2.5343   2.5544   2.5924   2.6759
     2.7070   2.7292   2.7891   2.8085   2.9325   2.9889   3.0116   3.0367
     3.1083   3.1363   3.1475   3.1744   3.2102   3.2442   3.3463   3.3752
     3.4076   3.4382   3.4645   3.5121   3.5543   3.5708   3.6380   3.6625
     3.6750   3.7101   3.7518   3.8966   3.9960   4.1398   4.1869   4.2547
     4.3080   4.4541   4.5109   4.7683   4.9311   4.9525   4.9953   5.0795
     5.1618   5.1771   5.2255   5.3885   5.6437   5.6825   5.7322   5.7786
     5.8561   5.8667   5.8733   6.0094   6.0726   6.0867   6.1211   6.1466
     6.1985   6.2100   6.2193   6.2358   6.4300   6.5290   6.6135   6.6610
     6.7860   6.8671   6.9645   7.1489   7.2259   7.5027   7.9281   8.0285
     8.0946   8.2532   8.4476   8.5771   8.6486   8.7740   8.9390   9.2629
     9.3631   9.4715   9.5086

          k = 0.0253 0.0560 0.0000 ( 34699 PWs)   bands (ev):

   -57.6887 -57.6712 -57.3072 -57.2888 -57.2293 -57.1000 -57.0801 -57.0625
   -57.0503 -57.0449 -56.9794 -56.9617 -56.7193 -56.7001 -56.1394 -56.1217
   -34.0386 -33.9723 -33.9581 -33.8747 -33.8437 -33.8278 -33.7715 -33.5943
   -33.5715 -33.5703 -33.5333 -33.5237 -33.5071 -33.5060 -33.4749 -33.4711
   -33.4532 -33.4245 -33.4117 -33.3656 -33.3147 -33.3123 -33.3070 -33.2998
   -33.2847 -33.2750 -33.2663 -33.2608 -33.2519 -33.2468 -33.2367 -33.2329
   -33.2085 -33.1971 -33.1688 -33.1630 -33.1241 -32.9856 -32.9728 -32.9600
   -32.9241 -32.9007 -32.4946 -32.4808 -32.4695 -32.3475 -32.3017 -32.2718
   -20.3047 -17.7546 -17.5880 -17.3418 -17.2626 -17.2429 -17.1919 -17.1664
   -17.1377 -16.9944 -16.9686 -16.8790 -16.8746 -16.8273 -16.7947 -16.7711
   -16.7463 -16.6687 -16.6211 -16.6025 -16.5778 -16.5285 -16.4252 -16.4102
   -16.3540 -16.2835 -16.2321 -16.1926 -16.1556 -16.1087 -16.0371 -14.7602
   -14.7231 -11.4918  -7.2405  -5.4541  -5.2214  -5.0318  -4.9474  -4.8111
    -4.7553  -4.7126  -4.5566  -4.4967  -4.4892  -4.4121  -4.3927  -4.3378
    -4.2691  -4.2298  -4.2142  -4.1903  -4.1462  -4.1396  -4.1046  -4.0601
    -4.0307  -4.0106  -3.9914  -3.9335  -3.9228  -3.8734  -3.8574  -3.8200
    -3.7727  -3.7143  -3.6531  -3.5701  -3.4718  -3.3971  -3.3249  -3.2811
    -3.2356  -3.2214  -3.1819  -3.0108  -2.9375  -2.8614  -2.8279  -2.7780
    -2.7567  -2.6444  -2.5913  -2.5081  -2.4873  -2.4359  -2.3912  -2.3644
    -2.3413  -2.3229  -2.2869  -2.2617  -2.1882  -2.1395  -2.1260  -2.0380
    -2.0097  -2.0079  -1.9452  -1.9367  -1.9012  -1.8597  -1.8326  -1.8102
    -1.7434  -1.7020  -1.6768  -1.6358  -1.5714  -1.5362  -1.4928  -1.4737
    -1.4296  -1.3713  -1.3370  -1.3012  -1.2217  -1.2036  -1.1309  -1.1042
    -1.0606  -1.0118  -0.9099  -0.8744  -0.8193  -0.7983  -0.7422  -0.6794
    -0.6052  -0.4636  -0.2544   0.0932   0.1298   0.1569   0.1895   1.8633
     2.0496   2.1341   2.1804   2.2331   2.2736   2.3074   2.3494   2.3863
     2.4280   2.4636   2.4826   2.5098   2.5218   2.5852   2.6955   2.7233
     2.7407   2.7779   2.8255   2.8415   2.9057   2.9544   2.9765   2.9879
     3.0291   3.0353   3.1581   3.2093   3.2883   3.3311   3.3422   3.3849
     3.4092   3.4406   3.4626   3.5425   3.5612   3.6325   3.6579   3.7362
     3.7948   3.8217   3.8629   3.9024   3.9063   4.0738   4.1181   4.1667
     4.3444   4.3862   4.6178   4.9663   5.0141   5.1249   5.1427   5.1596
     5.2638   5.2909   5.3154   5.4382   5.5116   5.5627   5.6389   5.7601
     5.8252   5.8519   5.8931   5.9352   5.9618   6.0035   6.0491   6.0618
     6.1377   6.1582   6.2243   6.3291   6.3807   6.4045   6.4815   6.6419
     6.6921   6.7977   6.8486   7.0359   7.1495   7.3645   7.4811   7.5872
     7.9761   8.1751   8.3482   8.5184   8.6454   8.8560   9.0436   9.1152
     9.1788   9.4910   9.6302

          k = 0.0253-0.0840 0.0000 ( 34722 PWs)   bands (ev):

   -57.6801 -57.6799 -57.2997 -57.2964 -57.2288 -57.0945 -57.0856 -57.0537
   -57.0537 -57.0507 -56.9711 -56.9700 -56.7122 -56.7072 -56.1306 -56.1306
   -33.9653 -33.9651 -33.9421 -33.9420 -33.8514 -33.8513 -33.6847 -33.6607
   -33.5644 -33.5610 -33.5272 -33.5162 -33.5120 -33.4751 -33.4504 -33.4225
   -33.4147 -33.4086 -33.3745 -33.3744 -33.3615 -33.3388 -33.3329 -33.3210
   -33.3195 -33.2832 -33.2763 -33.2746 -33.2679 -33.2640 -33.2346 -33.2332
   -33.2155 -33.2136 -33.1619 -33.1610 -33.0469 -33.0260 -32.9688 -32.9638
[...]
    -1.2960  -1.2649  -1.2528  -1.1884  -1.1526  -1.0294  -1.0184  -1.0102
    -0.9869  -0.9466  -0.9034  -0.8362  -0.7546  -0.6993  -0.6459  -0.5924
    -0.5883  -0.5330  -0.5166   0.0674   0.0675   0.2121   0.2138   2.1551
     2.1559   2.2024   2.2043   2.2402   2.2411   2.2682   2.2997   2.4896
     2.4950   2.5272   2.5572   2.6107   2.6184   2.6810   2.6829   2.6925
     2.6937   2.8461   2.9116   2.9845   2.9996   3.0359   3.0434   3.1003
     3.2216   3.2509   3.2740   3.3346   3.3753   3.3922   3.4464   3.4944
     3.5019   3.5243   3.5509   3.5827   3.6054   3.6818   3.7020   3.7472
     3.8368   3.8931   3.9092   3.9541   3.9545   4.0975   4.1044   4.1131
     4.1136   4.6160   4.7848   4.7885   4.8045   4.8725   4.9221   4.9271
     4.9437   4.9865   5.0291   5.2506   5.3415   5.3606   5.3711   5.7281
     5.8012   5.9121   5.9286   5.9805   6.0431   6.1480   6.3064   6.3511
     6.3666   6.3764   6.4122   6.5754   6.6119   6.6664   6.6665   6.7049
     6.7617   6.8454   6.8463   6.8537   6.8546   7.3589   7.4049   7.5226
     7.6604   7.8254   8.0084   8.1702   8.2240   8.3183   8.3901   8.8328
     8.9134   9.0409   9.0808

          k =-0.0253 0.0280 0.0000 ( 34687 PWs)   bands (ev):

   -57.6952 -57.6649 -57.3137 -57.2822 -57.2300 -57.1060 -57.0740 -57.0688
   -57.0494 -57.0384 -56.9859 -56.9551 -56.7259 -56.6934 -56.1460 -56.1155
   -34.1085 -33.9778 -33.9531 -33.8916 -33.8425 -33.8106 -33.7708 -33.6293
   -33.6099 -33.5805 -33.5410 -33.5329 -33.5202 -33.5144 -33.4909 -33.4705
   -33.4641 -33.4585 -33.4273 -33.3837 -33.3163 -33.2890 -33.2819 -33.2626
   -33.2570 -33.2523 -33.2509 -33.2460 -33.2360 -33.2346 -33.2335 -33.2142
   -33.2011 -33.1834 -33.1753 -33.1429 -33.1397 -32.9907 -32.9770 -32.9560
   -32.9110 -32.8311 -32.5404 -32.4999 -32.4759 -32.3643 -32.2850 -32.1978
   -20.3050 -17.9209 -17.7434 -17.4619 -17.3815 -17.3074 -17.2304 -17.1269
   -17.0964 -17.0042 -16.9616 -16.8573 -16.8288 -16.8047 -16.7817 -16.7684
   -16.7114 -16.6977 -16.5982 -16.5774 -16.5048 -16.4733 -16.3794 -16.3634
   -16.3545 -16.3279 -16.1986 -16.1718 -16.1521 -16.0077 -15.9648 -14.7413
   -14.6720 -11.4926  -7.2414  -5.4768  -5.2467  -5.2102  -5.1805  -5.0199
    -4.9646  -4.9344  -4.7572  -4.6993  -4.5604  -4.4013  -4.3694  -4.3445
    -4.2591  -4.2479  -4.1863  -4.1152  -4.0896  -4.0624  -4.0350  -4.0182
    -3.9735  -3.9391  -3.9126  -3.8670  -3.8205  -3.8099  -3.7826  -3.7183
    -3.6985  -3.6608  -3.6133  -3.6026  -3.5378  -3.5239  -3.3568  -3.2894
    -3.2506  -3.2196  -3.1469  -3.0702  -2.9813  -2.9440  -2.7821  -2.7034
    -2.6782  -2.6349  -2.6091  -2.5303  -2.5026  -2.4498  -2.4458  -2.4209
    -2.4042  -2.3830  -2.3378  -2.2997  -2.2161  -2.1738  -2.1196  -2.1020
    -2.0609  -1.9895  -1.9488  -1.8934  -1.8621  -1.8253  -1.7412  -1.7058
    -1.6510  -1.5975  -1.5913  -1.5582  -1.5140  -1.4684  -1.4343  -1.3913
    -1.3432  -1.3308  -1.2790  -1.2405  -1.1950  -1.1101  -1.0971  -1.0571
    -1.0099  -0.8912  -0.8390  -0.8298  -0.7535  -0.7374  -0.7063  -0.6578
    -0.4314  -0.2800  -0.1329  -0.0843   0.1508   0.1802   0.1904   1.7223
     1.8465   2.0178   2.1022   2.1972   2.2479   2.2869   2.3208   2.4058
     2.4171   2.4519   2.4878   2.5317   2.5342   2.5493   2.6097   2.6704
     2.7071   2.7408   2.7775   2.8141   2.9410   2.9882   3.0061   3.0290
     3.1093   3.1378   3.1479   3.1759   3.2104   3.2414   3.3497   3.3742
     3.4054   3.4217   3.4660   3.5085   3.5634   3.5728   3.6389   3.6624
     3.6747   3.7111   3.7512   3.8954   3.9947   4.1416   4.1870   4.2552
     4.3080   4.4544   4.5112   4.7692   4.9391   4.9519   4.9859   5.0795
     5.1607   5.1767   5.2254   5.3874   5.6455   5.6756   5.7289   5.7884
     5.8542   5.8665   5.8743   6.0084   6.0750   6.0799   6.1256   6.1474
     6.1984   6.2084   6.2159   6.2446   6.4299   6.5268   6.6133   6.6667
     6.7900   6.8606   6.9645   7.1491   7.2262   7.5018   7.9275   8.0279
     8.0946   8.2514   8.4426   8.5787   8.6454   8.7753   8.9447   9.2684
     9.3609   9.4731   9.5060

          k =-0.0253 0.0560 0.0000 ( 34699 PWs)   bands (ev):

   -57.6888 -57.6713 -57.3072 -57.2888 -57.2292 -57.1000 -57.0801 -57.0624
   -57.0502 -57.0449 -56.9794 -56.9616 -56.7193 -56.7001 -56.1396 -56.1219
   -34.0387 -33.9724 -33.9581 -33.8747 -33.8438 -33.8279 -33.7715 -33.5943
   -33.5714 -33.5703 -33.5333 -33.5236 -33.5071 -33.5060 -33.4748 -33.4710
   -33.4531 -33.4245 -33.4116 -33.3656 -33.3146 -33.3122 -33.3070 -33.2998
   -33.2847 -33.2750 -33.2663 -33.2608 -33.2519 -33.2469 -33.2366 -33.2328
   -33.2083 -33.1971 -33.1688 -33.1630 -33.1240 -32.9856 -32.9727 -32.9600
   -32.9240 -32.9007 -32.4948 -32.4809 -32.4697 -32.3477 -32.3019 -32.2719
   -20.3048 -17.7546 -17.5880 -17.3417 -17.2626 -17.2430 -17.1921 -17.1664
   -17.1375 -16.9944 -16.9685 -16.8791 -16.8749 -16.8278 -16.7951 -16.7711
   -16.7461 -16.6684 -16.6209 -16.6021 -16.5778 -16.5287 -16.4252 -16.4103
   -16.3541 -16.2835 -16.2322 -16.1927 -16.1555 -16.1087 -16.0371 -14.7599
   -14.7227 -11.4918  -7.2405  -5.4540  -5.2214  -5.0314  -4.9474  -4.8117
    -4.7553  -4.7126  -4.5566  -4.4950  -4.4898  -4.4117  -4.3929  -4.3426
    -4.2694  -4.2309  -4.2137  -4.1903  -4.1460  -4.1390  -4.1061  -4.0602
    -4.0297  -4.0080  -3.9925  -3.9346  -3.9225  -3.8715  -3.8610  -3.8206
    -3.7723  -3.7124  -3.6541  -3.5702  -3.4714  -3.3971  -3.3302  -3.2814
    -3.2361  -3.2149  -3.1762  -3.0117  -2.9350  -2.8628  -2.8247  -2.7815
    -2.7540  -2.6437  -2.5903  -2.5087  -2.4858  -2.4373  -2.3925  -2.3611
    -2.3416  -2.3225  -2.2892  -2.2641  -2.1879  -2.1394  -2.1251  -2.0349
    -2.0184  -2.0009  -1.9436  -1.9410  -1.9027  -1.8601  -1.8282  -1.8048
    -1.7413  -1.7088  -1.6706  -1.6406  -1.5779  -1.5376  -1.5032  -1.4585
    -1.4293  -1.3704  -1.3456  -1.2996  -1.2221  -1.2040  -1.1296  -1.1024
    -1.0612  -1.0127  -0.9218  -0.8754  -0.8119  -0.7984  -0.7360  -0.6790
    -0.6051  -0.4652  -0.2558   0.0934   0.1301   0.1572   0.1897   1.8631
     2.0494   2.1369   2.1803   2.2300   2.2717   2.3081   2.3352   2.3853
     2.4463   2.4608   2.4875   2.5151   2.5223   2.5852   2.6947   2.7262
     2.7465   2.7774   2.8296   2.8426   2.8951   2.9518   2.9729   2.9886
     3.0258   3.0364   3.1723   3.2099   3.2924   3.3186   3.3358   3.3726
     3.4135   3.4384   3.4619   3.5450   3.5609   3.6365   3.6594   3.7368
     3.7951   3.8192   3.8639   3.9006   3.9084   4.0745   4.1181   4.1668
     4.3442   4.3862   4.6186   4.9675   5.0212   5.1227   5.1384   5.1578
     5.2612   5.2887   5.3171   5.4298   5.5135   5.5625   5.6419   5.7644
     5.8264   5.8500   5.8968   5.9377   5.9569   5.9972   6.0529   6.0647
     6.1375   6.1567   6.2314   6.3211   6.3809   6.4109   6.4785   6.6455
     6.6951   6.7976   6.8422   7.0364   7.1474   7.3645   7.4817   7.5853
     7.9747   8.1748   8.3490   8.5204   8.6462   8.8593   9.0486   9.1171
     9.1752   9.4961   9.6297

          k =-0.0506 0.0280 0.0000 ( 34685 PWs)   bands (ev):

   -57.6952 -57.6649 -57.3137 -57.2822 -57.2300 -57.1059 -57.0740 -57.0690
   -57.0494 -57.0384 -56.9859 -56.9551 -56.7259 -56.6934 -56.1460 -56.1155
   -34.1092 -33.9777 -33.9531 -33.8902 -33.8428 -33.8106 -33.7708 -33.6307
   -33.6099 -33.5838 -33.5416 -33.5337 -33.5258 -33.5180 -33.4908 -33.4701
   -33.4562 -33.4469 -33.4273 -33.3675 -33.3160 -33.2892 -33.2775 -33.2637
   -33.2626 -33.2595 -33.2567 -33.2515 -33.2360 -33.2346 -33.2324 -33.2119
   -33.2016 -33.1836 -33.1752 -33.1428 -33.1396 -32.9907 -32.9813 -32.9546
   -32.9111 -32.8311 -32.5403 -32.5017 -32.4750 -32.3642 -32.2850 -32.1978
   -20.3046 -17.8587 -17.6497 -17.3672 -17.3395 -17.2480 -17.2226 -17.2131
   -17.1207 -17.0415 -16.9619 -16.9189 -16.8687 -16.8559 -16.8534 -16.8306
   -16.7614 -16.7435 -16.5575 -16.5262 -16.5019 -16.4364 -16.4138 -16.3740
   -16.3666 -16.3102 -16.1893 -16.1703 -16.1509 -16.0089 -15.9645 -14.7393
   -14.6720 -11.4902  -7.2358  -5.4911  -5.2298  -5.2086  -4.8909  -4.8324
    -4.7187  -4.7028  -4.6732  -4.6534  -4.6285  -4.5080  -4.4262  -4.3436
    -4.3169  -4.3004  -4.1578  -4.1253  -4.0592  -4.0248  -4.0069  -3.9914
    -3.9811  -3.9081  -3.8580  -3.8141  -3.7716  -3.7593  -3.7173  -3.6893
    -3.6540  -3.6314  -3.5814  -3.5493  -3.4453  -3.3164  -3.2833  -3.2607
    -3.2215  -3.1687  -3.0989  -3.0564  -2.9510  -2.9354  -2.8714  -2.8384
    -2.7415  -2.6913  -2.6578  -2.6491  -2.6024  -2.5889  -2.5342  -2.4933
    -2.4350  -2.3857  -2.3793  -2.3339  -2.3069  -2.2524  -2.1774  -2.1339
    -2.1115  -2.0607  -2.0244  -1.9727  -1.9383  -1.9034  -1.8578  -1.8293
    -1.7527  -1.7381  -1.7100  -1.6390  -1.5384  -1.5049  -1.4829  -1.4157
    -1.3647  -1.3457  -1.2772  -1.2593  -1.2354  -1.1451  -1.1136  -1.0113
    -0.9764  -0.8785  -0.8543  -0.8119  -0.7770  -0.7621  -0.7031  -0.6882
    -0.5110  -0.3103  -0.2578  -0.0716   0.1114   0.1408   0.1641   1.7058
     1.9067   2.0620   2.1247   2.1293   2.1743   2.2430   2.3635   2.3741
     2.4081   2.4403   2.5198   2.5696   2.5762   2.6046   2.6859   2.6986
     2.7451   2.8047   2.8353   2.9048   2.9581   2.9837   3.0434   3.0625
     3.0934   3.1626   3.1730   3.2023   3.3043   3.3588   3.3780   3.4125
     3.4481   3.4602   3.5490   3.5884   3.6059   3.6554   3.6778   3.6867
     3.7191   3.7730   3.8201   3.8715   3.9349   4.0610   4.1703   4.2836
     4.2951   4.4243   4.6244   4.6917   4.7660   4.8130   4.8577   4.9848
     5.0147   5.1272   5.2259   5.4716   5.5962   5.6420   5.7221   5.8060
     5.8628   5.8746   5.9274   5.9479   5.9815   6.0940   6.1182   6.1405
     6.2304   6.4341   6.4834   6.5425   6.5797   6.6083   6.6874   6.7406
     6.7987   6.8189   6.9754   7.1133   7.1683   7.3937   7.5683   7.7034
     8.1334   8.1644   8.2418   8.3885   8.7706   8.9682   9.0135   9.0472
     9.3715   9.4393   9.6085

          k =-0.0506 0.0560 0.0000 ( 34596 PWs)   bands (ev):

   -57.6888 -57.6713 -57.3071 -57.2888 -57.2292 -57.0999 -57.0801 -57.0625
   -57.0502 -57.0449 -56.9794 -56.9616 -56.7193 -56.7001 -56.1396 -56.1219
   -34.0392 -33.9724 -33.9581 -33.8735 -33.8440 -33.8275 -33.7716 -33.5943
   -33.5726 -33.5704 -33.5337 -33.5197 -33.5135 -33.5094 -33.4748 -33.4718
   -33.4511 -33.4245 -33.4020 -33.3520 -33.3165 -33.3155 -33.2994 -33.2973
   -33.2850 -33.2749 -33.2662 -33.2584 -33.2520 -33.2515 -33.2460 -33.2379
   -33.2085 -33.1986 -33.1687 -33.1627 -33.1236 -32.9856 -32.9755 -32.9598
   -32.9240 -32.9006 -32.4959 -32.4805 -32.4695 -32.3477 -32.3018 -32.2718
   -20.3044 -17.7042 -17.4991 -17.2894 -17.2380 -17.1958 -17.1722 -17.1602
   -17.0879 -17.0355 -17.0042 -16.9119 -16.8548 -16.8474 -16.8426 -16.8045
   -16.7746 -16.7197 -16.6607 -16.6204 -16.6107 -16.5492 -16.5109 -16.3967
   -16.3414 -16.2621 -16.2243 -16.1912 -16.1549 -16.1104 -16.0362 -14.7587
   -14.7231 -11.4893  -7.2346  -5.4687  -5.2202  -5.0217  -4.6577  -4.6155
    -4.5137  -4.4976  -4.4822  -4.4544  -4.4304  -4.3658  -4.3232  -4.3001
    -4.2242  -4.2041  -4.1449  -4.1304  -4.0809  -4.0653  -4.0445  -4.0349
    -4.0125  -3.9946  -3.9669  -3.9129  -3.8924  -3.8867  -3.8201  -3.7853
    -3.7291  -3.6589  -3.6285  -3.5214  -3.4876  -3.3753  -3.3268  -3.2598
    -3.2541  -3.2439  -3.1363  -3.0126  -2.9319  -2.9023  -2.8492  -2.8281
    -2.7548  -2.7250  -2.6832  -2.6080  -2.5901  -2.5659  -2.5281  -2.4884
    -2.4266  -2.4039  -2.3644  -2.3278  -2.3149  -2.2987  -2.2537  -2.1764
    -2.1508  -2.1196  -2.1125  -2.0759  -2.0455  -2.0004  -1.9822  -1.9001
    -1.8897  -1.8499  -1.8308  -1.7232  -1.6360  -1.6043  -1.5712  -1.4768
    -1.4069  -1.3730  -1.3056  -1.2502  -1.2048  -1.1090  -1.0727  -1.0162
    -1.0012  -0.9352  -0.8514  -0.8177  -0.7685  -0.7543  -0.6910  -0.6555
    -0.6501  -0.5160  -0.3228   0.0794   0.1136   0.1315   0.1951   1.8684
     2.0783   2.1674   2.2015   2.2228   2.2453   2.3003   2.3500   2.3952
     2.4053   2.5392   2.5722   2.5812   2.6092   2.6304   2.6855   2.7566
     2.7838   2.8063   2.8409   2.8831   2.9655   3.0065   3.0303   3.0643
     3.0993   3.1383   3.1697   3.2587   3.3375   3.3693   3.3991   3.4430
     3.4809   3.5019   3.5240   3.5446   3.6169   3.6494   3.7136   3.7460
     3.7822   3.8538   3.8824   3.9210   3.9269   3.9564   4.1132   4.1764
     4.2910   4.4753   4.7277   4.8085   4.8187   4.8981   4.9445   5.0940
     5.1675   5.2331   5.2735   5.3264   5.3740   5.4370   5.4974   5.6281
     5.7824   5.8315   5.8834   5.9536   6.0391   6.1254   6.2182   6.2604
     6.2884   6.3478   6.4182   6.4523   6.5036   6.5792   6.6500   6.7178
     6.7322   6.8255   6.8491   6.9856   7.0490   7.4116   7.4288   7.5736
     7.7439   7.9414   8.0691   8.3891   8.5762   8.6077   8.7434   9.0097
     9.2247   9.3238   9.4551

     the Fermi energy is     0.9985 ev

!    total energy              =   -3021.41988885 Ry
     Harris-Foulkes estimate   =   -3021.41988885 Ry
     estimated scf accuracy    <       0.00000020 Ry

     The total energy is the sum of the following terms:

     one-electron contribution =  -41239.61350813 Ry
     hartree contribution      =   20694.06608241 Ry
     xc contribution           =    -553.69624033 Ry
     ewald contribution        =   18077.82398818 Ry
     smearing contrib. (-TS)   =      -0.00021099 Ry

     total magnetization       =     0.00 Bohr mag/cell
     absolute magnetization    =     0.00 Bohr mag/cell

     convergence has been achieved in   9 iterations

     Forces acting on atoms (Ry/au):


     negative rho (up, down):  1.209E-02 1.209E-02
     atom    1 type  1   force =     0.00001412   -0.00035580   -0.13377088
     atom    2 type  2   force =     0.00000112    0.00002922    0.07212048
     atom    3 type  1   force =    -0.00135779    0.00030933   -0.06095429
     atom    4 type  2   force =     0.00289795    0.00048822    0.00637804
     atom    5 type  1   force =     0.00027433    0.00185729    0.00353678
     atom    6 type  2   force =     0.00006172    0.00001276   -0.00289221
     atom    7 type  1   force =    -0.00052080   -0.00075654    0.00453349
     atom    8 type  2   force =     0.00097784   -0.00022704   -0.00068382
     atom    9 type  1   force =    -0.00002976    0.00002024   -0.13352784
     atom   10 type  2   force =    -0.00006855    0.00006611    0.07130230
     atom   11 type  1   force =    -0.00131877   -0.00024066   -0.05587317
     atom   12 type  2   force =     0.00299041   -0.00006869    0.00609222
     atom   13 type  1   force =     0.00029417   -0.00148478    0.00347688
     atom   14 type  2   force =    -0.00120370   -0.00038702   -0.00290512
     atom   15 type  1   force =    -0.00060090    0.00021754    0.00446863
     atom   16 type  2   force =     0.00059743   -0.00017418   -0.00005922
     atom   17 type  2   force =    -0.00007122   -0.00007011    0.07937661
     atom   18 type  1   force =     0.00013218   -0.00017195    0.11915191
     atom   19 type  2   force =    -0.00010965   -0.00017383   -0.06669081
     atom   20 type  2   force =    -0.06322510    0.00014912   -0.03224990
     atom   21 type  2   force =     0.06319852    0.00001582   -0.03245449
     atom   22 type  1   force =     0.00072192    0.00108238    0.05975644
     atom   23 type  2   force =    -0.00017543    0.00005824   -0.00177275
     atom   24 type  2   force =    -0.00143519   -0.00000252   -0.02328263
     atom   25 type  2   force =    -0.00313121    0.00058934    0.00786333
     atom   26 type  1   force =     0.00063307    0.00029098    0.00463833
     atom   27 type  2   force =     0.00052504    0.00060037   -0.00383056
     atom   28 type  2   force =     0.00013521   -0.00009083   -0.00120291
     atom   29 type  2   force =     0.00021490   -0.00034280   -0.00058982
     atom   30 type  1   force =     0.00041575   -0.00056537    0.00395350
     atom   31 type  2   force =     0.00000541    0.00009708   -0.00258561
     atom   32 type  2   force =     0.00003058   -0.00005001   -0.00116678
     atom   33 type  2   force =    -0.00012096    0.00003669    0.07897533
     atom   34 type  1   force =     0.00006692   -0.00021876    0.11906570
     atom   35 type  2   force =    -0.00030510   -0.00005351   -0.06639039
     atom   36 type  2   force =    -0.06318415   -0.00005171   -0.03233736
     atom   37 type  2   force =     0.06332770   -0.00020248   -0.03249146
     atom   38 type  1   force =     0.00065985   -0.00098198    0.05997379
     atom   39 type  2   force =    -0.00045821    0.00010581   -0.00251394
     atom   40 type  2   force =    -0.00119288    0.00030721   -0.02219524
     atom   41 type  2   force =    -0.00317179   -0.00015095    0.00788859
     atom   42 type  1   force =     0.00051182    0.00006633    0.00374771
     atom   43 type  2   force =     0.00068951    0.00023660   -0.00300773
     atom   44 type  2   force =     0.00022037    0.00010323   -0.00116739
     atom   45 type  2   force =     0.00019010    0.00030827   -0.00062119
     atom   46 type  1   force =     0.00065726    0.00018308    0.00400469
     atom   47 type  2   force =     0.00006106   -0.00032218   -0.00129386
     atom   48 type  2   force =     0.00010525    0.00008834   -0.00090541
     atom   49 type  3   force =     0.01033726   -0.00062829    0.01199391
     atom   50 type  2   force =    -0.00321655   -0.00024059   -0.00368076
     atom   51 type  4   force =    -0.00981942   -0.00002169   -0.01022117
     atom   52 type  4   force =     0.00000992    0.00033468    0.00131205
     atom   53 type  4   force =     0.00174651    0.00120238   -0.00021368
     atom   54 type  4   force =     0.00201201   -0.00082239   -0.00007832

     Total force =     0.363254     Total SCF correction =     0.001364
 !ASE

     Writing output data file calc.save
 
     init_run     :     57.37s CPU     72.64s WALL (       1 calls)
     electrons    :   2087.41s CPU   2580.76s WALL (       1 calls)
     forces       :     39.88s CPU     41.81s WALL (       1 calls)

     Called by init_run:
     wfcinit      :     49.27s CPU     63.70s WALL (       1 calls)
     potinit      :      1.35s CPU      1.65s WALL (       1 calls)

     Called by electrons:
     c_bands      :   1813.55s CPU   2237.74s WALL (      10 calls)
     sum_band     :    233.53s CPU    296.71s WALL (      10 calls)
     v_of_rho     :     10.00s CPU     12.67s WALL (      10 calls)
     newd         :     34.17s CPU     37.63s WALL (      10 calls)
     mix_rho      :      0.32s CPU      0.46s WALL (      10 calls)
     vdW_energy   :      1.79s CPU      2.19s WALL (      11 calls)
     vdW_ffts     :      2.74s CPU      3.61s WALL (      22 calls)
     vdW_v        :      1.00s CPU      1.18s WALL (      11 calls)

     Called by c_bands:
     init_us_2    :      6.02s CPU      6.54s WALL (     880 calls)
     cegterg      :   1776.40s CPU   2198.52s WALL (     400 calls)

     Called by *egterg:
     h_psi        :    754.45s CPU   1102.56s WALL (    2044 calls)
     s_psi        :     90.00s CPU     93.95s WALL (    2044 calls)
     g_psi        :      4.86s CPU      5.01s WALL (    1604 calls)
     cdiaghg      :    594.36s CPU    606.22s WALL (    1964 calls)

     Called by h_psi:
     add_vuspsi   :     90.56s CPU     94.11s WALL (    2044 calls)

     General routines
     calbec       :    138.90s CPU    142.29s WALL (    2484 calls)
     fft          :      5.76s CPU      7.61s WALL (     875 calls)
     ffts         :      0.04s CPU      0.07s WALL (      40 calls)
     fftw         :    504.37s CPU    897.91s WALL (  723958 calls)
     interpolate  :      0.29s CPU      0.50s WALL (      40 calls)
     davcio       :      0.14s CPU      2.87s WALL (      40 calls)
 
     Parallel routines
     fft_scatter  :    277.25s CPU    479.53s WALL (  724873 calls)
 
     PWSCF        : 36m25.75s CPU    44m59.98s WALL

 
   This run was terminated on:  22:11:56  12Feb2018            

=------------------------------------------------------------------------------=
   JOB DONE.
=------------------------------------------------------------------------------=
