  python dir          : /home/vossj/suncat/lib/python2.7/site-packages/espresso
  espresso dir        : /home/vossj/suncat/esdld/espresso-dynpy-beef/bin
  pseudo dir          : /home/alatimer/bin/psp/esp_psp_w_gbrvRu/
  ase-espresso py git : ffa2778-git



     Program PWSCF v.5.1rc2 (svn rev. ) starts on 26Feb2018 at 17:51:43 

     This program is part of the open-source Quantum ESPRESSO suite
     for quantum simulation of materials; please cite
         "P. Giannozzi et al., J. Phys.:Condens. Matter 21 395502 (2009);
          URL http://www.quantum-espresso.org", 
     in publications or presentations arising from this work. More details at
     http://www.quantum-espresso.org/quote

     Parallel version (MPI), running on    16 processors
     R & G space division:  proc/nbgrp/npool/nimage =      16
     Reading input from pw.inp
     Message from routine read_cards :
     DEPRECATED: no units specified in CELL_PARAMETERS card

     Current dimensions of program PWSCF are:
     Max number of different atomic species (ntypx) = 10
     Max number of k-points (npk) =  40000
     Max angular momentum in pseudopotentials (lmaxx) =  3

     **************************************************************************
     Initializing libbeef V0.1.1 with the BEEF-vdW functional.
     Citation: Wellendorff et al., PRB 85, 235149 (2012).
     **************************************************************************


     IMPORTANT: XC functional enforced from input :
     Exchange-correlation      = BEEF ( 1  4 27 13 2)
     Any further DFT definition will be discarded
     Please, verify this is what you really want


     Subspace diagonalization in iterative solution of the eigenvalue problem:
     a serial algorithm will be used

 
     Parallelization info
     --------------------
     sticks:   dense  smooth     PW     G-vecs:    dense   smooth      PW
     Min         281     112     31                68535    17318    2565
     Max         282     113     32                68545    17369    2582
     Sum        4501    1795    503              1096637   277353   41113
 
     Generating pointlists ...
     new r_m :   0.4125 (alat units)  0.7795 (a.u.) for type    1
     new r_m :   0.4125 (alat units)  0.7795 (a.u.) for type    2
     new r_m :   0.4125 (alat units)  0.7795 (a.u.) for type    3
     new r_m :   0.4125 (alat units)  0.7795 (a.u.) for type    4


     bravais-lattice index     =            0
     lattice parameter (alat)  =       1.8897  a.u.
     unit-cell volume          =    7990.9933 (a.u.)^3
     number of atoms/cell      =           54
     number of atomic types    =            4
     number of electrons       =       398.00
     number of Kohn-Sham states=          299
     kinetic-energy cutoff     =      40.4243  Ry
     charge density cutoff     =     404.2426  Ry
     convergence threshold     =      7.3E-07
     mixing beta               =       0.1000
     number of iterations used =           10  plain     mixing
     Exchange-correlation      = BEEF ( 1  4 27 13 2)
     nstep                     =           50


     celldm(1)=   1.889726  celldm(2)=   0.000000  celldm(3)=   0.000000
     celldm(4)=   0.000000  celldm(5)=   0.000000  celldm(6)=   0.000000

     crystal axes: (cart. coord. in units of alat)
               a(1) = (   6.590708   0.000000   0.000000 )  
               a(2) = (   0.000000   5.950229   0.000000 )  
               a(3) = (   0.000000   0.000000  30.195235 )  

     reciprocal axes: (cart. coord. in units 2 pi/alat)
               b(1) = (  0.151729  0.000000  0.000000 )  
               b(2) = (  0.000000  0.168061  0.000000 )  
               b(3) = (  0.000000  0.000000  0.033118 )  


     PseudoPot. # 1 for Ti read from file:
     /home/alatimer/bin/psp/esp_psp_w_gbrvRu/Ti.UPF
     MD5 check sum: 8e4df49b7f0d34bbd5052bf3f5ea0213
     Pseudo is Ultrasoft, Zval = 12.0
     Generated by new atomic code, or converted to UPF format
     Using radial grid of  851 points,  6 beta functions with: 
                l(1) =   0
                l(2) =   0
                l(3) =   1
                l(4) =   1
                l(5) =   2
                l(6) =   2
     Q(r) pseudized with  8 coefficients,  rinner =    1.000   1.000   1.000
                                                       1.000   1.000

     PseudoPot. # 2 for  O read from file:
     /home/alatimer/bin/psp/esp_psp_w_gbrvRu/O.UPF
     MD5 check sum: e057bbcf3229fb5d8c36c0c92f9568b4
     Pseudo is Ultrasoft + core correction, Zval =  6.0
     Generated using "atomic" code by A. Dal Corso  v.5.0.2 svn rev. 9415
     Using radial grid of 1095 points,  4 beta functions with: 
                l(1) =   0
                l(2) =   0
                l(3) =   1
                l(4) =   1
     Q(r) pseudized with 0 coefficients 


     PseudoPot. # 3 for  C read from file:
     /home/alatimer/bin/psp/esp_psp_w_gbrvRu/C.UPF
     MD5 check sum: ab446d787031eba755f1d5ee46644bb0
     Pseudo is Ultrasoft + core correction, Zval =  4.0
     Generated using "atomic" code by A. Dal Corso  v.5.0.2 svn rev. 9415
     Using radial grid of 1073 points,  4 beta functions with: 
                l(1) =   0
                l(2) =   0
                l(3) =   1
                l(4) =   1
     Q(r) pseudized with 0 coefficients 


     PseudoPot. # 4 for  H read from file:
     /home/alatimer/bin/psp/esp_psp_w_gbrvRu/H.UPF
     MD5 check sum: bd57da0722753ddfd9833a65b40bb853
     Pseudo is Ultrasoft, Zval =  1.0
     Generated using "atomic" code by A. Dal Corso  v.5.0.2 svn rev. 9415
     Using radial grid of  929 points,  2 beta functions with: 
                l(1) =   0
                l(2) =   0
     Q(r) pseudized with 0 coefficients 


     vdW kernel table read from file vdW_kernel_table
     MD5 check sum: 095c7af220d748ca6e76c0b4c6cfb241

     atomic species   valence    mass     pseudopotential
        Ti1           12.00    47.88000     Ti( 1.00)
        O1             6.00    15.99940      O( 1.00)
        C1             4.00    12.01100      C( 1.00)
        H1             1.00     1.00794      H( 1.00)

     Starting magnetic structure 
     atomic species   magnetization
        Ti1          0.250
        O1           0.500
        C1           0.750
        H1           0.000

     No symmetry found



   Cartesian axes

     site n.     atom                  positions (alat units)
         1           Ti1 tau(   1) = (   1.6476770   0.7437786   2.6545865  )
         2           O1  tau(   2) = (   1.6476770   2.2313359   3.9361215  )
         3           Ti1 tau(   3) = (   1.6476770   2.2313359   5.9499405  )
         4           O1  tau(   4) = (   0.3661420   0.7437786   5.9499405  )
         5           Ti1 tau(   5) = (   1.6407309   0.9134410   9.3139491  )
         6           O1  tau(   6) = (   1.6648823   2.2608486  10.4895904  )
         7           Ti1 tau(   7) = (   1.7578240   2.2899216  13.0472362  )
         8           O1  tau(   8) = (   0.4801583   0.7600008  12.7739736  )
         9           Ti1 tau(   9) = (   1.6476770   3.7188931   2.6545865  )
        10           O1  tau(  10) = (   1.6476770   5.2064503   3.9361215  )
        11           Ti1 tau(  11) = (   1.6476770   5.2064503   5.9499405  )
        12           O1  tau(  12) = (   0.3661420   3.7188931   5.9499405  )
        13           Ti1 tau(  13) = (   1.6336050   3.7786827   9.1566831  )
        14           O1  tau(  14) = (   1.6678212   5.2513959  10.5409436  )
        15           Ti1 tau(  15) = (   1.7144009   5.2558216  12.3462911  )
        16           O1  tau(  16) = (   0.4635505   3.7986228  12.7318280  )
        17           O1  tau(  17) = (   1.6476770   2.2313359   1.3730516  )
        18           Ti1 tau(  18) = (   4.9430310   2.2313359   2.6545865  )
        19           O1  tau(  19) = (   4.9430310   2.2313359   4.6684056  )
        20           O1  tau(  20) = (   6.2245660   0.7437786   2.6545865  )
        21           O1  tau(  21) = (   3.6614961   0.7437786   2.6545865  )
        22           Ti1 tau(  22) = (   4.9430310   0.7437786   5.9499405  )
        23           O1  tau(  23) = (   1.6683653   2.2752577   7.9427336  )
        24           O1  tau(  24) = (   4.9430310   2.2313359   7.2314755  )
        25           O1  tau(  25) = (   2.9292120   0.7437786   5.9499405  )
        26           Ti1 tau(  26) = (   4.9404121   2.2664794   9.4552217  )
        27           O1  tau(  27) = (   5.0099888   2.2616732  11.2946145  )
        28           O1  tau(  28) = (   6.2612001   0.7714827   9.2659748  )
        29           O1  tau(  29) = (   3.6791272   0.7744986   9.2965846  )
        30           Ti1 tau(  30) = (   5.0117873   0.7976728  12.8161605  )
        31           O1  tau(  31) = (   4.9963122   2.2836652  13.8750618  )
        32           O1  tau(  32) = (   2.9819382   0.7448324  12.7109220  )
        33           O1  tau(  33) = (   1.6476770   5.2064503   1.3730516  )
        34           Ti1 tau(  34) = (   4.9430310   5.2064503   2.6545865  )
        35           O1  tau(  35) = (   4.9430310   5.2064503   4.6684056  )
        36           O1  tau(  36) = (   6.2245660   3.7188931   2.6545865  )
        37           O1  tau(  37) = (   3.6614961   3.7188931   2.6545865  )
        38           Ti1 tau(  38) = (   4.9430310   3.7188931   5.9499405  )
        39           O1  tau(  39) = (   1.6664207   5.2035600   7.9365221  )
        40           O1  tau(  40) = (   4.9430310   5.2064503   7.2314755  )
        41           O1  tau(  41) = (   2.9292120   3.7188931   5.9499405  )
        42           Ti1 tau(  42) = (   4.9524353   5.2460635   9.4426343  )
        43           O1  tau(  43) = (   5.0107556   5.2394944  11.2927493  )
        44           O1  tau(  44) = (   6.2663940   3.7551737   9.2646230  )
        45           O1  tau(  45) = (   3.6780957   3.7542261   9.2971476  )
        46           Ti1 tau(  46) = (   5.0587989   3.7766986  12.8010349  )
        47           O1  tau(  47) = (   5.0196089   5.2502198  13.8813978  )
        48           O1  tau(  48) = (   2.9624133   3.7943242  12.7299881  )
        49           O1  tau(  49) = (   1.7427453   2.2533568  14.8370015  )
        50           C1  tau(  50) = (   2.7196098   4.2826273  16.2318421  )
        51           H1  tau(  51) = (   3.3037454   4.9255546  15.5827400  )
        52           H1  tau(  52) = (   3.3286606   3.7870117  16.9822022  )
        53           H1  tau(  53) = (   2.2825587   3.4026405  15.5729816  )
        54           H1  tau(  54) = (   1.8391288   4.7650601  16.6448379  )

     number of k points=    40  Fermi-Dirac smearing, width (Ry)=  0.0073
                       cart. coord. in units 2pi/alat
        k(    1) = (   0.0000000   0.0000000   0.0000000), wk =   0.0277778
        k(    2) = (   0.0000000   0.0280101   0.0000000), wk =   0.0555556
        k(    3) = (   0.0000000   0.0560203   0.0000000), wk =   0.0555556
        k(    4) = (   0.0000000  -0.0840304   0.0000000), wk =   0.0277778
        k(    5) = (   0.0252881   0.0000000   0.0000000), wk =   0.0555556
        k(    6) = (   0.0252881   0.0280101   0.0000000), wk =   0.0555556
        k(    7) = (   0.0252881   0.0560203   0.0000000), wk =   0.0555556
        k(    8) = (   0.0252881  -0.0840304   0.0000000), wk =   0.0555556
        k(    9) = (   0.0505763   0.0000000   0.0000000), wk =   0.0555556
        k(   10) = (   0.0505763   0.0280101   0.0000000), wk =   0.0555556
        k(   11) = (   0.0505763   0.0560203   0.0000000), wk =   0.0555556
        k(   12) = (   0.0505763  -0.0840304   0.0000000), wk =   0.0555556
        k(   13) = (  -0.0758644   0.0000000   0.0000000), wk =   0.0277778
        k(   14) = (  -0.0758644   0.0280101   0.0000000), wk =   0.0555556
        k(   15) = (  -0.0758644   0.0560203   0.0000000), wk =   0.0555556
        k(   16) = (  -0.0758644  -0.0840304   0.0000000), wk =   0.0277778
        k(   17) = (  -0.0252881   0.0280101   0.0000000), wk =   0.0555556
        k(   18) = (  -0.0252881   0.0560203   0.0000000), wk =   0.0555556
        k(   19) = (  -0.0505763   0.0280101   0.0000000), wk =   0.0555556
        k(   20) = (  -0.0505763   0.0560203   0.0000000), wk =   0.0555556
        k(   21) = (   0.0000000   0.0000000   0.0000000), wk =   0.0277778
        k(   22) = (   0.0000000   0.0280101   0.0000000), wk =   0.0555556
        k(   23) = (   0.0000000   0.0560203   0.0000000), wk =   0.0555556
        k(   24) = (   0.0000000  -0.0840304   0.0000000), wk =   0.0277778
        k(   25) = (   0.0252881   0.0000000   0.0000000), wk =   0.0555556
        k(   26) = (   0.0252881   0.0280101   0.0000000), wk =   0.0555556
        k(   27) = (   0.0252881   0.0560203   0.0000000), wk =   0.0555556
        k(   28) = (   0.0252881  -0.0840304   0.0000000), wk =   0.0555556
        k(   29) = (   0.0505763   0.0000000   0.0000000), wk =   0.0555556
        k(   30) = (   0.0505763   0.0280101   0.0000000), wk =   0.0555556
        k(   31) = (   0.0505763   0.0560203   0.0000000), wk =   0.0555556
        k(   32) = (   0.0505763  -0.0840304   0.0000000), wk =   0.0555556
        k(   33) = (  -0.0758644   0.0000000   0.0000000), wk =   0.0277778
        k(   34) = (  -0.0758644   0.0280101   0.0000000), wk =   0.0555556
        k(   35) = (  -0.0758644   0.0560203   0.0000000), wk =   0.0555556
        k(   36) = (  -0.0758644  -0.0840304   0.0000000), wk =   0.0277778
        k(   37) = (  -0.0252881   0.0280101   0.0000000), wk =   0.0555556
        k(   38) = (  -0.0252881   0.0560203   0.0000000), wk =   0.0555556
        k(   39) = (  -0.0505763   0.0280101   0.0000000), wk =   0.0555556
        k(   40) = (  -0.0505763   0.0560203   0.0000000), wk =   0.0555556

     Dense  grid:  1096637 G-vectors     FFT dimensions: (  80,  72, 375)

     Smooth grid:   277353 G-vectors     FFT dimensions: (  54,  45, 240)

     Largest allocated arrays     est. size (Mb)     dimensions
        Kohn-Sham Wavefunctions         9.95 Mb     (    2180,  299)
        NL pseudopotentials            18.89 Mb     (    2180,  568)
        Each V/rho on FFT grid          4.22 Mb     (  138240,   2)
        Each G-vector array             0.52 Mb     (   68538)
        G-vector shells                 0.25 Mb     (   33046)
     Largest temporary arrays     est. size (Mb)     dimensions
        Auxiliary wavefunctions        39.78 Mb     (    2180, 1196)
        Each subspace H/S matrix       21.83 Mb     (    1196, 1196)
        Each <psi_i|beta_j> matrix      2.59 Mb     (     568,  299)
        Arrays for rho mixing          21.09 Mb     (  138240,   10)

     Check: negative/imaginary core charge=   -0.000049    0.000000

     The initial density is read from file :
     ./calc.save/charge-density.dat


     negative rho (up, down):  1.189E-02 1.196E-02


     ************************************************************************
     *
     * You are using vdW-DF for exchange-correlation in this calculation.
     * Please cite the following three references that made this development
     * possible:
     *
     *   M. Dion, H. Rydberg, E. Schroder, D. C. Langreth, and
     *   B. I. Lundqvist, Phys. Rev. Lett. 92, 246401 (2004).
     *
     *   T. Thonhauser, V. R. Cooper, S. Li, A. Puzder, P. Hyldgaard, and
     *   D. C. Langreth, Phys. Rev. B 76, 125112 (2007).
     *
     *   G. Roman-Perez and J. M. Soler, Phys. Rev. Lett. 103, 096102 (2009).
     *
     *
     * If you are using vdW-DF2, please also cite:
     *
     *   K. Lee, E. D. Murray, L. Kong, B. I. Lundqvist, and
     *   D. C. Langreth, Phys. Rev. B 82, 081101(R) (2010).
     *
     *
     * If you are calculating the stress with vdW-DF, please also cite:
     *
     *   R. Sabatini, E. Kucukbenli, B. Kolb, T. Thonhauser, and
     *   S. de Gironcoli, J. Phys.: Condens. Matter 24, 424209 (2012).
     *
     ************************************************************************

     Carrying out vdW-DF run using the following parameters:

     Nqs =      20    Nr_points =    1024   r_max =   100.000
     q_mesh =
               0.00001000     0.04494208     0.09755937     0.15916263
               0.23128650     0.31572767     0.41458969     0.53033537
               0.66584808     0.82450364     1.01025438     1.22772762
               1.48234092     1.78043706     2.12944203     2.53805004
               3.01644009     3.57652955     4.23227104     5.00000000

     Gradients computed in reciprocal space

     ************************************************************************


     Starting wfc are  300 randomized atomic wfcs

     total cpu time spent up to now is       80.1 secs

     Self-consistent Calculation

     iteration #  1     ecut=    40.42 Ry     beta=0.10
     Davidson diagonalization with overlap
     ethr =  1.00E-05,  avg # of iterations = 15.0

     Threshold (ethr) on eigenvalues was too large:
     Diagonalizing with lowered threshold

     Davidson diagonalization with overlap
     ethr =  5.66E-07,  avg # of iterations =  1.0

     negative rho (up, down):  1.189E-02 1.196E-02
 
     Magnetic moment per site:
     atom:    1    charge:    3.1244    magn:   -0.0003    constr:    0.0000
     atom:    2    charge:    2.0896    magn:    0.0003    constr:    0.0000
     atom:    3    charge:    3.1198    magn:   -0.0000    constr:    0.0000
     atom:    4    charge:    2.0867    magn:   -0.0001    constr:    0.0000
     atom:    5    charge:    3.1161    magn:   -0.0002    constr:    0.0000
     atom:    6    charge:    2.0795    magn:    0.0020    constr:    0.0000
     atom:    7    charge:    3.1165    magn:   -0.0053    constr:    0.0000
     atom:    8    charge:    2.0794    magn:    0.0248    constr:    0.0000
     atom:    9    charge:    3.1244    magn:   -0.0003    constr:    0.0000
     atom:   10    charge:    2.0898    magn:    0.0003    constr:    0.0000
     atom:   11    charge:    3.1198    magn:   -0.0000    constr:    0.0000
     atom:   12    charge:    2.0870    magn:   -0.0000    constr:    0.0000
     atom:   13    charge:    3.1150    magn:   -0.0002    constr:    0.0000
     atom:   14    charge:    2.0939    magn:    0.0022    constr:    0.0000
     atom:   15    charge:    3.1184    magn:   -0.0008    constr:    0.0000
     atom:   16    charge:    2.0830    magn:    0.0046    constr:    0.0000
     atom:   17    charge:    2.0624    magn:    0.0018    constr:    0.0000
     atom:   18    charge:    3.1239    magn:   -0.0001    constr:    0.0000
     atom:   19    charge:    2.0875    magn:    0.0001    constr:    0.0000
     atom:   20    charge:    2.0847    magn:    0.0002    constr:    0.0000
     atom:   21    charge:    2.0847    magn:    0.0002    constr:    0.0000
     atom:   22    charge:    3.1199    magn:    0.0000    constr:    0.0000
     atom:   23    charge:    2.0908    magn:    0.0002    constr:    0.0000
     atom:   24    charge:    2.0754    magn:   -0.0002    constr:    0.0000
     atom:   25    charge:    2.0867    magn:    0.0000    constr:    0.0000
     atom:   26    charge:    3.1127    magn:   -0.0002    constr:    0.0000
     atom:   27    charge:    2.0803    magn:    0.0025    constr:    0.0000
     atom:   28    charge:    2.0839    magn:    0.0006    constr:    0.0000
     atom:   29    charge:    2.0860    magn:    0.0008    constr:    0.0000
     atom:   30    charge:    3.1171    magn:   -0.0008    constr:    0.0000
     atom:   31    charge:    2.0825    magn:    0.0006    constr:    0.0000
     atom:   32    charge:    2.0829    magn:    0.0064    constr:    0.0000
     atom:   33    charge:    2.0623    magn:    0.0018    constr:    0.0000
     atom:   34    charge:    3.1239    magn:   -0.0001    constr:    0.0000
     atom:   35    charge:    2.0875    magn:    0.0001    constr:    0.0000
     atom:   36    charge:    2.0847    magn:    0.0002    constr:    0.0000
     atom:   37    charge:    2.0847    magn:    0.0002    constr:    0.0000
     atom:   38    charge:    3.1200    magn:    0.0000    constr:    0.0000
     atom:   39    charge:    2.0839    magn:    0.0002    constr:    0.0000
     atom:   40    charge:    2.0756    magn:   -0.0003    constr:    0.0000
     atom:   41    charge:    2.0870    magn:   -0.0000    constr:    0.0000
     atom:   42    charge:    3.1151    magn:   -0.0002    constr:    0.0000
     atom:   43    charge:    2.0803    magn:    0.0030    constr:    0.0000
     atom:   44    charge:    2.0851    magn:    0.0008    constr:    0.0000
     atom:   45    charge:    2.0858    magn:    0.0004    constr:    0.0000
     atom:   46    charge:    3.1147    magn:   -0.0007    constr:    0.0000
     atom:   47    charge:    2.0806    magn:    0.0046    constr:    0.0000
     atom:   48    charge:    2.0837    magn:    0.0135    constr:    0.0000
     atom:   49    charge:    2.0528    magn:    0.2392    constr:    0.0000
     atom:   50    charge:    0.6707    magn:    0.0549    constr:    0.0000
     atom:   51    charge:    0.4220    magn:    0.0009    constr:    0.0000
     atom:   52    charge:    0.4227    magn:    0.0008    constr:    0.0000
     atom:   53    charge:    0.3632    magn:    0.0223    constr:    0.0000
     atom:   54    charge:    0.4232    magn:    0.0007    constr:    0.0000

     total cpu time spent up to now is     1239.5 secs

     total energy              =   -3021.14998312 Ry
     Harris-Foulkes estimate   =   -3021.15024341 Ry
     estimated scf accuracy    <       0.00224989 Ry

     total magnetization       =     1.06 Bohr mag/cell
     absolute magnetization    =     1.23 Bohr mag/cell

     iteration #  2     ecut=    40.42 Ry     beta=0.10
     Davidson diagonalization with overlap
     ethr =  5.65E-07,  avg # of iterations =  1.3

     negative rho (up, down):  1.189E-02 1.196E-02
 
     Magnetic moment per site:
     atom:    1    charge:    3.1244    magn:   -0.0003    constr:    0.0000
     atom:    2    charge:    2.0897    magn:    0.0003    constr:    0.0000
     atom:    3    charge:    3.1198    magn:   -0.0000    constr:    0.0000
     atom:    4    charge:    2.0867    magn:   -0.0001    constr:    0.0000
     atom:    5    charge:    3.1161    magn:   -0.0002    constr:    0.0000
     atom:    6    charge:    2.0795    magn:    0.0021    constr:    0.0000
     atom:    7    charge:    3.1165    magn:   -0.0052    constr:    0.0000
     atom:    8    charge:    2.0794    magn:    0.0248    constr:    0.0000
     atom:    9    charge:    3.1244    magn:   -0.0003    constr:    0.0000
     atom:   10    charge:    2.0899    magn:    0.0003    constr:    0.0000
     atom:   11    charge:    3.1198    magn:   -0.0000    constr:    0.0000
     atom:   12    charge:    2.0871    magn:   -0.0000    constr:    0.0000
     atom:   13    charge:    3.1150    magn:   -0.0002    constr:    0.0000
     atom:   14    charge:    2.0939    magn:    0.0022    constr:    0.0000
     atom:   15    charge:    3.1184    magn:   -0.0008    constr:    0.0000
     atom:   16    charge:    2.0829    magn:    0.0046    constr:    0.0000
     atom:   17    charge:    2.0625    magn:    0.0017    constr:    0.0000
     atom:   18    charge:    3.1239    magn:   -0.0001    constr:    0.0000
     atom:   19    charge:    2.0875    magn:    0.0001    constr:    0.0000
     atom:   20    charge:    2.0847    magn:    0.0002    constr:    0.0000
     atom:   21    charge:    2.0847    magn:    0.0002    constr:    0.0000
     atom:   22    charge:    3.1199    magn:    0.0000    constr:    0.0000
     atom:   23    charge:    2.0908    magn:    0.0002    constr:    0.0000
     atom:   24    charge:    2.0754    magn:   -0.0002    constr:    0.0000
     atom:   25    charge:    2.0867    magn:    0.0000    constr:    0.0000
     atom:   26    charge:    3.1127    magn:   -0.0002    constr:    0.0000
     atom:   27    charge:    2.0802    magn:    0.0025    constr:    0.0000
     atom:   28    charge:    2.0838    magn:    0.0006    constr:    0.0000
     atom:   29    charge:    2.0860    magn:    0.0008    constr:    0.0000
     atom:   30    charge:    3.1171    magn:   -0.0008    constr:    0.0000
     atom:   31    charge:    2.0824    magn:    0.0006    constr:    0.0000
     atom:   32    charge:    2.0829    magn:    0.0064    constr:    0.0000
     atom:   33    charge:    2.0625    magn:    0.0018    constr:    0.0000
     atom:   34    charge:    3.1239    magn:   -0.0001    constr:    0.0000
     atom:   35    charge:    2.0876    magn:    0.0001    constr:    0.0000
     atom:   36    charge:    2.0847    magn:    0.0002    constr:    0.0000
     atom:   37    charge:    2.0847    magn:    0.0002    constr:    0.0000
     atom:   38    charge:    3.1200    magn:    0.0000    constr:    0.0000
     atom:   39    charge:    2.0839    magn:    0.0002    constr:    0.0000
     atom:   40    charge:    2.0756    magn:   -0.0003    constr:    0.0000
     atom:   41    charge:    2.0870    magn:   -0.0000    constr:    0.0000
     atom:   42    charge:    3.1151    magn:   -0.0002    constr:    0.0000
     atom:   43    charge:    2.0802    magn:    0.0030    constr:    0.0000
     atom:   44    charge:    2.0851    magn:    0.0008    constr:    0.0000
     atom:   45    charge:    2.0858    magn:    0.0004    constr:    0.0000
     atom:   46    charge:    3.1147    magn:   -0.0007    constr:    0.0000
     atom:   47    charge:    2.0806    magn:    0.0046    constr:    0.0000
     atom:   48    charge:    2.0837    magn:    0.0135    constr:    0.0000
     atom:   49    charge:    2.0529    magn:    0.2390    constr:    0.0000
     atom:   50    charge:    0.6705    magn:    0.0550    constr:    0.0000
     atom:   51    charge:    0.4220    magn:    0.0009    constr:    0.0000
     atom:   52    charge:    0.4227    magn:    0.0008    constr:    0.0000
     atom:   53    charge:    0.3632    magn:    0.0223    constr:    0.0000
     atom:   54    charge:    0.4232    magn:    0.0007    constr:    0.0000

     total cpu time spent up to now is     1444.5 secs

     total energy              =   -3021.14992395 Ry
     Harris-Foulkes estimate   =   -3021.15008129 Ry
     estimated scf accuracy    <       0.00220355 Ry

     total magnetization       =     1.06 Bohr mag/cell
     absolute magnetization    =     1.23 Bohr mag/cell

     iteration #  3     ecut=    40.42 Ry     beta=0.10
     Davidson diagonalization with overlap
     ethr =  5.54E-07,  avg # of iterations =  1.0

     negative rho (up, down):  1.189E-02 1.196E-02
 
     Magnetic moment per site:
     atom:    1    charge:    3.1244    magn:   -0.0003    constr:    0.0000
     atom:    2    charge:    2.0897    magn:    0.0003    constr:    0.0000
     atom:    3    charge:    3.1198    magn:   -0.0000    constr:    0.0000
     atom:    4    charge:    2.0867    magn:   -0.0001    constr:    0.0000
     atom:    5    charge:    3.1161    magn:   -0.0002    constr:    0.0000
     atom:    6    charge:    2.0795    magn:    0.0021    constr:    0.0000
     atom:    7    charge:    3.1166    magn:   -0.0052    constr:    0.0000
     atom:    8    charge:    2.0794    magn:    0.0246    constr:    0.0000
     atom:    9    charge:    3.1244    magn:   -0.0003    constr:    0.0000
     atom:   10    charge:    2.0898    magn:    0.0003    constr:    0.0000
     atom:   11    charge:    3.1198    magn:   -0.0000    constr:    0.0000
     atom:   12    charge:    2.0871    magn:   -0.0000    constr:    0.0000
     atom:   13    charge:    3.1150    magn:   -0.0002    constr:    0.0000
     atom:   14    charge:    2.0939    magn:    0.0022    constr:    0.0000
     atom:   15    charge:    3.1184    magn:   -0.0008    constr:    0.0000
     atom:   16    charge:    2.0829    magn:    0.0046    constr:    0.0000
     atom:   17    charge:    2.0624    magn:    0.0017    constr:    0.0000
     atom:   18    charge:    3.1239    magn:   -0.0001    constr:    0.0000
     atom:   19    charge:    2.0875    magn:    0.0001    constr:    0.0000
     atom:   20    charge:    2.0847    magn:    0.0002    constr:    0.0000
     atom:   21    charge:    2.0847    magn:    0.0002    constr:    0.0000
     atom:   22    charge:    3.1199    magn:    0.0000    constr:    0.0000
     atom:   23    charge:    2.0908    magn:    0.0002    constr:    0.0000
     atom:   24    charge:    2.0754    magn:   -0.0002    constr:    0.0000
     atom:   25    charge:    2.0868    magn:    0.0000    constr:    0.0000
     atom:   26    charge:    3.1127    magn:   -0.0002    constr:    0.0000
     atom:   27    charge:    2.0802    magn:    0.0025    constr:    0.0000
     atom:   28    charge:    2.0839    magn:    0.0006    constr:    0.0000
     atom:   29    charge:    2.0860    magn:    0.0008    constr:    0.0000
     atom:   30    charge:    3.1171    magn:   -0.0008    constr:    0.0000
     atom:   31    charge:    2.0824    magn:    0.0006    constr:    0.0000
     atom:   32    charge:    2.0829    magn:    0.0064    constr:    0.0000
     atom:   33    charge:    2.0624    magn:    0.0017    constr:    0.0000
     atom:   34    charge:    3.1239    magn:   -0.0001    constr:    0.0000
     atom:   35    charge:    2.0876    magn:    0.0001    constr:    0.0000
     atom:   36    charge:    2.0847    magn:    0.0002    constr:    0.0000
     atom:   37    charge:    2.0847    magn:    0.0002    constr:    0.0000
     atom:   38    charge:    3.1200    magn:    0.0000    constr:    0.0000
     atom:   39    charge:    2.0839    magn:    0.0002    constr:    0.0000
     atom:   40    charge:    2.0757    magn:   -0.0002    constr:    0.0000
     atom:   41    charge:    2.0870    magn:   -0.0000    constr:    0.0000
     atom:   42    charge:    3.1151    magn:   -0.0002    constr:    0.0000
     atom:   43    charge:    2.0803    magn:    0.0030    constr:    0.0000
     atom:   44    charge:    2.0851    magn:    0.0008    constr:    0.0000
     atom:   45    charge:    2.0858    magn:    0.0004    constr:    0.0000
     atom:   46    charge:    3.1147    magn:   -0.0007    constr:    0.0000
     atom:   47    charge:    2.0806    magn:    0.0046    constr:    0.0000
     atom:   48    charge:    2.0837    magn:    0.0134    constr:    0.0000
     atom:   49    charge:    2.0534    magn:    0.2383    constr:    0.0000
     atom:   50    charge:    0.6698    magn:    0.0553    constr:    0.0000
     atom:   51    charge:    0.4219    magn:    0.0009    constr:    0.0000
     atom:   52    charge:    0.4226    magn:    0.0007    constr:    0.0000
     atom:   53    charge:    0.3629    magn:    0.0227    constr:    0.0000
     atom:   54    charge:    0.4233    magn:    0.0009    constr:    0.0000

     total cpu time spent up to now is     1644.8 secs

     total energy              =   -3021.14985170 Ry
     Harris-Foulkes estimate   =   -3021.15002985 Ry
     estimated scf accuracy    <       0.00167443 Ry

     total magnetization       =     1.06 Bohr mag/cell
     absolute magnetization    =     1.23 Bohr mag/cell

     iteration #  4     ecut=    40.42 Ry     beta=0.10
     Davidson diagonalization with overlap
     ethr =  4.21E-07,  avg # of iterations =  2.0

     negative rho (up, down):  1.189E-02 1.196E-02
 
     Magnetic moment per site:
     atom:    1    charge:    3.1244    magn:   -0.0003    constr:    0.0000
     atom:    2    charge:    2.0897    magn:    0.0003    constr:    0.0000
     atom:    3    charge:    3.1198    magn:   -0.0000    constr:    0.0000
     atom:    4    charge:    2.0867    magn:   -0.0001    constr:    0.0000
     atom:    5    charge:    3.1161    magn:   -0.0002    constr:    0.0000
     atom:    6    charge:    2.0795    magn:    0.0021    constr:    0.0000
     atom:    7    charge:    3.1166    magn:   -0.0051    constr:    0.0000
     atom:    8    charge:    2.0794    magn:    0.0246    constr:    0.0000
     atom:    9    charge:    3.1244    magn:   -0.0003    constr:    0.0000
     atom:   10    charge:    2.0898    magn:    0.0003    constr:    0.0000
     atom:   11    charge:    3.1198    magn:   -0.0000    constr:    0.0000
     atom:   12    charge:    2.0870    magn:   -0.0000    constr:    0.0000
     atom:   13    charge:    3.1150    magn:   -0.0002    constr:    0.0000
     atom:   14    charge:    2.0939    magn:    0.0022    constr:    0.0000
     atom:   15    charge:    3.1184    magn:   -0.0008    constr:    0.0000
     atom:   16    charge:    2.0829    magn:    0.0046    constr:    0.0000
     atom:   17    charge:    2.0625    magn:    0.0016    constr:    0.0000
     atom:   18    charge:    3.1240    magn:   -0.0001    constr:    0.0000
     atom:   19    charge:    2.0875    magn:    0.0001    constr:    0.0000
     atom:   20    charge:    2.0847    magn:    0.0001    constr:    0.0000
     atom:   21    charge:    2.0847    magn:    0.0001    constr:    0.0000
     atom:   22    charge:    3.1199    magn:    0.0000    constr:    0.0000
     atom:   23    charge:    2.0908    magn:    0.0002    constr:    0.0000
     atom:   24    charge:    2.0754    magn:   -0.0001    constr:    0.0000
     atom:   25    charge:    2.0867    magn:    0.0000    constr:    0.0000
     atom:   26    charge:    3.1127    magn:   -0.0002    constr:    0.0000
     atom:   27    charge:    2.0803    magn:    0.0025    constr:    0.0000
     atom:   28    charge:    2.0839    magn:    0.0006    constr:    0.0000
     atom:   29    charge:    2.0860    magn:    0.0008    constr:    0.0000
     atom:   30    charge:    3.1171    magn:   -0.0008    constr:    0.0000
     atom:   31    charge:    2.0825    magn:    0.0006    constr:    0.0000
     atom:   32    charge:    2.0829    magn:    0.0064    constr:    0.0000
     atom:   33    charge:    2.0625    magn:    0.0016    constr:    0.0000
     atom:   34    charge:    3.1239    magn:   -0.0001    constr:    0.0000
     atom:   35    charge:    2.0875    magn:    0.0001    constr:    0.0000
     atom:   36    charge:    2.0847    magn:    0.0001    constr:    0.0000
     atom:   37    charge:    2.0847    magn:    0.0001    constr:    0.0000
     atom:   38    charge:    3.1200    magn:    0.0000    constr:    0.0000
     atom:   39    charge:    2.0839    magn:    0.0002    constr:    0.0000
     atom:   40    charge:    2.0756    magn:   -0.0002    constr:    0.0000
     atom:   41    charge:    2.0870    magn:   -0.0000    constr:    0.0000
     atom:   42    charge:    3.1151    magn:   -0.0002    constr:    0.0000
     atom:   43    charge:    2.0803    magn:    0.0030    constr:    0.0000
     atom:   44    charge:    2.0851    magn:    0.0009    constr:    0.0000
     atom:   45    charge:    2.0858    magn:    0.0004    constr:    0.0000
     atom:   46    charge:    3.1147    magn:   -0.0007    constr:    0.0000
     atom:   47    charge:    2.0807    magn:    0.0046    constr:    0.0000
     atom:   48    charge:    2.0837    magn:    0.0134    constr:    0.0000
     atom:   49    charge:    2.0531    magn:    0.2379    constr:    0.0000
     atom:   50    charge:    0.6696    magn:    0.0555    constr:    0.0000
     atom:   51    charge:    0.4219    magn:    0.0009    constr:    0.0000
     atom:   52    charge:    0.4226    magn:    0.0007    constr:    0.0000
     atom:   53    charge:    0.3628    magn:    0.0228    constr:    0.0000
     atom:   54    charge:    0.4233    magn:    0.0009    constr:    0.0000

     total cpu time spent up to now is     1863.7 secs

     total energy              =   -3021.14988596 Ry
     Harris-Foulkes estimate   =   -3021.14991557 Ry
     estimated scf accuracy    <       0.00037287 Ry

     total magnetization       =     1.06 Bohr mag/cell
     absolute magnetization    =     1.23 Bohr mag/cell

     iteration #  5     ecut=    40.42 Ry     beta=0.10
     Davidson diagonalization with overlap
     ethr =  9.37E-08,  avg # of iterations =  2.0

     negative rho (up, down):  1.189E-02 1.196E-02
 
     Magnetic moment per site:
     atom:    1    charge:    3.1244    magn:   -0.0003    constr:    0.0000
     atom:    2    charge:    2.0897    magn:    0.0002    constr:    0.0000
     atom:    3    charge:    3.1198    magn:   -0.0000    constr:    0.0000
     atom:    4    charge:    2.0867    magn:   -0.0001    constr:    0.0000
     atom:    5    charge:    3.1161    magn:   -0.0002    constr:    0.0000
     atom:    6    charge:    2.0795    magn:    0.0021    constr:    0.0000
     atom:    7    charge:    3.1167    magn:   -0.0051    constr:    0.0000
     atom:    8    charge:    2.0793    magn:    0.0245    constr:    0.0000
     atom:    9    charge:    3.1244    magn:   -0.0003    constr:    0.0000
     atom:   10    charge:    2.0898    magn:    0.0003    constr:    0.0000
     atom:   11    charge:    3.1198    magn:   -0.0000    constr:    0.0000
     atom:   12    charge:    2.0870    magn:   -0.0000    constr:    0.0000
     atom:   13    charge:    3.1150    magn:   -0.0002    constr:    0.0000
     atom:   14    charge:    2.0939    magn:    0.0022    constr:    0.0000
     atom:   15    charge:    3.1184    magn:   -0.0008    constr:    0.0000
     atom:   16    charge:    2.0828    magn:    0.0046    constr:    0.0000
     atom:   17    charge:    2.0624    magn:    0.0014    constr:    0.0000
     atom:   18    charge:    3.1240    magn:   -0.0001    constr:    0.0000
     atom:   19    charge:    2.0875    magn:    0.0001    constr:    0.0000
     atom:   20    charge:    2.0847    magn:    0.0001    constr:    0.0000
     atom:   21    charge:    2.0847    magn:    0.0001    constr:    0.0000
     atom:   22    charge:    3.1199    magn:    0.0000    constr:    0.0000
     atom:   23    charge:    2.0908    magn:    0.0002    constr:    0.0000
     atom:   24    charge:    2.0754    magn:   -0.0001    constr:    0.0000
     atom:   25    charge:    2.0867    magn:    0.0000    constr:    0.0000
     atom:   26    charge:    3.1127    magn:   -0.0002    constr:    0.0000
     atom:   27    charge:    2.0803    magn:    0.0025    constr:    0.0000
     atom:   28    charge:    2.0839    magn:    0.0007    constr:    0.0000
     atom:   29    charge:    2.0860    magn:    0.0008    constr:    0.0000
     atom:   30    charge:    3.1171    magn:   -0.0008    constr:    0.0000
     atom:   31    charge:    2.0826    magn:    0.0006    constr:    0.0000
     atom:   32    charge:    2.0830    magn:    0.0064    constr:    0.0000
     atom:   33    charge:    2.0624    magn:    0.0015    constr:    0.0000
     atom:   34    charge:    3.1239    magn:   -0.0001    constr:    0.0000
     atom:   35    charge:    2.0875    magn:    0.0001    constr:    0.0000
     atom:   36    charge:    2.0847    magn:    0.0001    constr:    0.0000
     atom:   37    charge:    2.0847    magn:    0.0001    constr:    0.0000
     atom:   38    charge:    3.1200    magn:    0.0000    constr:    0.0000
     atom:   39    charge:    2.0839    magn:    0.0002    constr:    0.0000
     atom:   40    charge:    2.0756    magn:   -0.0002    constr:    0.0000
     atom:   41    charge:    2.0870    magn:   -0.0000    constr:    0.0000
     atom:   42    charge:    3.1151    magn:   -0.0002    constr:    0.0000
     atom:   43    charge:    2.0803    magn:    0.0030    constr:    0.0000
     atom:   44    charge:    2.0851    magn:    0.0009    constr:    0.0000
     atom:   45    charge:    2.0858    magn:    0.0004    constr:    0.0000
     atom:   46    charge:    3.1147    magn:   -0.0007    constr:    0.0000
     atom:   47    charge:    2.0808    magn:    0.0046    constr:    0.0000
     atom:   48    charge:    2.0838    magn:    0.0133    constr:    0.0000
     atom:   49    charge:    2.0524    magn:    0.2374    constr:    0.0000
     atom:   50    charge:    0.6696    magn:    0.0558    constr:    0.0000
     atom:   51    charge:    0.4219    magn:    0.0008    constr:    0.0000
     atom:   52    charge:    0.4226    magn:    0.0007    constr:    0.0000
     atom:   53    charge:    0.3628    magn:    0.0228    constr:    0.0000
     atom:   54    charge:    0.4233    magn:    0.0011    constr:    0.0000

     total cpu time spent up to now is     2083.7 secs

     total energy              =   -3021.14987723 Ry
     Harris-Foulkes estimate   =   -3021.14989454 Ry
     estimated scf accuracy    <       0.00020618 Ry

     total magnetization       =     1.06 Bohr mag/cell
     absolute magnetization    =     1.23 Bohr mag/cell

     iteration #  6     ecut=    40.42 Ry     beta=0.10
     Davidson diagonalization with overlap
     ethr =  5.18E-08,  avg # of iterations =  2.7

     negative rho (up, down):  1.189E-02 1.196E-02
 
     Magnetic moment per site:
     atom:    1    charge:    3.1244    magn:   -0.0002    constr:    0.0000
     atom:    2    charge:    2.0897    magn:    0.0002    constr:    0.0000
     atom:    3    charge:    3.1198    magn:   -0.0000    constr:    0.0000
     atom:    4    charge:    2.0867    magn:   -0.0001    constr:    0.0000
     atom:    5    charge:    3.1161    magn:   -0.0002    constr:    0.0000
     atom:    6    charge:    2.0795    magn:    0.0021    constr:    0.0000
     atom:    7    charge:    3.1166    magn:   -0.0050    constr:    0.0000
     atom:    8    charge:    2.0792    magn:    0.0244    constr:    0.0000
     atom:    9    charge:    3.1244    magn:   -0.0002    constr:    0.0000
     atom:   10    charge:    2.0898    magn:    0.0002    constr:    0.0000
     atom:   11    charge:    3.1198    magn:   -0.0000    constr:    0.0000
     atom:   12    charge:    2.0870    magn:   -0.0000    constr:    0.0000
     atom:   13    charge:    3.1150    magn:   -0.0002    constr:    0.0000
     atom:   14    charge:    2.0939    magn:    0.0022    constr:    0.0000
     atom:   15    charge:    3.1184    magn:   -0.0008    constr:    0.0000
     atom:   16    charge:    2.0828    magn:    0.0046    constr:    0.0000
     atom:   17    charge:    2.0624    magn:    0.0013    constr:    0.0000
     atom:   18    charge:    3.1239    magn:   -0.0001    constr:    0.0000
     atom:   19    charge:    2.0875    magn:    0.0000    constr:    0.0000
     atom:   20    charge:    2.0847    magn:    0.0001    constr:    0.0000
     atom:   21    charge:    2.0847    magn:    0.0001    constr:    0.0000
     atom:   22    charge:    3.1199    magn:    0.0000    constr:    0.0000
     atom:   23    charge:    2.0908    magn:    0.0002    constr:    0.0000
     atom:   24    charge:    2.0754    magn:   -0.0001    constr:    0.0000
     atom:   25    charge:    2.0867    magn:    0.0000    constr:    0.0000
     atom:   26    charge:    3.1127    magn:   -0.0002    constr:    0.0000
     atom:   27    charge:    2.0802    magn:    0.0026    constr:    0.0000
     atom:   28    charge:    2.0839    magn:    0.0007    constr:    0.0000
     atom:   29    charge:    2.0860    magn:    0.0008    constr:    0.0000
     atom:   30    charge:    3.1171    magn:   -0.0008    constr:    0.0000
     atom:   31    charge:    2.0826    magn:    0.0006    constr:    0.0000
     atom:   32    charge:    2.0830    magn:    0.0064    constr:    0.0000
     atom:   33    charge:    2.0624    magn:    0.0013    constr:    0.0000
     atom:   34    charge:    3.1239    magn:   -0.0001    constr:    0.0000
     atom:   35    charge:    2.0876    magn:    0.0000    constr:    0.0000
     atom:   36    charge:    2.0847    magn:    0.0001    constr:    0.0000
     atom:   37    charge:    2.0847    magn:    0.0001    constr:    0.0000
     atom:   38    charge:    3.1200    magn:    0.0000    constr:    0.0000
     atom:   39    charge:    2.0839    magn:    0.0002    constr:    0.0000
     atom:   40    charge:    2.0756    magn:   -0.0002    constr:    0.0000
     atom:   41    charge:    2.0870    magn:   -0.0000    constr:    0.0000
     atom:   42    charge:    3.1151    magn:   -0.0002    constr:    0.0000
     atom:   43    charge:    2.0802    magn:    0.0030    constr:    0.0000
     atom:   44    charge:    2.0851    magn:    0.0009    constr:    0.0000
     atom:   45    charge:    2.0858    magn:    0.0005    constr:    0.0000
     atom:   46    charge:    3.1148    magn:   -0.0007    constr:    0.0000
     atom:   47    charge:    2.0808    magn:    0.0046    constr:    0.0000
     atom:   48    charge:    2.0838    magn:    0.0132    constr:    0.0000
     atom:   49    charge:    2.0520    magn:    0.2370    constr:    0.0000
     atom:   50    charge:    0.6700    magn:    0.0560    constr:    0.0000
     atom:   51    charge:    0.4219    magn:    0.0007    constr:    0.0000
     atom:   52    charge:    0.4226    magn:    0.0006    constr:    0.0000
     atom:   53    charge:    0.3628    magn:    0.0228    constr:    0.0000
     atom:   54    charge:    0.4232    magn:    0.0011    constr:    0.0000

     total cpu time spent up to now is     2315.8 secs

     total energy              =   -3021.14988594 Ry
     Harris-Foulkes estimate   =   -3021.14988577 Ry
     estimated scf accuracy    <       0.00006361 Ry

     total magnetization       =     1.06 Bohr mag/cell
     absolute magnetization    =     1.23 Bohr mag/cell

     iteration #  7     ecut=    40.42 Ry     beta=0.10
     Davidson diagonalization with overlap
     ethr =  1.60E-08,  avg # of iterations =  3.0

     negative rho (up, down):  1.189E-02 1.196E-02
 
     Magnetic moment per site:
     atom:    1    charge:    3.1244    magn:   -0.0002    constr:    0.0000
     atom:    2    charge:    2.0897    magn:    0.0002    constr:    0.0000
     atom:    3    charge:    3.1198    magn:   -0.0000    constr:    0.0000
     atom:    4    charge:    2.0867    magn:   -0.0001    constr:    0.0000
     atom:    5    charge:    3.1161    magn:   -0.0002    constr:    0.0000
     atom:    6    charge:    2.0795    magn:    0.0021    constr:    0.0000
     atom:    7    charge:    3.1166    magn:   -0.0050    constr:    0.0000
     atom:    8    charge:    2.0793    magn:    0.0244    constr:    0.0000
     atom:    9    charge:    3.1244    magn:   -0.0002    constr:    0.0000
     atom:   10    charge:    2.0898    magn:    0.0002    constr:    0.0000
     atom:   11    charge:    3.1198    magn:   -0.0000    constr:    0.0000
     atom:   12    charge:    2.0870    magn:   -0.0000    constr:    0.0000
     atom:   13    charge:    3.1150    magn:   -0.0002    constr:    0.0000
     atom:   14    charge:    2.0939    magn:    0.0022    constr:    0.0000
     atom:   15    charge:    3.1184    magn:   -0.0008    constr:    0.0000
     atom:   16    charge:    2.0828    magn:    0.0046    constr:    0.0000
     atom:   17    charge:    2.0624    magn:    0.0012    constr:    0.0000
     atom:   18    charge:    3.1239    magn:   -0.0000    constr:    0.0000
     atom:   19    charge:    2.0875    magn:    0.0000    constr:    0.0000
     atom:   20    charge:    2.0847    magn:    0.0001    constr:    0.0000
     atom:   21    charge:    2.0847    magn:    0.0001    constr:    0.0000
     atom:   22    charge:    3.1199    magn:    0.0000    constr:    0.0000
     atom:   23    charge:    2.0908    magn:    0.0002    constr:    0.0000
     atom:   24    charge:    2.0754    magn:   -0.0001    constr:    0.0000
     atom:   25    charge:    2.0867    magn:    0.0000    constr:    0.0000
     atom:   26    charge:    3.1127    magn:   -0.0003    constr:    0.0000
     atom:   27    charge:    2.0803    magn:    0.0026    constr:    0.0000
     atom:   28    charge:    2.0839    magn:    0.0007    constr:    0.0000
     atom:   29    charge:    2.0860    magn:    0.0009    constr:    0.0000
     atom:   30    charge:    3.1171    magn:   -0.0008    constr:    0.0000
     atom:   31    charge:    2.0826    magn:    0.0006    constr:    0.0000
     atom:   32    charge:    2.0829    magn:    0.0064    constr:    0.0000
     atom:   33    charge:    2.0624    magn:    0.0012    constr:    0.0000
     atom:   34    charge:    3.1239    magn:   -0.0000    constr:    0.0000
     atom:   35    charge:    2.0876    magn:    0.0000    constr:    0.0000
     atom:   36    charge:    2.0847    magn:    0.0001    constr:    0.0000
     atom:   37    charge:    2.0847    magn:    0.0001    constr:    0.0000
     atom:   38    charge:    3.1200    magn:    0.0000    constr:    0.0000
     atom:   39    charge:    2.0839    magn:    0.0002    constr:    0.0000
     atom:   40    charge:    2.0756    magn:   -0.0001    constr:    0.0000
     atom:   41    charge:    2.0870    magn:   -0.0000    constr:    0.0000
     atom:   42    charge:    3.1151    magn:   -0.0002    constr:    0.0000
     atom:   43    charge:    2.0803    magn:    0.0031    constr:    0.0000
     atom:   44    charge:    2.0851    magn:    0.0009    constr:    0.0000
     atom:   45    charge:    2.0858    magn:    0.0005    constr:    0.0000
     atom:   46    charge:    3.1148    magn:   -0.0007    constr:    0.0000
     atom:   47    charge:    2.0807    magn:    0.0046    constr:    0.0000
     atom:   48    charge:    2.0837    magn:    0.0132    constr:    0.0000
     atom:   49    charge:    2.0519    magn:    0.2368    constr:    0.0000
     atom:   50    charge:    0.6703    magn:    0.0561    constr:    0.0000
     atom:   51    charge:    0.4219    magn:    0.0007    constr:    0.0000
     atom:   52    charge:    0.4226    magn:    0.0006    constr:    0.0000
     atom:   53    charge:    0.3628    magn:    0.0227    constr:    0.0000
     atom:   54    charge:    0.4230    magn:    0.0011    constr:    0.0000

     total cpu time spent up to now is     2553.1 secs

     total energy              =   -3021.14988917 Ry
     Harris-Foulkes estimate   =   -3021.14988937 Ry
     estimated scf accuracy    <       0.00001490 Ry

     total magnetization       =     1.06 Bohr mag/cell
     absolute magnetization    =     1.23 Bohr mag/cell

     iteration #  8     ecut=    40.42 Ry     beta=0.10
     Davidson diagonalization with overlap
     ethr =  3.74E-09,  avg # of iterations =  3.0

     negative rho (up, down):  1.189E-02 1.196E-02
 
     Magnetic moment per site:
     atom:    1    charge:    3.1244    magn:   -0.0002    constr:    0.0000
     atom:    2    charge:    2.0897    magn:    0.0002    constr:    0.0000
     atom:    3    charge:    3.1198    magn:   -0.0000    constr:    0.0000
     atom:    4    charge:    2.0867    magn:   -0.0001    constr:    0.0000
     atom:    5    charge:    3.1161    magn:   -0.0003    constr:    0.0000
     atom:    6    charge:    2.0795    magn:    0.0021    constr:    0.0000
     atom:    7    charge:    3.1166    magn:   -0.0050    constr:    0.0000
     atom:    8    charge:    2.0793    magn:    0.0244    constr:    0.0000
     atom:    9    charge:    3.1244    magn:   -0.0002    constr:    0.0000
     atom:   10    charge:    2.0898    magn:    0.0002    constr:    0.0000
     atom:   11    charge:    3.1198    magn:   -0.0000    constr:    0.0000
     atom:   12    charge:    2.0870    magn:   -0.0000    constr:    0.0000
     atom:   13    charge:    3.1150    magn:   -0.0002    constr:    0.0000
     atom:   14    charge:    2.0939    magn:    0.0022    constr:    0.0000
     atom:   15    charge:    3.1184    magn:   -0.0008    constr:    0.0000
     atom:   16    charge:    2.0828    magn:    0.0046    constr:    0.0000
     atom:   17    charge:    2.0624    magn:    0.0011    constr:    0.0000
     atom:   18    charge:    3.1239    magn:   -0.0000    constr:    0.0000
     atom:   19    charge:    2.0875    magn:    0.0000    constr:    0.0000
     atom:   20    charge:    2.0847    magn:    0.0001    constr:    0.0000
     atom:   21    charge:    2.0847    magn:    0.0001    constr:    0.0000
     atom:   22    charge:    3.1199    magn:    0.0000    constr:    0.0000
     atom:   23    charge:    2.0908    magn:    0.0003    constr:    0.0000
     atom:   24    charge:    2.0754    magn:   -0.0001    constr:    0.0000
     atom:   25    charge:    2.0867    magn:    0.0000    constr:    0.0000
     atom:   26    charge:    3.1127    magn:   -0.0003    constr:    0.0000
     atom:   27    charge:    2.0802    magn:    0.0026    constr:    0.0000
     atom:   28    charge:    2.0839    magn:    0.0007    constr:    0.0000
     atom:   29    charge:    2.0860    magn:    0.0009    constr:    0.0000
     atom:   30    charge:    3.1171    magn:   -0.0008    constr:    0.0000
     atom:   31    charge:    2.0825    magn:    0.0006    constr:    0.0000
     atom:   32    charge:    2.0829    magn:    0.0064    constr:    0.0000
     atom:   33    charge:    2.0624    magn:    0.0011    constr:    0.0000
     atom:   34    charge:    3.1239    magn:   -0.0000    constr:    0.0000
     atom:   35    charge:    2.0876    magn:    0.0000    constr:    0.0000
     atom:   36    charge:    2.0847    magn:    0.0001    constr:    0.0000
     atom:   37    charge:    2.0847    magn:    0.0001    constr:    0.0000
     atom:   38    charge:    3.1200    magn:    0.0000    constr:    0.0000
     atom:   39    charge:    2.0839    magn:    0.0002    constr:    0.0000
     atom:   40    charge:    2.0756    magn:   -0.0001    constr:    0.0000
     atom:   41    charge:    2.0870    magn:   -0.0000    constr:    0.0000
     atom:   42    charge:    3.1151    magn:   -0.0002    constr:    0.0000
     atom:   43    charge:    2.0803    magn:    0.0031    constr:    0.0000
     atom:   44    charge:    2.0851    magn:    0.0010    constr:    0.0000
     atom:   45    charge:    2.0858    magn:    0.0005    constr:    0.0000
     atom:   46    charge:    3.1147    magn:   -0.0007    constr:    0.0000
     atom:   47    charge:    2.0807    magn:    0.0046    constr:    0.0000
     atom:   48    charge:    2.0837    magn:    0.0132    constr:    0.0000
     atom:   49    charge:    2.0520    magn:    0.2367    constr:    0.0000
     atom:   50    charge:    0.6703    magn:    0.0562    constr:    0.0000
     atom:   51    charge:    0.4219    magn:    0.0007    constr:    0.0000
     atom:   52    charge:    0.4227    magn:    0.0006    constr:    0.0000
     atom:   53    charge:    0.3628    magn:    0.0228    constr:    0.0000
     atom:   54    charge:    0.4230    magn:    0.0011    constr:    0.0000

     total cpu time spent up to now is     2789.3 secs

     total energy              =   -3021.14989021 Ry
     Harris-Foulkes estimate   =   -3021.14989027 Ry
     estimated scf accuracy    <       0.00000633 Ry

     total magnetization       =     1.06 Bohr mag/cell
     absolute magnetization    =     1.23 Bohr mag/cell

     iteration #  9     ecut=    40.42 Ry     beta=0.10
     Davidson diagonalization with overlap
     ethr =  1.59E-09,  avg # of iterations =  2.3

     negative rho (up, down):  1.189E-02 1.196E-02
 
     Magnetic moment per site:
     atom:    1    charge:    3.1244    magn:   -0.0002    constr:    0.0000
     atom:    2    charge:    2.0897    magn:    0.0002    constr:    0.0000
     atom:    3    charge:    3.1198    magn:   -0.0000    constr:    0.0000
     atom:    4    charge:    2.0867    magn:   -0.0001    constr:    0.0000
     atom:    5    charge:    3.1161    magn:   -0.0003    constr:    0.0000
     atom:    6    charge:    2.0795    magn:    0.0021    constr:    0.0000
     atom:    7    charge:    3.1166    magn:   -0.0049    constr:    0.0000
     atom:    8    charge:    2.0793    magn:    0.0243    constr:    0.0000
     atom:    9    charge:    3.1244    magn:   -0.0002    constr:    0.0000
     atom:   10    charge:    2.0898    magn:    0.0002    constr:    0.0000
     atom:   11    charge:    3.1198    magn:   -0.0000    constr:    0.0000
     atom:   12    charge:    2.0870    magn:   -0.0000    constr:    0.0000
     atom:   13    charge:    3.1150    magn:   -0.0002    constr:    0.0000
     atom:   14    charge:    2.0939    magn:    0.0022    constr:    0.0000
     atom:   15    charge:    3.1184    magn:   -0.0008    constr:    0.0000
     atom:   16    charge:    2.0828    magn:    0.0046    constr:    0.0000
     atom:   17    charge:    2.0624    magn:    0.0010    constr:    0.0000
     atom:   18    charge:    3.1239    magn:   -0.0000    constr:    0.0000
     atom:   19    charge:    2.0875    magn:    0.0000    constr:    0.0000
     atom:   20    charge:    2.0847    magn:    0.0001    constr:    0.0000
     atom:   21    charge:    2.0847    magn:    0.0001    constr:    0.0000
     atom:   22    charge:    3.1199    magn:    0.0000    constr:    0.0000
     atom:   23    charge:    2.0908    magn:    0.0003    constr:    0.0000
     atom:   24    charge:    2.0754    magn:   -0.0000    constr:    0.0000
     atom:   25    charge:    2.0867    magn:    0.0000    constr:    0.0000
     atom:   26    charge:    3.1127    magn:   -0.0003    constr:    0.0000
     atom:   27    charge:    2.0802    magn:    0.0026    constr:    0.0000
     atom:   28    charge:    2.0839    magn:    0.0008    constr:    0.0000
     atom:   29    charge:    2.0860    magn:    0.0009    constr:    0.0000
     atom:   30    charge:    3.1171    magn:   -0.0008    constr:    0.0000
     atom:   31    charge:    2.0825    magn:    0.0006    constr:    0.0000
     atom:   32    charge:    2.0829    magn:    0.0064    constr:    0.0000
     atom:   33    charge:    2.0624    magn:    0.0010    constr:    0.0000
     atom:   34    charge:    3.1239    magn:   -0.0000    constr:    0.0000
     atom:   35    charge:    2.0876    magn:    0.0000    constr:    0.0000
     atom:   36    charge:    2.0847    magn:    0.0001    constr:    0.0000
     atom:   37    charge:    2.0847    magn:    0.0001    constr:    0.0000
     atom:   38    charge:    3.1200    magn:    0.0000    constr:    0.0000
     atom:   39    charge:    2.0839    magn:    0.0002    constr:    0.0000
     atom:   40    charge:    2.0756    magn:   -0.0001    constr:    0.0000
     atom:   41    charge:    2.0870    magn:   -0.0000    constr:    0.0000
     atom:   42    charge:    3.1151    magn:   -0.0002    constr:    0.0000
     atom:   43    charge:    2.0803    magn:    0.0031    constr:    0.0000
     atom:   44    charge:    2.0851    magn:    0.0010    constr:    0.0000
     atom:   45    charge:    2.0858    magn:    0.0005    constr:    0.0000
     atom:   46    charge:    3.1147    magn:   -0.0007    constr:    0.0000
     atom:   47    charge:    2.0807    magn:    0.0045    constr:    0.0000
     atom:   48    charge:    2.0837    magn:    0.0131    constr:    0.0000
     atom:   49    charge:    2.0520    magn:    0.2366    constr:    0.0000
     atom:   50    charge:    0.6704    magn:    0.0563    constr:    0.0000
     atom:   51    charge:    0.4219    magn:    0.0007    constr:    0.0000
     atom:   52    charge:    0.4227    magn:    0.0006    constr:    0.0000
     atom:   53    charge:    0.3628    magn:    0.0227    constr:    0.0000
     atom:   54    charge:    0.4229    magn:    0.0011    constr:    0.0000

     total cpu time spent up to now is     3012.7 secs

     total energy              =   -3021.14989057 Ry
     Harris-Foulkes estimate   =   -3021.14989069 Ry
     estimated scf accuracy    <       0.00000410 Ry

     total magnetization       =     1.06 Bohr mag/cell
     absolute magnetization    =     1.23 Bohr mag/cell

     iteration # 10     ecut=    40.42 Ry     beta=0.10
     Davidson diagonalization with overlap
     ethr =  1.03E-09,  avg # of iterations =  3.0

     negative rho (up, down):  1.189E-02 1.196E-02
 
     Magnetic moment per site:
     atom:    1    charge:    3.1244    magn:   -0.0001    constr:    0.0000
     atom:    2    charge:    2.0897    magn:    0.0001    constr:    0.0000
     atom:    3    charge:    3.1198    magn:   -0.0000    constr:    0.0000
     atom:    4    charge:    2.0867    magn:   -0.0001    constr:    0.0000
     atom:    5    charge:    3.1161    magn:   -0.0003    constr:    0.0000
     atom:    6    charge:    2.0795    magn:    0.0022    constr:    0.0000
     atom:    7    charge:    3.1166    magn:   -0.0048    constr:    0.0000
     atom:    8    charge:    2.0793    magn:    0.0243    constr:    0.0000
     atom:    9    charge:    3.1244    magn:   -0.0001    constr:    0.0000
     atom:   10    charge:    2.0898    magn:    0.0001    constr:    0.0000
     atom:   11    charge:    3.1198    magn:   -0.0000    constr:    0.0000
     atom:   12    charge:    2.0870    magn:   -0.0000    constr:    0.0000
     atom:   13    charge:    3.1150    magn:   -0.0002    constr:    0.0000
     atom:   14    charge:    2.0939    magn:    0.0022    constr:    0.0000
     atom:   15    charge:    3.1184    magn:   -0.0008    constr:    0.0000
     atom:   16    charge:    2.0828    magn:    0.0046    constr:    0.0000
     atom:   17    charge:    2.0624    magn:    0.0008    constr:    0.0000
     atom:   18    charge:    3.1239    magn:   -0.0000    constr:    0.0000
     atom:   19    charge:    2.0875    magn:    0.0000    constr:    0.0000
     atom:   20    charge:    2.0847    magn:    0.0001    constr:    0.0000
     atom:   21    charge:    2.0847    magn:    0.0001    constr:    0.0000
     atom:   22    charge:    3.1199    magn:    0.0000    constr:    0.0000
     atom:   23    charge:    2.0908    magn:    0.0003    constr:    0.0000
     atom:   24    charge:    2.0754    magn:   -0.0000    constr:    0.0000
     atom:   25    charge:    2.0867    magn:    0.0000    constr:    0.0000
     atom:   26    charge:    3.1127    magn:   -0.0003    constr:    0.0000
     atom:   27    charge:    2.0802    magn:    0.0027    constr:    0.0000
     atom:   28    charge:    2.0839    magn:    0.0008    constr:    0.0000
     atom:   29    charge:    2.0860    magn:    0.0009    constr:    0.0000
     atom:   30    charge:    3.1171    magn:   -0.0008    constr:    0.0000
     atom:   31    charge:    2.0826    magn:    0.0006    constr:    0.0000
     atom:   32    charge:    2.0829    magn:    0.0064    constr:    0.0000
     atom:   33    charge:    2.0624    magn:    0.0008    constr:    0.0000
     atom:   34    charge:    3.1239    magn:   -0.0000    constr:    0.0000
     atom:   35    charge:    2.0876    magn:    0.0000    constr:    0.0000
     atom:   36    charge:    2.0847    magn:    0.0001    constr:    0.0000
     atom:   37    charge:    2.0847    magn:    0.0001    constr:    0.0000
     atom:   38    charge:    3.1200    magn:    0.0000    constr:    0.0000
     atom:   39    charge:    2.0839    magn:    0.0002    constr:    0.0000
     atom:   40    charge:    2.0756    magn:   -0.0001    constr:    0.0000
     atom:   41    charge:    2.0870    magn:   -0.0000    constr:    0.0000
     atom:   42    charge:    3.1151    magn:   -0.0003    constr:    0.0000
     atom:   43    charge:    2.0803    magn:    0.0031    constr:    0.0000
     atom:   44    charge:    2.0851    magn:    0.0010    constr:    0.0000
     atom:   45    charge:    2.0858    magn:    0.0006    constr:    0.0000
     atom:   46    charge:    3.1148    magn:   -0.0007    constr:    0.0000
     atom:   47    charge:    2.0807    magn:    0.0045    constr:    0.0000
     atom:   48    charge:    2.0837    magn:    0.0131    constr:    0.0000
     atom:   49    charge:    2.0521    magn:    0.2363    constr:    0.0000
     atom:   50    charge:    0.6703    magn:    0.0564    constr:    0.0000
     atom:   51    charge:    0.4219    magn:    0.0007    constr:    0.0000
     atom:   52    charge:    0.4227    magn:    0.0005    constr:    0.0000
     atom:   53    charge:    0.3628    magn:    0.0227    constr:    0.0000
     atom:   54    charge:    0.4230    magn:    0.0011    constr:    0.0000

     total cpu time spent up to now is     3248.9 secs

     End of self-consistent calculation

 ------ SPIN UP ------------


          k = 0.0000 0.0000 0.0000 ( 34665 PWs)   bands (ev):

   -58.2965 -58.2615 -57.3783 -57.3726 -57.3396 -57.3018 -57.2504 -57.0807
   -57.0549 -57.0496 -57.0112 -56.9124 -56.8897 -56.8772 -56.7935 -56.7551
   -34.7417 -34.5651 -34.5363 -34.5031 -34.4081 -34.3512 -33.8734 -33.8609
   -33.7427 -33.6698 -33.6279 -33.5849 -33.5529 -33.5459 -33.5399 -33.5334
   -33.5215 -33.5068 -33.4816 -33.4798 -33.4655 -33.4635 -33.4611 -33.4416
   -33.3318 -33.3284 -33.3223 -33.3195 -33.3061 -33.2785 -33.2734 -33.2532
   -33.2328 -33.2276 -33.2274 -33.2180 -33.1913 -33.1674 -33.1331 -33.1310
   -33.0943 -33.0715 -33.0411 -33.0212 -33.0077 -32.9824 -32.9394 -32.8749
   -18.4618 -18.0287 -17.8041 -17.7043 -17.5432 -17.5223 -17.4775 -17.3764
   -17.3494 -17.2498 -17.0373 -17.0167 -17.0090 -16.9791 -16.9182 -16.8467
   -16.8282 -16.7902 -16.7322 -16.6986 -16.6809 -16.6479 -16.5855 -16.5809
   -16.4583 -16.4103 -16.3918 -16.3523 -16.3176 -16.1398 -16.0794 -15.5918
   -15.5310 -11.2067  -6.0404  -5.4889  -5.2749  -5.1951  -5.0864  -4.9879
    -4.9741  -4.9395  -4.8711  -4.7256  -4.6423  -4.5920  -4.5779  -4.5028
    -4.4215  -4.4060  -4.3445  -4.3086  -4.2271  -4.2110  -4.1909  -4.1345
    -4.0233  -4.0159  -3.9724  -3.9001  -3.8844  -3.8782  -3.8756  -3.8210
    -3.7689  -3.7458  -3.7291  -3.6749  -3.6235  -3.5752  -3.5341  -3.5203
    -3.5117  -3.4122  -3.4004  -3.3525  -3.2649  -3.2251  -3.1802  -3.0794
    -2.9143  -2.8888  -2.8426  -2.7956  -2.7379  -2.6860  -2.6645  -2.6544
    -2.6254  -2.5289  -2.4782  -2.4307  -2.3699  -2.3239  -2.2399  -2.2215
    -2.2166  -2.1519  -2.0620  -2.0331  -1.9866  -1.9512  -1.9218  -1.8904
    -1.8446  -1.7294  -1.6857  -1.6602  -1.6320  -1.6223  -1.5778  -1.4941
    -1.4123  -1.3583  -1.3444  -1.3293  -1.3056  -1.2611  -1.2151  -1.1624
    -1.1517  -1.1026  -1.0993  -1.0799  -1.0525  -0.9709  -0.8651  -0.8198
    -0.8003  -0.6850  -0.6786  -0.6159  -0.5441  -0.5024  -0.4747  -0.1781
     1.0343   1.1311   1.4259   1.7045   1.8125   1.9305   1.9781   2.0246
     2.0546   2.1422   2.2187   2.2395   2.2856   2.4045   2.4797   2.4935
     2.5008   2.5279   2.6302   2.6754   2.6803   2.6961   2.7194   2.8361
     2.8510   2.8956   2.9100   2.9618   2.9775   3.0305   3.0389   3.0605
     3.1142   3.1693   3.2079   3.2087   3.2565   3.2643   3.4205   3.4535
     3.4864   3.5295   3.6067   3.6348   3.6783   3.7234   3.8376   3.9648
     4.1125   4.1437   4.3352   4.4813   4.6027   4.7155   4.7927   4.8429
     5.0929   5.1418   5.2140   5.3608   5.4046   5.4123   5.4258   5.4420
     5.4482   5.5318   5.5633   5.6707   5.7274   5.7404   5.9150   5.9179
     5.9639   6.0835   6.1033   6.1454   6.2237   6.3050   6.4307   6.4986
     6.5510   6.5631   6.7902   6.8215   7.2114   7.9156   8.1541   8.1840
     8.3352   8.3951   8.6243   8.7115   8.7591   8.9669   9.1445   9.2398
     9.2896   9.4411   9.6131

          k = 0.0000 0.0280 0.0000 ( 34717 PWs)   bands (ev):

   -58.2942 -58.2638 -57.3766 -57.3709 -57.3420 -57.3029 -57.2500 -57.0804
   -57.0549 -57.0480 -57.0133 -56.9101 -56.8899 -56.8795 -56.7911 -56.7576
   -34.7163 -34.5631 -34.5382 -34.4968 -34.4146 -34.3783 -33.8480 -33.8354
   -33.7219 -33.6635 -33.6217 -33.5824 -33.5597 -33.5422 -33.5342 -33.5262
   -33.5208 -33.5088 -33.5055 -33.4883 -33.4803 -33.4638 -33.4552 -33.4354
   -33.3259 -33.3202 -33.3069 -33.3042 -33.3017 -33.2951 -33.2710 -33.2515
   -33.2376 -33.2294 -33.2282 -33.2173 -33.1937 -33.1931 -33.1393 -33.1250
   -33.1063 -33.0680 -33.0473 -33.0211 -33.0074 -32.9872 -32.9668 -32.9035
   -18.4035 -17.9690 -17.7542 -17.6741 -17.5986 -17.4986 -17.4285 -17.3644
   -17.3182 -17.2805 -17.0883 -16.9962 -16.9876 -16.9683 -16.9201 -16.8684
   -16.7887 -16.7658 -16.7530 -16.7276 -16.6984 -16.6726 -16.6102 -16.5589
   -16.4724 -16.4356 -16.3986 -16.3756 -16.3498 -16.1587 -16.1211 -15.6059
   -15.5565 -11.2076  -5.9549  -5.4048  -5.1955  -5.1246  -5.0172  -4.9619
    -4.9206  -4.9048  -4.8001  -4.7217  -4.6608  -4.6460  -4.5189  -4.5082
    -4.4090  -4.3690  -4.3551  -4.3152  -4.2498  -4.2069  -4.1920  -4.1702
    -4.0917  -4.0601  -4.0098  -3.9946  -3.9703  -3.9633  -3.9140  -3.8490
    -3.8070  -3.7695  -3.7460  -3.7151  -3.7010  -3.6558  -3.5482  -3.4307
    -3.3952  -3.3144  -3.2982  -3.2926  -3.2601  -3.1163  -3.0966  -2.9371
    -2.8962  -2.8746  -2.7947  -2.7405  -2.7362  -2.7131  -2.6809  -2.6436
    -2.5896  -2.5095  -2.4501  -2.4350  -2.4078  -2.2713  -2.2472  -2.2147
    -2.2040  -2.1449  -2.1361  -2.0185  -1.9765  -1.9490  -1.9174  -1.9051
    -1.8641  -1.7593  -1.7491  -1.7107  -1.6721  -1.6016  -1.5742  -1.5637
    -1.4933  -1.4523  -1.3828  -1.3704  -1.3671  -1.3504  -1.2763  -1.2627
    -1.2268  -1.1667  -1.1285  -1.0617  -0.9850  -0.9448  -0.9161  -0.8887
    -0.8681  -0.8292  -0.7211  -0.5910  -0.5649  -0.5511  -0.5307  -0.2191
     1.1670   1.1721   1.4272   1.8406   1.8850   1.9024   1.9350   2.0114
     2.0701   2.0881   2.3090   2.3173   2.3500   2.4672   2.5032   2.5237
     2.5313   2.5532   2.5581   2.6064   2.7235   2.7408   2.8109   2.8229
     2.8446   2.9091   2.9455   2.9739   2.9904   3.0033   3.0242   3.0752
     3.0955   3.1315   3.1848   3.2438   3.2563   3.3362   3.4453   3.4859
     3.5205   3.5526   3.5732   3.5972   3.6518   3.6760   3.7959   3.9168
     4.0668   4.2110   4.2914   4.5348   4.7135   4.7168   4.8228   4.9180
     5.1196   5.1822   5.2623   5.3118   5.3814   5.4207   5.4439   5.4856
     5.5162   5.5254   5.5574   5.6702   5.7125   5.7225   5.8310   5.8924
     5.9524   6.0010   6.0360   6.0600   6.1899   6.2588   6.3974   6.4422
     6.4599   6.5565   6.7273   6.8238   7.3166   7.4603   7.9878   8.0580
     8.3449   8.5026   8.5179   8.6917   8.7711   8.9870   9.1057   9.3056
     9.3622   9.4439   9.5139

          k = 0.0000 0.0560 0.0000 ( 34721 PWs)   bands (ev):

   -58.2878 -58.2702 -57.3731 -57.3658 -57.3484 -57.3051 -57.2492 -57.0800
   -57.0553 -57.0434 -57.0182 -56.9036 -56.8904 -56.8860 -56.7844 -56.7644
   -34.6464 -34.5579 -34.5434 -34.4797 -34.4514 -34.4322 -33.7781 -33.7660
   -33.6712 -33.6466 -33.6050 -33.5828 -33.5821 -33.5761 -33.5614 -33.5581
   -33.5301 -33.5208 -33.5037 -33.4849 -33.4619 -33.4572 -33.4535 -33.4011
   -33.3604 -33.3160 -33.3134 -33.2978 -33.2724 -33.2625 -33.2471 -33.2468
   -33.2460 -33.2371 -33.2341 -33.2159 -33.2100 -33.2023 -33.1573 -33.1258
   -33.1088 -33.0652 -33.0639 -33.0407 -33.0206 -33.0074 -32.9992 -32.9740
   -18.2424 -17.8043 -17.7823 -17.6243 -17.5914 -17.4010 -17.3820 -17.3641
   -17.2977 -17.2558 -17.2216 -17.0354 -16.9804 -16.9119 -16.9080 -16.8909
   -16.8322 -16.8071 -16.7189 -16.6955 -16.6899 -16.6643 -16.6124 -16.5516
   -16.5049 -16.4996 -16.4424 -16.4312 -16.4053 -16.2248 -16.2014 -15.6344
   -15.6101 -11.2095  -5.7155  -5.1719  -5.0363  -4.9804  -4.9530  -4.9305
    -4.8391  -4.8231  -4.8057  -4.7630  -4.7238  -4.5442  -4.4986  -4.4559
    -4.3843  -4.3831  -4.3415  -4.3106  -4.2961  -4.2780  -4.2397  -4.2038
    -4.1992  -4.1824  -4.1212  -4.0499  -4.0064  -3.9705  -3.9565  -3.8998
    -3.8723  -3.8070  -3.7535  -3.7282  -3.6389  -3.5362  -3.4029  -3.3957
    -3.3553  -3.2768  -3.2375  -3.1281  -3.0801  -3.0618  -3.0302  -3.0018
    -2.9585  -2.9481  -2.8172  -2.7875  -2.7302  -2.6861  -2.6409  -2.5482
    -2.4737  -2.4653  -2.4316  -2.3452  -2.2924  -2.2870  -2.2110  -2.1781
    -2.1437  -2.1296  -2.1097  -2.0769  -2.0442  -2.0001  -1.9855  -1.9598
    -1.9233  -1.8812  -1.8710  -1.8511  -1.8012  -1.7422  -1.6459  -1.5972
    -1.5860  -1.5682  -1.5025  -1.4638  -1.4425  -1.4365  -1.4213  -1.3668
    -1.2825  -1.2616  -1.2047  -1.1780  -1.0797  -0.9879  -0.9660  -0.9343
    -0.8499  -0.8263  -0.7277  -0.7063  -0.6111  -0.5724  -0.5548  -0.3225
     1.2959   1.4376   1.5102   1.7315   1.8081   1.9012   1.9717   2.0698
     2.1504   2.2859   2.2909   2.3428   2.4268   2.4960   2.5154   2.5414
     2.5823   2.6219   2.6723   2.7185   2.7625   2.7798   2.8109   2.8591
     2.8749   2.8936   2.9033   2.9730   3.0196   3.0379   3.0468   3.0734
     3.1346   3.1679   3.1912   3.2695   3.3179   3.3493   3.3962   3.4429
     3.4811   3.4969   3.5730   3.6205   3.6839   3.6952   3.7343   3.8108
     3.9336   4.1687   4.3337   4.6622   4.7525   4.8528   4.9437   5.0817
     5.0884   5.1843   5.2920   5.3431   5.4116   5.4471   5.4803   5.5095
     5.5101   5.5712   5.5907   5.6572   5.6626   5.7628   5.7821   5.8157
     5.8412   5.8770   5.8979   5.9411   6.1271   6.1652   6.3028   6.3702
     6.4321   6.4501   6.7271   6.7560   6.9924   7.1984   7.6081   7.7407
     8.1958   8.3738   8.6952   8.8237   8.8317   8.8821   9.1725   9.3337
     9.4065   9.6003   9.7023

          k = 0.0000-0.0840 0.0000 ( 34678 PWs)   bands (ev):

   -58.2797 -58.2783 -57.3715 -57.3595 -57.3552 -57.3063 -57.2488 -57.0798
   -57.0556 -57.0401 -57.0216 -56.8952 -56.8945 -56.8906 -56.7776 -56.7711
   -34.5515 -34.5505 -34.5496 -34.5490 -34.4566 -34.4554 -33.6942 -33.6812
   -33.6775 -33.6386 -33.6373 -33.6316 -33.5999 -33.5839 -33.5798 -33.5690
   -33.5285 -33.5226 -33.5032 -33.4942 -33.4589 -33.4522 -33.3904 -33.3749
   -33.3711 -33.3550 -33.3172 -33.3128 -33.2946 -33.2646 -33.2515 -33.2426
   -33.2407 -33.2402 -33.2157 -33.2154 -33.1669 -33.1404 -33.1395 -33.1336
   -33.1195 -33.1172 -33.0868 -33.0861 -33.0210 -33.0129 -33.0100 -33.0040
   -18.0173 -18.0166 -17.5844 -17.5752 -17.5013 -17.4781 -17.4778 -17.3872
   -17.2502 -17.2094 -17.1222 -17.0952 -17.0644 -17.0296 -16.8868 -16.8368
   -16.7998 -16.7995 -16.7981 -16.6666 -16.6049 -16.6017 -16.5952 -16.5712
   -16.5384 -16.5150 -16.4993 -16.4673 -16.4582 -16.2672 -16.2430 -15.6436
   -15.6436 -11.2104  -5.3760  -5.3757  -4.9386  -4.8797  -4.8787  -4.8660
    -4.8436  -4.7621  -4.7506  -4.7114  -4.6505  -4.5962  -4.5589  -4.5522
    -4.4831  -4.4612  -4.4380  -4.3839  -4.3678  -4.2577  -4.2455  -4.2378
    -4.1506  -4.1089  -4.0586  -4.0261  -3.9859  -3.8971  -3.8763  -3.8689
    -3.7777  -3.7319  -3.7234  -3.6666  -3.6590  -3.6408  -3.6154  -3.4039
    -3.3529  -3.3399  -3.1419  -3.0691  -3.0633  -3.0246  -2.9217  -2.9188
    -2.9099  -2.8417  -2.8188  -2.7838  -2.7655  -2.6855  -2.6614  -2.6360
    -2.5135  -2.4953  -2.4121  -2.3958  -2.3876  -2.3656  -2.3029  -2.2342
    -2.2189  -2.1571  -2.1105  -2.0475  -1.9972  -1.9715  -1.9674  -1.9624
    -1.9579  -1.9334  -1.8262  -1.7898  -1.7698  -1.7199  -1.6837  -1.6476
    -1.6323  -1.6013  -1.5829  -1.5074  -1.4991  -1.4568  -1.4373  -1.4124
    -1.3735  -1.3230  -1.2700  -1.1698  -1.1295  -1.1075  -1.0812  -1.0409
    -0.8293  -0.8061  -0.6089  -0.5999  -0.5947  -0.5867  -0.5375  -0.4889
     1.4921   1.4948   1.6443   1.6450   1.7240   1.7249   2.0949   2.0957
     2.1592   2.2141   2.3847   2.4195   2.4561   2.5020   2.5497   2.5570
     2.6646   2.6762   2.6854   2.6993   2.7511   2.7621   2.8190   2.8222
     2.9219   2.9571   3.0008   3.0284   3.0334   3.0365   3.0427   3.0463
     3.0535   3.2347   3.2443   3.2750   3.3074   3.3488   3.3753   3.4056
     3.4425   3.4570   3.5129   3.6347   3.7044   3.7439   3.7586   3.7999
     3.8552   4.0458   4.3862   4.7666   4.8421   4.8757   4.8764   5.0610
     5.1539   5.2325   5.3241   5.3401   5.3749   5.4179   5.4782   5.5523
     5.5747   5.6060   5.6094   5.6964   5.7089   5.7282   5.7391   5.7529
     5.7770   5.8175   5.8514   5.9513   6.0326   6.1667   6.2746   6.3855
     6.4674   6.4838   6.5877   6.6069   6.9274   6.9790   7.4453   7.6090
     8.0312   8.2323   8.7118   8.9216   9.1211   9.1933   9.3531   9.3546
     9.4359   9.6226   9.7069

          k = 0.0253 0.0000 0.0000 ( 34707 PWs)   bands (ev):

   -58.2965 -58.2615 -57.3779 -57.3730 -57.3396 -57.3018 -57.2504 -57.0807
   -57.0547 -57.0499 -57.0112 -56.9124 -56.8896 -56.8772 -56.7936 -56.7551
   -34.7421 -34.5651 -34.5363 -34.5023 -34.4081 -34.3513 -33.8736 -33.8628
   -33.7429 -33.6619 -33.6278 -33.5850 -33.5563 -33.5462 -33.5421 -33.5336
   -33.5216 -33.5101 -33.4812 -33.4799 -33.4645 -33.4617 -33.4595 -33.4418
   -33.3317 -33.3294 -33.3200 -33.3188 -33.3030 -33.2785 -33.2735 -33.2543
   -33.2381 -33.2275 -33.2270 -33.2178 -33.1913 -33.1676 -33.1316 -33.1310
   -33.0939 -33.0715 -33.0411 -33.0253 -33.0067 -32.9824 -32.9395 -32.8750
   -18.4172 -17.9908 -17.7829 -17.7764 -17.5531 -17.4483 -17.4414 -17.3758
   -17.3540 -17.3135 -17.0986 -17.0301 -17.0059 -16.9728 -16.9209 -16.8842
   -16.8502 -16.7851 -16.7565 -16.7344 -16.6306 -16.5886 -16.5783 -16.5705
   -16.4565 -16.4355 -16.3924 -16.3743 -16.3152 -16.1381 -16.0796 -15.5907
   -15.5308 -11.2066  -5.9155  -5.3825  -5.2067  -5.1916  -5.0663  -5.0172
    -4.9674  -4.9405  -4.8727  -4.7277  -4.6901  -4.5759  -4.5720  -4.5047
    -4.4765  -4.4013  -4.3196  -4.2559  -4.2503  -4.1923  -4.1873  -4.0976
    -4.0218  -3.9890  -3.9820  -3.9074  -3.8918  -3.8500  -3.8400  -3.7955
    -3.7381  -3.7185  -3.6904  -3.5933  -3.5576  -3.5460  -3.5154  -3.4946
    -3.4375  -3.4087  -3.3106  -3.3077  -3.2656  -3.2498  -3.2297  -3.1433
    -3.0047  -2.8938  -2.8302  -2.8100  -2.7640  -2.7352  -2.6932  -2.6620
    -2.6037  -2.5499  -2.5320  -2.4904  -2.4260  -2.3736  -2.3244  -2.2582
    -2.2397  -2.1901  -2.0813  -2.0371  -1.9956  -1.9471  -1.8749  -1.8418
    -1.8189  -1.7892  -1.7043  -1.6155  -1.5708  -1.5625  -1.5365  -1.4994
    -1.4690  -1.4243  -1.4198  -1.3842  -1.3258  -1.2959  -1.2830  -1.2112
    -1.1776  -1.1468  -1.0976  -1.0687  -1.0324  -1.0117  -0.9476  -0.9025
    -0.8258  -0.8152  -0.6623  -0.6353  -0.5980  -0.5806  -0.5490  -0.2376
     1.1169   1.1315   1.4250   1.7919   1.8281   1.9134   1.9396   2.0588
     2.0948   2.1268   2.2132   2.2540   2.3472   2.3926   2.4510   2.5150
     2.5372   2.6058   2.6377   2.6572   2.6872   2.7116   2.8214   2.8353
     2.8549   2.8588   2.9005   2.9098   2.9547   3.0361   3.0845   3.1427
     3.1998   3.2116   3.2246   3.2263   3.2511   3.3179   3.4163   3.4507
     3.4976   3.5535   3.6014   3.6435   3.7089   3.7723   3.7944   3.9181
     4.0610   4.1997   4.2732   4.4349   4.5903   4.6325   4.8184   4.8374
     4.9679   4.9930   5.0963   5.1783   5.3089   5.3259   5.4364   5.5196
     5.5665   5.7188   5.7485   5.9145   5.9222   5.9474   5.9645   5.9919
     6.0328   6.0414   6.0787   6.1777   6.2362   6.2705   6.4490   6.5051
     6.5524   6.6140   6.7482   6.8181   7.2566   7.6619   7.7567   8.0187
     8.2341   8.3038   8.3746   8.6841   8.7655   8.9594   9.1013   9.2150
     9.3960   9.4926   9.7629

          k = 0.0253 0.0280 0.0000 ( 34687 PWs)   bands (ev):

   -58.2942 -58.2638 -57.3762 -57.3713 -57.3420 -57.3029 -57.2500 -57.0804
   -57.0547 -57.0482 -57.0133 -56.9101 -56.8899 -56.8795 -56.7911 -56.7576
   -34.7166 -34.5631 -34.5382 -34.4961 -34.4145 -34.3783 -33.8482 -33.8374
   -33.7220 -33.6559 -33.6217 -33.5825 -33.5568 -33.5426 -33.5393 -33.5296
   -33.5213 -33.5096 -33.5080 -33.4879 -33.4804 -33.4578 -33.4556 -33.4360
   -33.3261 -33.3162 -33.3068 -33.3066 -33.2972 -33.2949 -33.2710 -33.2525
   -33.2419 -33.2288 -33.2282 -33.2189 -33.1934 -33.1930 -33.1374 -33.1251
   -33.1067 -33.0680 -33.0473 -33.0233 -33.0077 -32.9872 -32.9668 -32.9035
   -18.3599 -17.9324 -17.7653 -17.7287 -17.5127 -17.5103 -17.4018 -17.3576
   -17.3408 -17.3088 -17.1029 -17.0598 -16.9900 -16.9590 -16.9097 -16.8669
   -16.8204 -16.7940 -16.7843 -16.7228 -16.6599 -16.6561 -16.6019 -16.5397
   -16.4779 -16.4552 -16.4002 -16.3945 -16.3467 -16.1569 -16.1217 -15.6049
   -15.5565 -11.2075  -5.8305  -5.2990  -5.1337  -5.1180  -4.9831  -4.9580
    -4.9337  -4.9007  -4.8127  -4.6876  -4.6667  -4.6254  -4.5234  -4.4877
    -4.4290  -4.3913  -4.3028  -4.2837  -4.2337  -4.1998  -4.1735  -4.1452
    -4.1166  -4.0848  -4.0221  -3.9880  -3.9444  -3.9315  -3.8888  -3.8151
    -3.7821  -3.7559  -3.7172  -3.7125  -3.6405  -3.6039  -3.5176  -3.3932
    -3.3369  -3.3154  -3.3053  -3.2568  -3.2268  -3.1816  -3.1072  -3.0862
    -2.9201  -2.8846  -2.8303  -2.7693  -2.7397  -2.7011  -2.6689  -2.6296
    -2.6002  -2.5135  -2.4905  -2.4606  -2.4415  -2.3728  -2.3196  -2.2948
    -2.2186  -2.1788  -2.1190  -2.0544  -2.0045  -1.9439  -1.9272  -1.8968
[...]
    -1.7202  -1.4991  -1.4569  -1.4455  -1.4259  -1.3887  -1.3095  -1.1452
    -1.1351  -1.0783  -1.0611  -1.0449  -0.9596  -0.9018  -0.8631  -0.7777
    -0.7242  -0.7173  -0.6875  -0.6609  -0.5876  -0.5642  -0.5513   0.3191
     1.6110   1.6145   1.6271   1.6324   1.9748   1.9757   2.1045   2.1055
     2.2885   2.3091   2.3224   2.4041   2.4271   2.4973   2.5829   2.6433
     2.6652   2.7098   2.7933   2.8265   2.8833   2.9353   2.9574   2.9854
     3.0000   3.0084   3.0493   3.1074   3.1220   3.2188   3.2443   3.2535
     3.2693   3.2928   3.3504   3.3966   3.4098   3.4154   3.4705   3.4825
     3.4928   3.5206   3.5349   3.5886   3.6461   3.6623   3.7859   3.8863
     3.9211   3.9327   4.1498   4.1503   4.5996   4.6296   4.6520   4.7374
     4.8926   4.9083   4.9409   5.0914   5.1702   5.1751   5.1947   5.4538
     5.6829   5.6918   5.7033   5.9359   5.9412   5.9748   6.0247   6.0277
     6.1023   6.1153   6.1832   6.2744   6.2800   6.2869   6.3927   6.4700
     6.5081   6.6151   7.0532   7.2176   7.3261   7.3821   7.5532   7.5889
     7.7121   7.7646   7.9172   8.1077   8.2921   8.3376   8.4457   8.8644
     9.0047   9.0627   9.2087

          k =-0.0253 0.0280 0.0000 ( 34687 PWs)   bands (ev):

   -58.2944 -58.2640 -57.3762 -57.3713 -57.3419 -57.3029 -57.2508 -57.0844
   -57.0560 -57.0494 -57.0144 -56.9125 -56.9109 -56.8803 -56.7946 -56.7612
   -34.7168 -34.5634 -34.5384 -34.4962 -34.4147 -34.3785 -33.8481 -33.8375
   -33.7228 -33.6559 -33.6217 -33.5826 -33.5568 -33.5427 -33.5392 -33.5303
   -33.5220 -33.5097 -33.5080 -33.4879 -33.4813 -33.4583 -33.4570 -33.4381
   -33.3269 -33.3178 -33.3101 -33.3075 -33.3026 -33.2962 -33.2725 -33.2532
   -33.2425 -33.2297 -33.2295 -33.2206 -33.2042 -33.1939 -33.1567 -33.1258
   -33.1237 -33.0713 -33.0480 -33.0308 -33.0117 -32.9904 -32.9676 -32.9062
   -18.3596 -17.9302 -17.7651 -17.7226 -17.5121 -17.5055 -17.3643 -17.3574
   -17.3342 -17.3042 -17.1005 -17.0576 -16.9729 -16.9279 -16.8619 -16.8198
   -16.7813 -16.7387 -16.7216 -16.6582 -16.6517 -16.5715 -16.5330 -16.4743
   -16.4501 -16.3948 -16.3543 -16.3366 -16.1467 -16.1127 -15.8917 -15.6012
   -15.5525 -10.7967  -5.8304  -5.2988  -5.1327  -5.1143  -4.9829  -4.9417
    -4.9029  -4.8136  -4.6876  -4.6667  -4.6255  -4.5254  -4.4874  -4.4309
    -4.3979  -4.3026  -4.2791  -4.2409  -4.1913  -4.1729  -4.1310  -4.1165
    -4.0844  -4.0458  -4.0080  -3.9827  -3.9439  -3.9031  -3.8785  -3.7888
    -3.7737  -3.7133  -3.6947  -3.6209  -3.6005  -3.5962  -3.4965  -3.3830
    -3.3358  -3.3096  -3.2837  -3.2528  -3.2141  -3.1717  -3.1022  -3.0856
    -2.9098  -2.8720  -2.8122  -2.7673  -2.7111  -2.6761  -2.6638  -2.6068
    -2.5772  -2.4986  -2.4891  -2.4318  -2.3997  -2.3478  -2.2775  -2.2552
    -2.2030  -2.1822  -2.0939  -2.0320  -1.9499  -1.9305  -1.9063  -1.8399
    -1.8288  -1.7805  -1.7350  -1.6746  -1.6248  -1.5844  -1.5517  -1.5003
    -1.4661  -1.4253  -1.3968  -1.3709  -1.3518  -1.3355  -1.3041  -1.2802
    -1.1946  -1.1153  -1.0568  -1.0002  -0.9760  -0.9434  -0.9190  -0.8748
    -0.8327  -0.8097  -0.6215  -0.5994  -0.5754  -0.5118  -0.2543   0.3435
     1.1629   1.2565   1.4405   1.8298   1.8692   1.9364   1.9729   2.0405
     2.0515   2.2007   2.3115   2.3573   2.3987   2.4419   2.4652   2.5150
     2.5352   2.5594   2.6002   2.6605   2.7083   2.7327   2.7880   2.8430
     2.8876   2.9249   2.9414   2.9847   3.0018   3.0256   3.0515   3.1046
     3.1814   3.2020   3.2445   3.2691   3.3051   3.3465   3.4409   3.4758
     3.5059   3.5680   3.6222   3.6527   3.6743   3.7548   3.8293   3.8760
     4.0229   4.2191   4.2952   4.4469   4.6354   4.7333   4.8546   4.8720
     5.0119   5.0358   5.1236   5.2084   5.2508   5.3643   5.4710   5.5588
     5.6549   5.7054   5.7206   5.8135   5.8601   5.8941   5.9198   5.9425
     5.9768   6.0001   6.0733   6.1255   6.1859   6.2914   6.4091   6.4590
     6.4725   6.5878   6.7567   6.8133   7.3743   7.4928   7.7855   7.8875
     8.0866   8.2246   8.4902   8.5325   8.7788   8.8866   9.0747   9.3103
     9.3720   9.5275   9.6097

          k =-0.0253 0.0560 0.0000 ( 34699 PWs)   bands (ev):

   -58.2880 -58.2704 -57.3730 -57.3660 -57.3483 -57.3052 -57.2500 -57.0839
   -57.0565 -57.0448 -57.0194 -56.9130 -56.9044 -56.8868 -56.7879 -56.7679
   -34.6469 -34.5581 -34.5437 -34.4792 -34.4517 -34.4321 -33.7783 -33.7683
   -33.6721 -33.6406 -33.6049 -33.5813 -33.5773 -33.5762 -33.5648 -33.5582
   -33.5318 -33.5216 -33.5084 -33.4862 -33.4736 -33.4557 -33.4455 -33.4039
   -33.3617 -33.3148 -33.3115 -33.3019 -33.2743 -33.2648 -33.2484 -33.2482
   -33.2474 -33.2378 -33.2345 -33.2212 -33.2127 -33.2058 -33.1719 -33.1533
   -33.1096 -33.0684 -33.0647 -33.0415 -33.0278 -33.0141 -33.0025 -32.9768
   -18.2019 -17.7920 -17.7699 -17.6010 -17.5902 -17.4459 -17.3834 -17.3595
   -17.2383 -17.2311 -17.1936 -17.0477 -16.9380 -16.9091 -16.8709 -16.8301
   -16.7871 -16.7334 -16.7228 -16.7075 -16.6737 -16.5872 -16.5378 -16.5212
   -16.4899 -16.4308 -16.4011 -16.3960 -16.2094 -16.1933 -15.8906 -15.6299
   -15.6063 -10.7987  -5.5952  -5.0714  -5.0141  -4.9458  -4.9133  -4.8072
    -4.7851  -4.7477  -4.6776  -4.6629  -4.5157  -4.4990  -4.4358  -4.3855
    -4.3675  -4.3591  -4.3108  -4.2670  -4.2401  -4.2300  -4.1968  -4.1646
    -4.1214  -4.1125  -4.0519  -4.0172  -3.9830  -3.9551  -3.9210  -3.8804
    -3.8214  -3.7947  -3.7005  -3.6193  -3.5816  -3.5265  -3.4504  -3.3743
    -3.3553  -3.2813  -3.1776  -3.1506  -3.1137  -3.1018  -3.0494  -3.0143
    -2.9728  -2.9170  -2.8335  -2.7834  -2.7522  -2.6941  -2.5994  -2.5801
    -2.5149  -2.5007  -2.4476  -2.3815  -2.3659  -2.3080  -2.2899  -2.2489
    -2.1773  -2.1258  -2.1110  -2.0790  -2.0387  -1.9965  -1.9751  -1.9386
    -1.9213  -1.8960  -1.8828  -1.8365  -1.7578  -1.6921  -1.6800  -1.5834
    -1.5622  -1.5341  -1.5084  -1.4747  -1.4348  -1.4026  -1.3734  -1.3147
    -1.2789  -1.2119  -1.1462  -1.0237  -0.9956  -0.9607  -0.9276  -0.8472
    -0.7541  -0.7264  -0.6946  -0.6298  -0.5989  -0.5453  -0.3516   0.3241
     1.2972   1.4791   1.5745   1.7685   1.7838   1.9221   1.9888   2.0687
     2.2755   2.2864   2.3528   2.3891   2.4257   2.4979   2.5329   2.5586
     2.5832   2.6066   2.6644   2.7161   2.7316   2.7750   2.8176   2.8673
     2.8929   2.9278   2.9724   3.0173   3.0434   3.0567   3.0666   3.1202
     3.1694   3.2094   3.2286   3.2993   3.3281   3.3566   3.3879   3.4683
     3.5197   3.5446   3.6226   3.6437   3.6761   3.7368   3.7554   3.8091
     3.9056   4.1094   4.4024   4.5113   4.7264   4.8695   4.9205   4.9711
     5.0059   5.1000   5.1975   5.2177   5.3450   5.3974   5.4444   5.5386
     5.5744   5.6092   5.6620   5.7199   5.7494   5.8141   5.8307   5.8706
     5.9366   5.9509   5.9888   6.1004   6.1431   6.2199   6.3370   6.4390
     6.4603   6.4824   6.7262   6.7775   7.0687   7.2841   7.6676   7.8258
     8.0871   8.2311   8.3150   8.4890   8.7675   8.8934   9.0116   9.1750
     9.3735   9.5513   9.6414

          k =-0.0506 0.0280 0.0000 ( 34685 PWs)   bands (ev):

   -58.2944 -58.2640 -57.3753 -57.3722 -57.3419 -57.3030 -57.2508 -57.0844
   -57.0556 -57.0498 -57.0145 -56.9125 -56.9109 -56.8803 -56.7946 -56.7612
   -34.7176 -34.5633 -34.5385 -34.4947 -34.4147 -34.3786 -33.8486 -33.8415
   -33.7231 -33.6363 -33.6215 -33.5828 -33.5619 -33.5446 -33.5432 -33.5356
   -33.5223 -33.5170 -33.5069 -33.4878 -33.4814 -33.4581 -33.4461 -33.4392
   -33.3270 -33.3115 -33.3098 -33.3074 -33.2976 -33.2958 -33.2727 -33.2552
   -33.2524 -33.2297 -33.2286 -33.2235 -33.2043 -33.1934 -33.1526 -33.1258
   -33.1241 -33.0714 -33.0480 -33.0377 -33.0101 -32.9904 -32.9676 -32.9063
   -18.2513 -17.8532 -17.8404 -17.6899 -17.5766 -17.4447 -17.4270 -17.3335
   -17.3061 -17.2395 -17.1692 -17.0751 -16.9856 -16.9405 -16.9117 -16.8849
   -16.7987 -16.7563 -16.7451 -16.6852 -16.6224 -16.5385 -16.5118 -16.4785
   -16.4501 -16.3957 -16.3781 -16.3416 -16.1432 -16.1131 -15.8925 -15.5993
   -15.5526 -10.7965  -5.5291  -5.1763  -5.1431  -5.1096  -4.9382  -4.8587
    -4.7567  -4.6987  -4.6716  -4.6415  -4.5905  -4.5762  -4.5221  -4.3964
    -4.3535  -4.3121  -4.2314  -4.2054  -4.1716  -4.1552  -4.1378  -4.0477
    -4.0371  -4.0025  -3.9649  -3.9218  -3.8776  -3.8285  -3.8058  -3.7808
    -3.7114  -3.6613  -3.6423  -3.6093  -3.5785  -3.5251  -3.4774  -3.4471
    -3.3717  -3.3592  -3.2959  -3.2544  -3.1935  -3.1392  -3.1077  -3.0474
    -2.9987  -2.9697  -2.8921  -2.8254  -2.7476  -2.6879  -2.6786  -2.6562
    -2.6062  -2.5836  -2.5705  -2.5147  -2.5062  -2.3833  -2.3301  -2.3223
    -2.2597  -2.1911  -2.1751  -2.1485  -2.0704  -2.0002  -1.9936  -1.9332
    -1.9133  -1.8834  -1.8007  -1.7117  -1.6986  -1.6741  -1.6047  -1.5748
    -1.5138  -1.4657  -1.4438  -1.3843  -1.3685  -1.3179  -1.3017  -1.2501
    -1.2339  -1.1105  -1.0474  -1.0247  -1.0001  -0.9463  -0.9156  -0.8670
    -0.8177  -0.7864  -0.7104  -0.6710  -0.6497  -0.5253  -0.3805   0.3287
     1.1498   1.3498   1.4749   1.5758   1.9437   1.9538   1.9761   2.0680
     2.1344   2.2092   2.2641   2.3399   2.4153   2.4498   2.5383   2.5559
     2.6025   2.6609   2.6973   2.7109   2.7648   2.8384   2.8612   2.8918
     2.9501   2.9561   2.9900   2.9945   3.0010   3.1120   3.1190   3.1476
     3.1953   3.2244   3.2984   3.3193   3.3653   3.3917   3.4166   3.4650
     3.4790   3.5568   3.6115   3.6765   3.7519   3.7888   3.8087   3.9092
     3.9661   4.0707   4.1191   4.4165   4.5203   4.6657   4.7578   4.8186
     4.8514   4.9236   4.9761   5.2975   5.3383   5.4195   5.5360   5.5687
     5.6496   5.7764   5.7965   5.8634   5.9060   5.9226   5.9591   6.0629
     6.1037   6.1739   6.2598   6.3424   6.3942   6.4022   6.4521   6.4994
     6.5509   6.5608   6.7189   6.9138   7.0613   7.2190   7.5585   7.6055
     7.7207   8.2099   8.4085   8.4778   8.8688   8.9343   9.0602   9.2174
     9.4218   9.6053   9.6808

          k =-0.0506 0.0560 0.0000 ( 34596 PWs)   bands (ev):

   -58.2880 -58.2704 -57.3726 -57.3663 -57.3483 -57.3052 -57.2500 -57.0839
   -57.0563 -57.0449 -57.0194 -56.9130 -56.9045 -56.8868 -56.7879 -56.7679
   -34.6475 -34.5581 -34.5436 -34.4779 -34.4519 -34.4317 -33.7786 -33.7728
   -33.6723 -33.6248 -33.6048 -33.5805 -33.5789 -33.5760 -33.5593 -33.5582
   -33.5351 -33.5219 -33.5205 -33.4864 -33.4828 -33.4558 -33.4339 -33.4056
   -33.3620 -33.3146 -33.2998 -33.2976 -33.2768 -33.2670 -33.2495 -33.2482
   -33.2470 -33.2377 -33.2340 -33.2312 -33.2134 -33.2061 -33.1713 -33.1491
   -33.1096 -33.0685 -33.0646 -33.0414 -33.0320 -33.0147 -33.0025 -32.9766
   -18.0987 -17.8097 -17.6919 -17.6042 -17.5881 -17.5480 -17.3709 -17.3596
   -17.2093 -17.1970 -17.1079 -17.0856 -16.9681 -16.9026 -16.8580 -16.8334
   -16.8142 -16.7978 -16.7525 -16.7263 -16.7115 -16.6179 -16.5873 -16.4972
   -16.4867 -16.4282 -16.4114 -16.4017 -16.2088 -16.1898 -15.8905 -15.6286
   -15.6067 -10.7984  -5.2926  -4.9825  -4.9318  -4.9237  -4.7739  -4.7663
    -4.7071  -4.6304  -4.5171  -4.4971  -4.4913  -4.4086  -4.3942  -4.3714
    -4.3518  -4.3181  -4.3003  -4.2396  -4.1914  -4.1667  -4.1589  -4.1061
    -4.0941  -4.0587  -4.0358  -3.9881  -3.9717  -3.9011  -3.8811  -3.8226
    -3.7721  -3.7132  -3.6761  -3.6234  -3.6009  -3.5514  -3.4953  -3.4251
    -3.3883  -3.3108  -3.2517  -3.2216  -3.1266  -3.1228  -3.0712  -3.0434
    -2.9866  -2.9684  -2.9489  -2.8945  -2.7913  -2.7546  -2.7398  -2.6968
    -2.6204  -2.5783  -2.5364  -2.4949  -2.4688  -2.4049  -2.3799  -2.3604
    -2.3416  -2.2804  -2.1855  -2.1630  -2.1378  -2.1192  -2.0937  -2.0385
    -2.0040  -1.9622  -1.9354  -1.8622  -1.8392  -1.7722  -1.7214  -1.6477
    -1.5566  -1.5395  -1.5297  -1.4878  -1.4354  -1.3762  -1.3437  -1.2964
    -1.2343  -1.1660  -1.0674  -1.0129  -0.9793  -0.8941  -0.8434  -0.8361
    -0.7833  -0.6971  -0.6840  -0.6619  -0.6462  -0.5434  -0.4655   0.3265
     1.3178   1.5074   1.6562   1.6779   1.8626   2.0136   2.0421   2.0776
     2.2533   2.2661   2.3700   2.3866   2.4429   2.4716   2.5582   2.5951
     2.6603   2.7055   2.7397   2.7543   2.8215   2.8525   2.8810   2.9133
     2.9441   2.9611   3.0167   3.0516   3.0823   3.1236   3.1549   3.2007
     3.2057   3.2600   3.2946   3.3346   3.3436   3.3869   3.4254   3.4771
     3.4905   3.5590   3.5877   3.6506   3.6773   3.7533   3.8130   3.8496
     3.8916   3.9691   4.1625   4.5130   4.6067   4.6260   4.7644   4.8320
     4.8985   4.9749   5.0198   5.1966   5.3116   5.3858   5.4207   5.4526
     5.6040   5.6249   5.6779   5.7266   5.8890   5.9066   5.9973   6.0156
     6.0771   6.1183   6.1776   6.2123   6.3132   6.3451   6.4167   6.4331
     6.5491   6.6216   6.7600   6.8159   7.1758   7.3505   7.4957   7.6146
     7.9320   8.0083   8.0994   8.3690   8.6046   8.7155   8.7984   9.0364
     9.1843   9.3303   9.4331

     the Fermi energy is    -0.2811 ev

!    total energy              =   -3021.14989092 Ry
     Harris-Foulkes estimate   =   -3021.14989085 Ry
     estimated scf accuracy    <       0.00000063 Ry

     The total energy is the sum of the following terms:

     one-electron contribution =  -40438.71410925 Ry
     hartree contribution      =   20290.85174545 Ry
     xc contribution           =    -553.20497234 Ry
     ewald contribution        =   17679.93722534 Ry
     smearing contrib. (-TS)   =      -0.01978012 Ry

     total magnetization       =     1.06 Bohr mag/cell
     absolute magnetization    =     1.22 Bohr mag/cell

     convergence has been achieved in  10 iterations

     Forces acting on atoms (Ry/au):


     negative rho (up, down):  1.189E-02 1.196E-02
     atom    1 type  1   force =     0.00018586   -0.00089611   -0.10468078
     atom    2 type  2   force =     0.00014368    0.00068577    0.04001397
     atom    3 type  1   force =     0.00075130   -0.00174901   -0.02054414
     atom    4 type  2   force =    -0.00326729    0.00312674   -0.00324795
     atom    5 type  1   force =     0.00035102    0.00004283    0.00036053
     atom    6 type  2   force =    -0.00012898   -0.00008451    0.00026373
     atom    7 type  1   force =    -0.00015752   -0.00010341   -0.00003436
     atom    8 type  2   force =    -0.00023560   -0.00033520   -0.00037193
     atom    9 type  1   force =    -0.00003327    0.00057040   -0.10481467
     atom   10 type  2   force =     0.00034871   -0.00020864    0.03598726
     atom   11 type  1   force =     0.00068086    0.00184242    0.00261562
     atom   12 type  2   force =    -0.00519671   -0.00266533   -0.00520985
     atom   13 type  1   force =     0.00041707    0.00011480   -0.00021408
     atom   14 type  2   force =     0.00013290   -0.00008272   -0.00014161
     atom   15 type  1   force =    -0.00008708    0.00002820   -0.00011428
     atom   16 type  2   force =    -0.00018702   -0.00003992   -0.00029674
     atom   17 type  2   force =     0.00000965   -0.00001121    0.06657102
     atom   18 type  1   force =     0.00005944    0.00003340    0.13149880
     atom   19 type  2   force =     0.00017906   -0.00052526   -0.08522740
     atom   20 type  2   force =    -0.05793106    0.00014487   -0.03608979
     atom   21 type  2   force =     0.05782318   -0.00004502   -0.03605218
     atom   22 type  1   force =    -0.00043051    0.00075198    0.08017005
     atom   23 type  2   force =     0.00020088   -0.00004834    0.00003028
     atom   24 type  2   force =     0.00064048    0.00186199   -0.03466977
     atom   25 type  2   force =     0.00414191    0.00332956   -0.00511549
     atom   26 type  1   force =     0.00040553   -0.00004312    0.00006916
     atom   27 type  2   force =    -0.00010478   -0.00012185    0.00008914
     atom   28 type  2   force =     0.00004876   -0.00018813   -0.00002524
     atom   29 type  2   force =     0.00000596   -0.00007091    0.00007180
     atom   30 type  1   force =    -0.00008932   -0.00011293   -0.00008053
     atom   31 type  2   force =     0.00009370   -0.00004827    0.00009748
     atom   32 type  2   force =    -0.00012473    0.00004105    0.00014459
     atom   33 type  2   force =    -0.00016669    0.00005277    0.06630523
     atom   34 type  1   force =     0.00007795   -0.00002980    0.13127976
     atom   35 type  2   force =     0.00018980   -0.00012678   -0.08484036
     atom   36 type  2   force =    -0.05782567    0.00006807   -0.03570356
     atom   37 type  2   force =     0.05799804   -0.00017187   -0.03610136
     atom   38 type  1   force =    -0.00037423   -0.00020084    0.07984245
     atom   39 type  2   force =     0.00007966   -0.00025367   -0.00009867
     atom   40 type  2   force =     0.00048813    0.00124382   -0.03527747
     atom   41 type  2   force =     0.00588831   -0.00243113   -0.00724028
     atom   42 type  1   force =     0.00024329   -0.00006626    0.00002754
     atom   43 type  2   force =    -0.00019510   -0.00010400    0.00007369
     atom   44 type  2   force =    -0.00000135   -0.00016050   -0.00003187
     atom   45 type  2   force =     0.00000808   -0.00017177    0.00005455
     atom   46 type  1   force =    -0.00037974   -0.00012370   -0.00010730
     atom   47 type  2   force =    -0.00012782   -0.00017895    0.00032271
     atom   48 type  2   force =    -0.00006351    0.00013070    0.00023768
     atom   49 type  2   force =    -0.00014690    0.00111738    0.00084935
     atom   50 type  3   force =    -0.00424645   -0.00215247   -0.00104746
     atom   51 type  4   force =    -0.00140515   -0.00177038   -0.00117148
     atom   52 type  4   force =    -0.00122212   -0.00123745   -0.00091474
     atom   53 type  4   force =     0.00339411    0.00052467    0.00161297
     atom   54 type  4   force =    -0.00085874    0.00084804    0.00087597

     Total force =     0.342392     Total SCF correction =     0.001609
 !ASE

     Writing output data file calc.save
 
     init_run     :     65.57s CPU     79.53s WALL (       1 calls)
     electrons    :   2756.73s CPU   3169.12s WALL (       1 calls)
     forces       :     48.62s CPU     50.87s WALL (       1 calls)

     Called by init_run:
     wfcinit      :     57.52s CPU     70.72s WALL (       1 calls)
     potinit      :      1.35s CPU      1.63s WALL (       1 calls)

     Called by electrons:
     c_bands      :   2414.49s CPU   2768.09s WALL (      11 calls)
     sum_band     :    297.64s CPU    351.26s WALL (      11 calls)
     v_of_rho     :     11.33s CPU     13.64s WALL (      11 calls)
     newd         :     36.73s CPU     39.83s WALL (      11 calls)
     mix_rho      :      0.42s CPU      0.54s WALL (      11 calls)
     vdW_energy   :      2.42s CPU      2.73s WALL (      12 calls)
     vdW_ffts     :      3.05s CPU      3.83s WALL (      24 calls)
     vdW_v        :      1.13s CPU      1.26s WALL (      12 calls)

     Called by c_bands:
     init_us_2    :      6.75s CPU      7.35s WALL (     960 calls)
     cegterg      :   2370.79s CPU   2721.90s WALL (     440 calls)

     Called by *egterg:
     h_psi        :    954.32s CPU   1232.83s WALL (    1933 calls)
     s_psi        :    162.26s CPU    167.11s WALL (    1933 calls)
     g_psi        :      4.74s CPU      4.84s WALL (    1453 calls)
     cdiaghg      :    714.01s CPU    728.68s WALL (    1853 calls)

     Called by h_psi:
     add_vuspsi   :    164.12s CPU    168.70s WALL (    1933 calls)

     General routines
     calbec       :    242.51s CPU    246.97s WALL (    2413 calls)
     fft          :      6.33s CPU      7.86s WALL (     956 calls)
     ffts         :      0.04s CPU      0.06s WALL (      44 calls)
     fftw         :    537.94s CPU    854.68s WALL (  776488 calls)
     interpolate  :      0.37s CPU      0.52s WALL (      44 calls)
     davcio       :      0.01s CPU      1.08s WALL (      40 calls)
 
     Parallel routines
     fft_scatter  :    274.27s CPU    448.63s WALL (  777488 calls)
 
     PWSCF        : 47m53.23s CPU    55m 3.56s WALL

 
   This run was terminated on:  18:46:46  26Feb2018            

=------------------------------------------------------------------------------=
   JOB DONE.
=------------------------------------------------------------------------------=
