  python dir          : /home/vossj/suncat/lib/python2.7/site-packages/espresso
  espresso dir        : /home/vossj/suncat/esdld/espresso-dynpy-beef/bin
  pseudo dir          : /home/alatimer/bin/psp/esp_psp_w_gbrvRu/
  ase-espresso py git : ffa2778-git



     Program PWSCF v.5.1rc2 (svn rev. ) starts on 13Feb2018 at  3:27:34 

     This program is part of the open-source Quantum ESPRESSO suite
     for quantum simulation of materials; please cite
         "P. Giannozzi et al., J. Phys.:Condens. Matter 21 395502 (2009);
          URL http://www.quantum-espresso.org", 
     in publications or presentations arising from this work. More details at
     http://www.quantum-espresso.org/quote

     Parallel version (MPI), running on    16 processors
     R & G space division:  proc/nbgrp/npool/nimage =      16
     Reading input from pw.inp
     Message from routine read_cards :
     DEPRECATED: no units specified in CELL_PARAMETERS card

     Current dimensions of program PWSCF are:
     Max number of different atomic species (ntypx) = 10
     Max number of k-points (npk) =  40000
     Max angular momentum in pseudopotentials (lmaxx) =  3

     **************************************************************************
     Initializing libbeef V0.1.1 with the BEEF-vdW functional.
     Citation: Wellendorff et al., PRB 85, 235149 (2012).
     **************************************************************************


     IMPORTANT: XC functional enforced from input :
     Exchange-correlation      = BEEF ( 1  4 27 13 2)
     Any further DFT definition will be discarded
     Please, verify this is what you really want


     Subspace diagonalization in iterative solution of the eigenvalue problem:
     a serial algorithm will be used

 
     Parallelization info
     --------------------
     sticks:   dense  smooth     PW     G-vecs:    dense   smooth      PW
     Min         281     112     31                68535    17318    2565
     Max         282     113     32                68545    17369    2582
     Sum        4501    1795    503              1096637   277353   41113
 
     Generating pointlists ...
     new r_m :   0.4125 (alat units)  0.7795 (a.u.) for type    1
     new r_m :   0.3995 (alat units)  0.7549 (a.u.) for type    2
     new r_m :   0.4125 (alat units)  0.7795 (a.u.) for type    3
     new r_m :   0.3995 (alat units)  0.7549 (a.u.) for type    4


     bravais-lattice index     =            0
     lattice parameter (alat)  =       1.8897  a.u.
     unit-cell volume          =    7990.9933 (a.u.)^3
     number of atoms/cell      =           54
     number of atomic types    =            4
     number of electrons       =       398.00
     number of Kohn-Sham states=          299
     kinetic-energy cutoff     =      40.4243  Ry
     charge density cutoff     =     404.2426  Ry
     convergence threshold     =      7.3E-07
     mixing beta               =       0.1000
     number of iterations used =           10  plain     mixing
     Exchange-correlation      = BEEF ( 1  4 27 13 2)
     nstep                     =           50


     celldm(1)=   1.889726  celldm(2)=   0.000000  celldm(3)=   0.000000
     celldm(4)=   0.000000  celldm(5)=   0.000000  celldm(6)=   0.000000

     crystal axes: (cart. coord. in units of alat)
               a(1) = (   6.590708   0.000000   0.000000 )  
               a(2) = (   0.000000   5.950229   0.000000 )  
               a(3) = (   0.000000   0.000000  30.195235 )  

     reciprocal axes: (cart. coord. in units 2 pi/alat)
               b(1) = (  0.151729  0.000000  0.000000 )  
               b(2) = (  0.000000  0.168061  0.000000 )  
               b(3) = (  0.000000  0.000000  0.033118 )  


     PseudoPot. # 1 for Ti read from file:
     /home/alatimer/bin/psp/esp_psp_w_gbrvRu/Ti.UPF
     MD5 check sum: 8e4df49b7f0d34bbd5052bf3f5ea0213
     Pseudo is Ultrasoft, Zval = 12.0
     Generated by new atomic code, or converted to UPF format
     Using radial grid of  851 points,  6 beta functions with: 
                l(1) =   0
                l(2) =   0
                l(3) =   1
                l(4) =   1
                l(5) =   2
                l(6) =   2
     Q(r) pseudized with  8 coefficients,  rinner =    1.000   1.000   1.000
                                                       1.000   1.000

     PseudoPot. # 2 for  O read from file:
     /home/alatimer/bin/psp/esp_psp_w_gbrvRu/O.UPF
     MD5 check sum: e057bbcf3229fb5d8c36c0c92f9568b4
     Pseudo is Ultrasoft + core correction, Zval =  6.0
     Generated using "atomic" code by A. Dal Corso  v.5.0.2 svn rev. 9415
     Using radial grid of 1095 points,  4 beta functions with: 
                l(1) =   0
                l(2) =   0
                l(3) =   1
                l(4) =   1
     Q(r) pseudized with 0 coefficients 


     PseudoPot. # 3 for  C read from file:
     /home/alatimer/bin/psp/esp_psp_w_gbrvRu/C.UPF
     MD5 check sum: ab446d787031eba755f1d5ee46644bb0
     Pseudo is Ultrasoft + core correction, Zval =  4.0
     Generated using "atomic" code by A. Dal Corso  v.5.0.2 svn rev. 9415
     Using radial grid of 1073 points,  4 beta functions with: 
                l(1) =   0
                l(2) =   0
                l(3) =   1
                l(4) =   1
     Q(r) pseudized with 0 coefficients 


     PseudoPot. # 4 for  H read from file:
     /home/alatimer/bin/psp/esp_psp_w_gbrvRu/H.UPF
     MD5 check sum: bd57da0722753ddfd9833a65b40bb853
     Pseudo is Ultrasoft, Zval =  1.0
     Generated using "atomic" code by A. Dal Corso  v.5.0.2 svn rev. 9415
     Using radial grid of  929 points,  2 beta functions with: 
                l(1) =   0
                l(2) =   0
     Q(r) pseudized with 0 coefficients 


     vdW kernel table read from file vdW_kernel_table
     MD5 check sum: 095c7af220d748ca6e76c0b4c6cfb241

     atomic species   valence    mass     pseudopotential
        Ti1           12.00    47.88000     Ti( 1.00)
        O1             6.00    15.99940      O( 1.00)
        C1             4.00    12.01100      C( 1.00)
        H1             1.00     1.00794      H( 1.00)

     Starting magnetic structure 
     atomic species   magnetization
        Ti1          0.250
        O1           0.500
        C1           0.750
        H1           0.000

     No symmetry found



   Cartesian axes

     site n.     atom                  positions (alat units)
         1           Ti1 tau(   1) = (   1.6476770   0.7437786   2.6545865  )
         2           O1  tau(   2) = (   1.6476770   2.2313359   3.9361215  )
         3           Ti1 tau(   3) = (   1.6476770   2.2313359   5.9499405  )
         4           O1  tau(   4) = (   0.3661420   0.7437786   5.9499405  )
         5           Ti1 tau(   5) = (   1.7592931   0.7557636   9.1813031  )
         6           O1  tau(   6) = (   1.6162490   2.2572048  10.5951269  )
         7           Ti1 tau(   7) = (   1.5595004   2.2680265  12.4668274  )
         8           O1  tau(   8) = (   0.3709531   0.7738127  12.6996540  )
         9           Ti1 tau(   9) = (   1.6476770   3.7188931   2.6545865  )
        10           O1  tau(  10) = (   1.6476770   5.2064503   3.9361215  )
        11           Ti1 tau(  11) = (   1.6476770   5.2064503   5.9499405  )
        12           O1  tau(  12) = (   0.3661420   3.7188931   5.9499405  )
        13           Ti1 tau(  13) = (   1.7607536   3.7112867   9.1949733  )
        14           O1  tau(  14) = (   1.6133076   5.2250699  10.5465640  )
        15           Ti1 tau(  15) = (   1.6492307   5.2431137  12.3448001  )
        16           O1  tau(  16) = (   0.3719744   3.7598389  12.7007434  )
        17           O1  tau(  17) = (   1.6476770   2.2313359   1.3730516  )
        18           Ti1 tau(  18) = (   4.9430310   2.2313359   2.6545865  )
        19           O1  tau(  19) = (   4.9430310   2.2313359   4.6684056  )
        20           O1  tau(  20) = (   6.2245660   0.7437786   2.6545865  )
        21           O1  tau(  21) = (   3.6614961   0.7437786   2.6545865  )
        22           Ti1 tau(  22) = (   4.9430310   0.7437786   5.9499405  )
        23           O1  tau(  23) = (   1.6387103   2.2391978   8.0037664  )
        24           O1  tau(  24) = (   4.9430310   2.2313359   7.2314755  )
        25           O1  tau(  25) = (   2.9292120   0.7437786   5.9499405  )
        26           Ti1 tau(  26) = (   5.0158092   2.2383949   9.3973727  )
        27           O1  tau(  27) = (   4.9391445   2.2276729  11.2675731  )
        28           O1  tau(  28) = (   6.2094020   0.7514556   9.2742047  )
        29           O1  tau(  29) = (   3.6131301   0.7515640   9.2682932  )
        30           Ti1 tau(  30) = (   4.8940083   0.8207741  12.7348365  )
        31           O1  tau(  31) = (   4.8487174   2.2703822  13.8475395  )
        32           O1  tau(  32) = (   2.8766274   0.7418004  12.6316555  )
        33           O1  tau(  33) = (   1.6476770   5.2064503   1.3730516  )
        34           Ti1 tau(  34) = (   4.9430310   5.2064503   2.6545865  )
        35           O1  tau(  35) = (   4.9430310   5.2064503   4.6684056  )
        36           O1  tau(  36) = (   6.2245660   3.7188931   2.6545865  )
        37           O1  tau(  37) = (   3.6614961   3.7188931   2.6545865  )
        38           Ti1 tau(  38) = (   4.9430310   3.7188931   5.9499405  )
        39           O1  tau(  39) = (   1.6418458   5.2133935   8.0066417  )
        40           O1  tau(  40) = (   4.9430310   5.2064503   7.2314755  )
        41           O1  tau(  41) = (   2.9292120   3.7188931   5.9499405  )
        42           Ti1 tau(  42) = (   5.0218241   5.2139137   9.3870600  )
        43           O1  tau(  43) = (   4.9399496   5.2040061  11.2598200  )
        44           O1  tau(  44) = (   6.2073000   3.7245411   9.2731052  )
        45           O1  tau(  45) = (   3.6137513   3.7232133   9.2682466  )
        46           Ti1 tau(  46) = (   4.8936935   3.8094630  12.7397413  )
        47           O1  tau(  47) = (   4.9051259   5.2510468  13.8339921  )
        48           O1  tau(  48) = (   2.8743370   3.7938830  12.6403791  )
        49           C1  tau(  49) = (   1.0587210   2.2268971  15.9066084  )
        50           O1  tau(  50) = (   1.8917182   2.2355032  14.7378010  )
        51           H1  tau(  51) = (   0.0310076   2.2200215  15.5603933  )
        52           H1  tau(  52) = (   2.8355400   2.2288152  14.9543747  )
        53           H1  tau(  53) = (   1.2478062   1.3026534  16.5039879  )
        54           H1  tau(  54) = (   1.2341453   3.1195140  16.5098874  )

     number of k points=    40  Fermi-Dirac smearing, width (Ry)=  0.0073
                       cart. coord. in units 2pi/alat
        k(    1) = (   0.0000000   0.0000000   0.0000000), wk =   0.0277778
        k(    2) = (   0.0000000   0.0280101   0.0000000), wk =   0.0555556
        k(    3) = (   0.0000000   0.0560203   0.0000000), wk =   0.0555556
        k(    4) = (   0.0000000  -0.0840304   0.0000000), wk =   0.0277778
        k(    5) = (   0.0252881   0.0000000   0.0000000), wk =   0.0555556
        k(    6) = (   0.0252881   0.0280101   0.0000000), wk =   0.0555556
        k(    7) = (   0.0252881   0.0560203   0.0000000), wk =   0.0555556
        k(    8) = (   0.0252881  -0.0840304   0.0000000), wk =   0.0555556
        k(    9) = (   0.0505763   0.0000000   0.0000000), wk =   0.0555556
        k(   10) = (   0.0505763   0.0280101   0.0000000), wk =   0.0555556
        k(   11) = (   0.0505763   0.0560203   0.0000000), wk =   0.0555556
        k(   12) = (   0.0505763  -0.0840304   0.0000000), wk =   0.0555556
        k(   13) = (  -0.0758644   0.0000000   0.0000000), wk =   0.0277778
        k(   14) = (  -0.0758644   0.0280101   0.0000000), wk =   0.0555556
        k(   15) = (  -0.0758644   0.0560203   0.0000000), wk =   0.0555556
        k(   16) = (  -0.0758644  -0.0840304   0.0000000), wk =   0.0277778
        k(   17) = (  -0.0252881   0.0280101   0.0000000), wk =   0.0555556
        k(   18) = (  -0.0252881   0.0560203   0.0000000), wk =   0.0555556
        k(   19) = (  -0.0505763   0.0280101   0.0000000), wk =   0.0555556
        k(   20) = (  -0.0505763   0.0560203   0.0000000), wk =   0.0555556
        k(   21) = (   0.0000000   0.0000000   0.0000000), wk =   0.0277778
        k(   22) = (   0.0000000   0.0280101   0.0000000), wk =   0.0555556
        k(   23) = (   0.0000000   0.0560203   0.0000000), wk =   0.0555556
        k(   24) = (   0.0000000  -0.0840304   0.0000000), wk =   0.0277778
        k(   25) = (   0.0252881   0.0000000   0.0000000), wk =   0.0555556
        k(   26) = (   0.0252881   0.0280101   0.0000000), wk =   0.0555556
        k(   27) = (   0.0252881   0.0560203   0.0000000), wk =   0.0555556
        k(   28) = (   0.0252881  -0.0840304   0.0000000), wk =   0.0555556
        k(   29) = (   0.0505763   0.0000000   0.0000000), wk =   0.0555556
        k(   30) = (   0.0505763   0.0280101   0.0000000), wk =   0.0555556
        k(   31) = (   0.0505763   0.0560203   0.0000000), wk =   0.0555556
        k(   32) = (   0.0505763  -0.0840304   0.0000000), wk =   0.0555556
        k(   33) = (  -0.0758644   0.0000000   0.0000000), wk =   0.0277778
        k(   34) = (  -0.0758644   0.0280101   0.0000000), wk =   0.0555556
        k(   35) = (  -0.0758644   0.0560203   0.0000000), wk =   0.0555556
        k(   36) = (  -0.0758644  -0.0840304   0.0000000), wk =   0.0277778
        k(   37) = (  -0.0252881   0.0280101   0.0000000), wk =   0.0555556
        k(   38) = (  -0.0252881   0.0560203   0.0000000), wk =   0.0555556
        k(   39) = (  -0.0505763   0.0280101   0.0000000), wk =   0.0555556
        k(   40) = (  -0.0505763   0.0560203   0.0000000), wk =   0.0555556

     Dense  grid:  1096637 G-vectors     FFT dimensions: (  80,  72, 375)

     Smooth grid:   277353 G-vectors     FFT dimensions: (  54,  45, 240)

     Largest allocated arrays     est. size (Mb)     dimensions
        Kohn-Sham Wavefunctions         9.95 Mb     (    2180,  299)
        NL pseudopotentials            18.89 Mb     (    2180,  568)
        Each V/rho on FFT grid          4.22 Mb     (  138240,   2)
        Each G-vector array             0.52 Mb     (   68538)
        G-vector shells                 0.25 Mb     (   33046)
     Largest temporary arrays     est. size (Mb)     dimensions
        Auxiliary wavefunctions        39.78 Mb     (    2180, 1196)
        Each subspace H/S matrix       21.83 Mb     (    1196, 1196)
        Each <psi_i|beta_j> matrix      2.59 Mb     (     568,  299)
        Arrays for rho mixing          21.09 Mb     (  138240,   10)

     Check: negative/imaginary core charge=   -0.000049    0.000000

     The initial density is read from file :
     ./calc.save/charge-density.dat


     negative rho (up, down):  1.209E-02 1.209E-02


     ************************************************************************
     *
     * You are using vdW-DF for exchange-correlation in this calculation.
     * Please cite the following three references that made this development
     * possible:
     *
     *   M. Dion, H. Rydberg, E. Schroder, D. C. Langreth, and
     *   B. I. Lundqvist, Phys. Rev. Lett. 92, 246401 (2004).
     *
     *   T. Thonhauser, V. R. Cooper, S. Li, A. Puzder, P. Hyldgaard, and
     *   D. C. Langreth, Phys. Rev. B 76, 125112 (2007).
     *
     *   G. Roman-Perez and J. M. Soler, Phys. Rev. Lett. 103, 096102 (2009).
     *
     *
     * If you are using vdW-DF2, please also cite:
     *
     *   K. Lee, E. D. Murray, L. Kong, B. I. Lundqvist, and
     *   D. C. Langreth, Phys. Rev. B 82, 081101(R) (2010).
     *
     *
     * If you are calculating the stress with vdW-DF, please also cite:
     *
     *   R. Sabatini, E. Kucukbenli, B. Kolb, T. Thonhauser, and
     *   S. de Gironcoli, J. Phys.: Condens. Matter 24, 424209 (2012).
     *
     ************************************************************************

     Carrying out vdW-DF run using the following parameters:

     Nqs =      20    Nr_points =    1024   r_max =   100.000
     q_mesh =
               0.00001000     0.04494208     0.09755937     0.15916263
               0.23128650     0.31572767     0.41458969     0.53033537
               0.66584808     0.82450364     1.01025438     1.22772762
               1.48234092     1.78043706     2.12944203     2.53805004
               3.01644009     3.57652955     4.23227104     5.00000000

     Gradients computed in reciprocal space

     ************************************************************************


     Starting wfc are  300 randomized atomic wfcs

     total cpu time spent up to now is       75.2 secs

     Self-consistent Calculation

     iteration #  1     ecut=    40.42 Ry     beta=0.10
     Davidson diagonalization with overlap
     ethr =  1.00E-05,  avg # of iterations = 14.7

     Threshold (ethr) on eigenvalues was too large:
     Diagonalizing with lowered threshold

     Davidson diagonalization with overlap
     ethr =  6.13E-07,  avg # of iterations =  1.0

     negative rho (up, down):  1.209E-02 1.209E-02
 
     Magnetic moment per site:
     atom:    1    charge:    3.1250    magn:   -0.0002    constr:    0.0000
     atom:    2    charge:    1.9452    magn:    0.0000    constr:    0.0000
     atom:    3    charge:    3.1198    magn:    0.0000    constr:    0.0000
     atom:    4    charge:    1.9504    magn:   -0.0001    constr:    0.0000
     atom:    5    charge:    3.1166    magn:    0.0000    constr:    0.0000
     atom:    6    charge:    1.9477    magn:   -0.0001    constr:    0.0000
     atom:    7    charge:    3.1157    magn:    0.0001    constr:    0.0000
     atom:    8    charge:    1.9452    magn:   -0.0001    constr:    0.0000
     atom:    9    charge:    3.1250    magn:   -0.0002    constr:    0.0000
     atom:   10    charge:    1.9452    magn:    0.0000    constr:    0.0000
     atom:   11    charge:    3.1197    magn:    0.0000    constr:    0.0000
     atom:   12    charge:    1.9504    magn:   -0.0001    constr:    0.0000
     atom:   13    charge:    3.1158    magn:    0.0000    constr:    0.0000
     atom:   14    charge:    1.9587    magn:   -0.0001    constr:    0.0000
     atom:   15    charge:    3.1189    magn:    0.0001    constr:    0.0000
     atom:   16    charge:    1.9445    magn:   -0.0001    constr:    0.0000
     atom:   17    charge:    1.9184    magn:    0.0004    constr:    0.0000
     atom:   18    charge:    3.1239    magn:   -0.0001    constr:    0.0000
     atom:   19    charge:    1.9408    magn:   -0.0000    constr:    0.0000
     atom:   20    charge:    1.9471    magn:    0.0000    constr:    0.0000
     atom:   21    charge:    1.9471    magn:    0.0000    constr:    0.0000
     atom:   22    charge:    3.1196    magn:    0.0000    constr:    0.0000
     atom:   23    charge:    1.9566    magn:   -0.0001    constr:    0.0000
     atom:   24    charge:    1.9379    magn:   -0.0001    constr:    0.0000
     atom:   25    charge:    1.9505    magn:   -0.0001    constr:    0.0000
     atom:   26    charge:    3.1145    magn:    0.0001    constr:    0.0000
     atom:   27    charge:    1.9398    magn:   -0.0001    constr:    0.0000
     atom:   28    charge:    1.9517    magn:   -0.0001    constr:    0.0000
     atom:   29    charge:    1.9476    magn:   -0.0001    constr:    0.0000
     atom:   30    charge:    3.1167    magn:    0.0000    constr:    0.0000
     atom:   31    charge:    1.9446    magn:   -0.0000    constr:    0.0000
     atom:   32    charge:    1.9440    magn:   -0.0001    constr:    0.0000
     atom:   33    charge:    1.9184    magn:    0.0004    constr:    0.0000
     atom:   34    charge:    3.1239    magn:   -0.0001    constr:    0.0000
     atom:   35    charge:    1.9408    magn:   -0.0000    constr:    0.0000
     atom:   36    charge:    1.9471    magn:    0.0000    constr:    0.0000
     atom:   37    charge:    1.9471    magn:    0.0000    constr:    0.0000
     atom:   38    charge:    3.1196    magn:    0.0000    constr:    0.0000
     atom:   39    charge:    1.9549    magn:   -0.0001    constr:    0.0000
     atom:   40    charge:    1.9383    magn:   -0.0001    constr:    0.0000
     atom:   41    charge:    1.9505    magn:   -0.0001    constr:    0.0000
     atom:   42    charge:    3.1141    magn:    0.0001    constr:    0.0000
     atom:   43    charge:    1.9413    magn:   -0.0001    constr:    0.0000
     atom:   44    charge:    1.9517    magn:   -0.0001    constr:    0.0000
     atom:   45    charge:    1.9468    magn:   -0.0001    constr:    0.0000
     atom:   46    charge:    3.1165    magn:    0.0000    constr:    0.0000
     atom:   47    charge:    1.9431    magn:   -0.0000    constr:    0.0000
     atom:   48    charge:    1.9444    magn:   -0.0001    constr:    0.0000
     atom:   49    charge:    0.6568    magn:   -0.0001    constr:    0.0000
     atom:   50    charge:    1.9579    magn:   -0.0001    constr:    0.0000
     atom:   51    charge:    0.4024    magn:    0.0000    constr:    0.0000
     atom:   52    charge:    0.4006    magn:    0.0000    constr:    0.0000
     atom:   53    charge:    0.3909    magn:    0.0000    constr:    0.0000
     atom:   54    charge:    0.4039    magn:    0.0000    constr:    0.0000

     total cpu time spent up to now is      974.0 secs

     total energy              =   -3021.41975358 Ry
     Harris-Foulkes estimate   =   -3021.42000745 Ry
     estimated scf accuracy    <       0.00243521 Ry

     total magnetization       =     0.00 Bohr mag/cell
     absolute magnetization    =     0.01 Bohr mag/cell

     iteration #  2     ecut=    40.42 Ry     beta=0.10
     Davidson diagonalization with overlap
     ethr =  6.12E-07,  avg # of iterations =  2.0

     negative rho (up, down):  1.207E-02 1.207E-02
 
     Magnetic moment per site:
     atom:    1    charge:    3.1250    magn:   -0.0001    constr:    0.0000
     atom:    2    charge:    1.9452    magn:    0.0000    constr:    0.0000
     atom:    3    charge:    3.1198    magn:    0.0000    constr:    0.0000
     atom:    4    charge:    1.9504    magn:   -0.0000    constr:    0.0000
     atom:    5    charge:    3.1166    magn:    0.0000    constr:    0.0000
     atom:    6    charge:    1.9477    magn:   -0.0001    constr:    0.0000
     atom:    7    charge:    3.1157    magn:    0.0000    constr:    0.0000
     atom:    8    charge:    1.9453    magn:   -0.0001    constr:    0.0000
     atom:    9    charge:    3.1250    magn:   -0.0001    constr:    0.0000
     atom:   10    charge:    1.9452    magn:    0.0000    constr:    0.0000
     atom:   11    charge:    3.1197    magn:    0.0000    constr:    0.0000
     atom:   12    charge:    1.9504    magn:   -0.0000    constr:    0.0000
     atom:   13    charge:    3.1158    magn:    0.0000    constr:    0.0000
     atom:   14    charge:    1.9587    magn:   -0.0001    constr:    0.0000
     atom:   15    charge:    3.1189    magn:    0.0000    constr:    0.0000
     atom:   16    charge:    1.9446    magn:   -0.0001    constr:    0.0000
     atom:   17    charge:    1.9184    magn:    0.0003    constr:    0.0000
     atom:   18    charge:    3.1239    magn:   -0.0001    constr:    0.0000
     atom:   19    charge:    1.9408    magn:   -0.0000    constr:    0.0000
     atom:   20    charge:    1.9471    magn:    0.0000    constr:    0.0000
     atom:   21    charge:    1.9471    magn:    0.0000    constr:    0.0000
     atom:   22    charge:    3.1196    magn:    0.0000    constr:    0.0000
     atom:   23    charge:    1.9566    magn:   -0.0001    constr:    0.0000
     atom:   24    charge:    1.9379    magn:   -0.0000    constr:    0.0000
     atom:   25    charge:    1.9505    magn:   -0.0000    constr:    0.0000
     atom:   26    charge:    3.1145    magn:    0.0000    constr:    0.0000
     atom:   27    charge:    1.9398    magn:   -0.0000    constr:    0.0000
     atom:   28    charge:    1.9517    magn:   -0.0001    constr:    0.0000
     atom:   29    charge:    1.9476    magn:   -0.0001    constr:    0.0000
     atom:   30    charge:    3.1167    magn:    0.0000    constr:    0.0000
     atom:   31    charge:    1.9446    magn:   -0.0000    constr:    0.0000
     atom:   32    charge:    1.9440    magn:   -0.0001    constr:    0.0000
     atom:   33    charge:    1.9184    magn:    0.0003    constr:    0.0000
     atom:   34    charge:    3.1239    magn:   -0.0001    constr:    0.0000
     atom:   35    charge:    1.9408    magn:   -0.0000    constr:    0.0000
     atom:   36    charge:    1.9471    magn:    0.0000    constr:    0.0000
     atom:   37    charge:    1.9471    magn:    0.0000    constr:    0.0000
     atom:   38    charge:    3.1196    magn:    0.0000    constr:    0.0000
     atom:   39    charge:    1.9550    magn:   -0.0001    constr:    0.0000
     atom:   40    charge:    1.9383    magn:   -0.0000    constr:    0.0000
     atom:   41    charge:    1.9505    magn:   -0.0000    constr:    0.0000
     atom:   42    charge:    3.1141    magn:    0.0000    constr:    0.0000
     atom:   43    charge:    1.9413    magn:   -0.0000    constr:    0.0000
     atom:   44    charge:    1.9517    magn:   -0.0001    constr:    0.0000
     atom:   45    charge:    1.9469    magn:   -0.0001    constr:    0.0000
     atom:   46    charge:    3.1165    magn:    0.0000    constr:    0.0000
     atom:   47    charge:    1.9432    magn:   -0.0000    constr:    0.0000
     atom:   48    charge:    1.9444    magn:   -0.0001    constr:    0.0000
     atom:   49    charge:    0.6521    magn:   -0.0000    constr:    0.0000
     atom:   50    charge:    1.9583    magn:   -0.0000    constr:    0.0000
     atom:   51    charge:    0.4030    magn:    0.0000    constr:    0.0000
     atom:   52    charge:    0.4007    magn:    0.0000    constr:    0.0000
     atom:   53    charge:    0.3915    magn:    0.0000    constr:    0.0000
     atom:   54    charge:    0.4040    magn:    0.0000    constr:    0.0000

     total cpu time spent up to now is     1156.6 secs

     total energy              =   -3021.41914317 Ry
     Harris-Foulkes estimate   =   -3021.41977062 Ry
     estimated scf accuracy    <       0.00163751 Ry

     total magnetization       =     0.00 Bohr mag/cell
     absolute magnetization    =     0.01 Bohr mag/cell

     iteration #  3     ecut=    40.42 Ry     beta=0.10
     Davidson diagonalization with overlap
     ethr =  4.11E-07,  avg # of iterations =  4.7

     negative rho (up, down):  1.207E-02 1.207E-02
 
     Magnetic moment per site:
     atom:    1    charge:    3.1250    magn:   -0.0001    constr:    0.0000
     atom:    2    charge:    1.9452    magn:    0.0000    constr:    0.0000
     atom:    3    charge:    3.1198    magn:    0.0000    constr:    0.0000
     atom:    4    charge:    1.9504    magn:   -0.0000    constr:    0.0000
     atom:    5    charge:    3.1166    magn:    0.0000    constr:    0.0000
     atom:    6    charge:    1.9477    magn:   -0.0001    constr:    0.0000
     atom:    7    charge:    3.1157    magn:    0.0000    constr:    0.0000
     atom:    8    charge:    1.9453    magn:   -0.0001    constr:    0.0000
     atom:    9    charge:    3.1250    magn:   -0.0001    constr:    0.0000
     atom:   10    charge:    1.9452    magn:    0.0000    constr:    0.0000
     atom:   11    charge:    3.1197    magn:    0.0000    constr:    0.0000
     atom:   12    charge:    1.9504    magn:   -0.0000    constr:    0.0000
     atom:   13    charge:    3.1158    magn:    0.0000    constr:    0.0000
     atom:   14    charge:    1.9587    magn:   -0.0001    constr:    0.0000
     atom:   15    charge:    3.1189    magn:    0.0000    constr:    0.0000
     atom:   16    charge:    1.9446    magn:   -0.0001    constr:    0.0000
     atom:   17    charge:    1.9184    magn:    0.0003    constr:    0.0000
     atom:   18    charge:    3.1239    magn:   -0.0001    constr:    0.0000
     atom:   19    charge:    1.9408    magn:   -0.0000    constr:    0.0000
     atom:   20    charge:    1.9471    magn:    0.0000    constr:    0.0000
     atom:   21    charge:    1.9471    magn:    0.0000    constr:    0.0000
     atom:   22    charge:    3.1196    magn:    0.0000    constr:    0.0000
     atom:   23    charge:    1.9566    magn:   -0.0001    constr:    0.0000
     atom:   24    charge:    1.9379    magn:   -0.0000    constr:    0.0000
     atom:   25    charge:    1.9505    magn:   -0.0000    constr:    0.0000
     atom:   26    charge:    3.1145    magn:    0.0000    constr:    0.0000
     atom:   27    charge:    1.9398    magn:   -0.0000    constr:    0.0000
     atom:   28    charge:    1.9517    magn:   -0.0001    constr:    0.0000
     atom:   29    charge:    1.9476    magn:   -0.0001    constr:    0.0000
     atom:   30    charge:    3.1167    magn:    0.0000    constr:    0.0000
     atom:   31    charge:    1.9447    magn:   -0.0000    constr:    0.0000
     atom:   32    charge:    1.9440    magn:   -0.0001    constr:    0.0000
     atom:   33    charge:    1.9184    magn:    0.0003    constr:    0.0000
     atom:   34    charge:    3.1239    magn:   -0.0001    constr:    0.0000
     atom:   35    charge:    1.9408    magn:   -0.0000    constr:    0.0000
     atom:   36    charge:    1.9471    magn:    0.0000    constr:    0.0000
     atom:   37    charge:    1.9471    magn:    0.0000    constr:    0.0000
     atom:   38    charge:    3.1196    magn:    0.0000    constr:    0.0000
     atom:   39    charge:    1.9550    magn:   -0.0001    constr:    0.0000
     atom:   40    charge:    1.9383    magn:   -0.0000    constr:    0.0000
     atom:   41    charge:    1.9505    magn:   -0.0000    constr:    0.0000
     atom:   42    charge:    3.1141    magn:    0.0000    constr:    0.0000
     atom:   43    charge:    1.9413    magn:   -0.0000    constr:    0.0000
     atom:   44    charge:    1.9517    magn:   -0.0001    constr:    0.0000
     atom:   45    charge:    1.9469    magn:   -0.0001    constr:    0.0000
     atom:   46    charge:    3.1165    magn:    0.0000    constr:    0.0000
     atom:   47    charge:    1.9431    magn:   -0.0000    constr:    0.0000
     atom:   48    charge:    1.9444    magn:   -0.0001    constr:    0.0000
     atom:   49    charge:    0.6529    magn:   -0.0000    constr:    0.0000
     atom:   50    charge:    1.9581    magn:   -0.0000    constr:    0.0000
     atom:   51    charge:    0.4028    magn:    0.0000    constr:    0.0000
     atom:   52    charge:    0.4006    magn:    0.0000    constr:    0.0000
     atom:   53    charge:    0.3914    magn:    0.0000    constr:    0.0000
     atom:   54    charge:    0.4039    magn:    0.0000    constr:    0.0000

     total cpu time spent up to now is     1384.1 secs

     total energy              =   -3021.41940091 Ry
     Harris-Foulkes estimate   =   -3021.41942024 Ry
     estimated scf accuracy    <       0.00019581 Ry

     total magnetization       =     0.00 Bohr mag/cell
     absolute magnetization    =     0.00 Bohr mag/cell

     iteration #  4     ecut=    40.42 Ry     beta=0.10
     Davidson diagonalization with overlap
     ethr =  4.92E-08,  avg # of iterations =  3.0

     negative rho (up, down):  1.207E-02 1.207E-02
 
     Magnetic moment per site:
     atom:    1    charge:    3.1250    magn:   -0.0001    constr:    0.0000
     atom:    2    charge:    1.9452    magn:    0.0000    constr:    0.0000
     atom:    3    charge:    3.1198    magn:    0.0000    constr:    0.0000
     atom:    4    charge:    1.9504    magn:   -0.0000    constr:    0.0000
     atom:    5    charge:    3.1166    magn:    0.0000    constr:    0.0000
     atom:    6    charge:    1.9476    magn:   -0.0000    constr:    0.0000
     atom:    7    charge:    3.1157    magn:    0.0000    constr:    0.0000
     atom:    8    charge:    1.9452    magn:   -0.0000    constr:    0.0000
     atom:    9    charge:    3.1250    magn:   -0.0001    constr:    0.0000
     atom:   10    charge:    1.9452    magn:    0.0000    constr:    0.0000
     atom:   11    charge:    3.1197    magn:    0.0000    constr:    0.0000
     atom:   12    charge:    1.9504    magn:   -0.0000    constr:    0.0000
     atom:   13    charge:    3.1158    magn:    0.0000    constr:    0.0000
     atom:   14    charge:    1.9587    magn:   -0.0000    constr:    0.0000
     atom:   15    charge:    3.1188    magn:    0.0000    constr:    0.0000
     atom:   16    charge:    1.9446    magn:   -0.0000    constr:    0.0000
     atom:   17    charge:    1.9184    magn:    0.0002    constr:    0.0000
     atom:   18    charge:    3.1239    magn:   -0.0000    constr:    0.0000
     atom:   19    charge:    1.9408    magn:   -0.0000    constr:    0.0000
     atom:   20    charge:    1.9471    magn:    0.0000    constr:    0.0000
     atom:   21    charge:    1.9471    magn:    0.0000    constr:    0.0000
     atom:   22    charge:    3.1196    magn:    0.0000    constr:    0.0000
     atom:   23    charge:    1.9566    magn:   -0.0000    constr:    0.0000
     atom:   24    charge:    1.9379    magn:   -0.0000    constr:    0.0000
     atom:   25    charge:    1.9505    magn:   -0.0000    constr:    0.0000
     atom:   26    charge:    3.1145    magn:    0.0000    constr:    0.0000
     atom:   27    charge:    1.9398    magn:   -0.0000    constr:    0.0000
     atom:   28    charge:    1.9517    magn:   -0.0000    constr:    0.0000
     atom:   29    charge:    1.9476    magn:   -0.0000    constr:    0.0000
     atom:   30    charge:    3.1167    magn:    0.0000    constr:    0.0000
     atom:   31    charge:    1.9447    magn:   -0.0000    constr:    0.0000
     atom:   32    charge:    1.9440    magn:   -0.0000    constr:    0.0000
     atom:   33    charge:    1.9184    magn:    0.0002    constr:    0.0000
     atom:   34    charge:    3.1239    magn:   -0.0000    constr:    0.0000
     atom:   35    charge:    1.9408    magn:   -0.0000    constr:    0.0000
     atom:   36    charge:    1.9471    magn:    0.0000    constr:    0.0000
     atom:   37    charge:    1.9471    magn:    0.0000    constr:    0.0000
     atom:   38    charge:    3.1196    magn:    0.0000    constr:    0.0000
     atom:   39    charge:    1.9549    magn:   -0.0000    constr:    0.0000
     atom:   40    charge:    1.9383    magn:   -0.0000    constr:    0.0000
     atom:   41    charge:    1.9505    magn:   -0.0000    constr:    0.0000
     atom:   42    charge:    3.1141    magn:    0.0000    constr:    0.0000
     atom:   43    charge:    1.9413    magn:   -0.0000    constr:    0.0000
     atom:   44    charge:    1.9518    magn:   -0.0000    constr:    0.0000
     atom:   45    charge:    1.9468    magn:   -0.0000    constr:    0.0000
     atom:   46    charge:    3.1165    magn:    0.0000    constr:    0.0000
     atom:   47    charge:    1.9430    magn:   -0.0000    constr:    0.0000
     atom:   48    charge:    1.9444    magn:   -0.0000    constr:    0.0000
     atom:   49    charge:    0.6543    magn:   -0.0000    constr:    0.0000
     atom:   50    charge:    1.9575    magn:   -0.0000    constr:    0.0000
     atom:   51    charge:    0.4024    magn:    0.0000    constr:    0.0000
     atom:   52    charge:    0.4005    magn:    0.0000    constr:    0.0000
     atom:   53    charge:    0.3910    magn:    0.0000    constr:    0.0000
     atom:   54    charge:    0.4035    magn:    0.0000    constr:    0.0000

     total cpu time spent up to now is     1580.0 secs

     total energy              =   -3021.41938542 Ry
     Harris-Foulkes estimate   =   -3021.41940429 Ry
     estimated scf accuracy    <       0.00013483 Ry

     total magnetization       =     0.00 Bohr mag/cell
     absolute magnetization    =     0.00 Bohr mag/cell

     iteration #  5     ecut=    40.42 Ry     beta=0.10
     Davidson diagonalization with overlap
     ethr =  3.39E-08,  avg # of iterations =  3.0

     negative rho (up, down):  1.207E-02 1.207E-02
 
     Magnetic moment per site:
     atom:    1    charge:    3.1250    magn:   -0.0001    constr:    0.0000
     atom:    2    charge:    1.9452    magn:    0.0000    constr:    0.0000
     atom:    3    charge:    3.1198    magn:    0.0000    constr:    0.0000
     atom:    4    charge:    1.9504    magn:   -0.0000    constr:    0.0000
     atom:    5    charge:    3.1166    magn:    0.0000    constr:    0.0000
     atom:    6    charge:    1.9476    magn:   -0.0000    constr:    0.0000
     atom:    7    charge:    3.1157    magn:    0.0000    constr:    0.0000
     atom:    8    charge:    1.9452    magn:   -0.0000    constr:    0.0000
     atom:    9    charge:    3.1250    magn:   -0.0001    constr:    0.0000
     atom:   10    charge:    1.9452    magn:    0.0000    constr:    0.0000
     atom:   11    charge:    3.1197    magn:    0.0000    constr:    0.0000
     atom:   12    charge:    1.9504    magn:   -0.0000    constr:    0.0000
     atom:   13    charge:    3.1158    magn:    0.0000    constr:    0.0000
     atom:   14    charge:    1.9587    magn:   -0.0000    constr:    0.0000
     atom:   15    charge:    3.1188    magn:    0.0000    constr:    0.0000
     atom:   16    charge:    1.9445    magn:   -0.0000    constr:    0.0000
     atom:   17    charge:    1.9184    magn:    0.0002    constr:    0.0000
     atom:   18    charge:    3.1239    magn:   -0.0000    constr:    0.0000
     atom:   19    charge:    1.9408    magn:   -0.0000    constr:    0.0000
     atom:   20    charge:    1.9471    magn:    0.0000    constr:    0.0000
     atom:   21    charge:    1.9471    magn:    0.0000    constr:    0.0000
     atom:   22    charge:    3.1196    magn:    0.0000    constr:    0.0000
     atom:   23    charge:    1.9566    magn:   -0.0000    constr:    0.0000
     atom:   24    charge:    1.9379    magn:   -0.0000    constr:    0.0000
     atom:   25    charge:    1.9505    magn:   -0.0000    constr:    0.0000
     atom:   26    charge:    3.1145    magn:    0.0000    constr:    0.0000
     atom:   27    charge:    1.9398    magn:   -0.0000    constr:    0.0000
     atom:   28    charge:    1.9517    magn:   -0.0000    constr:    0.0000
     atom:   29    charge:    1.9476    magn:   -0.0000    constr:    0.0000
     atom:   30    charge:    3.1167    magn:    0.0000    constr:    0.0000
     atom:   31    charge:    1.9447    magn:   -0.0000    constr:    0.0000
     atom:   32    charge:    1.9440    magn:   -0.0000    constr:    0.0000
     atom:   33    charge:    1.9184    magn:    0.0002    constr:    0.0000
     atom:   34    charge:    3.1239    magn:   -0.0000    constr:    0.0000
     atom:   35    charge:    1.9408    magn:   -0.0000    constr:    0.0000
     atom:   36    charge:    1.9471    magn:    0.0000    constr:    0.0000
     atom:   37    charge:    1.9471    magn:    0.0000    constr:    0.0000
     atom:   38    charge:    3.1196    magn:    0.0000    constr:    0.0000
     atom:   39    charge:    1.9549    magn:   -0.0000    constr:    0.0000
     atom:   40    charge:    1.9383    magn:   -0.0000    constr:    0.0000
     atom:   41    charge:    1.9505    magn:   -0.0000    constr:    0.0000
     atom:   42    charge:    3.1141    magn:    0.0000    constr:    0.0000
     atom:   43    charge:    1.9413    magn:   -0.0000    constr:    0.0000
     atom:   44    charge:    1.9517    magn:   -0.0000    constr:    0.0000
     atom:   45    charge:    1.9468    magn:   -0.0000    constr:    0.0000
     atom:   46    charge:    3.1165    magn:    0.0000    constr:    0.0000
     atom:   47    charge:    1.9431    magn:   -0.0000    constr:    0.0000
     atom:   48    charge:    1.9444    magn:   -0.0000    constr:    0.0000
     atom:   49    charge:    0.6546    magn:   -0.0000    constr:    0.0000
     atom:   50    charge:    1.9576    magn:   -0.0000    constr:    0.0000
     atom:   51    charge:    0.4023    magn:    0.0000    constr:    0.0000
     atom:   52    charge:    0.4005    magn:    0.0000    constr:    0.0000
     atom:   53    charge:    0.3909    magn:    0.0000    constr:    0.0000
     atom:   54    charge:    0.4035    magn:    0.0000    constr:    0.0000

     total cpu time spent up to now is     1778.7 secs

     total energy              =   -3021.41939399 Ry
     Harris-Foulkes estimate   =   -3021.41939438 Ry
     estimated scf accuracy    <       0.00000767 Ry

     total magnetization       =     0.00 Bohr mag/cell
     absolute magnetization    =     0.00 Bohr mag/cell

     iteration #  6     ecut=    40.42 Ry     beta=0.10
     Davidson diagonalization with overlap
     ethr =  1.93E-09,  avg # of iterations =  3.4

     negative rho (up, down):  1.207E-02 1.207E-02
 
     Magnetic moment per site:
     atom:    1    charge:    3.1250    magn:   -0.0001    constr:    0.0000
     atom:    2    charge:    1.9452    magn:    0.0000    constr:    0.0000
     atom:    3    charge:    3.1198    magn:    0.0000    constr:    0.0000
     atom:    4    charge:    1.9504    magn:   -0.0000    constr:    0.0000
     atom:    5    charge:    3.1166    magn:    0.0000    constr:    0.0000
     atom:    6    charge:    1.9476    magn:   -0.0000    constr:    0.0000
     atom:    7    charge:    3.1157    magn:    0.0000    constr:    0.0000
     atom:    8    charge:    1.9452    magn:   -0.0000    constr:    0.0000
     atom:    9    charge:    3.1250    magn:   -0.0001    constr:    0.0000
     atom:   10    charge:    1.9452    magn:    0.0000    constr:    0.0000
     atom:   11    charge:    3.1197    magn:    0.0000    constr:    0.0000
     atom:   12    charge:    1.9504    magn:   -0.0000    constr:    0.0000
     atom:   13    charge:    3.1158    magn:    0.0000    constr:    0.0000
     atom:   14    charge:    1.9587    magn:   -0.0000    constr:    0.0000
     atom:   15    charge:    3.1188    magn:    0.0000    constr:    0.0000
     atom:   16    charge:    1.9445    magn:   -0.0000    constr:    0.0000
     atom:   17    charge:    1.9184    magn:    0.0001    constr:    0.0000
     atom:   18    charge:    3.1239    magn:   -0.0000    constr:    0.0000
     atom:   19    charge:    1.9408    magn:   -0.0000    constr:    0.0000
     atom:   20    charge:    1.9471    magn:    0.0000    constr:    0.0000
     atom:   21    charge:    1.9471    magn:    0.0000    constr:    0.0000
     atom:   22    charge:    3.1196    magn:    0.0000    constr:    0.0000
     atom:   23    charge:    1.9566    magn:   -0.0000    constr:    0.0000
     atom:   24    charge:    1.9379    magn:   -0.0000    constr:    0.0000
     atom:   25    charge:    1.9505    magn:   -0.0000    constr:    0.0000
     atom:   26    charge:    3.1145    magn:    0.0000    constr:    0.0000
     atom:   27    charge:    1.9398    magn:   -0.0000    constr:    0.0000
     atom:   28    charge:    1.9517    magn:   -0.0000    constr:    0.0000
     atom:   29    charge:    1.9476    magn:   -0.0000    constr:    0.0000
     atom:   30    charge:    3.1167    magn:    0.0000    constr:    0.0000
     atom:   31    charge:    1.9447    magn:   -0.0000    constr:    0.0000
     atom:   32    charge:    1.9440    magn:   -0.0000    constr:    0.0000
     atom:   33    charge:    1.9184    magn:    0.0001    constr:    0.0000
     atom:   34    charge:    3.1239    magn:   -0.0000    constr:    0.0000
     atom:   35    charge:    1.9408    magn:   -0.0000    constr:    0.0000
     atom:   36    charge:    1.9471    magn:    0.0000    constr:    0.0000
     atom:   37    charge:    1.9471    magn:    0.0000    constr:    0.0000
     atom:   38    charge:    3.1196    magn:    0.0000    constr:    0.0000
     atom:   39    charge:    1.9549    magn:   -0.0000    constr:    0.0000
     atom:   40    charge:    1.9383    magn:   -0.0000    constr:    0.0000
     atom:   41    charge:    1.9505    magn:   -0.0000    constr:    0.0000
     atom:   42    charge:    3.1141    magn:    0.0000    constr:    0.0000
     atom:   43    charge:    1.9413    magn:   -0.0000    constr:    0.0000
     atom:   44    charge:    1.9517    magn:   -0.0000    constr:    0.0000
     atom:   45    charge:    1.9468    magn:   -0.0000    constr:    0.0000
     atom:   46    charge:    3.1165    magn:    0.0000    constr:    0.0000
     atom:   47    charge:    1.9431    magn:   -0.0000    constr:    0.0000
     atom:   48    charge:    1.9444    magn:   -0.0000    constr:    0.0000
     atom:   49    charge:    0.6548    magn:   -0.0000    constr:    0.0000
     atom:   50    charge:    1.9577    magn:   -0.0000    constr:    0.0000
     atom:   51    charge:    0.4023    magn:    0.0000    constr:    0.0000
     atom:   52    charge:    0.4005    magn:    0.0000    constr:    0.0000
     atom:   53    charge:    0.3909    magn:    0.0000    constr:    0.0000
     atom:   54    charge:    0.4035    magn:    0.0000    constr:    0.0000

     total cpu time spent up to now is     1982.3 secs

     total energy              =   -3021.41939475 Ry
     Harris-Foulkes estimate   =   -3021.41939454 Ry
     estimated scf accuracy    <       0.00000238 Ry

     total magnetization       =     0.00 Bohr mag/cell
     absolute magnetization    =     0.00 Bohr mag/cell

     iteration #  7     ecut=    40.42 Ry     beta=0.10
     Davidson diagonalization with overlap
     ethr =  5.97E-10,  avg # of iterations =  3.5

     negative rho (up, down):  1.207E-02 1.207E-02
 
     Magnetic moment per site:
     atom:    1    charge:    3.1250    magn:   -0.0000    constr:    0.0000
     atom:    2    charge:    1.9452    magn:    0.0000    constr:    0.0000
     atom:    3    charge:    3.1198    magn:    0.0000    constr:    0.0000
     atom:    4    charge:    1.9504    magn:   -0.0000    constr:    0.0000
     atom:    5    charge:    3.1166    magn:    0.0000    constr:    0.0000
     atom:    6    charge:    1.9476    magn:   -0.0000    constr:    0.0000
     atom:    7    charge:    3.1157    magn:    0.0000    constr:    0.0000
     atom:    8    charge:    1.9452    magn:   -0.0000    constr:    0.0000
     atom:    9    charge:    3.1250    magn:   -0.0000    constr:    0.0000
     atom:   10    charge:    1.9452    magn:    0.0000    constr:    0.0000
     atom:   11    charge:    3.1197    magn:    0.0000    constr:    0.0000
     atom:   12    charge:    1.9504    magn:   -0.0000    constr:    0.0000
     atom:   13    charge:    3.1158    magn:    0.0000    constr:    0.0000
     atom:   14    charge:    1.9587    magn:   -0.0000    constr:    0.0000
     atom:   15    charge:    3.1188    magn:    0.0000    constr:    0.0000
     atom:   16    charge:    1.9446    magn:   -0.0000    constr:    0.0000
     atom:   17    charge:    1.9184    magn:    0.0001    constr:    0.0000
     atom:   18    charge:    3.1239    magn:   -0.0000    constr:    0.0000
     atom:   19    charge:    1.9408    magn:   -0.0000    constr:    0.0000
     atom:   20    charge:    1.9471    magn:    0.0000    constr:    0.0000
     atom:   21    charge:    1.9471    magn:    0.0000    constr:    0.0000
     atom:   22    charge:    3.1196    magn:    0.0000    constr:    0.0000
     atom:   23    charge:    1.9566    magn:   -0.0000    constr:    0.0000
     atom:   24    charge:    1.9379    magn:   -0.0000    constr:    0.0000
     atom:   25    charge:    1.9505    magn:   -0.0000    constr:    0.0000
     atom:   26    charge:    3.1145    magn:    0.0000    constr:    0.0000
     atom:   27    charge:    1.9398    magn:   -0.0000    constr:    0.0000
     atom:   28    charge:    1.9517    magn:   -0.0000    constr:    0.0000
     atom:   29    charge:    1.9476    magn:   -0.0000    constr:    0.0000
     atom:   30    charge:    3.1167    magn:    0.0000    constr:    0.0000
     atom:   31    charge:    1.9447    magn:   -0.0000    constr:    0.0000
     atom:   32    charge:    1.9440    magn:   -0.0000    constr:    0.0000
     atom:   33    charge:    1.9184    magn:    0.0001    constr:    0.0000
     atom:   34    charge:    3.1239    magn:   -0.0000    constr:    0.0000
     atom:   35    charge:    1.9408    magn:   -0.0000    constr:    0.0000
     atom:   36    charge:    1.9471    magn:    0.0000    constr:    0.0000
     atom:   37    charge:    1.9471    magn:    0.0000    constr:    0.0000
     atom:   38    charge:    3.1196    magn:    0.0000    constr:    0.0000
     atom:   39    charge:    1.9549    magn:   -0.0000    constr:    0.0000
     atom:   40    charge:    1.9383    magn:   -0.0000    constr:    0.0000
     atom:   41    charge:    1.9505    magn:   -0.0000    constr:    0.0000
     atom:   42    charge:    3.1141    magn:    0.0000    constr:    0.0000
     atom:   43    charge:    1.9413    magn:   -0.0000    constr:    0.0000
     atom:   44    charge:    1.9517    magn:   -0.0000    constr:    0.0000
     atom:   45    charge:    1.9468    magn:   -0.0000    constr:    0.0000
     atom:   46    charge:    3.1165    magn:    0.0000    constr:    0.0000
     atom:   47    charge:    1.9431    magn:   -0.0000    constr:    0.0000
     atom:   48    charge:    1.9444    magn:   -0.0000    constr:    0.0000
     atom:   49    charge:    0.6546    magn:   -0.0000    constr:    0.0000
     atom:   50    charge:    1.9579    magn:   -0.0000    constr:    0.0000
     atom:   51    charge:    0.4023    magn:    0.0000    constr:    0.0000
     atom:   52    charge:    0.4005    magn:    0.0000    constr:    0.0000
     atom:   53    charge:    0.3909    magn:    0.0000    constr:    0.0000
     atom:   54    charge:    0.4036    magn:    0.0000    constr:    0.0000

     total cpu time spent up to now is     2189.3 secs

     total energy              =   -3021.41939412 Ry
     Harris-Foulkes estimate   =   -3021.41939498 Ry
     estimated scf accuracy    <       0.00000206 Ry

     total magnetization       =     0.00 Bohr mag/cell
     absolute magnetization    =     0.00 Bohr mag/cell

     iteration #  8     ecut=    40.42 Ry     beta=0.10
     Davidson diagonalization with overlap
     ethr =  5.17E-10,  avg # of iterations =  4.0

     negative rho (up, down):  1.207E-02 1.207E-02
 
     Magnetic moment per site:
     atom:    1    charge:    3.1250    magn:   -0.0000    constr:    0.0000
     atom:    2    charge:    1.9451    magn:    0.0000    constr:    0.0000
     atom:    3    charge:    3.1198    magn:    0.0000    constr:    0.0000
     atom:    4    charge:    1.9504    magn:   -0.0000    constr:    0.0000
     atom:    5    charge:    3.1166    magn:    0.0000    constr:    0.0000
     atom:    6    charge:    1.9476    magn:   -0.0000    constr:    0.0000
     atom:    7    charge:    3.1157    magn:    0.0000    constr:    0.0000
     atom:    8    charge:    1.9452    magn:   -0.0000    constr:    0.0000
     atom:    9    charge:    3.1250    magn:   -0.0000    constr:    0.0000
     atom:   10    charge:    1.9452    magn:    0.0000    constr:    0.0000
     atom:   11    charge:    3.1197    magn:    0.0000    constr:    0.0000
     atom:   12    charge:    1.9504    magn:   -0.0000    constr:    0.0000
     atom:   13    charge:    3.1158    magn:    0.0000    constr:    0.0000
     atom:   14    charge:    1.9587    magn:   -0.0000    constr:    0.0000
     atom:   15    charge:    3.1188    magn:    0.0000    constr:    0.0000
     atom:   16    charge:    1.9446    magn:   -0.0000    constr:    0.0000
     atom:   17    charge:    1.9184    magn:    0.0001    constr:    0.0000
     atom:   18    charge:    3.1239    magn:   -0.0000    constr:    0.0000
     atom:   19    charge:    1.9408    magn:   -0.0000    constr:    0.0000
     atom:   20    charge:    1.9471    magn:    0.0000    constr:    0.0000
     atom:   21    charge:    1.9471    magn:    0.0000    constr:    0.0000
     atom:   22    charge:    3.1196    magn:    0.0000    constr:    0.0000
     atom:   23    charge:    1.9566    magn:   -0.0000    constr:    0.0000
     atom:   24    charge:    1.9379    magn:   -0.0000    constr:    0.0000
     atom:   25    charge:    1.9505    magn:   -0.0000    constr:    0.0000
     atom:   26    charge:    3.1145    magn:    0.0000    constr:    0.0000
     atom:   27    charge:    1.9398    magn:   -0.0000    constr:    0.0000
     atom:   28    charge:    1.9517    magn:   -0.0000    constr:    0.0000
     atom:   29    charge:    1.9476    magn:   -0.0000    constr:    0.0000
     atom:   30    charge:    3.1167    magn:    0.0000    constr:    0.0000
     atom:   31    charge:    1.9447    magn:   -0.0000    constr:    0.0000
     atom:   32    charge:    1.9440    magn:   -0.0000    constr:    0.0000
     atom:   33    charge:    1.9184    magn:    0.0001    constr:    0.0000
     atom:   34    charge:    3.1239    magn:   -0.0000    constr:    0.0000
     atom:   35    charge:    1.9408    magn:   -0.0000    constr:    0.0000
     atom:   36    charge:    1.9471    magn:    0.0000    constr:    0.0000
     atom:   37    charge:    1.9471    magn:    0.0000    constr:    0.0000
     atom:   38    charge:    3.1196    magn:    0.0000    constr:    0.0000
     atom:   39    charge:    1.9549    magn:   -0.0000    constr:    0.0000
     atom:   40    charge:    1.9383    magn:   -0.0000    constr:    0.0000
     atom:   41    charge:    1.9505    magn:   -0.0000    constr:    0.0000
     atom:   42    charge:    3.1141    magn:    0.0000    constr:    0.0000
     atom:   43    charge:    1.9413    magn:   -0.0000    constr:    0.0000
     atom:   44    charge:    1.9517    magn:   -0.0000    constr:    0.0000
     atom:   45    charge:    1.9468    magn:   -0.0000    constr:    0.0000
     atom:   46    charge:    3.1165    magn:    0.0000    constr:    0.0000
     atom:   47    charge:    1.9431    magn:   -0.0000    constr:    0.0000
     atom:   48    charge:    1.9444    magn:   -0.0000    constr:    0.0000
     atom:   49    charge:    0.6548    magn:   -0.0000    constr:    0.0000
     atom:   50    charge:    1.9577    magn:   -0.0000    constr:    0.0000
     atom:   51    charge:    0.4023    magn:    0.0000    constr:    0.0000
     atom:   52    charge:    0.4006    magn:    0.0000    constr:    0.0000
     atom:   53    charge:    0.3908    magn:    0.0000    constr:    0.0000
     atom:   54    charge:    0.4036    magn:    0.0000    constr:    0.0000

     total cpu time spent up to now is     2407.6 secs

     End of self-consistent calculation

 ------ SPIN UP ------------


          k = 0.0000 0.0000 0.0000 ( 34665 PWs)   bands (ev):

   -57.7010 -57.6660 -57.3207 -57.2844 -57.2356 -57.1124 -57.0759 -57.0750
   -57.0541 -57.0403 -56.9931 -56.9576 -56.7340 -56.6964 -56.1515 -56.1162
   -34.1371 -33.9832 -33.9547 -33.9020 -33.8729 -33.8077 -33.7472 -33.6565
   -33.6213 -33.6078 -33.5703 -33.5436 -33.5216 -33.5106 -33.4927 -33.4887
   -33.4679 -33.4573 -33.4344 -33.4014 -33.3267 -33.2946 -33.2744 -33.2651
   -33.2581 -33.2572 -33.2464 -33.2457 -33.2397 -33.2325 -33.2322 -33.2151
   -33.1833 -33.1830 -33.1773 -33.1439 -33.1213 -33.0000 -32.9819 -32.9609
   -32.9115 -32.8087 -32.5693 -32.5038 -32.4778 -32.3735 -32.2819 -32.1735
   -20.3042 -18.0155 -17.8438 -17.5598 -17.4649 -17.3757 -17.2547 -17.0803
   -17.0686 -16.9773 -16.9412 -16.8865 -16.7870 -16.7806 -16.7326 -16.7101
   -16.7066 -16.6656 -16.6134 -16.6080 -16.5386 -16.4186 -16.4059 -16.4005
   -16.3248 -16.2704 -16.1974 -16.1701 -16.1524 -15.9827 -15.9329 -14.7359
   -14.6522 -11.4253  -7.2049  -5.4769  -5.3979  -5.3180  -5.2082  -5.1857
    -5.1485  -5.1298  -4.8418  -4.8193  -4.4745  -4.4458  -4.3620  -4.3583
    -4.3244  -4.2348  -4.0926  -4.0634  -4.0579  -4.0203  -4.0022  -3.9939
    -3.9629  -3.9549  -3.9535  -3.8426  -3.7915  -3.7689  -3.7390  -3.7203
    -3.6352  -3.6199  -3.5902  -3.5807  -3.5224  -3.5101  -3.4112  -3.3955
    -3.3730  -3.2675  -3.2364  -3.1862  -3.0162  -2.9384  -2.8810  -2.8337
    -2.6971  -2.6104  -2.5925  -2.5824  -2.5779  -2.5717  -2.4346  -2.4171
    -2.3385  -2.2717  -2.2497  -2.2074  -2.2032  -2.1683  -2.1415  -2.0957
    -2.0506  -2.0313  -2.0231  -1.8891  -1.8684  -1.7638  -1.7388  -1.6266
    -1.5461  -1.5438  -1.4931  -1.4837  -1.4657  -1.4261  -1.3261  -1.3120
    -1.3051  -1.2827  -1.2456  -1.1386  -1.0893  -1.0834  -1.0701  -1.0229
    -0.9572  -0.9184  -0.8226  -0.7675  -0.6130  -0.5901  -0.5716  -0.4824
    -0.3792  -0.2442  -0.0870  -0.0292   0.1291   0.2460   0.2597   1.6405
     1.6728   1.9831   1.9999   2.0625   2.0921   2.2024   2.2410   2.2841
     2.4270   2.4946   2.5233   2.5286   2.5395   2.6284   2.6465   2.6548
     2.7126   2.7969   2.8240   2.8360   2.9079   2.9967   3.0303   3.0961
     3.1030   3.1111   3.1586   3.1995   3.2054   3.2245   3.2371   3.2485
     3.2585   3.2861   3.3935   3.4295   3.4537   3.4634   3.5262   3.5828
     3.6502   3.6921   3.8049   3.9763   4.0129   4.0885   4.1779   4.3178
     4.3355   4.3897   4.5804   4.5969   4.8071   4.8358   5.0845   5.1639
     5.2435   5.3285   5.4777   5.5150   5.5254   5.5900   5.6757   5.7087
     5.7973   5.8625   5.8738   5.8839   5.9518   6.0386   6.0459   6.0706
     6.1424   6.2266   6.2402   6.2942   6.3757   6.5807   6.6331   6.7543
     6.8376   6.9961   7.0340   7.1530   7.3003   7.5725   7.9037   8.2512
     8.3086   8.6815   8.7930   8.8744   8.9350   9.0073   9.1775   9.2528
     9.3511   9.3812   9.5328

          k = 0.0000 0.0280 0.0000 ( 34717 PWs)   bands (ev):

   -57.6987 -57.6684 -57.3183 -57.2868 -57.2352 -57.1101 -57.0780 -57.0729
   -57.0546 -57.0426 -56.9907 -56.9600 -56.7315 -56.6989 -56.1491 -56.1186
   -34.1117 -33.9812 -33.9566 -33.8958 -33.8470 -33.8142 -33.7742 -33.6338
   -33.6145 -33.5828 -33.5449 -33.5407 -33.5235 -33.5036 -33.4956 -33.4872
   -33.4746 -33.4650 -33.4324 -33.3945 -33.3206 -33.2928 -33.2881 -33.2666
   -33.2624 -33.2557 -33.2534 -33.2422 -33.2406 -33.2388 -33.2384 -33.2209
   -33.2052 -33.1882 -33.1801 -33.1478 -33.1446 -32.9961 -32.9806 -32.9622
   -32.9166 -32.8366 -32.5436 -32.5021 -32.4796 -32.3674 -32.2881 -32.2010
   -20.3041 -17.9537 -17.7861 -17.5068 -17.4127 -17.3320 -17.2280 -17.0943
   -17.0383 -17.0007 -16.9956 -16.8883 -16.8225 -16.7645 -16.7105 -16.6923
   -16.6786 -16.6682 -16.6600 -16.6441 -16.5976 -16.4424 -16.3873 -16.3706
   -16.3515 -16.2999 -16.2144 -16.1768 -16.1560 -16.0135 -15.9699 -14.7460
   -14.6757 -11.4250  -7.2045  -5.4424  -5.3167  -5.2561  -5.1901  -5.1334
    -5.0712  -5.0504  -4.7662  -4.7055  -4.4385  -4.4030  -4.3965  -4.3147
    -4.3039  -4.1622  -4.1270  -4.1165  -4.0942  -4.0732  -4.0352  -4.0327
    -3.9682  -3.9641  -3.9527  -3.8943  -3.8560  -3.8494  -3.8408  -3.7687
    -3.7238  -3.7098  -3.6684  -3.6185  -3.5781  -3.5589  -3.4321  -3.3579
    -3.3091  -3.2377  -3.1988  -3.1052  -2.9370  -2.8739  -2.7467  -2.7273
    -2.6161  -2.6025  -2.5277  -2.5125  -2.4809  -2.4429  -2.4147  -2.4106
    -2.3893  -2.3648  -2.2906  -2.2795  -2.1707  -2.1450  -2.1389  -2.0973
    -2.0247  -2.0003  -1.9566  -1.8797  -1.8132  -1.7691  -1.7099  -1.6850
    -1.6457  -1.6284  -1.5667  -1.5284  -1.4841  -1.4412  -1.4384  -1.3989
    -1.3574  -1.2738  -1.2211  -1.2165  -1.1620  -1.0928  -1.0725  -1.0249
    -1.0118  -0.9071  -0.8697  -0.7937  -0.7637  -0.7092  -0.6109  -0.5943
    -0.3976  -0.2725  -0.0937  -0.0835   0.1440   0.1996   0.2263   1.7267
     1.7727   1.9836   2.0620   2.1273   2.1490   2.2157   2.2716   2.3102
     2.4216   2.4587   2.4968   2.5325   2.5832   2.6008   2.6275   2.6889
     2.7299   2.7676   2.7941   2.9092   2.9196   2.9482   2.9731   3.0076
     3.1081   3.1137   3.1321   3.1724   3.1899   3.2026   3.2553   3.3014
     3.3331   3.3684   3.4039   3.4704   3.5035   3.5496   3.5587   3.6467
     3.6620   3.6826   3.7685   3.9569   4.0309   4.1095   4.1886   4.2831
     4.3210   4.3942   4.5387   4.6837   4.8605   4.9223   5.0882   5.2557
     5.3014   5.3330   5.5347   5.5663   5.6003   5.6225   5.6829   5.7184
     5.7818   5.7898   5.8488   5.8751   5.8965   5.9456   6.0672   6.1205
     6.1473   6.1541   6.1747   6.2045   6.2727   6.5561   6.5998   6.6926
     6.8419   6.9440   6.9720   7.0808   7.2291   7.5763   7.9081   8.0038
     8.0588   8.4517   8.5608   8.8365   8.9072   8.9971   9.0874   9.1270
     9.2699   9.4348   9.4883

          k = 0.0000 0.0560 0.0000 ( 34721 PWs)   bands (ev):

   -57.6923 -57.6748 -57.3117 -57.2934 -57.2344 -57.1040 -57.0841 -57.0666
   -57.0554 -57.0491 -56.9842 -56.9665 -56.7249 -56.7055 -56.1427 -56.1251
   -34.0419 -33.9759 -33.9616 -33.8787 -33.8472 -33.8316 -33.7760 -33.5989
   -33.5760 -33.5749 -33.5378 -33.5303 -33.5090 -33.5070 -33.4798 -33.4749
   -33.4593 -33.4295 -33.4218 -33.3750 -33.3194 -33.3155 -33.3154 -33.3041
   -33.2885 -33.2788 -33.2703 -33.2671 -33.2560 -33.2493 -33.2368 -33.2347
   -33.2131 -33.2012 -33.1736 -33.1682 -33.1296 -32.9911 -32.9770 -32.9655
   -32.9295 -32.9063 -32.4973 -32.4844 -32.4729 -32.3509 -32.3050 -32.2751
   -20.3038 -17.7826 -17.6275 -17.3755 -17.2788 -17.2632 -17.2219 -17.1693
   -17.1390 -16.9654 -16.9555 -16.9211 -16.8765 -16.8230 -16.7914 -16.7278
   -16.7186 -16.6870 -16.6285 -16.5995 -16.5431 -16.5078 -16.4263 -16.3806
   -16.3655 -16.3043 -16.2434 -16.1979 -16.1596 -16.1141 -16.0428 -14.7642
   -14.7262 -11.4242  -7.2034  -5.4095  -5.2013  -5.0788  -5.0407  -4.9273
    -4.8611  -4.8275  -4.5644  -4.5082  -4.4759  -4.4205  -4.4119  -4.3694
    -4.3343  -4.2624  -4.2377  -4.2145  -4.1987  -4.1894  -4.1587  -4.0780
    -4.0606  -4.0087  -3.9906  -3.9716  -3.9331  -3.8943  -3.8595  -3.8199
    -3.7999  -3.7337  -3.6382  -3.5883  -3.4361  -3.4295  -3.3246  -3.2706
    -3.2417  -3.2136  -3.1942  -3.0842  -2.8926  -2.8463  -2.8394  -2.8014
    -2.7245  -2.6708  -2.5500  -2.4758  -2.4460  -2.3248  -2.3186  -2.3138
    -2.3063  -2.2521  -2.2099  -2.1821  -2.1502  -2.1203  -2.0345  -2.0132
    -1.9639  -1.9505  -1.9204  -1.9075  -1.8861  -1.8520  -1.8197  -1.7854
    -1.7479  -1.6968  -1.6281  -1.5448  -1.5302  -1.5126  -1.4588  -1.4227
    -1.3834  -1.3673  -1.3531  -1.2935  -1.2420  -1.2199  -1.1584  -1.1054
    -1.0853  -1.0264  -0.9264  -0.8940  -0.8537  -0.7877  -0.7662  -0.6624
    -0.5899  -0.4661  -0.2450   0.0890   0.1412   0.1763   0.1830   1.8623
     2.0223   2.0946   2.1068   2.2065   2.2316   2.2668   2.3634   2.3863
     2.3935   2.4083   2.4312   2.4735   2.5009   2.5347   2.6713   2.6923
     2.7307   2.7726   2.8275   2.9006   2.9124   2.9350   2.9690   2.9700
     3.0121   3.0956   3.1341   3.1541   3.2471   3.2584   3.2831   3.3268
     3.3650   3.3829   3.4379   3.5345   3.5407   3.6332   3.6738   3.7239
     3.7570   3.8206   3.8550   3.8876   3.9284   4.1276   4.1389   4.1559
     4.3227   4.3732   4.5613   4.9032   5.0126   5.0566   5.1716   5.3760
     5.3791   5.4752   5.5149   5.5465   5.6447   5.7196   5.7217   5.7303
     5.7765   5.7847   5.7971   5.8532   5.8824   5.9457   5.9745   5.9892
     5.9983   6.0519   6.1529   6.1682   6.3022   6.3728   6.4091   6.6147
     6.6565   6.7787   6.8670   7.0407   7.2143   7.3336   7.4440   7.7229
     8.0759   8.1965   8.3157   8.6152   8.8819   8.9868   9.3136   9.3302
     9.4275   9.4346   9.5341

          k = 0.0000-0.0840 0.0000 ( 34678 PWs)   bands (ev):

   -57.6837 -57.6835 -57.3042 -57.3009 -57.2340 -57.0985 -57.0896 -57.0579
   -57.0578 -57.0559 -56.9759 -56.9749 -56.7180 -56.7125 -56.1339 -56.1339
   -33.9688 -33.9686 -33.9454 -33.9453 -33.8553 -33.8552 -33.6891 -33.6651
   -33.5690 -33.5656 -33.5318 -33.5210 -33.5167 -33.4801 -33.4564 -33.4272
   -33.4166 -33.4101 -33.3778 -33.3775 -33.3659 -33.3497 -33.3438 -33.3271
   -33.3258 -33.2874 -33.2807 -33.2785 -33.2717 -33.2706 -33.2352 -33.2335
   -33.2186 -33.2168 -33.1667 -33.1659 -33.0524 -33.0316 -32.9740 -32.9682
   -32.9435 -32.9403 -32.4908 -32.4908 -32.3750 -32.3749 -32.3279 -32.3279
   -20.3037 -17.5721 -17.5082 -17.4127 -17.3924 -17.2321 -17.1784 -17.0686
   -17.0648 -17.0189 -17.0063 -16.9925 -16.8751 -16.8419 -16.8418 -16.8035
   -16.7968 -16.5994 -16.5973 -16.5292 -16.5267 -16.4911 -16.4897 -16.4079
   -16.4057 -16.2658 -16.2637 -16.2037 -16.1996 -16.1352 -16.1051 -14.7630
   -14.7628 -11.4238  -7.2029  -5.4009  -5.2072  -4.8028  -4.7356  -4.7345
    -4.6587  -4.6453  -4.6405  -4.6046  -4.5759  -4.5131  -4.5052  -4.4035
    -4.3762  -4.3419  -4.3403  -4.3112  -4.2980  -4.2828  -4.2775  -4.0579
    -4.0358  -4.0264  -4.0137  -3.9953  -3.9458  -3.8128  -3.7964  -3.7891
    -3.7183  -3.6975  -3.6429  -3.5079  -3.4762  -3.3423  -3.3289  -3.2325
    -3.1413  -3.1190  -3.0467  -3.0219  -2.9657  -2.9270  -2.8069  -2.7914
    -2.7005  -2.6963  -2.5796  -2.5421  -2.5159  -2.4978  -2.4807  -2.4500
    -2.4414  -2.4206  -2.3330  -2.2479  -2.0308  -2.0098  -1.9706  -1.9438
    -1.9302  -1.8315  -1.8252  -1.8118  -1.7847  -1.7475  -1.7337  -1.7029
    -1.6680  -1.6435  -1.6171  -1.5617  -1.5190  -1.4903  -1.4838  -1.4562
    -1.4277  -1.4201  -1.4125  -1.3850  -1.3622  -1.3294  -1.2238  -1.1909
    -1.1033  -1.0759  -1.0130  -0.9807  -0.9732  -0.9627  -0.9465  -0.5270
    -0.5221  -0.4599  -0.4458   0.1413   0.1413   0.1840   0.1857   2.0367
     2.0399   2.2156   2.2176   2.2183   2.2336   2.2816   2.3367   2.3448
     2.3449   2.3694   2.3801   2.5246   2.5514   2.5524   2.5979   2.6613
     2.7122   2.7344   2.7473   2.8885   2.9197   2.9870   2.9945   3.0541
     3.0553   3.0991   3.1098   3.1769   3.2149   3.2302   3.2429   3.4008
     3.4234   3.4345   3.4372   3.4701   3.4808   3.7219   3.7627   3.8010
     3.8045   3.8291   3.9063   3.9287   3.9654   4.0712   4.0735   4.1235
     4.1242   4.4142   4.6692   4.9575   4.9978   5.2566   5.3282   5.4544
     5.4861   5.5061   5.5061   5.5647   5.6034   5.6437   5.6626   5.6679
     5.7959   5.8012   5.8231   5.8490   5.8593   5.8641   5.8797   5.9710
     6.0179   6.0559   6.0700   6.1565   6.1940   6.4052   6.4658   6.5632
     6.6026   6.7448   6.7733   6.9793   7.0296   7.1017   7.3261   7.7030
     7.8737   8.1571   8.4098   8.7629   8.8125   8.8430   9.1341   9.6948
     9.6999   9.7392   9.7955

          k = 0.0253 0.0000 0.0000 ( 34707 PWs)   bands (ev):

   -57.7010 -57.6660 -57.3206 -57.2844 -57.2356 -57.1123 -57.0759 -57.0752
   -57.0541 -57.0403 -56.9931 -56.9576 -56.7340 -56.6964 -56.1515 -56.1162
   -34.1374 -33.9832 -33.9547 -33.9013 -33.8730 -33.8077 -33.7473 -33.6572
   -33.6213 -33.6094 -33.5706 -33.5402 -33.5353 -33.5115 -33.4887 -33.4778
   -33.4666 -33.4573 -33.4344 -33.3945 -33.3266 -33.2947 -33.2741 -33.2651
   -33.2613 -33.2607 -33.2469 -33.2439 -33.2427 -33.2326 -33.2322 -33.2149
   -33.1832 -33.1830 -33.1777 -33.1439 -33.1214 -33.0000 -32.9843 -32.9600
   -32.9116 -32.8088 -32.5692 -32.5049 -32.4772 -32.3735 -32.2819 -32.1736
   -20.3040 -17.9857 -17.8038 -17.5175 -17.4360 -17.3591 -17.2613 -17.1466
   -17.0949 -16.9782 -16.9408 -16.8742 -16.8212 -16.8092 -16.7924 -16.7827
   -16.7329 -16.6950 -16.5595 -16.5374 -16.4565 -16.4554 -16.4068 -16.3724
   -16.3423 -16.3150 -16.1859 -16.1679 -16.1537 -15.9825 -15.9327 -14.7348
   -14.6521 -11.4241  -7.2022  -5.4720  -5.3085  -5.2664  -5.1847  -5.1004
    -5.0470  -5.0195  -4.8364  -4.8147  -4.6207  -4.4716  -4.4379  -4.3334
    -4.3140  -4.3041  -4.2508  -4.1007  -4.0396  -4.0357  -3.9993  -3.9471
    -3.9401  -3.9124  -3.8330  -3.8031  -3.7545  -3.7217  -3.6973  -3.6947
    -3.6233  -3.6009  -3.5731  -3.5655  -3.5191  -3.4493  -3.3276  -3.3112
    -3.2534  -3.2331  -3.1797  -3.1090  -3.0364  -2.9792  -2.9257  -2.8982
    -2.7510  -2.6771  -2.6350  -2.6031  -2.5815  -2.5324  -2.5223  -2.5061
    -2.4346  -2.3379  -2.3249  -2.2392  -2.2236  -2.1843  -2.1605  -2.0734
    -2.0122  -2.0024  -1.9656  -1.8852  -1.8520  -1.7557  -1.7425  -1.6532
    -1.5885  -1.5847  -1.5408  -1.4661  -1.4608  -1.3693  -1.3602  -1.3473
    -1.3398  -1.2931  -1.2763  -1.1929  -1.1298  -1.1198  -1.0807  -1.0494
    -0.9753  -0.9178  -0.8325  -0.7882  -0.7769  -0.6537  -0.6457  -0.5531
    -0.4239  -0.2386  -0.1182  -0.0563   0.1150   0.2033   0.2041   1.6597
     1.7229   1.9991   2.0688   2.1461   2.2202   2.2351   2.2672   2.3756
     2.3825   2.4550   2.5017   2.5195   2.5391   2.5758   2.5948   2.6336
     2.6532   2.7314   2.7548   2.8641   2.8810   2.9669   3.0277   3.1007
     3.1190   3.1409   3.1601   3.2009   3.2056   3.2512   3.2673   3.3376
     3.3743   3.3991   3.4481   3.4704   3.5335   3.5573   3.5891   3.5976
     3.6612   3.7269   3.7443   3.9105   3.9985   4.0919   4.1721   4.2733
     4.3722   4.3923   4.5509   4.6686   4.8605   4.9082   4.9233   5.0676
     5.1188   5.1435   5.1855   5.3484   5.5676   5.6179   5.6917   5.8639
     5.8802   5.9220   5.9570   6.0275   6.0773   6.1137   6.1577   6.2068
     6.2164   6.2492   6.2556   6.3055   6.4465   6.5179   6.6366   6.6607
     6.8163   6.8651   7.0320   7.1451   7.3001   7.7489   7.8518   8.0815
     8.3200   8.3387   8.4293   8.6847   8.8440   8.9657   9.1467   9.3416
     9.3618   9.4561   9.4915

          k = 0.0253 0.0280 0.0000 ( 34687 PWs)   bands (ev):

   -57.6987 -57.6684 -57.3183 -57.2868 -57.2352 -57.1100 -57.0780 -57.0730
   -57.0546 -57.0426 -56.9907 -56.9600 -56.7315 -56.6989 -56.1491 -56.1186
   -34.1120 -33.9812 -33.9566 -33.8951 -33.8471 -33.8141 -33.7743 -33.6345
   -33.6146 -33.5845 -33.5452 -33.5374 -33.5248 -33.5191 -33.4959 -33.4753
   -33.4689 -33.4638 -33.4324 -33.3877 -33.3205 -33.2930 -33.2859 -33.2666
   -33.2625 -33.2571 -33.2559 -33.2501 -33.2401 -33.2388 -33.2376 -33.2197
   -33.2053 -33.1882 -33.1801 -33.1478 -33.1446 -32.9962 -32.9827 -32.9615
   -32.9166 -32.8366 -32.5435 -32.5030 -32.4790 -32.3674 -32.2881 -32.2010
   -20.3039 -17.9254 -17.7471 -17.4663 -17.3863 -17.3120 -17.2348 -17.1304
   -17.1006 -17.0087 -16.9654 -16.8614 -16.8324 -16.8087 -16.7870 -16.7727
   -16.7150 -16.7029 -16.6030 -16.5830 -16.5088 -16.4779 -16.3844 -16.3679
   -16.3589 -16.3318 -16.2030 -16.1764 -16.1558 -16.0139 -15.9697 -14.7450
   -14.6757 -11.4237  -7.2016  -5.4457  -5.2443  -5.1891  -5.1835  -5.0240
    -4.9686  -4.9393  -4.7612  -4.7025  -4.5649  -4.4055  -4.3737  -4.3478
    -4.2622  -4.2556  -4.1892  -4.1213  -4.0889  -4.0673  -4.0361  -4.0228
    -3.9786  -3.9450  -3.9154  -3.8704  -3.8246  -3.8125  -3.7866  -3.7218
    -3.7002  -3.6668  -3.6176  -3.6076  -3.5433  -3.5276  -3.3528  -3.2899
    -3.2538  -3.2175  -3.1507  -3.0746  -2.9842  -2.9524  -2.7858  -2.7076
    -2.6825  -2.6383  -2.6129  -2.5372  -2.5059  -2.4568  -2.4503  -2.4233
    -2.4074  -2.3890  -2.3428  -2.3048  -2.2182  -2.1806  -2.1183  -2.1030
    -2.0692  -1.9971  -1.9516  -1.8942  -1.8672  -1.8289  -1.7649  -1.6771
    -1.6476  -1.6191  -1.5913  -1.5647  -1.5116  -1.4646  -1.4427  -1.4036
    -1.3470  -1.3304  -1.2723  -1.2580  -1.2104  -1.1100  -1.0998  -1.0632
    -1.0131  -0.8895  -0.8418  -0.8377  -0.7673  -0.7415  -0.6993  -0.6612
    -0.4348  -0.2834  -0.1367  -0.0878   0.1472   0.1765   0.1867   1.7188
     1.8429   2.0143   2.0961   2.1931   2.2417   2.2795   2.3139   2.3943
     2.4154   2.4644   2.4864   2.5220   2.5307   2.5496   2.5877   2.6716
     2.7027   2.7249   2.7846   2.8040   2.9275   2.9840   3.0073   3.0320
     3.1035   3.1315   3.1435   3.1701   3.2061   3.2394   3.3413   3.3712
     3.4039   3.4337   3.4602   3.5071   3.5496   3.5660   3.6337   3.6589
     3.6711   3.7053   3.7469   3.8919   3.9907   4.1341   4.1832   4.2494
     4.3046   4.4498   4.5073   4.7636   4.9263   4.9484   4.9906   5.0759
     5.1575   5.1730   5.2204   5.3844   5.6412   5.6791   5.7297   5.7756
     5.8522   5.8632   5.8690   6.0043   6.0686   6.0829   6.1165   6.1421
     6.1944   6.2064   6.2170   6.2327   6.4266   6.5246   6.6086   6.6567
     6.7793   6.8634   6.9611   7.1494   7.2245   7.5013   7.9314   8.0291
     8.0925   8.2391   8.4467   8.5707   8.6458   8.7686   8.9384   9.2418
     9.3562   9.4646   9.5063

          k = 0.0253 0.0560 0.0000 ( 34699 PWs)   bands (ev):

   -57.6923 -57.6748 -57.3117 -57.2934 -57.2344 -57.1039 -57.0841 -57.0666
   -57.0554 -57.0491 -56.9842 -56.9665 -56.7249 -56.7055 -56.1427 -56.1251
   -34.0422 -33.9759 -33.9616 -33.8782 -33.8473 -33.8314 -33.7760 -33.5989
   -33.5766 -33.5749 -33.5379 -33.5283 -33.5115 -33.5103 -33.4799 -33.4752
   -33.4584 -33.4296 -33.4165 -33.3696 -33.3199 -33.3162 -33.3110 -33.3040
   -33.2887 -33.2792 -33.2703 -33.2660 -33.2561 -33.2515 -33.2408 -33.2370
   -33.2133 -33.2019 -33.1736 -33.1680 -33.1294 -32.9911 -32.9784 -32.9654
   -32.9295 -32.9063 -32.4980 -32.4841 -32.4728 -32.3509 -32.3050 -32.2751
   -20.3036 -17.7591 -17.5917 -17.3462 -17.2669 -17.2478 -17.1963 -17.1701
   -17.1422 -16.9980 -16.9730 -16.8830 -16.8786 -16.8325 -16.7994 -16.7747
   -16.7504 -16.6733 -16.6263 -16.6078 -16.5818 -16.5332 -16.4294 -16.4153
   -16.3588 -16.2872 -16.2366 -16.1972 -16.1593 -16.1149 -16.0423 -14.7636
   -14.7264 -11.4228  -7.2005  -5.4169  -5.2004  -5.0344  -4.9509  -4.8157
    -4.7593  -4.7177  -4.5607  -4.5009  -4.4930  -4.4165  -4.3963  -4.3419
    -4.2734  -4.2338  -4.2180  -4.1947  -4.1504  -4.1437  -4.1088  -4.0640
    -4.0352  -4.0155  -3.9961  -3.9382  -3.9268  -3.8777  -3.8621  -3.8241
    -3.7768  -3.7178  -3.6571  -3.5742  -3.4752  -3.3954  -3.3201  -3.2841
    -3.2397  -3.2262  -3.1815  -3.0149  -2.9368  -2.8661  -2.8319  -2.7822
    -2.7596  -2.6482  -2.5949  -2.5119  -2.4910  -2.4402  -2.3952  -2.3682
    -2.3453  -2.3268  -2.2911  -2.2659  -2.1923  -2.1433  -2.1301  -2.0424
    -2.0144  -2.0121  -1.9493  -1.9409  -1.9056  -1.8640  -1.8369  -1.8149
    -1.7476  -1.7060  -1.6813  -1.6401  -1.5756  -1.5407  -1.4970  -1.4783
    -1.4334  -1.3760  -1.3414  -1.3051  -1.2261  -1.2080  -1.1328  -1.1080
    -1.0623  -1.0155  -0.9149  -0.8779  -0.8239  -0.8021  -0.7469  -0.6829
    -0.6094  -0.4680  -0.2588   0.0899   0.1265   0.1536   0.1861   1.8597
     2.0460   2.1293   2.1768   2.2287   2.2689   2.3036   2.3447   2.3826
     2.4232   2.4596   2.4780   2.5050   2.5182   2.5811   2.6909   2.7186
     2.7362   2.7741   2.8211   2.8373   2.9012   2.9495   2.9718   2.9831
     3.0245   3.0312   3.1534   3.2046   3.2836   3.3271   3.3375   3.3804
     3.4047   3.4365   3.4579   3.5379   3.5573   3.6281   3.6530   3.7314
     3.7899   3.8168   3.8591   3.8978   3.9023   4.0688   4.1146   4.1632
     4.3409   4.3806   4.6128   4.9619   5.0095   5.1208   5.1388   5.1557
     5.2596   5.2866   5.3106   5.4340   5.5070   5.5592   5.6340   5.7556
     5.8208   5.8475   5.8888   5.9318   5.9589   6.0004   6.0453   6.0595
     6.1334   6.1545   6.2197   6.3246   6.3772   6.4020   6.4804   6.6407
     6.6883   6.7944   6.8459   7.0338   7.1508   7.3628   7.4825   7.5892
     7.9754   8.1732   8.3522   8.5163   8.6229   8.8403   9.0367   9.1095
     9.1703   9.4922   9.6253

          k = 0.0253-0.0840 0.0000 ( 34722 PWs)   bands (ev):

   -57.6837 -57.6835 -57.3042 -57.3009 -57.2340 -57.0985 -57.0896 -57.0579
   -57.0578 -57.0559 -56.9759 -56.9749 -56.7180 -56.7125 -56.1339 -56.1339
   -33.9688 -33.9686 -33.9456 -33.9455 -33.8550 -33.8548 -33.6892 -33.6652
   -33.5690 -33.5657 -33.5323 -33.5208 -33.5165 -33.4801 -33.4556 -33.4274
   -33.4187 -33.4125 -33.3787 -33.3786 -33.3667 -33.3428 -33.3369 -33.3257
   -33.3244 -33.2872 -33.2804 -33.2788 -33.2719 -33.2691 -33.2388 -33.2373
   -33.2202 -33.2185 -33.1667 -33.1659 -33.0524 -33.0316 -32.9746 -32.9690
   -32.9434 -32.9403 -32.4911 -32.4910 -32.3750 -32.3749 -32.3279 -32.3279
   -20.3035 -17.5587 -17.4901 -17.3845 -17.3660 -17.2161 -17.1574 -17.0618
   -17.0525 -17.0071 -16.9828 -16.9784 -16.8914 -16.8815 -16.8718 -16.7882
   -16.7829 -16.6377 -16.6319 -16.5718 -16.5680 -16.5249 -16.5235 -16.3915
   -16.3901 -16.2573 -16.2550 -16.2018 -16.1981 -16.1357 -16.1045 -14.7629
   -14.7627 -11.4225  -7.2000  -5.4083  -5.2066  -4.8029  -4.6477  -4.6377
    -4.6265  -4.5511  -4.5503  -4.5343  -4.5273  -4.4216  -4.4120  -4.3725
    -4.3493  -4.3191  -4.3007  -4.2874  -4.2657  -4.2339  -4.2302  -4.0454
    -4.0414  -4.0173  -3.9861  -3.9674  -3.9232  -3.8506  -3.8448  -3.8187
    -3.7408  -3.6639  -3.6431  -3.4171  -3.4029  -3.3501  -3.3216  -3.2243
    -3.1219  -3.0972  -3.0627  -3.0535  -3.0121  -2.9654  -2.9211  -2.8970
    -2.8115  -2.8074  -2.6253  -2.6049  -2.5797  -2.5615  -2.5327  -2.4687
    -2.4373  -2.3450  -2.3177  -2.2773  -2.1242  -2.0760  -2.0577  -2.0119
    -1.9254  -1.9230  -1.8812  -1.8694  -1.8591  -1.8188  -1.8084  -1.7980
    -1.7699  -1.7319  -1.6888  -1.6603  -1.6234  -1.6102  -1.5974  -1.4788
    -1.4041  -1.3912  -1.2813  -1.2643  -1.2444  -1.2292  -1.1885  -1.1329
    -1.0858  -1.0542  -1.0462  -1.0154  -0.9618  -0.8931  -0.8812  -0.5401
    -0.5323  -0.4603  -0.4478   0.1151   0.1152   0.1945   0.1962   2.0484
     2.0507   2.2147   2.2309   2.2342   2.2372   2.2752   2.3134   2.4211
     2.4232   2.4380   2.4401   2.5556   2.5570   2.5751   2.6524   2.7189
     2.7532   2.8177   2.8265   2.8773   2.8970   2.9354   2.9454   3.0230
     3.0370   3.0827   3.1120   3.2184   3.2663   3.2871   3.3039   3.4200
     3.4256   3.4494   3.4668   3.4914   3.5195   3.7115   3.7372   3.8051
     3.8232   3.8350   3.8832   3.9110   3.9176   4.0788   4.0813   4.1151
     4.1154   4.4697   4.7109   4.9820   5.0212   5.2667   5.2995   5.3077
     5.3256   5.3575   5.3825   5.4236   5.4761   5.5066   5.5507   5.6344
     5.6446   5.7601   5.8309   5.8733   5.8889   6.0125   6.0737   6.0858
     6.1301   6.1830   6.2159   6.2791   6.2995   6.4672   6.5191   6.5936
     6.6359   6.7859   6.7955   6.9893   7.0325   7.1224   7.3829   7.5697
     7.7444   8.0000   8.2703   8.7187   8.7379   8.9697   8.9912   9.2688
     9.3459   9.4480   9.5340

          k = 0.0506 0.0000 0.0000 ( 34729 PWs)   bands (ev):

   -57.7010 -57.6660 -57.3206 -57.2844 -57.2356 -57.1121 -57.0758 -57.0754
   -57.0541 -57.0403 -56.9931 -56.9576 -56.7340 -56.6964 -56.1515 -56.1162
   -34.1381 -33.9832 -33.9548 -33.8999 -33.8732 -33.8078 -33.7473 -33.6587
   -33.6213 -33.6128 -33.5711 -33.5522 -33.5323 -33.5117 -33.4886 -33.4641
   -33.4614 -33.4565 -33.4345 -33.3778 -33.3264 -33.2949 -33.2735 -33.2698
   -33.2652 -33.2641 -33.2639 -33.2401 -33.2375 -33.2327 -33.2323 -33.2144
   -33.1831 -33.1828 -33.1783 -33.1439 -33.1215 -33.0000 -32.9894 -32.9582
   -32.9116 -32.8089 -32.5691 -32.5070 -32.4761 -32.3735 -32.2819 -32.1737
   -20.3036 -17.9197 -17.7089 -17.4187 -17.3934 -17.2859 -17.2687 -17.2395
   -17.1424 -16.9813 -16.9706 -16.9400 -16.8977 -16.8893 -16.8713 -16.8480
   -16.7540 -16.7032 -16.5395 -16.4588 -16.4524 -16.4131 -16.4081 -16.3623
   -16.3567 -16.3299 -16.1781 -16.1628 -16.1563 -15.9826 -15.9323 -14.7326
   -14.6518 -11.4216  -7.1966  -5.4802  -5.2948  -5.1827  -4.9822  -4.9163
    -4.8051  -4.8008  -4.7743  -4.7513  -4.7166  -4.6354  -4.5276  -4.4673
    -4.4219  -4.2507  -4.1347  -4.0425  -4.0279  -4.0223  -3.9768  -3.9326
    -3.9141  -3.8312  -3.7910  -3.7643  -3.7553  -3.6615  -3.6400  -3.6165
    -3.5586  -3.5564  -3.5439  -3.5292  -3.5025  -3.2858  -3.2804  -3.2659
    -3.2422  -3.2053  -3.1588  -3.1130  -2.9974  -2.9446  -2.8854  -2.8542
    -2.8298  -2.7810  -2.7595  -2.6811  -2.6260  -2.6141  -2.5794  -2.5497
    -2.4655  -2.4622  -2.4298  -2.3683  -2.3162  -2.2089  -2.2011  -2.1237
    -2.0891  -1.9941  -1.9419  -1.9346  -1.8455  -1.8204  -1.8036  -1.7167
    -1.6390  -1.5774  -1.5606  -1.5576  -1.4890  -1.4809  -1.4459  -1.4030
    -1.3550  -1.3362  -1.3068  -1.2137  -1.1218  -1.1085  -1.0911  -1.0742
    -0.9922  -0.9570  -0.8914  -0.8182  -0.8121  -0.7962  -0.7600  -0.5346
    -0.5267  -0.2706  -0.2258  -0.0495   0.0907   0.1168   0.1352   1.6397
     1.8161   1.9980   2.0940   2.0981   2.1766   2.1940   2.2783   2.2911
     2.4511   2.4549   2.4674   2.5566   2.5608   2.5823   2.6231   2.6757
     2.7047   2.8195   2.8676   2.8705   2.8962   2.9205   3.0804   3.1049
     3.1453   3.1611   3.1981   3.1987   3.2844   3.2858   3.3286   3.4055
     3.4357   3.4452   3.4973   3.5504   3.5740   3.5835   3.6969   3.7082
     3.7564   3.7599   3.7962   3.8907   3.9216   4.0782   4.1551   4.2071
     4.3451   4.4632   4.5719   4.6483   4.7656   4.7950   4.8576   4.8867
[...]
    -1.3002  -1.2695  -1.2527  -1.1922  -1.1541  -1.0339  -1.0223  -1.0141
    -0.9912  -0.9515  -0.9082  -0.8409  -0.7595  -0.7038  -0.6496  -0.5963
    -0.5922  -0.5374  -0.5209   0.0641   0.0642   0.2088   0.2105   2.1513
     2.1521   2.1987   2.2006   2.2355   2.2363   2.2635   2.2950   2.4856
     2.4912   2.5227   2.5524   2.6063   2.6140   2.6772   2.6792   2.6883
     2.6895   2.8412   2.9070   2.9804   2.9953   3.0315   3.0391   3.0953
     3.2170   3.2468   3.2697   3.3301   3.3709   3.3877   3.4421   3.4899
     3.4975   3.5199   3.5462   3.5781   3.6008   3.6769   3.6967   3.7420
     3.8317   3.8880   3.9042   3.9508   3.9511   4.0940   4.1009   4.1097
     4.1101   4.6106   4.7810   4.7850   4.7996   4.8677   4.9179   4.9230
     4.9391   4.9814   5.0238   5.2462   5.3372   5.3560   5.3668   5.7286
     5.7963   5.9071   5.9243   5.9768   6.0351   6.1364   6.3007   6.3467
     6.3619   6.3718   6.4073   6.5724   6.6207   6.6631   6.6632   6.7002
     6.7604   6.8432   6.8441   6.8503   6.8512   7.3598   7.4110   7.5269
     7.6633   7.8231   8.0089   8.1712   8.2214   8.3169   8.3833   8.8269
     8.9106   9.0467   9.0809

          k =-0.0253 0.0280 0.0000 ( 34687 PWs)   bands (ev):

   -57.6987 -57.6685 -57.3182 -57.2867 -57.2352 -57.1100 -57.0780 -57.0730
   -57.0545 -57.0426 -56.9907 -56.9599 -56.7315 -56.6989 -56.1494 -56.1188
   -34.1121 -33.9813 -33.9567 -33.8952 -33.8471 -33.8142 -33.7743 -33.6344
   -33.6145 -33.5844 -33.5452 -33.5374 -33.5248 -33.5190 -33.4958 -33.4752
   -33.4688 -33.4638 -33.4324 -33.3877 -33.3205 -33.2930 -33.2859 -33.2666
   -33.2622 -33.2571 -33.2560 -33.2501 -33.2401 -33.2387 -33.2376 -33.2196
   -33.2053 -33.1882 -33.1801 -33.1477 -33.1445 -32.9961 -32.9826 -32.9614
   -32.9165 -32.8366 -32.5438 -32.5032 -32.4793 -32.3676 -32.2883 -32.2012
   -20.3039 -17.9254 -17.7470 -17.4663 -17.3863 -17.3120 -17.2348 -17.1303
   -17.1008 -17.0084 -16.9654 -16.8619 -16.8324 -16.8096 -16.7866 -16.7726
   -16.7149 -16.7031 -16.6028 -16.5827 -16.5089 -16.4780 -16.3844 -16.3681
   -16.3590 -16.3318 -16.2031 -16.1764 -16.1557 -16.0140 -15.9697 -14.7446
   -14.6752 -11.4237  -7.2016  -5.4456  -5.2441  -5.1891  -5.1835  -5.0244
    -4.9687  -4.9396  -4.7613  -4.7032  -4.5647  -4.4052  -4.3737  -4.3481
    -4.2635  -4.2523  -4.1905  -4.1197  -4.0935  -4.0667  -4.0387  -4.0229
    -3.9773  -3.9433  -3.9168  -3.8714  -3.8247  -3.8139  -3.7868  -3.7218
    -3.7028  -3.6655  -3.6174  -3.6068  -3.5419  -3.5266  -3.3559  -3.2858
    -3.2538  -3.2178  -3.1490  -3.0731  -2.9853  -2.9487  -2.7847  -2.7072
    -2.6816  -2.6390  -2.6127  -2.5348  -2.5068  -2.4541  -2.4498  -2.4250
    -2.4083  -2.3870  -2.3422  -2.3038  -2.2202  -2.1779  -2.1241  -2.1063
    -2.0649  -1.9934  -1.9532  -1.8977  -1.8656  -1.8291  -1.7455  -1.7101
    -1.6554  -1.6017  -1.5956  -1.5627  -1.5185  -1.4730  -1.4388  -1.3950
    -1.3470  -1.3351  -1.2835  -1.2452  -1.1991  -1.1130  -1.1009  -1.0613
    -1.0129  -0.8947  -0.8431  -0.8328  -0.7581  -0.7411  -0.7114  -0.6620
    -0.4359  -0.2834  -0.1373  -0.0875   0.1474   0.1769   0.1871   1.7187
     1.8429   2.0142   2.0976   2.1928   2.2431   2.2827   2.3166   2.4013
     2.4133   2.4474   2.4834   2.5275   2.5305   2.5446   2.6051   2.6661
     2.7029   2.7365   2.7731   2.8094   2.9361   2.9833   3.0016   3.0246
     3.1046   3.1330   3.1440   3.1718   3.2063   3.2367   3.3448   3.3702
     3.4016   3.4174   3.4618   3.5036   3.5586   3.5679   3.6345   3.6588
     3.6708   3.7063   3.7464   3.8907   3.9894   4.1360   4.1832   4.2499
     4.3046   4.4502   4.5075   4.7652   4.9343   4.9479   4.9812   5.0758
     5.1563   5.1726   5.2203   5.3832   5.6428   5.6727   5.7269   5.7852
     5.8503   5.8630   5.8701   6.0032   6.0713   6.0758   6.1211   6.1428
     6.1945   6.2053   6.2135   6.2412   6.4265   6.5218   6.6085   6.6616
     6.7826   6.8567   6.9610   7.1495   7.2248   7.4925   7.9303   8.0247
     8.0924   8.2459   8.4345   8.5766   8.6446   8.7781   8.9378   9.2641
     9.3541   9.4579   9.5046

          k =-0.0253 0.0560 0.0000 ( 34699 PWs)   bands (ev):

   -57.6924 -57.6749 -57.3117 -57.2933 -57.2343 -57.1039 -57.0841 -57.0666
   -57.0554 -57.0490 -56.9842 -56.9664 -56.7249 -56.7055 -56.1429 -56.1253
   -34.0423 -33.9760 -33.9617 -33.8783 -33.8474 -33.8315 -33.7760 -33.5989
   -33.5765 -33.5749 -33.5379 -33.5282 -33.5115 -33.5102 -33.4798 -33.4752
   -33.4583 -33.4295 -33.4164 -33.3696 -33.3198 -33.3162 -33.3110 -33.3039
   -33.2887 -33.2792 -33.2703 -33.2659 -33.2560 -33.2517 -33.2408 -33.2370
   -33.2131 -33.2019 -33.1735 -33.1680 -33.1294 -32.9911 -32.9783 -32.9654
   -32.9295 -32.9062 -32.4982 -32.4843 -32.4730 -32.3511 -32.3052 -32.2753
   -20.3037 -17.7592 -17.5917 -17.3462 -17.2669 -17.2479 -17.1965 -17.1701
   -17.1420 -16.9980 -16.9729 -16.8831 -16.8788 -16.8331 -16.7998 -16.7746
   -16.7502 -16.6731 -16.6261 -16.6074 -16.5818 -16.5335 -16.4294 -16.4154
   -16.3589 -16.2872 -16.2366 -16.1973 -16.1593 -16.1149 -16.0423 -14.7631
   -14.7260 -11.4229  -7.2005  -5.4168  -5.2004  -5.0340  -4.9509  -4.8163
    -4.7594  -4.7178  -4.5607  -4.4991  -4.4936  -4.4161  -4.3966  -4.3468
    -4.2737  -4.2348  -4.2175  -4.1946  -4.1502  -4.1431  -4.1105  -4.0641
    -4.0344  -4.0128  -3.9973  -3.9393  -3.9265  -3.8758  -3.8658  -3.8246
    -3.7764  -3.7160  -3.6580  -3.5742  -3.4749  -3.3954  -3.3275  -3.2831
    -3.2404  -3.2191  -3.1746  -3.0156  -2.9348  -2.8673  -2.8284  -2.7857
    -2.7570  -2.6479  -2.5941  -2.5124  -2.4896  -2.4418  -2.3963  -2.3653
    -2.3455  -2.3264  -2.2935  -2.2684  -2.1920  -2.1432  -2.1292  -2.0393
    -2.0227  -2.0051  -1.9478  -1.9451  -1.9070  -1.8642  -1.8325  -1.8096
    -1.7456  -1.7132  -1.6751  -1.6448  -1.5823  -1.5422  -1.5076  -1.4628
    -1.4332  -1.3750  -1.3499  -1.3036  -1.2260  -1.2085  -1.1320  -1.1063
    -1.0635  -1.0162  -0.9266  -0.8787  -0.8165  -0.8022  -0.7406  -0.6825
    -0.6094  -0.4697  -0.2602   0.0902   0.1268   0.1539   0.1864   1.8595
     2.0459   2.1322   2.1768   2.2256   2.2670   2.3043   2.3305   2.3817
     2.4418   2.4565   2.4830   2.5105   2.5186   2.5811   2.6901   2.7217
     2.7420   2.7736   2.8251   2.8384   2.8905   2.9470   2.9680   2.9840
     3.0214   3.0323   3.1675   3.2052   3.2877   3.3141   3.3316   3.3681
     3.4088   3.4342   3.4574   3.5404   3.5570   3.6322   3.6544   3.7320
     3.7902   3.8143   3.8600   3.8961   3.9044   4.0696   4.1146   4.1633
     4.3406   4.3807   4.6137   4.9633   5.0167   5.1199   5.1345   5.1540
     5.2570   5.2845   5.3122   5.4255   5.5089   5.5590   5.6371   5.7600
     5.8219   5.8456   5.8924   5.9342   5.9541   5.9945   6.0506   6.0616
     6.1334   6.1528   6.2263   6.3172   6.3773   6.4079   6.4774   6.6439
     6.6918   6.7942   6.8386   7.0341   7.1425   7.3627   7.4773   7.5807
     7.9754   8.1762   8.3519   8.5192   8.6473   8.8496   9.0430   9.1114
     9.1772   9.4818   9.6188

          k =-0.0506 0.0280 0.0000 ( 34685 PWs)   bands (ev):

   -57.6987 -57.6685 -57.3182 -57.2867 -57.2352 -57.1099 -57.0780 -57.0731
   -57.0545 -57.0426 -56.9907 -56.9599 -56.7315 -56.6989 -56.1494 -56.1188
   -34.1128 -33.9813 -33.9567 -33.8938 -33.8473 -33.8141 -33.7744 -33.6359
   -33.6145 -33.5878 -33.5458 -33.5384 -33.5303 -33.5225 -33.4957 -33.4749
   -33.4614 -33.4516 -33.4324 -33.3715 -33.3202 -33.2932 -33.2815 -33.2679
   -33.2666 -33.2642 -33.2619 -33.2567 -33.2401 -33.2387 -33.2364 -33.2173
   -33.2058 -33.1884 -33.1800 -33.1475 -33.1445 -32.9962 -32.9869 -32.9601
   -32.9165 -32.8366 -32.5436 -32.5051 -32.4783 -32.3676 -32.2883 -32.2012
   -20.3035 -17.8633 -17.6534 -17.3714 -17.3443 -17.2524 -17.2272 -17.2166
   -17.1250 -17.0459 -16.9657 -16.9234 -16.8740 -16.8600 -16.8571 -16.8357
   -16.7662 -16.7470 -16.5621 -16.5309 -16.5071 -16.4404 -16.4178 -16.3793
   -16.3716 -16.3138 -16.1940 -16.1748 -16.1545 -16.0152 -15.9695 -14.7426
   -14.6753 -11.4211  -7.1959  -5.4591  -5.2288  -5.1872  -4.8944  -4.8365
    -4.7232  -4.7072  -4.6781  -4.6577  -4.6328  -4.5115  -4.4301  -4.3479
    -4.3215  -4.3043  -4.1622  -4.1290  -4.0635  -4.0291  -4.0110  -3.9957
    -3.9850  -3.9119  -3.8622  -3.8183  -3.7760  -3.7638  -3.7211  -3.6931
    -3.6579  -3.6359  -3.5853  -3.5539  -3.4461  -3.3160  -3.2790  -3.2629
    -3.2202  -3.1729  -3.1027  -3.0610  -2.9553  -2.9395  -2.8738  -2.8424
    -2.7453  -2.6941  -2.6624  -2.6527  -2.6067  -2.5925  -2.5379  -2.4978
    -2.4394  -2.3897  -2.3832  -2.3380  -2.3111  -2.2567  -2.1819  -2.1382
    -2.1158  -2.0648  -2.0286  -1.9766  -1.9422  -1.9076  -1.8624  -1.8338
    -1.7569  -1.7424  -1.7142  -1.6434  -1.5425  -1.5090  -1.4875  -1.4198
    -1.3697  -1.3502  -1.2814  -1.2625  -1.2402  -1.1498  -1.1145  -1.0154
    -0.9793  -0.8824  -0.8583  -0.8161  -0.7809  -0.7663  -0.7077  -0.6919
    -0.5154  -0.3140  -0.2618  -0.0748   0.1081   0.1375   0.1607   1.7021
     1.9030   2.0584   2.1202   2.1251   2.1704   2.2384   2.3586   2.3699
     2.4039   2.4355   2.5155   2.5651   2.5726   2.6005   2.6813   2.6940
     2.7408   2.8002   2.8306   2.9005   2.9533   2.9791   3.0394   3.0577
     3.0883   3.1579   3.1690   3.1985   3.3000   3.3537   3.3740   3.4078
     3.4433   3.4552   3.5444   3.5835   3.6021   3.6510   3.6740   3.6824
     3.7146   3.7685   3.8165   3.8668   3.9295   4.0559   4.1668   4.2798
     4.2896   4.4209   4.6198   4.6871   4.7624   4.8088   4.8526   4.9797
     5.0097   5.1239   5.2208   5.4663   5.5926   5.6381   5.7170   5.8012
     5.8593   5.8701   5.9230   5.9448   5.9787   6.0901   6.1144   6.1367
     6.2272   6.4295   6.4799   6.5376   6.5755   6.6054   6.6826   6.7394
     6.7940   6.8155   6.9719   7.1164   7.1658   7.3965   7.5645   7.6936
     8.1313   8.1622   8.2463   8.3831   8.7542   8.9662   9.0106   9.0473
     9.3505   9.4387   9.6057

          k =-0.0506 0.0560 0.0000 ( 34596 PWs)   bands (ev):

   -57.6924 -57.6749 -57.3117 -57.2933 -57.2343 -57.1038 -57.0840 -57.0667
   -57.0554 -57.0491 -56.9842 -56.9664 -56.7249 -56.7055 -56.1429 -56.1253
   -34.0428 -33.9760 -33.9617 -33.8771 -33.8475 -33.8311 -33.7761 -33.5988
   -33.5777 -33.5749 -33.5382 -33.5242 -33.5181 -33.5135 -33.4799 -33.4760
   -33.4563 -33.4295 -33.4068 -33.3560 -33.3207 -33.3204 -33.3036 -33.3013
   -33.2890 -33.2791 -33.2701 -33.2636 -33.2562 -33.2561 -33.2501 -33.2420
   -33.2132 -33.2034 -33.1735 -33.1677 -33.1289 -32.9911 -32.9811 -32.9652
   -32.9294 -32.9061 -32.4993 -32.4839 -32.4729 -32.3511 -32.3052 -32.2752
   -20.3033 -17.7088 -17.5027 -17.2939 -17.2422 -17.2005 -17.1759 -17.1644
   -17.0926 -17.0392 -17.0084 -16.9159 -16.8591 -16.8515 -16.8472 -16.8090
   -16.7787 -16.7250 -16.6653 -16.6253 -16.6156 -16.5532 -16.5149 -16.4020
   -16.3462 -16.2658 -16.2288 -16.1958 -16.1586 -16.1166 -16.0414 -14.7619
   -14.7263 -11.4202  -7.1946  -5.4321  -5.1991  -5.0245  -4.6613  -4.6195
    -4.5181  -4.5018  -4.4865  -4.4589  -4.4351  -4.3701  -4.3271  -4.3041
    -4.2282  -4.2081  -4.1485  -4.1345  -4.0853  -4.0699  -4.0487  -4.0393
    -4.0171  -3.9992  -3.9713  -3.9174  -3.8967  -3.8907  -3.8249  -3.7897
    -3.7332  -3.6620  -3.6323  -3.5251  -3.4888  -3.3713  -3.3304  -3.2644
    -3.2573  -3.2470  -3.1320  -3.0131  -2.9352  -2.9068  -2.8529  -2.8323
    -2.7588  -2.7288  -2.6871  -2.6124  -2.5939  -2.5703  -2.5317  -2.4924
    -2.4308  -2.4079  -2.3685  -2.3319  -2.3189  -2.3025  -2.2578  -2.1811
    -2.1549  -2.1236  -2.1165  -2.0797  -2.0500  -2.0050  -1.9869  -1.9043
    -1.8940  -1.8543  -1.8355  -1.7272  -1.6404  -1.6087  -1.5755  -1.4810
    -1.4109  -1.3775  -1.3100  -1.2513  -1.2085  -1.1136  -1.0762  -1.0197
    -1.0043  -0.9393  -0.8553  -0.8224  -0.7727  -0.7589  -0.6954  -0.6594
    -0.6539  -0.5204  -0.3271   0.0761   0.1103   0.1283   0.1918   1.8648
     2.0747   2.1627   2.1968   2.2188   2.2416   2.2960   2.3454   2.3906
     2.4015   2.5353   2.5678   2.5769   2.6053   2.6258   2.6808   2.7523
     2.7800   2.8019   2.8363   2.8785   2.9610   3.0017   3.0260   3.0595
     3.0948   3.1337   3.1653   3.2543   3.3333   3.3649   3.3945   3.4384
     3.4762   3.4972   3.5193   3.5399   3.6127   3.6448   3.7089   3.7421
     3.7772   3.8485   3.8776   3.9174   3.9233   3.9515   4.1098   4.1729
     4.2875   4.4698   4.7228   4.8048   4.8140   4.8940   4.9393   5.0896
     5.1628   5.2289   5.2700   5.3238   5.3696   5.4320   5.4930   5.6236
     5.7783   5.8268   5.8783   5.9490   6.0359   6.1213   6.2149   6.2575
     6.2840   6.3441   6.4136   6.4480   6.5010   6.5760   6.6447   6.7141
     6.7287   6.8226   6.8489   6.9821   7.0442   7.4095   7.4305   7.5771
     7.7432   7.9437   8.0691   8.3890   8.5691   8.6093   8.7424   9.0109
     9.2217   9.3221   9.4484

     the Fermi energy is     0.9951 ev

!    total energy              =   -3021.41939434 Ry
     Harris-Foulkes estimate   =   -3021.41939456 Ry
     estimated scf accuracy    <       0.00000031 Ry

     The total energy is the sum of the following terms:

     one-electron contribution =  -41241.10867304 Ry
     hartree contribution      =   20694.75643499 Ry
     xc contribution           =    -553.67323928 Ry
     ewald contribution        =   18078.60629428 Ry
     smearing contrib. (-TS)   =      -0.00021129 Ry

     total magnetization       =     0.00 Bohr mag/cell
     absolute magnetization    =     0.00 Bohr mag/cell

     convergence has been achieved in   8 iterations

     Forces acting on atoms (Ry/au):


     negative rho (up, down):  1.207E-02 1.207E-02
     atom    1 type  1   force =     0.00001751   -0.00035467   -0.13380946
     atom    2 type  2   force =     0.00000351    0.00003082    0.07214526
     atom    3 type  1   force =    -0.00135701    0.00030909   -0.06099706
     atom    4 type  2   force =     0.00290313    0.00048570    0.00638852
     atom    5 type  1   force =     0.00026962    0.00185784    0.00350227
     atom    6 type  2   force =     0.00006236    0.00001878   -0.00285820
     atom    7 type  1   force =    -0.00031675   -0.00077105    0.00445531
     atom    8 type  2   force =     0.00095060   -0.00019874   -0.00067882
     atom    9 type  1   force =    -0.00002847    0.00001964   -0.13356891
     atom   10 type  2   force =    -0.00006900    0.00006637    0.07132758
     atom   11 type  1   force =    -0.00131826   -0.00024250   -0.05590578
     atom   12 type  2   force =     0.00299446   -0.00006927    0.00610499
     atom   13 type  1   force =     0.00029193   -0.00148322    0.00344300
     atom   14 type  2   force =    -0.00119985   -0.00038238   -0.00287338
     atom   15 type  1   force =    -0.00054387    0.00021567    0.00441792
     atom   16 type  2   force =     0.00056644   -0.00018215   -0.00005660
     atom   17 type  2   force =    -0.00007161   -0.00007030    0.07941294
     atom   18 type  1   force =     0.00013514   -0.00017225    0.11910935
     atom   19 type  2   force =    -0.00011048   -0.00017350   -0.06667196
     atom   20 type  2   force =    -0.06322848    0.00014861   -0.03223450
     atom   21 type  2   force =     0.06320228    0.00001434   -0.03244021
     atom   22 type  1   force =     0.00072361    0.00108204    0.05971639
     atom   23 type  2   force =    -0.00017312    0.00005673   -0.00173264
     atom   24 type  2   force =    -0.00143466   -0.00000237   -0.02323844
     atom   25 type  2   force =    -0.00313115    0.00059051    0.00787380
     atom   26 type  1   force =     0.00063754    0.00029646    0.00459135
     atom   27 type  2   force =     0.00052384    0.00059817   -0.00379894
     atom   28 type  2   force =     0.00014034   -0.00008902   -0.00119390
     atom   29 type  2   force =     0.00021413   -0.00034350   -0.00057811
     atom   30 type  1   force =     0.00029795   -0.00069092    0.00384514
     atom   31 type  2   force =     0.00004376    0.00010858   -0.00262324
     atom   32 type  2   force =     0.00001608   -0.00004702   -0.00117085
     atom   33 type  2   force =    -0.00011905    0.00003751    0.07901405
     atom   34 type  1   force =     0.00006676   -0.00021900    0.11902397
     atom   35 type  2   force =    -0.00030368   -0.00005187   -0.06637094
     atom   36 type  2   force =    -0.06318719   -0.00005061   -0.03232552
     atom   37 type  2   force =     0.06333072   -0.00020029   -0.03248008
     atom   38 type  1   force =     0.00066045   -0.00097812    0.05993749
     atom   39 type  2   force =    -0.00045652    0.00010614   -0.00247875
     atom   40 type  2   force =    -0.00118987    0.00030697   -0.02215149
     atom   41 type  2   force =    -0.00317192   -0.00015085    0.00790046
     atom   42 type  1   force =     0.00051613    0.00006065    0.00370352
     atom   43 type  2   force =     0.00069464    0.00023439   -0.00296973
     atom   44 type  2   force =     0.00022137    0.00010187   -0.00114804
     atom   45 type  2   force =     0.00019008    0.00031166   -0.00060794
     atom   46 type  1   force =     0.00054287    0.00030218    0.00391224
     atom   47 type  2   force =     0.00006306   -0.00032240   -0.00134067
     atom   48 type  2   force =     0.00010342    0.00009667   -0.00092574
     atom   49 type  3   force =     0.00325395   -0.02458203    0.01360855
     atom   50 type  2   force =     0.00075444    0.00060731   -0.00296068
     atom   51 type  4   force =     0.00011735    0.00016483   -0.00019498
     atom   52 type  4   force =     0.00036054    0.00038068    0.00087697
     atom   53 type  4   force =    -0.00457161    0.02615816   -0.01292461
     atom   54 type  4   force =     0.00111255   -0.00294032    0.00099911

     Total force =     0.364918     Total SCF correction =     0.000860
 !ASE

     Writing output data file calc.save
 
     init_run     :     58.98s CPU     74.72s WALL (       1 calls)
     electrons    :   1949.77s CPU   2332.73s WALL (       1 calls)
     forces       :     40.63s CPU     41.80s WALL (       1 calls)

     Called by init_run:
     wfcinit      :     50.38s CPU     65.15s WALL (       1 calls)
     potinit      :      1.32s CPU      1.59s WALL (       1 calls)

     Called by electrons:
     c_bands      :   1702.31s CPU   2022.96s WALL (       9 calls)
     sum_band     :    211.63s CPU    268.93s WALL (       9 calls)
     v_of_rho     :      8.82s CPU     11.15s WALL (       9 calls)
     newd         :     30.56s CPU     33.70s WALL (       9 calls)
     mix_rho      :      0.39s CPU      0.52s WALL (       9 calls)
     vdW_energy   :      1.62s CPU      1.98s WALL (      10 calls)
     vdW_ffts     :      2.37s CPU      3.20s WALL (      20 calls)
     vdW_v        :      0.98s CPU      1.12s WALL (      10 calls)

     Called by c_bands:
     init_us_2    :      5.45s CPU      5.92s WALL (     800 calls)
     cegterg      :   1668.75s CPU   1987.28s WALL (     360 calls)

     Called by *egterg:
     h_psi        :    686.71s CPU    941.96s WALL (    1968 calls)
     s_psi        :     83.66s CPU     86.77s WALL (    1968 calls)
     g_psi        :      4.54s CPU      4.59s WALL (    1568 calls)
     cdiaghg      :    584.38s CPU    594.58s WALL (    1888 calls)

     Called by h_psi:
     add_vuspsi   :     84.25s CPU     87.78s WALL (    1968 calls)

     General routines
     calbec       :    128.89s CPU    132.01s WALL (    2368 calls)
     fft          :      5.17s CPU      6.81s WALL (     794 calls)
     ffts         :      0.04s CPU      0.05s WALL (      36 calls)
     fftw         :    445.99s CPU    744.72s WALL (  664398 calls)
     interpolate  :      0.26s CPU      0.44s WALL (      36 calls)
     davcio       :      0.13s CPU      3.57s WALL (      40 calls)
 
     Parallel routines
     fft_scatter  :    230.04s CPU    410.74s WALL (  665228 calls)
 
     PWSCF        : 34m10.36s CPU    40m54.54s WALL

 
   This run was terminated on:   4: 8:29  13Feb2018            

=------------------------------------------------------------------------------=
   JOB DONE.
=------------------------------------------------------------------------------=
