  python dir          : /home/vossj/suncat/lib/python2.7/site-packages/espresso
  espresso dir        : /home/vossj/suncat/esdld/espresso-dynpy-beef/bin
  pseudo dir          : /home/alatimer/bin/psp/esp_psp_w_gbrvRu/
  ase-espresso py git : ffa2778-git



     Program PWSCF v.5.1rc2 (svn rev. ) starts on 25Feb2018 at 18:39:26 

     This program is part of the open-source Quantum ESPRESSO suite
     for quantum simulation of materials; please cite
         "P. Giannozzi et al., J. Phys.:Condens. Matter 21 395502 (2009);
          URL http://www.quantum-espresso.org", 
     in publications or presentations arising from this work. More details at
     http://www.quantum-espresso.org/quote

     Parallel version (MPI), running on    16 processors
     R & G space division:  proc/nbgrp/npool/nimage =      16
     Reading input from pw.inp
     Message from routine read_cards :
     DEPRECATED: no units specified in CELL_PARAMETERS card

     Current dimensions of program PWSCF are:
     Max number of different atomic species (ntypx) = 10
     Max number of k-points (npk) =  40000
     Max angular momentum in pseudopotentials (lmaxx) =  3

     **************************************************************************
     Initializing libbeef V0.1.1 with the BEEF-vdW functional.
     Citation: Wellendorff et al., PRB 85, 235149 (2012).
     **************************************************************************


     IMPORTANT: XC functional enforced from input :
     Exchange-correlation      = BEEF ( 1  4 27 13 2)
     Any further DFT definition will be discarded
     Please, verify this is what you really want


     Subspace diagonalization in iterative solution of the eigenvalue problem:
     a serial algorithm will be used

 
     Parallelization info
     --------------------
     sticks:   dense  smooth     PW     G-vecs:    dense   smooth      PW
     Min         281     112     31                68535    17318    2565
     Max         282     113     32                68545    17369    2582
     Sum        4501    1795    503              1096637   277353   41113
 
     Generating pointlists ...
     new r_m :   0.4125 (alat units)  0.7795 (a.u.) for type    1
     new r_m :   0.4125 (alat units)  0.7795 (a.u.) for type    2
     new r_m :   0.4125 (alat units)  0.7795 (a.u.) for type    3
     new r_m :   0.4125 (alat units)  0.7795 (a.u.) for type    4


     bravais-lattice index     =            0
     lattice parameter (alat)  =       1.8897  a.u.
     unit-cell volume          =    7990.9933 (a.u.)^3
     number of atoms/cell      =           54
     number of atomic types    =            4
     number of electrons       =       398.00
     number of Kohn-Sham states=          299
     kinetic-energy cutoff     =      40.4243  Ry
     charge density cutoff     =     404.2426  Ry
     convergence threshold     =      7.3E-07
     mixing beta               =       0.1000
     number of iterations used =           10  plain     mixing
     Exchange-correlation      = BEEF ( 1  4 27 13 2)
     nstep                     =           50


     celldm(1)=   1.889726  celldm(2)=   0.000000  celldm(3)=   0.000000
     celldm(4)=   0.000000  celldm(5)=   0.000000  celldm(6)=   0.000000

     crystal axes: (cart. coord. in units of alat)
               a(1) = (   6.590708   0.000000   0.000000 )  
               a(2) = (   0.000000   5.950229   0.000000 )  
               a(3) = (   0.000000   0.000000  30.195235 )  

     reciprocal axes: (cart. coord. in units 2 pi/alat)
               b(1) = (  0.151729  0.000000  0.000000 )  
               b(2) = (  0.000000  0.168061  0.000000 )  
               b(3) = (  0.000000  0.000000  0.033118 )  


     PseudoPot. # 1 for Ti read from file:
     /home/alatimer/bin/psp/esp_psp_w_gbrvRu/Ti.UPF
     MD5 check sum: 8e4df49b7f0d34bbd5052bf3f5ea0213
     Pseudo is Ultrasoft, Zval = 12.0
     Generated by new atomic code, or converted to UPF format
     Using radial grid of  851 points,  6 beta functions with: 
                l(1) =   0
                l(2) =   0
                l(3) =   1
                l(4) =   1
                l(5) =   2
                l(6) =   2
     Q(r) pseudized with  8 coefficients,  rinner =    1.000   1.000   1.000
                                                       1.000   1.000

     PseudoPot. # 2 for  O read from file:
     /home/alatimer/bin/psp/esp_psp_w_gbrvRu/O.UPF
     MD5 check sum: e057bbcf3229fb5d8c36c0c92f9568b4
     Pseudo is Ultrasoft + core correction, Zval =  6.0
     Generated using "atomic" code by A. Dal Corso  v.5.0.2 svn rev. 9415
     Using radial grid of 1095 points,  4 beta functions with: 
                l(1) =   0
                l(2) =   0
                l(3) =   1
                l(4) =   1
     Q(r) pseudized with 0 coefficients 


     PseudoPot. # 3 for  C read from file:
     /home/alatimer/bin/psp/esp_psp_w_gbrvRu/C.UPF
     MD5 check sum: ab446d787031eba755f1d5ee46644bb0
     Pseudo is Ultrasoft + core correction, Zval =  4.0
     Generated using "atomic" code by A. Dal Corso  v.5.0.2 svn rev. 9415
     Using radial grid of 1073 points,  4 beta functions with: 
                l(1) =   0
                l(2) =   0
                l(3) =   1
                l(4) =   1
     Q(r) pseudized with 0 coefficients 


     PseudoPot. # 4 for  H read from file:
     /home/alatimer/bin/psp/esp_psp_w_gbrvRu/H.UPF
     MD5 check sum: bd57da0722753ddfd9833a65b40bb853
     Pseudo is Ultrasoft, Zval =  1.0
     Generated using "atomic" code by A. Dal Corso  v.5.0.2 svn rev. 9415
     Using radial grid of  929 points,  2 beta functions with: 
                l(1) =   0
                l(2) =   0
     Q(r) pseudized with 0 coefficients 


     vdW kernel table read from file vdW_kernel_table
     MD5 check sum: 095c7af220d748ca6e76c0b4c6cfb241

     atomic species   valence    mass     pseudopotential
        Ti1           12.00    47.88000     Ti( 1.00)
        O1             6.00    15.99940      O( 1.00)
        C1             4.00    12.01100      C( 1.00)
        H1             1.00     1.00794      H( 1.00)

     Starting magnetic structure 
     atomic species   magnetization
        Ti1          0.250
        O1           0.500
        C1           0.750
        H1           0.000

     No symmetry found



   Cartesian axes

     site n.     atom                  positions (alat units)
         1           Ti1 tau(   1) = (   1.6476770   0.7437786   2.6545865  )
         2           O1  tau(   2) = (   1.6476770   2.2313359   3.9361215  )
         3           Ti1 tau(   3) = (   1.6476770   2.2313359   5.9499405  )
         4           O1  tau(   4) = (   0.3661420   0.7437786   5.9499405  )
         5           Ti1 tau(   5) = (   1.6407309   0.9134410   9.3139491  )
         6           O1  tau(   6) = (   1.6648823   2.2608486  10.4895904  )
         7           Ti1 tau(   7) = (   1.7578240   2.2899216  13.0472362  )
         8           O1  tau(   8) = (   0.4801583   0.7600008  12.7739736  )
         9           Ti1 tau(   9) = (   1.6476770   3.7188931   2.6545865  )
        10           O1  tau(  10) = (   1.6476770   5.2064503   3.9361215  )
        11           Ti1 tau(  11) = (   1.6476770   5.2064503   5.9499405  )
        12           O1  tau(  12) = (   0.3661420   3.7188931   5.9499405  )
        13           Ti1 tau(  13) = (   1.6336050   3.7786827   9.1566831  )
        14           O1  tau(  14) = (   1.6678212   5.2513959  10.5409436  )
        15           Ti1 tau(  15) = (   1.7144009   5.2558216  12.3462911  )
        16           O1  tau(  16) = (   0.4635505   3.7986228  12.7318280  )
        17           O1  tau(  17) = (   1.6476770   2.2313359   1.3730516  )
        18           Ti1 tau(  18) = (   4.9430310   2.2313359   2.6545865  )
        19           O1  tau(  19) = (   4.9430310   2.2313359   4.6684056  )
        20           O1  tau(  20) = (   6.2245660   0.7437786   2.6545865  )
        21           O1  tau(  21) = (   3.6614961   0.7437786   2.6545865  )
        22           Ti1 tau(  22) = (   4.9430310   0.7437786   5.9499405  )
        23           O1  tau(  23) = (   1.6683653   2.2752577   7.9427336  )
        24           O1  tau(  24) = (   4.9430310   2.2313359   7.2314755  )
        25           O1  tau(  25) = (   2.9292120   0.7437786   5.9499405  )
        26           Ti1 tau(  26) = (   4.9404121   2.2664794   9.4552217  )
        27           O1  tau(  27) = (   5.0099888   2.2616732  11.2946145  )
        28           O1  tau(  28) = (   6.2612001   0.7714827   9.2659748  )
        29           O1  tau(  29) = (   3.6791272   0.7744986   9.2965846  )
        30           Ti1 tau(  30) = (   5.0117873   0.7976728  12.8161605  )
        31           O1  tau(  31) = (   4.9963122   2.2836652  13.8750618  )
        32           O1  tau(  32) = (   2.9819382   0.7448324  12.7109220  )
        33           O1  tau(  33) = (   1.6476770   5.2064503   1.3730516  )
        34           Ti1 tau(  34) = (   4.9430310   5.2064503   2.6545865  )
        35           O1  tau(  35) = (   4.9430310   5.2064503   4.6684056  )
        36           O1  tau(  36) = (   6.2245660   3.7188931   2.6545865  )
        37           O1  tau(  37) = (   3.6614961   3.7188931   2.6545865  )
        38           Ti1 tau(  38) = (   4.9430310   3.7188931   5.9499405  )
        39           O1  tau(  39) = (   1.6664207   5.2035600   7.9365221  )
        40           O1  tau(  40) = (   4.9430310   5.2064503   7.2314755  )
        41           O1  tau(  41) = (   2.9292120   3.7188931   5.9499405  )
        42           Ti1 tau(  42) = (   4.9524353   5.2460635   9.4426343  )
        43           O1  tau(  43) = (   5.0107556   5.2394944  11.2927493  )
        44           O1  tau(  44) = (   6.2663940   3.7551737   9.2646230  )
        45           O1  tau(  45) = (   3.6780957   3.7542261   9.2971476  )
        46           Ti1 tau(  46) = (   5.0587989   3.7766986  12.8010349  )
        47           O1  tau(  47) = (   5.0196089   5.2502198  13.8813978  )
        48           O1  tau(  48) = (   2.9624133   3.7943242  12.7299881  )
        49           O1  tau(  49) = (   1.7727453   2.2533568  14.8370015  )
        50           C1  tau(  50) = (   2.7196098   4.2826273  16.2318421  )
        51           H1  tau(  51) = (   3.3037454   4.9255546  15.5827400  )
        52           H1  tau(  52) = (   3.3286606   3.7870117  16.9822022  )
        53           H1  tau(  53) = (   2.3125587   3.4026405  15.5729816  )
        54           H1  tau(  54) = (   1.8391288   4.7650601  16.6448379  )

     number of k points=    40  Fermi-Dirac smearing, width (Ry)=  0.0073
                       cart. coord. in units 2pi/alat
        k(    1) = (   0.0000000   0.0000000   0.0000000), wk =   0.0277778
        k(    2) = (   0.0000000   0.0280101   0.0000000), wk =   0.0555556
        k(    3) = (   0.0000000   0.0560203   0.0000000), wk =   0.0555556
        k(    4) = (   0.0000000  -0.0840304   0.0000000), wk =   0.0277778
        k(    5) = (   0.0252881   0.0000000   0.0000000), wk =   0.0555556
        k(    6) = (   0.0252881   0.0280101   0.0000000), wk =   0.0555556
        k(    7) = (   0.0252881   0.0560203   0.0000000), wk =   0.0555556
        k(    8) = (   0.0252881  -0.0840304   0.0000000), wk =   0.0555556
        k(    9) = (   0.0505763   0.0000000   0.0000000), wk =   0.0555556
        k(   10) = (   0.0505763   0.0280101   0.0000000), wk =   0.0555556
        k(   11) = (   0.0505763   0.0560203   0.0000000), wk =   0.0555556
        k(   12) = (   0.0505763  -0.0840304   0.0000000), wk =   0.0555556
        k(   13) = (  -0.0758644   0.0000000   0.0000000), wk =   0.0277778
        k(   14) = (  -0.0758644   0.0280101   0.0000000), wk =   0.0555556
        k(   15) = (  -0.0758644   0.0560203   0.0000000), wk =   0.0555556
        k(   16) = (  -0.0758644  -0.0840304   0.0000000), wk =   0.0277778
        k(   17) = (  -0.0252881   0.0280101   0.0000000), wk =   0.0555556
        k(   18) = (  -0.0252881   0.0560203   0.0000000), wk =   0.0555556
        k(   19) = (  -0.0505763   0.0280101   0.0000000), wk =   0.0555556
        k(   20) = (  -0.0505763   0.0560203   0.0000000), wk =   0.0555556
        k(   21) = (   0.0000000   0.0000000   0.0000000), wk =   0.0277778
        k(   22) = (   0.0000000   0.0280101   0.0000000), wk =   0.0555556
        k(   23) = (   0.0000000   0.0560203   0.0000000), wk =   0.0555556
        k(   24) = (   0.0000000  -0.0840304   0.0000000), wk =   0.0277778
        k(   25) = (   0.0252881   0.0000000   0.0000000), wk =   0.0555556
        k(   26) = (   0.0252881   0.0280101   0.0000000), wk =   0.0555556
        k(   27) = (   0.0252881   0.0560203   0.0000000), wk =   0.0555556
        k(   28) = (   0.0252881  -0.0840304   0.0000000), wk =   0.0555556
        k(   29) = (   0.0505763   0.0000000   0.0000000), wk =   0.0555556
        k(   30) = (   0.0505763   0.0280101   0.0000000), wk =   0.0555556
        k(   31) = (   0.0505763   0.0560203   0.0000000), wk =   0.0555556
        k(   32) = (   0.0505763  -0.0840304   0.0000000), wk =   0.0555556
        k(   33) = (  -0.0758644   0.0000000   0.0000000), wk =   0.0277778
        k(   34) = (  -0.0758644   0.0280101   0.0000000), wk =   0.0555556
        k(   35) = (  -0.0758644   0.0560203   0.0000000), wk =   0.0555556
        k(   36) = (  -0.0758644  -0.0840304   0.0000000), wk =   0.0277778
        k(   37) = (  -0.0252881   0.0280101   0.0000000), wk =   0.0555556
        k(   38) = (  -0.0252881   0.0560203   0.0000000), wk =   0.0555556
        k(   39) = (  -0.0505763   0.0280101   0.0000000), wk =   0.0555556
        k(   40) = (  -0.0505763   0.0560203   0.0000000), wk =   0.0555556

     Dense  grid:  1096637 G-vectors     FFT dimensions: (  80,  72, 375)

     Smooth grid:   277353 G-vectors     FFT dimensions: (  54,  45, 240)

     Largest allocated arrays     est. size (Mb)     dimensions
        Kohn-Sham Wavefunctions         9.95 Mb     (    2180,  299)
        NL pseudopotentials            18.89 Mb     (    2180,  568)
        Each V/rho on FFT grid          4.22 Mb     (  138240,   2)
        Each G-vector array             0.52 Mb     (   68538)
        G-vector shells                 0.25 Mb     (   33046)
     Largest temporary arrays     est. size (Mb)     dimensions
        Auxiliary wavefunctions        39.78 Mb     (    2180, 1196)
        Each subspace H/S matrix       21.83 Mb     (    1196, 1196)
        Each <psi_i|beta_j> matrix      2.59 Mb     (     568,  299)
        Arrays for rho mixing          21.09 Mb     (  138240,   10)

     Check: negative/imaginary core charge=   -0.000049    0.000000

     The initial density is read from file :
     ./calc.save/charge-density.dat


     negative rho (up, down):  1.189E-02 1.196E-02


     ************************************************************************
     *
     * You are using vdW-DF for exchange-correlation in this calculation.
     * Please cite the following three references that made this development
     * possible:
     *
     *   M. Dion, H. Rydberg, E. Schroder, D. C. Langreth, and
     *   B. I. Lundqvist, Phys. Rev. Lett. 92, 246401 (2004).
     *
     *   T. Thonhauser, V. R. Cooper, S. Li, A. Puzder, P. Hyldgaard, and
     *   D. C. Langreth, Phys. Rev. B 76, 125112 (2007).
     *
     *   G. Roman-Perez and J. M. Soler, Phys. Rev. Lett. 103, 096102 (2009).
     *
     *
     * If you are using vdW-DF2, please also cite:
     *
     *   K. Lee, E. D. Murray, L. Kong, B. I. Lundqvist, and
     *   D. C. Langreth, Phys. Rev. B 82, 081101(R) (2010).
     *
     *
     * If you are calculating the stress with vdW-DF, please also cite:
     *
     *   R. Sabatini, E. Kucukbenli, B. Kolb, T. Thonhauser, and
     *   S. de Gironcoli, J. Phys.: Condens. Matter 24, 424209 (2012).
     *
     ************************************************************************

     Carrying out vdW-DF run using the following parameters:

     Nqs =      20    Nr_points =    1024   r_max =   100.000
     q_mesh =
               0.00001000     0.04494208     0.09755937     0.15916263
               0.23128650     0.31572767     0.41458969     0.53033537
               0.66584808     0.82450364     1.01025438     1.22772762
               1.48234092     1.78043706     2.12944203     2.53805004
               3.01644009     3.57652955     4.23227104     5.00000000

     Gradients computed in reciprocal space

     ************************************************************************


     Starting wfc are  300 randomized atomic wfcs

     total cpu time spent up to now is       76.1 secs

     Self-consistent Calculation

     iteration #  1     ecut=    40.42 Ry     beta=0.10
     Davidson diagonalization with overlap
     ethr =  1.00E-05,  avg # of iterations = 15.0

     negative rho (up, down):  1.189E-02 1.196E-02
 
     Magnetic moment per site:
     atom:    1    charge:    3.1244    magn:   -0.0003    constr:    0.0000
     atom:    2    charge:    2.0897    magn:    0.0003    constr:    0.0000
     atom:    3    charge:    3.1198    magn:   -0.0000    constr:    0.0000
     atom:    4    charge:    2.0867    magn:   -0.0001    constr:    0.0000
     atom:    5    charge:    3.1161    magn:   -0.0002    constr:    0.0000
     atom:    6    charge:    2.0795    magn:    0.0021    constr:    0.0000
     atom:    7    charge:    3.1166    magn:   -0.0054    constr:    0.0000
     atom:    8    charge:    2.0782    magn:    0.0251    constr:    0.0000
     atom:    9    charge:    3.1244    magn:   -0.0003    constr:    0.0000
     atom:   10    charge:    2.0898    magn:    0.0003    constr:    0.0000
     atom:   11    charge:    3.1198    magn:   -0.0000    constr:    0.0000
     atom:   12    charge:    2.0871    magn:   -0.0000    constr:    0.0000
     atom:   13    charge:    3.1150    magn:   -0.0002    constr:    0.0000
     atom:   14    charge:    2.0939    magn:    0.0023    constr:    0.0000
     atom:   15    charge:    3.1184    magn:   -0.0008    constr:    0.0000
     atom:   16    charge:    2.0819    magn:    0.0048    constr:    0.0000
     atom:   17    charge:    2.0625    magn:    0.0018    constr:    0.0000
     atom:   18    charge:    3.1239    magn:   -0.0001    constr:    0.0000
     atom:   19    charge:    2.0876    magn:    0.0001    constr:    0.0000
     atom:   20    charge:    2.0847    magn:    0.0002    constr:    0.0000
     atom:   21    charge:    2.0847    magn:    0.0002    constr:    0.0000
     atom:   22    charge:    3.1199    magn:    0.0000    constr:    0.0000
     atom:   23    charge:    2.0908    magn:    0.0002    constr:    0.0000
     atom:   24    charge:    2.0754    magn:   -0.0002    constr:    0.0000
     atom:   25    charge:    2.0868    magn:    0.0000    constr:    0.0000
     atom:   26    charge:    3.1127    magn:   -0.0002    constr:    0.0000
     atom:   27    charge:    2.0803    magn:    0.0025    constr:    0.0000
     atom:   28    charge:    2.0839    magn:    0.0006    constr:    0.0000
     atom:   29    charge:    2.0861    magn:    0.0008    constr:    0.0000
     atom:   30    charge:    3.1171    magn:   -0.0008    constr:    0.0000
     atom:   31    charge:    2.0826    magn:    0.0006    constr:    0.0000
     atom:   32    charge:    2.0836    magn:    0.0065    constr:    0.0000
     atom:   33    charge:    2.0624    magn:    0.0018    constr:    0.0000
     atom:   34    charge:    3.1239    magn:   -0.0001    constr:    0.0000
     atom:   35    charge:    2.0876    magn:    0.0001    constr:    0.0000
     atom:   36    charge:    2.0847    magn:    0.0002    constr:    0.0000
     atom:   37    charge:    2.0847    magn:    0.0002    constr:    0.0000
     atom:   38    charge:    3.1200    magn:    0.0000    constr:    0.0000
     atom:   39    charge:    2.0839    magn:    0.0002    constr:    0.0000
     atom:   40    charge:    2.0757    magn:   -0.0003    constr:    0.0000
     atom:   41    charge:    2.0870    magn:   -0.0000    constr:    0.0000
     atom:   42    charge:    3.1151    magn:   -0.0002    constr:    0.0000
     atom:   43    charge:    2.0803    magn:    0.0030    constr:    0.0000
     atom:   44    charge:    2.0851    magn:    0.0008    constr:    0.0000
     atom:   45    charge:    2.0859    magn:    0.0004    constr:    0.0000
     atom:   46    charge:    3.1147    magn:   -0.0007    constr:    0.0000
     atom:   47    charge:    2.0806    magn:    0.0047    constr:    0.0000
     atom:   48    charge:    2.0844    magn:    0.0136    constr:    0.0000
     atom:   49    charge:    2.0465    magn:    0.2406    constr:    0.0000
     atom:   50    charge:    0.6715    magn:    0.0545    constr:    0.0000
     atom:   51    charge:    0.4221    magn:    0.0009    constr:    0.0000
     atom:   52    charge:    0.4227    magn:    0.0008    constr:    0.0000
     atom:   53    charge:    0.3683    magn:    0.0230    constr:    0.0000
     atom:   54    charge:    0.4229    magn:    0.0006    constr:    0.0000

     total cpu time spent up to now is     1016.4 secs

     total energy              =   -3021.17601271 Ry
     Harris-Foulkes estimate   =   -3021.18841962 Ry
     estimated scf accuracy    <       0.08476465 Ry

     total magnetization       =     1.07 Bohr mag/cell
     absolute magnetization    =     1.25 Bohr mag/cell

     iteration #  2     ecut=    40.42 Ry     beta=0.10
     Davidson diagonalization with overlap
     ethr =  2.13E-05,  avg # of iterations =  1.0

     negative rho (up, down):  1.190E-02 1.197E-02
 
     Magnetic moment per site:
     atom:    1    charge:    3.1244    magn:   -0.0003    constr:    0.0000
     atom:    2    charge:    2.0895    magn:    0.0003    constr:    0.0000
     atom:    3    charge:    3.1198    magn:   -0.0000    constr:    0.0000
     atom:    4    charge:    2.0867    magn:   -0.0001    constr:    0.0000
     atom:    5    charge:    3.1161    magn:   -0.0002    constr:    0.0000
     atom:    6    charge:    2.0797    magn:    0.0022    constr:    0.0000
     atom:    7    charge:    3.1164    magn:   -0.0055    constr:    0.0000
     atom:    8    charge:    2.0782    magn:    0.0252    constr:    0.0000
     atom:    9    charge:    3.1244    magn:   -0.0003    constr:    0.0000
     atom:   10    charge:    2.0897    magn:    0.0003    constr:    0.0000
     atom:   11    charge:    3.1198    magn:   -0.0000    constr:    0.0000
     atom:   12    charge:    2.0870    magn:   -0.0000    constr:    0.0000
     atom:   13    charge:    3.1150    magn:   -0.0002    constr:    0.0000
     atom:   14    charge:    2.0939    magn:    0.0023    constr:    0.0000
     atom:   15    charge:    3.1184    magn:   -0.0008    constr:    0.0000
     atom:   16    charge:    2.0816    magn:    0.0050    constr:    0.0000
     atom:   17    charge:    2.0620    magn:    0.0016    constr:    0.0000
     atom:   18    charge:    3.1239    magn:   -0.0001    constr:    0.0000
     atom:   19    charge:    2.0875    magn:    0.0001    constr:    0.0000
     atom:   20    charge:    2.0847    magn:    0.0001    constr:    0.0000
     atom:   21    charge:    2.0847    magn:    0.0001    constr:    0.0000
     atom:   22    charge:    3.1199    magn:    0.0000    constr:    0.0000
     atom:   23    charge:    2.0907    magn:    0.0002    constr:    0.0000
     atom:   24    charge:    2.0753    magn:   -0.0002    constr:    0.0000
     atom:   25    charge:    2.0867    magn:    0.0000    constr:    0.0000
     atom:   26    charge:    3.1126    magn:   -0.0002    constr:    0.0000
     atom:   27    charge:    2.0805    magn:    0.0026    constr:    0.0000
     atom:   28    charge:    2.0840    magn:    0.0007    constr:    0.0000
     atom:   29    charge:    2.0861    magn:    0.0008    constr:    0.0000
     atom:   30    charge:    3.1172    magn:   -0.0008    constr:    0.0000
     atom:   31    charge:    2.0827    magn:    0.0007    constr:    0.0000
     atom:   32    charge:    2.0841    magn:    0.0068    constr:    0.0000
     atom:   33    charge:    2.0620    magn:    0.0016    constr:    0.0000
     atom:   34    charge:    3.1239    magn:   -0.0001    constr:    0.0000
     atom:   35    charge:    2.0875    magn:    0.0001    constr:    0.0000
     atom:   36    charge:    2.0847    magn:    0.0001    constr:    0.0000
     atom:   37    charge:    2.0847    magn:    0.0001    constr:    0.0000
     atom:   38    charge:    3.1200    magn:    0.0000    constr:    0.0000
     atom:   39    charge:    2.0839    magn:    0.0002    constr:    0.0000
     atom:   40    charge:    2.0756    magn:   -0.0002    constr:    0.0000
     atom:   41    charge:    2.0870    magn:   -0.0000    constr:    0.0000
     atom:   42    charge:    3.1151    magn:   -0.0002    constr:    0.0000
     atom:   43    charge:    2.0805    magn:    0.0031    constr:    0.0000
     atom:   44    charge:    2.0852    magn:    0.0009    constr:    0.0000
     atom:   45    charge:    2.0859    magn:    0.0005    constr:    0.0000
     atom:   46    charge:    3.1147    magn:   -0.0007    constr:    0.0000
     atom:   47    charge:    2.0807    magn:    0.0048    constr:    0.0000
     atom:   48    charge:    2.0849    magn:    0.0137    constr:    0.0000
     atom:   49    charge:    2.0499    magn:    0.2412    constr:    0.0000
     atom:   50    charge:    0.6718    magn:    0.0543    constr:    0.0000
     atom:   51    charge:    0.4222    magn:    0.0009    constr:    0.0000
     atom:   52    charge:    0.4227    magn:    0.0008    constr:    0.0000
     atom:   53    charge:    0.3703    magn:    0.0228    constr:    0.0000
     atom:   54    charge:    0.4225    magn:    0.0006    constr:    0.0000

     total cpu time spent up to now is     1210.5 secs

     total energy              =   -3021.14865604 Ry
     Harris-Foulkes estimate   =   -3021.17662028 Ry
     estimated scf accuracy    <       0.05775191 Ry

     total magnetization       =     1.07 Bohr mag/cell
     absolute magnetization    =     1.24 Bohr mag/cell

     iteration #  3     ecut=    40.42 Ry     beta=0.10
     Davidson diagonalization with overlap
     ethr =  1.45E-05,  avg # of iterations =  3.9

     negative rho (up, down):  1.190E-02 1.197E-02
 
     Magnetic moment per site:
     atom:    1    charge:    3.1244    magn:   -0.0003    constr:    0.0000
     atom:    2    charge:    2.0897    magn:    0.0003    constr:    0.0000
     atom:    3    charge:    3.1198    magn:   -0.0000    constr:    0.0000
     atom:    4    charge:    2.0867    magn:   -0.0001    constr:    0.0000
     atom:    5    charge:    3.1161    magn:   -0.0002    constr:    0.0000
     atom:    6    charge:    2.0795    magn:    0.0022    constr:    0.0000
     atom:    7    charge:    3.1164    magn:   -0.0055    constr:    0.0000
     atom:    8    charge:    2.0785    magn:    0.0252    constr:    0.0000
     atom:    9    charge:    3.1244    magn:   -0.0003    constr:    0.0000
     atom:   10    charge:    2.0899    magn:    0.0003    constr:    0.0000
     atom:   11    charge:    3.1198    magn:   -0.0000    constr:    0.0000
     atom:   12    charge:    2.0871    magn:   -0.0000    constr:    0.0000
     atom:   13    charge:    3.1150    magn:   -0.0002    constr:    0.0000
     atom:   14    charge:    2.0939    magn:    0.0023    constr:    0.0000
     atom:   15    charge:    3.1184    magn:   -0.0008    constr:    0.0000
     atom:   16    charge:    2.0818    magn:    0.0051    constr:    0.0000
     atom:   17    charge:    2.0626    magn:    0.0015    constr:    0.0000
     atom:   18    charge:    3.1240    magn:   -0.0001    constr:    0.0000
     atom:   19    charge:    2.0875    magn:    0.0001    constr:    0.0000
     atom:   20    charge:    2.0847    magn:    0.0001    constr:    0.0000
     atom:   21    charge:    2.0847    magn:    0.0001    constr:    0.0000
     atom:   22    charge:    3.1199    magn:    0.0000    constr:    0.0000
     atom:   23    charge:    2.0908    magn:    0.0002    constr:    0.0000
     atom:   24    charge:    2.0753    magn:   -0.0001    constr:    0.0000
     atom:   25    charge:    2.0867    magn:    0.0000    constr:    0.0000
     atom:   26    charge:    3.1127    magn:   -0.0002    constr:    0.0000
     atom:   27    charge:    2.0802    magn:    0.0027    constr:    0.0000
     atom:   28    charge:    2.0839    magn:    0.0007    constr:    0.0000
     atom:   29    charge:    2.0860    magn:    0.0008    constr:    0.0000
     atom:   30    charge:    3.1172    magn:   -0.0008    constr:    0.0000
     atom:   31    charge:    2.0825    magn:    0.0007    constr:    0.0000
     atom:   32    charge:    2.0835    magn:    0.0070    constr:    0.0000
     atom:   33    charge:    2.0626    magn:    0.0016    constr:    0.0000
     atom:   34    charge:    3.1240    magn:   -0.0001    constr:    0.0000
     atom:   35    charge:    2.0876    magn:    0.0001    constr:    0.0000
     atom:   36    charge:    2.0847    magn:    0.0001    constr:    0.0000
     atom:   37    charge:    2.0847    magn:    0.0001    constr:    0.0000
     atom:   38    charge:    3.1200    magn:    0.0000    constr:    0.0000
     atom:   39    charge:    2.0839    magn:    0.0002    constr:    0.0000
     atom:   40    charge:    2.0756    magn:   -0.0002    constr:    0.0000
     atom:   41    charge:    2.0870    magn:   -0.0000    constr:    0.0000
     atom:   42    charge:    3.1151    magn:   -0.0002    constr:    0.0000
     atom:   43    charge:    2.0803    magn:    0.0032    constr:    0.0000
     atom:   44    charge:    2.0851    magn:    0.0009    constr:    0.0000
     atom:   45    charge:    2.0858    magn:    0.0005    constr:    0.0000
     atom:   46    charge:    3.1147    magn:   -0.0007    constr:    0.0000
     atom:   47    charge:    2.0805    magn:    0.0049    constr:    0.0000
     atom:   48    charge:    2.0844    magn:    0.0137    constr:    0.0000
     atom:   49    charge:    2.0504    magn:    0.2414    constr:    0.0000
     atom:   50    charge:    0.6717    magn:    0.0543    constr:    0.0000
     atom:   51    charge:    0.4222    magn:    0.0009    constr:    0.0000
     atom:   52    charge:    0.4227    magn:    0.0008    constr:    0.0000
     atom:   53    charge:    0.3705    magn:    0.0228    constr:    0.0000
     atom:   54    charge:    0.4224    magn:    0.0006    constr:    0.0000

     total cpu time spent up to now is     1466.0 secs

     total energy              =   -3021.15036026 Ry
     Harris-Foulkes estimate   =   -3021.15449271 Ry
     estimated scf accuracy    <       0.03550971 Ry

     total magnetization       =     1.09 Bohr mag/cell
     absolute magnetization    =     1.26 Bohr mag/cell

     iteration #  4     ecut=    40.42 Ry     beta=0.10
     Davidson diagonalization with overlap
     ethr =  8.92E-06,  avg # of iterations =  1.5

     negative rho (up, down):  1.190E-02 1.198E-02
 
     Magnetic moment per site:
     atom:    1    charge:    3.1244    magn:   -0.0003    constr:    0.0000
     atom:    2    charge:    2.0897    magn:    0.0002    constr:    0.0000
     atom:    3    charge:    3.1198    magn:   -0.0000    constr:    0.0000
     atom:    4    charge:    2.0868    magn:   -0.0001    constr:    0.0000
     atom:    5    charge:    3.1161    magn:   -0.0002    constr:    0.0000
     atom:    6    charge:    2.0795    magn:    0.0023    constr:    0.0000
     atom:    7    charge:    3.1167    magn:   -0.0055    constr:    0.0000
     atom:    8    charge:    2.0803    magn:    0.0248    constr:    0.0000
     atom:    9    charge:    3.1244    magn:   -0.0003    constr:    0.0000
     atom:   10    charge:    2.0899    magn:    0.0003    constr:    0.0000
     atom:   11    charge:    3.1198    magn:   -0.0000    constr:    0.0000
     atom:   12    charge:    2.0871    magn:   -0.0000    constr:    0.0000
     atom:   13    charge:    3.1150    magn:   -0.0002    constr:    0.0000
     atom:   14    charge:    2.0939    magn:    0.0023    constr:    0.0000
     atom:   15    charge:    3.1184    magn:   -0.0008    constr:    0.0000
     atom:   16    charge:    2.0833    magn:    0.0051    constr:    0.0000
     atom:   17    charge:    2.0623    magn:    0.0015    constr:    0.0000
     atom:   18    charge:    3.1239    magn:   -0.0001    constr:    0.0000
     atom:   19    charge:    2.0876    magn:    0.0001    constr:    0.0000
     atom:   20    charge:    2.0847    magn:    0.0001    constr:    0.0000
     atom:   21    charge:    2.0847    magn:    0.0001    constr:    0.0000
     atom:   22    charge:    3.1199    magn:    0.0000    constr:    0.0000
     atom:   23    charge:    2.0908    magn:    0.0003    constr:    0.0000
     atom:   24    charge:    2.0755    magn:   -0.0001    constr:    0.0000
     atom:   25    charge:    2.0868    magn:    0.0000    constr:    0.0000
     atom:   26    charge:    3.1127    magn:   -0.0002    constr:    0.0000
     atom:   27    charge:    2.0802    magn:    0.0027    constr:    0.0000
     atom:   28    charge:    2.0840    magn:    0.0007    constr:    0.0000
     atom:   29    charge:    2.0860    magn:    0.0008    constr:    0.0000
     atom:   30    charge:    3.1172    magn:   -0.0008    constr:    0.0000
     atom:   31    charge:    2.0823    magn:    0.0007    constr:    0.0000
     atom:   32    charge:    2.0822    magn:    0.0072    constr:    0.0000
     atom:   33    charge:    2.0623    magn:    0.0015    constr:    0.0000
     atom:   34    charge:    3.1239    magn:   -0.0001    constr:    0.0000
     atom:   35    charge:    2.0876    magn:    0.0001    constr:    0.0000
     atom:   36    charge:    2.0847    magn:    0.0001    constr:    0.0000
     atom:   37    charge:    2.0847    magn:    0.0001    constr:    0.0000
     atom:   38    charge:    3.1200    magn:    0.0000    constr:    0.0000
     atom:   39    charge:    2.0840    magn:    0.0002    constr:    0.0000
     atom:   40    charge:    2.0757    magn:   -0.0002    constr:    0.0000
     atom:   41    charge:    2.0871    magn:   -0.0000    constr:    0.0000
     atom:   42    charge:    3.1152    magn:   -0.0002    constr:    0.0000
     atom:   43    charge:    2.0803    magn:    0.0032    constr:    0.0000
     atom:   44    charge:    2.0852    magn:    0.0009    constr:    0.0000
     atom:   45    charge:    2.0858    magn:    0.0005    constr:    0.0000
     atom:   46    charge:    3.1148    magn:   -0.0007    constr:    0.0000
     atom:   47    charge:    2.0805    magn:    0.0049    constr:    0.0000
     atom:   48    charge:    2.0830    magn:    0.0138    constr:    0.0000
     atom:   49    charge:    2.0516    magn:    0.2412    constr:    0.0000
     atom:   50    charge:    0.6713    magn:    0.0545    constr:    0.0000
     atom:   51    charge:    0.4221    magn:    0.0009    constr:    0.0000
     atom:   52    charge:    0.4226    magn:    0.0008    constr:    0.0000
     atom:   53    charge:    0.3701    magn:    0.0230    constr:    0.0000
     atom:   54    charge:    0.4225    magn:    0.0006    constr:    0.0000

     total cpu time spent up to now is     1668.1 secs

     total energy              =   -3021.14942295 Ry
     Harris-Foulkes estimate   =   -3021.15181075 Ry
     estimated scf accuracy    <       0.00863339 Ry

     total magnetization       =     1.06 Bohr mag/cell
     absolute magnetization    =     1.23 Bohr mag/cell

     iteration #  5     ecut=    40.42 Ry     beta=0.10
     Davidson diagonalization with overlap
     ethr =  2.17E-06,  avg # of iterations =  6.2

     negative rho (up, down):  1.190E-02 1.198E-02
 
     Magnetic moment per site:
     atom:    1    charge:    3.1244    magn:   -0.0002    constr:    0.0000
     atom:    2    charge:    2.0897    magn:    0.0002    constr:    0.0000
     atom:    3    charge:    3.1198    magn:   -0.0000    constr:    0.0000
     atom:    4    charge:    2.0867    magn:   -0.0001    constr:    0.0000
     atom:    5    charge:    3.1161    magn:   -0.0002    constr:    0.0000
     atom:    6    charge:    2.0795    magn:    0.0023    constr:    0.0000
     atom:    7    charge:    3.1167    magn:   -0.0055    constr:    0.0000
     atom:    8    charge:    2.0806    magn:    0.0246    constr:    0.0000
     atom:    9    charge:    3.1244    magn:   -0.0002    constr:    0.0000
     atom:   10    charge:    2.0898    magn:    0.0002    constr:    0.0000
     atom:   11    charge:    3.1198    magn:   -0.0000    constr:    0.0000
     atom:   12    charge:    2.0871    magn:   -0.0000    constr:    0.0000
     atom:   13    charge:    3.1150    magn:   -0.0002    constr:    0.0000
     atom:   14    charge:    2.0939    magn:    0.0023    constr:    0.0000
     atom:   15    charge:    3.1184    magn:   -0.0008    constr:    0.0000
     atom:   16    charge:    2.0838    magn:    0.0050    constr:    0.0000
     atom:   17    charge:    2.0625    magn:    0.0014    constr:    0.0000
     atom:   18    charge:    3.1240    magn:   -0.0001    constr:    0.0000
     atom:   19    charge:    2.0875    magn:    0.0001    constr:    0.0000
     atom:   20    charge:    2.0847    magn:    0.0001    constr:    0.0000
     atom:   21    charge:    2.0847    magn:    0.0001    constr:    0.0000
     atom:   22    charge:    3.1199    magn:    0.0000    constr:    0.0000
     atom:   23    charge:    2.0908    magn:    0.0003    constr:    0.0000
     atom:   24    charge:    2.0754    magn:   -0.0001    constr:    0.0000
     atom:   25    charge:    2.0868    magn:    0.0000    constr:    0.0000
     atom:   26    charge:    3.1127    magn:   -0.0002    constr:    0.0000
     atom:   27    charge:    2.0802    magn:    0.0027    constr:    0.0000
     atom:   28    charge:    2.0839    magn:    0.0007    constr:    0.0000
     atom:   29    charge:    2.0860    magn:    0.0008    constr:    0.0000
     atom:   30    charge:    3.1171    magn:   -0.0008    constr:    0.0000
     atom:   31    charge:    2.0823    magn:    0.0007    constr:    0.0000
     atom:   32    charge:    2.0820    magn:    0.0072    constr:    0.0000
     atom:   33    charge:    2.0625    magn:    0.0014    constr:    0.0000
     atom:   34    charge:    3.1239    magn:   -0.0001    constr:    0.0000
     atom:   35    charge:    2.0876    magn:    0.0001    constr:    0.0000
     atom:   36    charge:    2.0847    magn:    0.0001    constr:    0.0000
     atom:   37    charge:    2.0847    magn:    0.0001    constr:    0.0000
     atom:   38    charge:    3.1200    magn:    0.0000    constr:    0.0000
     atom:   39    charge:    2.0839    magn:    0.0002    constr:    0.0000
     atom:   40    charge:    2.0756    magn:   -0.0002    constr:    0.0000
     atom:   41    charge:    2.0870    magn:   -0.0000    constr:    0.0000
     atom:   42    charge:    3.1151    magn:   -0.0002    constr:    0.0000
     atom:   43    charge:    2.0803    magn:    0.0032    constr:    0.0000
     atom:   44    charge:    2.0851    magn:    0.0009    constr:    0.0000
     atom:   45    charge:    2.0858    magn:    0.0005    constr:    0.0000
     atom:   46    charge:    3.1148    magn:   -0.0007    constr:    0.0000
     atom:   47    charge:    2.0806    magn:    0.0049    constr:    0.0000
     atom:   48    charge:    2.0827    magn:    0.0138    constr:    0.0000
     atom:   49    charge:    2.0521    magn:    0.2409    constr:    0.0000
     atom:   50    charge:    0.6711    magn:    0.0547    constr:    0.0000
     atom:   51    charge:    0.4221    magn:    0.0009    constr:    0.0000
     atom:   52    charge:    0.4226    magn:    0.0008    constr:    0.0000
     atom:   53    charge:    0.3698    magn:    0.0232    constr:    0.0000
     atom:   54    charge:    0.4226    magn:    0.0007    constr:    0.0000

     total cpu time spent up to now is     1961.2 secs

     total energy              =   -3021.14987043 Ry
     Harris-Foulkes estimate   =   -3021.15012512 Ry
     estimated scf accuracy    <       0.00172262 Ry

     total magnetization       =     1.06 Bohr mag/cell
     absolute magnetization    =     1.23 Bohr mag/cell

     iteration #  6     ecut=    40.42 Ry     beta=0.10
     Davidson diagonalization with overlap
     ethr =  4.33E-07,  avg # of iterations =  2.0

     negative rho (up, down):  1.190E-02 1.197E-02
 
     Magnetic moment per site:
     atom:    1    charge:    3.1244    magn:   -0.0002    constr:    0.0000
     atom:    2    charge:    2.0897    magn:    0.0002    constr:    0.0000
     atom:    3    charge:    3.1198    magn:   -0.0000    constr:    0.0000
     atom:    4    charge:    2.0867    magn:   -0.0001    constr:    0.0000
     atom:    5    charge:    3.1161    magn:   -0.0002    constr:    0.0000
     atom:    6    charge:    2.0795    magn:    0.0023    constr:    0.0000
     atom:    7    charge:    3.1167    magn:   -0.0054    constr:    0.0000
     atom:    8    charge:    2.0799    magn:    0.0243    constr:    0.0000
     atom:    9    charge:    3.1244    magn:   -0.0002    constr:    0.0000
     atom:   10    charge:    2.0898    magn:    0.0002    constr:    0.0000
     atom:   11    charge:    3.1198    magn:   -0.0000    constr:    0.0000
     atom:   12    charge:    2.0870    magn:   -0.0000    constr:    0.0000
     atom:   13    charge:    3.1150    magn:   -0.0002    constr:    0.0000
     atom:   14    charge:    2.0939    magn:    0.0023    constr:    0.0000
     atom:   15    charge:    3.1184    magn:   -0.0008    constr:    0.0000
     atom:   16    charge:    2.0835    magn:    0.0050    constr:    0.0000
     atom:   17    charge:    2.0625    magn:    0.0013    constr:    0.0000
     atom:   18    charge:    3.1240    magn:   -0.0001    constr:    0.0000
     atom:   19    charge:    2.0875    magn:    0.0000    constr:    0.0000
     atom:   20    charge:    2.0847    magn:    0.0001    constr:    0.0000
     atom:   21    charge:    2.0847    magn:    0.0001    constr:    0.0000
     atom:   22    charge:    3.1199    magn:    0.0000    constr:    0.0000
     atom:   23    charge:    2.0908    magn:    0.0003    constr:    0.0000
     atom:   24    charge:    2.0754    magn:   -0.0001    constr:    0.0000
     atom:   25    charge:    2.0867    magn:    0.0000    constr:    0.0000
     atom:   26    charge:    3.1126    magn:   -0.0003    constr:    0.0000
     atom:   27    charge:    2.0802    magn:    0.0027    constr:    0.0000
     atom:   28    charge:    2.0838    magn:    0.0008    constr:    0.0000
     atom:   29    charge:    2.0860    magn:    0.0009    constr:    0.0000
     atom:   30    charge:    3.1171    magn:   -0.0008    constr:    0.0000
     atom:   31    charge:    2.0826    magn:    0.0007    constr:    0.0000
     atom:   32    charge:    2.0826    magn:    0.0072    constr:    0.0000
     atom:   33    charge:    2.0625    magn:    0.0013    constr:    0.0000
     atom:   34    charge:    3.1239    magn:   -0.0001    constr:    0.0000
     atom:   35    charge:    2.0875    magn:    0.0000    constr:    0.0000
     atom:   36    charge:    2.0847    magn:    0.0001    constr:    0.0000
     atom:   37    charge:    2.0847    magn:    0.0001    constr:    0.0000
     atom:   38    charge:    3.1200    magn:    0.0000    constr:    0.0000
     atom:   39    charge:    2.0839    magn:    0.0002    constr:    0.0000
     atom:   40    charge:    2.0756    magn:   -0.0002    constr:    0.0000
     atom:   41    charge:    2.0870    magn:   -0.0000    constr:    0.0000
     atom:   42    charge:    3.1151    magn:   -0.0002    constr:    0.0000
     atom:   43    charge:    2.0802    magn:    0.0032    constr:    0.0000
     atom:   44    charge:    2.0850    magn:    0.0009    constr:    0.0000
     atom:   45    charge:    2.0859    magn:    0.0005    constr:    0.0000
     atom:   46    charge:    3.1148    magn:   -0.0007    constr:    0.0000
     atom:   47    charge:    2.0808    magn:    0.0048    constr:    0.0000
     atom:   48    charge:    2.0833    magn:    0.0137    constr:    0.0000
     atom:   49    charge:    2.0526    magn:    0.2402    constr:    0.0000
     atom:   50    charge:    0.6710    magn:    0.0550    constr:    0.0000
     atom:   51    charge:    0.4220    magn:    0.0009    constr:    0.0000
     atom:   52    charge:    0.4227    magn:    0.0008    constr:    0.0000
     atom:   53    charge:    0.3686    magn:    0.0234    constr:    0.0000
     atom:   54    charge:    0.4229    magn:    0.0007    constr:    0.0000

     total cpu time spent up to now is     2171.8 secs

     total energy              =   -3021.14983047 Ry
     Harris-Foulkes estimate   =   -3021.14994895 Ry
     estimated scf accuracy    <       0.00039317 Ry

     total magnetization       =     1.06 Bohr mag/cell
     absolute magnetization    =     1.23 Bohr mag/cell

     iteration #  7     ecut=    40.42 Ry     beta=0.10
     Davidson diagonalization with overlap
     ethr =  9.88E-08,  avg # of iterations =  2.0

     negative rho (up, down):  1.190E-02 1.197E-02
 
     Magnetic moment per site:
     atom:    1    charge:    3.1244    magn:   -0.0002    constr:    0.0000
     atom:    2    charge:    2.0897    magn:    0.0002    constr:    0.0000
     atom:    3    charge:    3.1198    magn:   -0.0000    constr:    0.0000
     atom:    4    charge:    2.0867    magn:   -0.0001    constr:    0.0000
     atom:    5    charge:    3.1161    magn:   -0.0003    constr:    0.0000
     atom:    6    charge:    2.0794    magn:    0.0023    constr:    0.0000
     atom:    7    charge:    3.1167    magn:   -0.0053    constr:    0.0000
     atom:    8    charge:    2.0794    magn:    0.0242    constr:    0.0000
     atom:    9    charge:    3.1244    magn:   -0.0002    constr:    0.0000
     atom:   10    charge:    2.0898    magn:    0.0002    constr:    0.0000
     atom:   11    charge:    3.1198    magn:   -0.0000    constr:    0.0000
     atom:   12    charge:    2.0870    magn:   -0.0000    constr:    0.0000
     atom:   13    charge:    3.1150    magn:   -0.0002    constr:    0.0000
     atom:   14    charge:    2.0939    magn:    0.0023    constr:    0.0000
     atom:   15    charge:    3.1184    magn:   -0.0008    constr:    0.0000
     atom:   16    charge:    2.0831    magn:    0.0049    constr:    0.0000
     atom:   17    charge:    2.0625    magn:    0.0012    constr:    0.0000
     atom:   18    charge:    3.1239    magn:   -0.0000    constr:    0.0000
     atom:   19    charge:    2.0875    magn:    0.0000    constr:    0.0000
     atom:   20    charge:    2.0847    magn:    0.0001    constr:    0.0000
     atom:   21    charge:    2.0847    magn:    0.0001    constr:    0.0000
     atom:   22    charge:    3.1199    magn:    0.0000    constr:    0.0000
     atom:   23    charge:    2.0908    magn:    0.0003    constr:    0.0000
     atom:   24    charge:    2.0754    magn:   -0.0001    constr:    0.0000
     atom:   25    charge:    2.0867    magn:    0.0000    constr:    0.0000
     atom:   26    charge:    3.1127    magn:   -0.0003    constr:    0.0000
     atom:   27    charge:    2.0802    magn:    0.0028    constr:    0.0000
     atom:   28    charge:    2.0838    magn:    0.0008    constr:    0.0000
     atom:   29    charge:    2.0860    magn:    0.0009    constr:    0.0000
     atom:   30    charge:    3.1171    magn:   -0.0008    constr:    0.0000
     atom:   31    charge:    2.0826    magn:    0.0007    constr:    0.0000
     atom:   32    charge:    2.0829    magn:    0.0072    constr:    0.0000
     atom:   33    charge:    2.0624    magn:    0.0012    constr:    0.0000
     atom:   34    charge:    3.1239    magn:   -0.0000    constr:    0.0000
     atom:   35    charge:    2.0876    magn:    0.0000    constr:    0.0000
     atom:   36    charge:    2.0847    magn:    0.0001    constr:    0.0000
     atom:   37    charge:    2.0847    magn:    0.0001    constr:    0.0000
     atom:   38    charge:    3.1200    magn:    0.0000    constr:    0.0000
     atom:   39    charge:    2.0839    magn:    0.0002    constr:    0.0000
     atom:   40    charge:    2.0756    magn:   -0.0002    constr:    0.0000
     atom:   41    charge:    2.0870    magn:   -0.0000    constr:    0.0000
     atom:   42    charge:    3.1151    magn:   -0.0002    constr:    0.0000
     atom:   43    charge:    2.0802    magn:    0.0032    constr:    0.0000
     atom:   44    charge:    2.0850    magn:    0.0010    constr:    0.0000
     atom:   45    charge:    2.0859    magn:    0.0006    constr:    0.0000
     atom:   46    charge:    3.1148    magn:   -0.0007    constr:    0.0000
     atom:   47    charge:    2.0808    magn:    0.0048    constr:    0.0000
     atom:   48    charge:    2.0837    magn:    0.0137    constr:    0.0000
     atom:   49    charge:    2.0527    magn:    0.2398    constr:    0.0000
     atom:   50    charge:    0.6710    magn:    0.0552    constr:    0.0000
     atom:   51    charge:    0.4220    magn:    0.0009    constr:    0.0000
     atom:   52    charge:    0.4227    magn:    0.0008    constr:    0.0000
     atom:   53    charge:    0.3680    magn:    0.0235    constr:    0.0000
     atom:   54    charge:    0.4230    magn:    0.0007    constr:    0.0000

     total cpu time spent up to now is     2390.6 secs

     total energy              =   -3021.14984528 Ry
     Harris-Foulkes estimate   =   -3021.14986471 Ry
     estimated scf accuracy    <       0.00013467 Ry

     total magnetization       =     1.07 Bohr mag/cell
     absolute magnetization    =     1.24 Bohr mag/cell

     iteration #  8     ecut=    40.42 Ry     beta=0.10
     Davidson diagonalization with overlap
     ethr =  3.38E-08,  avg # of iterations =  2.4

     negative rho (up, down):  1.189E-02 1.197E-02
 
     Magnetic moment per site:
     atom:    1    charge:    3.1244    magn:   -0.0002    constr:    0.0000
     atom:    2    charge:    2.0897    magn:    0.0002    constr:    0.0000
     atom:    3    charge:    3.1198    magn:   -0.0000    constr:    0.0000
     atom:    4    charge:    2.0867    magn:   -0.0001    constr:    0.0000
     atom:    5    charge:    3.1161    magn:   -0.0003    constr:    0.0000
     atom:    6    charge:    2.0795    magn:    0.0023    constr:    0.0000
     atom:    7    charge:    3.1166    magn:   -0.0052    constr:    0.0000
     atom:    8    charge:    2.0793    magn:    0.0240    constr:    0.0000
     atom:    9    charge:    3.1244    magn:   -0.0002    constr:    0.0000
     atom:   10    charge:    2.0898    magn:    0.0002    constr:    0.0000
     atom:   11    charge:    3.1198    magn:   -0.0000    constr:    0.0000
     atom:   12    charge:    2.0870    magn:   -0.0000    constr:    0.0000
     atom:   13    charge:    3.1150    magn:   -0.0002    constr:    0.0000
     atom:   14    charge:    2.0939    magn:    0.0023    constr:    0.0000
     atom:   15    charge:    3.1184    magn:   -0.0008    constr:    0.0000
     atom:   16    charge:    2.0828    magn:    0.0049    constr:    0.0000
     atom:   17    charge:    2.0624    magn:    0.0011    constr:    0.0000
     atom:   18    charge:    3.1239    magn:   -0.0000    constr:    0.0000
     atom:   19    charge:    2.0875    magn:    0.0000    constr:    0.0000
     atom:   20    charge:    2.0847    magn:    0.0001    constr:    0.0000
     atom:   21    charge:    2.0847    magn:    0.0001    constr:    0.0000
     atom:   22    charge:    3.1199    magn:    0.0000    constr:    0.0000
     atom:   23    charge:    2.0908    magn:    0.0003    constr:    0.0000
     atom:   24    charge:    2.0754    magn:   -0.0001    constr:    0.0000
     atom:   25    charge:    2.0867    magn:    0.0000    constr:    0.0000
     atom:   26    charge:    3.1127    magn:   -0.0003    constr:    0.0000
     atom:   27    charge:    2.0802    magn:    0.0028    constr:    0.0000
     atom:   28    charge:    2.0839    magn:    0.0008    constr:    0.0000
     atom:   29    charge:    2.0860    magn:    0.0009    constr:    0.0000
     atom:   30    charge:    3.1171    magn:   -0.0008    constr:    0.0000
     atom:   31    charge:    2.0826    magn:    0.0007    constr:    0.0000
     atom:   32    charge:    2.0829    magn:    0.0072    constr:    0.0000
     atom:   33    charge:    2.0624    magn:    0.0011    constr:    0.0000
     atom:   34    charge:    3.1239    magn:   -0.0000    constr:    0.0000
     atom:   35    charge:    2.0876    magn:    0.0000    constr:    0.0000
     atom:   36    charge:    2.0847    magn:    0.0001    constr:    0.0000
     atom:   37    charge:    2.0847    magn:    0.0001    constr:    0.0000
     atom:   38    charge:    3.1200    magn:    0.0000    constr:    0.0000
     atom:   39    charge:    2.0839    magn:    0.0002    constr:    0.0000
     atom:   40    charge:    2.0756    magn:   -0.0001    constr:    0.0000
     atom:   41    charge:    2.0870    magn:   -0.0000    constr:    0.0000
     atom:   42    charge:    3.1151    magn:   -0.0003    constr:    0.0000
     atom:   43    charge:    2.0803    magn:    0.0033    constr:    0.0000
     atom:   44    charge:    2.0851    magn:    0.0010    constr:    0.0000
     atom:   45    charge:    2.0858    magn:    0.0006    constr:    0.0000
     atom:   46    charge:    3.1148    magn:   -0.0007    constr:    0.0000
     atom:   47    charge:    2.0807    magn:    0.0048    constr:    0.0000
     atom:   48    charge:    2.0838    magn:    0.0137    constr:    0.0000
     atom:   49    charge:    2.0528    magn:    0.2394    constr:    0.0000
     atom:   50    charge:    0.6713    magn:    0.0554    constr:    0.0000
     atom:   51    charge:    0.4219    magn:    0.0009    constr:    0.0000
     atom:   52    charge:    0.4226    magn:    0.0008    constr:    0.0000
     atom:   53    charge:    0.3677    magn:    0.0235    constr:    0.0000
     atom:   54    charge:    0.4231    magn:    0.0007    constr:    0.0000

     total cpu time spent up to now is     2610.4 secs

     total energy              =   -3021.14985204 Ry
     Harris-Foulkes estimate   =   -3021.14985301 Ry
     estimated scf accuracy    <       0.00003086 Ry

     total magnetization       =     1.06 Bohr mag/cell
     absolute magnetization    =     1.23 Bohr mag/cell

     iteration #  9     ecut=    40.42 Ry     beta=0.10
     Davidson diagonalization with overlap
     ethr =  7.75E-09,  avg # of iterations =  3.0

     negative rho (up, down):  1.189E-02 1.197E-02
 
     Magnetic moment per site:
     atom:    1    charge:    3.1244    magn:   -0.0002    constr:    0.0000
     atom:    2    charge:    2.0897    magn:    0.0002    constr:    0.0000
     atom:    3    charge:    3.1198    magn:   -0.0000    constr:    0.0000
     atom:    4    charge:    2.0867    magn:   -0.0001    constr:    0.0000
     atom:    5    charge:    3.1161    magn:   -0.0003    constr:    0.0000
     atom:    6    charge:    2.0795    magn:    0.0023    constr:    0.0000
     atom:    7    charge:    3.1166    magn:   -0.0052    constr:    0.0000
     atom:    8    charge:    2.0793    magn:    0.0239    constr:    0.0000
     atom:    9    charge:    3.1244    magn:   -0.0002    constr:    0.0000
     atom:   10    charge:    2.0898    magn:    0.0002    constr:    0.0000
     atom:   11    charge:    3.1198    magn:   -0.0000    constr:    0.0000
     atom:   12    charge:    2.0870    magn:   -0.0000    constr:    0.0000
     atom:   13    charge:    3.1150    magn:   -0.0002    constr:    0.0000
     atom:   14    charge:    2.0939    magn:    0.0023    constr:    0.0000
     atom:   15    charge:    3.1184    magn:   -0.0008    constr:    0.0000
     atom:   16    charge:    2.0828    magn:    0.0049    constr:    0.0000
     atom:   17    charge:    2.0624    magn:    0.0010    constr:    0.0000
     atom:   18    charge:    3.1239    magn:   -0.0000    constr:    0.0000
     atom:   19    charge:    2.0875    magn:    0.0000    constr:    0.0000
     atom:   20    charge:    2.0847    magn:    0.0001    constr:    0.0000
     atom:   21    charge:    2.0847    magn:    0.0001    constr:    0.0000
     atom:   22    charge:    3.1199    magn:    0.0000    constr:    0.0000
     atom:   23    charge:    2.0908    magn:    0.0003    constr:    0.0000
     atom:   24    charge:    2.0754    magn:   -0.0000    constr:    0.0000
     atom:   25    charge:    2.0867    magn:    0.0000    constr:    0.0000
     atom:   26    charge:    3.1127    magn:   -0.0003    constr:    0.0000
     atom:   27    charge:    2.0803    magn:    0.0028    constr:    0.0000
     atom:   28    charge:    2.0839    magn:    0.0008    constr:    0.0000
     atom:   29    charge:    2.0860    magn:    0.0009    constr:    0.0000
     atom:   30    charge:    3.1171    magn:   -0.0008    constr:    0.0000
     atom:   31    charge:    2.0825    magn:    0.0007    constr:    0.0000
     atom:   32    charge:    2.0829    magn:    0.0072    constr:    0.0000
     atom:   33    charge:    2.0624    magn:    0.0010    constr:    0.0000
     atom:   34    charge:    3.1239    magn:   -0.0000    constr:    0.0000
     atom:   35    charge:    2.0876    magn:    0.0000    constr:    0.0000
     atom:   36    charge:    2.0847    magn:    0.0001    constr:    0.0000
     atom:   37    charge:    2.0847    magn:    0.0001    constr:    0.0000
     atom:   38    charge:    3.1200    magn:    0.0000    constr:    0.0000
     atom:   39    charge:    2.0839    magn:    0.0002    constr:    0.0000
     atom:   40    charge:    2.0756    magn:   -0.0001    constr:    0.0000
     atom:   41    charge:    2.0870    magn:   -0.0000    constr:    0.0000
     atom:   42    charge:    3.1151    magn:   -0.0003    constr:    0.0000
     atom:   43    charge:    2.0803    magn:    0.0033    constr:    0.0000
     atom:   44    charge:    2.0851    magn:    0.0010    constr:    0.0000
     atom:   45    charge:    2.0858    magn:    0.0006    constr:    0.0000
     atom:   46    charge:    3.1148    magn:   -0.0008    constr:    0.0000
     atom:   47    charge:    2.0807    magn:    0.0048    constr:    0.0000
     atom:   48    charge:    2.0838    magn:    0.0137    constr:    0.0000
     atom:   49    charge:    2.0528    magn:    0.2392    constr:    0.0000
     atom:   50    charge:    0.6714    magn:    0.0555    constr:    0.0000
     atom:   51    charge:    0.4219    magn:    0.0009    constr:    0.0000
     atom:   52    charge:    0.4226    magn:    0.0008    constr:    0.0000
     atom:   53    charge:    0.3676    magn:    0.0234    constr:    0.0000
     atom:   54    charge:    0.4231    magn:    0.0007    constr:    0.0000

     total cpu time spent up to now is     2847.0 secs

     total energy              =   -3021.14985576 Ry
     Harris-Foulkes estimate   =   -3021.14985462 Ry
     estimated scf accuracy    <       0.00001110 Ry

     total magnetization       =     1.06 Bohr mag/cell
     absolute magnetization    =     1.23 Bohr mag/cell

     iteration # 10     ecut=    40.42 Ry     beta=0.10
     Davidson diagonalization with overlap
     ethr =  2.79E-09,  avg # of iterations =  2.1

     negative rho (up, down):  1.189E-02 1.197E-02
 
     Magnetic moment per site:
     atom:    1    charge:    3.1244    magn:   -0.0002    constr:    0.0000
     atom:    2    charge:    2.0897    magn:    0.0001    constr:    0.0000
     atom:    3    charge:    3.1198    magn:   -0.0000    constr:    0.0000
     atom:    4    charge:    2.0867    magn:   -0.0001    constr:    0.0000
     atom:    5    charge:    3.1161    magn:   -0.0003    constr:    0.0000
     atom:    6    charge:    2.0795    magn:    0.0023    constr:    0.0000
     atom:    7    charge:    3.1166    magn:   -0.0051    constr:    0.0000
     atom:    8    charge:    2.0793    magn:    0.0238    constr:    0.0000
     atom:    9    charge:    3.1244    magn:   -0.0002    constr:    0.0000
     atom:   10    charge:    2.0898    magn:    0.0001    constr:    0.0000
     atom:   11    charge:    3.1198    magn:   -0.0000    constr:    0.0000
     atom:   12    charge:    2.0870    magn:   -0.0000    constr:    0.0000
     atom:   13    charge:    3.1150    magn:   -0.0002    constr:    0.0000
     atom:   14    charge:    2.0939    magn:    0.0023    constr:    0.0000
     atom:   15    charge:    3.1184    magn:   -0.0008    constr:    0.0000
     atom:   16    charge:    2.0828    magn:    0.0048    constr:    0.0000
     atom:   17    charge:    2.0624    magn:    0.0009    constr:    0.0000
     atom:   18    charge:    3.1239    magn:   -0.0000    constr:    0.0000
     atom:   19    charge:    2.0875    magn:    0.0000    constr:    0.0000
     atom:   20    charge:    2.0847    magn:    0.0001    constr:    0.0000
     atom:   21    charge:    2.0847    magn:    0.0001    constr:    0.0000
     atom:   22    charge:    3.1199    magn:    0.0000    constr:    0.0000
     atom:   23    charge:    2.0908    magn:    0.0003    constr:    0.0000
     atom:   24    charge:    2.0754    magn:   -0.0000    constr:    0.0000
     atom:   25    charge:    2.0867    magn:   -0.0000    constr:    0.0000
     atom:   26    charge:    3.1127    magn:   -0.0003    constr:    0.0000
     atom:   27    charge:    2.0803    magn:    0.0028    constr:    0.0000
     atom:   28    charge:    2.0839    magn:    0.0008    constr:    0.0000
     atom:   29    charge:    2.0860    magn:    0.0009    constr:    0.0000
     atom:   30    charge:    3.1171    magn:   -0.0008    constr:    0.0000
     atom:   31    charge:    2.0825    magn:    0.0007    constr:    0.0000
     atom:   32    charge:    2.0829    magn:    0.0072    constr:    0.0000
     atom:   33    charge:    2.0624    magn:    0.0009    constr:    0.0000
     atom:   34    charge:    3.1239    magn:   -0.0000    constr:    0.0000
     atom:   35    charge:    2.0876    magn:    0.0000    constr:    0.0000
     atom:   36    charge:    2.0847    magn:    0.0001    constr:    0.0000
     atom:   37    charge:    2.0847    magn:    0.0001    constr:    0.0000
     atom:   38    charge:    3.1200    magn:    0.0000    constr:    0.0000
     atom:   39    charge:    2.0839    magn:    0.0002    constr:    0.0000
     atom:   40    charge:    2.0756    magn:   -0.0001    constr:    0.0000
     atom:   41    charge:    2.0870    magn:   -0.0000    constr:    0.0000
     atom:   42    charge:    3.1151    magn:   -0.0003    constr:    0.0000
     atom:   43    charge:    2.0803    magn:    0.0033    constr:    0.0000
     atom:   44    charge:    2.0851    magn:    0.0010    constr:    0.0000
     atom:   45    charge:    2.0858    magn:    0.0006    constr:    0.0000
     atom:   46    charge:    3.1147    magn:   -0.0008    constr:    0.0000
     atom:   47    charge:    2.0806    magn:    0.0048    constr:    0.0000
     atom:   48    charge:    2.0837    magn:    0.0136    constr:    0.0000
     atom:   49    charge:    2.0528    magn:    0.2389    constr:    0.0000
     atom:   50    charge:    0.6715    magn:    0.0556    constr:    0.0000
     atom:   51    charge:    0.4219    magn:    0.0009    constr:    0.0000
     atom:   52    charge:    0.4226    magn:    0.0008    constr:    0.0000
     atom:   53    charge:    0.3676    magn:    0.0234    constr:    0.0000
     atom:   54    charge:    0.4230    magn:    0.0007    constr:    0.0000

     total cpu time spent up to now is     3060.4 secs

     total energy              =   -3021.14985785 Ry
     Harris-Foulkes estimate   =   -3021.14985649 Ry
     estimated scf accuracy    <       0.00000544 Ry

     total magnetization       =     1.06 Bohr mag/cell
     absolute magnetization    =     1.23 Bohr mag/cell

     iteration # 11     ecut=    40.42 Ry     beta=0.10
     Davidson diagonalization with overlap
     ethr =  1.37E-09,  avg # of iterations =  3.0

     negative rho (up, down):  1.189E-02 1.197E-02
 
     Magnetic moment per site:
     atom:    1    charge:    3.1244    magn:   -0.0001    constr:    0.0000
     atom:    2    charge:    2.0897    magn:    0.0001    constr:    0.0000
     atom:    3    charge:    3.1198    magn:   -0.0000    constr:    0.0000
     atom:    4    charge:    2.0867    magn:   -0.0001    constr:    0.0000
     atom:    5    charge:    3.1161    magn:   -0.0003    constr:    0.0000
     atom:    6    charge:    2.0795    magn:    0.0023    constr:    0.0000
     atom:    7    charge:    3.1166    magn:   -0.0051    constr:    0.0000
     atom:    8    charge:    2.0793    magn:    0.0237    constr:    0.0000
     atom:    9    charge:    3.1244    magn:   -0.0001    constr:    0.0000
     atom:   10    charge:    2.0898    magn:    0.0001    constr:    0.0000
     atom:   11    charge:    3.1198    magn:   -0.0000    constr:    0.0000
     atom:   12    charge:    2.0870    magn:   -0.0000    constr:    0.0000
     atom:   13    charge:    3.1150    magn:   -0.0002    constr:    0.0000
     atom:   14    charge:    2.0939    magn:    0.0023    constr:    0.0000
     atom:   15    charge:    3.1184    magn:   -0.0008    constr:    0.0000
     atom:   16    charge:    2.0828    magn:    0.0048    constr:    0.0000
     atom:   17    charge:    2.0624    magn:    0.0009    constr:    0.0000
     atom:   18    charge:    3.1239    magn:   -0.0000    constr:    0.0000
     atom:   19    charge:    2.0875    magn:    0.0000    constr:    0.0000
     atom:   20    charge:    2.0847    magn:    0.0001    constr:    0.0000
     atom:   21    charge:    2.0847    magn:    0.0001    constr:    0.0000
     atom:   22    charge:    3.1199    magn:    0.0000    constr:    0.0000
     atom:   23    charge:    2.0908    magn:    0.0003    constr:    0.0000
     atom:   24    charge:    2.0754    magn:   -0.0000    constr:    0.0000
     atom:   25    charge:    2.0867    magn:   -0.0000    constr:    0.0000
     atom:   26    charge:    3.1127    magn:   -0.0003    constr:    0.0000
     atom:   27    charge:    2.0803    magn:    0.0028    constr:    0.0000
     atom:   28    charge:    2.0839    magn:    0.0009    constr:    0.0000
     atom:   29    charge:    2.0860    magn:    0.0009    constr:    0.0000
     atom:   30    charge:    3.1171    magn:   -0.0008    constr:    0.0000
     atom:   31    charge:    2.0825    magn:    0.0007    constr:    0.0000
     atom:   32    charge:    2.0829    magn:    0.0072    constr:    0.0000
     atom:   33    charge:    2.0624    magn:    0.0009    constr:    0.0000
     atom:   34    charge:    3.1239    magn:   -0.0000    constr:    0.0000
     atom:   35    charge:    2.0875    magn:    0.0000    constr:    0.0000
     atom:   36    charge:    2.0847    magn:    0.0001    constr:    0.0000
     atom:   37    charge:    2.0847    magn:    0.0001    constr:    0.0000
     atom:   38    charge:    3.1200    magn:    0.0000    constr:    0.0000
     atom:   39    charge:    2.0839    magn:    0.0002    constr:    0.0000
     atom:   40    charge:    2.0756    magn:   -0.0001    constr:    0.0000
     atom:   41    charge:    2.0870    magn:   -0.0000    constr:    0.0000
     atom:   42    charge:    3.1151    magn:   -0.0003    constr:    0.0000
     atom:   43    charge:    2.0803    magn:    0.0033    constr:    0.0000
     atom:   44    charge:    2.0851    magn:    0.0010    constr:    0.0000
     atom:   45    charge:    2.0858    magn:    0.0006    constr:    0.0000
     atom:   46    charge:    3.1147    magn:   -0.0007    constr:    0.0000
     atom:   47    charge:    2.0807    magn:    0.0047    constr:    0.0000
     atom:   48    charge:    2.0837    magn:    0.0136    constr:    0.0000
     atom:   49    charge:    2.0528    magn:    0.2387    constr:    0.0000
     atom:   50    charge:    0.6714    magn:    0.0557    constr:    0.0000
     atom:   51    charge:    0.4219    magn:    0.0009    constr:    0.0000
     atom:   52    charge:    0.4226    magn:    0.0008    constr:    0.0000
     atom:   53    charge:    0.3676    magn:    0.0234    constr:    0.0000
     atom:   54    charge:    0.4230    magn:    0.0007    constr:    0.0000

     total cpu time spent up to now is     3291.9 secs

     total energy              =   -3021.14985869 Ry
     Harris-Foulkes estimate   =   -3021.14985839 Ry
     estimated scf accuracy    <       0.00000346 Ry

     total magnetization       =     1.06 Bohr mag/cell
     absolute magnetization    =     1.23 Bohr mag/cell

     iteration # 12     ecut=    40.42 Ry     beta=0.10
     Davidson diagonalization with overlap
     ethr =  8.69E-10,  avg # of iterations =  2.3

     negative rho (up, down):  1.189E-02 1.197E-02
 
     Magnetic moment per site:
     atom:    1    charge:    3.1244    magn:   -0.0001    constr:    0.0000
     atom:    2    charge:    2.0897    magn:    0.0001    constr:    0.0000
     atom:    3    charge:    3.1198    magn:   -0.0000    constr:    0.0000
     atom:    4    charge:    2.0867    magn:   -0.0001    constr:    0.0000
     atom:    5    charge:    3.1161    magn:   -0.0003    constr:    0.0000
     atom:    6    charge:    2.0795    magn:    0.0023    constr:    0.0000
     atom:    7    charge:    3.1166    magn:   -0.0050    constr:    0.0000
     atom:    8    charge:    2.0793    magn:    0.0237    constr:    0.0000
     atom:    9    charge:    3.1244    magn:   -0.0001    constr:    0.0000
     atom:   10    charge:    2.0898    magn:    0.0001    constr:    0.0000
     atom:   11    charge:    3.1198    magn:   -0.0000    constr:    0.0000
     atom:   12    charge:    2.0870    magn:   -0.0000    constr:    0.0000
     atom:   13    charge:    3.1150    magn:   -0.0002    constr:    0.0000
     atom:   14    charge:    2.0939    magn:    0.0023    constr:    0.0000
     atom:   15    charge:    3.1184    magn:   -0.0008    constr:    0.0000
     atom:   16    charge:    2.0828    magn:    0.0048    constr:    0.0000
     atom:   17    charge:    2.0624    magn:    0.0008    constr:    0.0000
     atom:   18    charge:    3.1239    magn:   -0.0000    constr:    0.0000
     atom:   19    charge:    2.0875    magn:    0.0000    constr:    0.0000
     atom:   20    charge:    2.0847    magn:    0.0001    constr:    0.0000
     atom:   21    charge:    2.0847    magn:    0.0001    constr:    0.0000
     atom:   22    charge:    3.1199    magn:    0.0000    constr:    0.0000
     atom:   23    charge:    2.0908    magn:    0.0003    constr:    0.0000
     atom:   24    charge:    2.0754    magn:   -0.0000    constr:    0.0000
     atom:   25    charge:    2.0867    magn:   -0.0000    constr:    0.0000
     atom:   26    charge:    3.1127    magn:   -0.0003    constr:    0.0000
     atom:   27    charge:    2.0802    magn:    0.0028    constr:    0.0000
     atom:   28    charge:    2.0839    magn:    0.0009    constr:    0.0000
     atom:   29    charge:    2.0860    magn:    0.0010    constr:    0.0000
     atom:   30    charge:    3.1171    magn:   -0.0008    constr:    0.0000
     atom:   31    charge:    2.0825    magn:    0.0007    constr:    0.0000
     atom:   32    charge:    2.0829    magn:    0.0071    constr:    0.0000
     atom:   33    charge:    2.0624    magn:    0.0008    constr:    0.0000
     atom:   34    charge:    3.1239    magn:   -0.0000    constr:    0.0000
     atom:   35    charge:    2.0875    magn:    0.0000    constr:    0.0000
     atom:   36    charge:    2.0847    magn:    0.0001    constr:    0.0000
     atom:   37    charge:    2.0847    magn:    0.0001    constr:    0.0000
     atom:   38    charge:    3.1200    magn:    0.0000    constr:    0.0000
     atom:   39    charge:    2.0839    magn:    0.0002    constr:    0.0000
     atom:   40    charge:    2.0756    magn:   -0.0001    constr:    0.0000
     atom:   41    charge:    2.0870    magn:   -0.0000    constr:    0.0000
     atom:   42    charge:    3.1151    magn:   -0.0003    constr:    0.0000
     atom:   43    charge:    2.0803    magn:    0.0033    constr:    0.0000
     atom:   44    charge:    2.0851    magn:    0.0011    constr:    0.0000
     atom:   45    charge:    2.0858    magn:    0.0006    constr:    0.0000
     atom:   46    charge:    3.1147    magn:   -0.0007    constr:    0.0000
     atom:   47    charge:    2.0807    magn:    0.0047    constr:    0.0000
     atom:   48    charge:    2.0837    magn:    0.0136    constr:    0.0000
     atom:   49    charge:    2.0528    magn:    0.2385    constr:    0.0000
     atom:   50    charge:    0.6714    magn:    0.0557    constr:    0.0000
     atom:   51    charge:    0.4219    magn:    0.0009    constr:    0.0000
     atom:   52    charge:    0.4227    magn:    0.0008    constr:    0.0000
     atom:   53    charge:    0.3676    magn:    0.0234    constr:    0.0000
     atom:   54    charge:    0.4230    magn:    0.0007    constr:    0.0000

     total cpu time spent up to now is     3506.6 secs

     total energy              =   -3021.14985945 Ry
     Harris-Foulkes estimate   =   -3021.14985891 Ry
     estimated scf accuracy    <       0.00000091 Ry

     total magnetization       =     1.06 Bohr mag/cell
     absolute magnetization    =     1.23 Bohr mag/cell

     iteration # 13     ecut=    40.42 Ry     beta=0.10
     Davidson diagonalization with overlap
     ethr =  2.29E-10,  avg # of iterations =  3.0

     negative rho (up, down):  1.189E-02 1.196E-02
 
     Magnetic moment per site:
     atom:    1    charge:    3.1244    magn:   -0.0001    constr:    0.0000
     atom:    2    charge:    2.0897    magn:    0.0001    constr:    0.0000
     atom:    3    charge:    3.1198    magn:   -0.0000    constr:    0.0000
     atom:    4    charge:    2.0867    magn:   -0.0001    constr:    0.0000
     atom:    5    charge:    3.1161    magn:   -0.0003    constr:    0.0000
     atom:    6    charge:    2.0795    magn:    0.0023    constr:    0.0000
     atom:    7    charge:    3.1166    magn:   -0.0050    constr:    0.0000
     atom:    8    charge:    2.0793    magn:    0.0235    constr:    0.0000
     atom:    9    charge:    3.1244    magn:   -0.0001    constr:    0.0000
     atom:   10    charge:    2.0898    magn:    0.0001    constr:    0.0000
     atom:   11    charge:    3.1198    magn:   -0.0000    constr:    0.0000
     atom:   12    charge:    2.0870    magn:   -0.0000    constr:    0.0000
     atom:   13    charge:    3.1150    magn:   -0.0002    constr:    0.0000
     atom:   14    charge:    2.0939    magn:    0.0023    constr:    0.0000
     atom:   15    charge:    3.1184    magn:   -0.0008    constr:    0.0000
     atom:   16    charge:    2.0828    magn:    0.0048    constr:    0.0000
     atom:   17    charge:    2.0624    magn:    0.0006    constr:    0.0000
     atom:   18    charge:    3.1239    magn:   -0.0000    constr:    0.0000
     atom:   19    charge:    2.0875    magn:    0.0000    constr:    0.0000
     atom:   20    charge:    2.0847    magn:    0.0000    constr:    0.0000
     atom:   21    charge:    2.0847    magn:    0.0000    constr:    0.0000
     atom:   22    charge:    3.1199    magn:    0.0000    constr:    0.0000
     atom:   23    charge:    2.0908    magn:    0.0003    constr:    0.0000
     atom:   24    charge:    2.0754    magn:    0.0000    constr:    0.0000
     atom:   25    charge:    2.0867    magn:   -0.0000    constr:    0.0000
     atom:   26    charge:    3.1127    magn:   -0.0003    constr:    0.0000
     atom:   27    charge:    2.0802    magn:    0.0028    constr:    0.0000
     atom:   28    charge:    2.0839    magn:    0.0009    constr:    0.0000
     atom:   29    charge:    2.0860    magn:    0.0010    constr:    0.0000
     atom:   30    charge:    3.1171    magn:   -0.0008    constr:    0.0000
     atom:   31    charge:    2.0826    magn:    0.0007    constr:    0.0000
     atom:   32    charge:    2.0829    magn:    0.0071    constr:    0.0000
     atom:   33    charge:    2.0624    magn:    0.0006    constr:    0.0000
     atom:   34    charge:    3.1239    magn:   -0.0000    constr:    0.0000
     atom:   35    charge:    2.0876    magn:    0.0000    constr:    0.0000
     atom:   36    charge:    2.0847    magn:    0.0000    constr:    0.0000
     atom:   37    charge:    2.0847    magn:    0.0000    constr:    0.0000
     atom:   38    charge:    3.1200    magn:    0.0000    constr:    0.0000
     atom:   39    charge:    2.0839    magn:    0.0002    constr:    0.0000
     atom:   40    charge:    2.0756    magn:   -0.0001    constr:    0.0000
     atom:   41    charge:    2.0870    magn:   -0.0000    constr:    0.0000
     atom:   42    charge:    3.1151    magn:   -0.0003    constr:    0.0000
     atom:   43    charge:    2.0803    magn:    0.0033    constr:    0.0000
     atom:   44    charge:    2.0851    magn:    0.0011    constr:    0.0000
     atom:   45    charge:    2.0858    magn:    0.0006    constr:    0.0000
     atom:   46    charge:    3.1148    magn:   -0.0007    constr:    0.0000
     atom:   47    charge:    2.0807    magn:    0.0047    constr:    0.0000
     atom:   48    charge:    2.0837    magn:    0.0136    constr:    0.0000
     atom:   49    charge:    2.0528    magn:    0.2383    constr:    0.0000
     atom:   50    charge:    0.6714    magn:    0.0558    constr:    0.0000
     atom:   51    charge:    0.4219    magn:    0.0009    constr:    0.0000
     atom:   52    charge:    0.4227    magn:    0.0007    constr:    0.0000
     atom:   53    charge:    0.3676    magn:    0.0234    constr:    0.0000
     atom:   54    charge:    0.4230    magn:    0.0007    constr:    0.0000

     total cpu time spent up to now is     3742.2 secs

     End of self-consistent calculation

 ------ SPIN UP ------------


          k = 0.0000 0.0000 0.0000 ( 34665 PWs)   bands (ev):

   -58.2999 -58.2648 -57.3817 -57.3760 -57.3429 -57.3052 -57.2540 -57.0849
   -57.0587 -57.0531 -57.0146 -56.9160 -56.8953 -56.8807 -56.7965 -56.7579
   -34.7451 -34.5685 -34.5397 -34.5065 -34.4115 -34.3546 -33.8766 -33.8643
   -33.7465 -33.6732 -33.6312 -33.5884 -33.5563 -33.5491 -33.5432 -33.5367
   -33.5252 -33.5102 -33.4848 -33.4835 -33.4691 -33.4683 -33.4646 -33.4458
   -33.3354 -33.3313 -33.3258 -33.3234 -33.3102 -33.2824 -33.2767 -33.2567
   -33.2365 -33.2311 -33.2308 -33.2214 -33.1978 -33.1708 -33.1364 -33.1346
   -33.1007 -33.0744 -33.0447 -33.0248 -33.0104 -32.9853 -32.9429 -32.8777
   -18.4651 -18.0322 -17.8079 -17.7076 -17.5471 -17.5256 -17.4817 -17.3797
   -17.3531 -17.2531 -17.0410 -17.0201 -17.0129 -16.9881 -16.9259 -16.8501
   -16.8326 -16.7939 -16.7357 -16.7034 -16.6851 -16.6525 -16.5890 -16.5843
   -16.4616 -16.4140 -16.3951 -16.3569 -16.3219 -16.1432 -16.0826 -15.5949
   -15.5340 -11.2131  -6.0437  -5.4923  -5.2784  -5.1986  -5.0905  -4.9931
    -4.9781  -4.9511  -4.8744  -4.7294  -4.6457  -4.5954  -4.5812  -4.5065
    -4.4253  -4.4094  -4.3481  -4.3122  -4.2299  -4.2147  -4.1936  -4.1384
    -4.0268  -4.0195  -3.9759  -3.9041  -3.8877  -3.8816  -3.8791  -3.8230
    -3.7722  -3.7483  -3.7155  -3.6701  -3.6273  -3.5782  -3.5377  -3.5236
    -3.5150  -3.4155  -3.4039  -3.3564  -3.2683  -3.2286  -3.1837  -3.0827
    -2.9187  -2.8922  -2.8463  -2.8008  -2.7414  -2.6894  -2.6681  -2.6583
    -2.6293  -2.5323  -2.4854  -2.4343  -2.3733  -2.3281  -2.2465  -2.2249
    -2.2206  -2.1556  -2.0653  -2.0366  -1.9893  -1.9549  -1.9254  -1.8937
    -1.8473  -1.7338  -1.6921  -1.6649  -1.6358  -1.6262  -1.5815  -1.4982
    -1.4160  -1.3616  -1.3479  -1.3334  -1.3100  -1.2646  -1.2203  -1.1660
    -1.1553  -1.1057  -1.1032  -1.0861  -1.0578  -0.9750  -0.8685  -0.8261
    -0.8040  -0.6884  -0.6824  -0.6192  -0.5472  -0.5063  -0.4786  -0.1821
     1.0309   1.1278   1.4226   1.7011   1.8092   1.9271   1.9745   2.0212
[...]
    -1.7238  -1.5027  -1.4591  -1.4487  -1.4291  -1.3922  -1.3113  -1.1477
    -1.1382  -1.0814  -1.0642  -1.0486  -0.9609  -0.9050  -0.8676  -0.7811
    -0.7280  -0.7210  -0.6890  -0.6641  -0.5914  -0.5677  -0.5558   0.3095
     1.6077   1.6111   1.6237   1.6291   1.9715   1.9723   2.1012   2.1022
     2.2848   2.3056   2.3190   2.4006   2.4236   2.4937   2.5794   2.6397
     2.6618   2.7062   2.7900   2.8231   2.8788   2.9315   2.9537   2.9820
     2.9964   3.0051   3.0460   3.1040   3.1183   3.2153   3.2410   3.2502
     3.2660   3.2893   3.3467   3.3934   3.4064   3.4122   3.4676   3.4787
     3.4895   3.5168   3.5315   3.5835   3.6401   3.6593   3.7822   3.8831
     3.9182   3.9295   4.1465   4.1469   4.5958   4.6262   4.6486   4.7338
     4.8885   4.9037   4.9364   5.0878   5.1668   5.1718   5.1911   5.4510
     5.6796   5.6885   5.6997   5.9325   5.9378   5.9713   6.0217   6.0245
     6.0989   6.1119   6.1802   6.2718   6.2767   6.2840   6.3892   6.4664
     6.5050   6.6118   7.0570   7.2234   7.3299   7.3893   7.5546   7.5887
     7.7144   7.7675   7.9205   8.1066   8.2924   8.3433   8.4492   8.8622
     9.0098   9.0658   9.2107

          k =-0.0253 0.0280 0.0000 ( 34687 PWs)   bands (ev):

   -58.2977 -58.2673 -57.3796 -57.3746 -57.3452 -57.3064 -57.2545 -57.0888
   -57.0599 -57.0529 -57.0180 -56.9188 -56.9142 -56.8837 -56.7977 -56.7641
   -34.7201 -34.5667 -34.5418 -34.4996 -34.4180 -34.3818 -33.8514 -33.8409
   -33.7266 -33.6593 -33.6249 -33.5861 -33.5601 -33.5460 -33.5426 -33.5338
   -33.5257 -33.5130 -33.5113 -33.4913 -33.4850 -33.4621 -33.4613 -33.4426
   -33.3308 -33.3215 -33.3141 -33.3109 -33.3060 -33.3002 -33.2759 -33.2566
   -33.2462 -33.2331 -33.2329 -33.2242 -33.2110 -33.1974 -33.1616 -33.1299
   -33.1292 -33.0744 -33.0514 -33.0343 -33.0147 -32.9935 -32.9710 -32.9092
   -18.3630 -17.9336 -17.7684 -17.7261 -17.5155 -17.5089 -17.3680 -17.3608
   -17.3377 -17.3076 -17.1040 -17.0611 -16.9765 -16.9315 -16.8652 -16.8232
   -16.7847 -16.7426 -16.7251 -16.6616 -16.6551 -16.5756 -16.5361 -16.4775
   -16.4534 -16.3978 -16.3579 -16.3405 -16.1496 -16.1154 -15.8959 -15.6050
   -15.5564 -10.8061  -5.8338  -5.3022  -5.1361  -5.1180  -4.9862  -4.9452
    -4.9063  -4.8179  -4.6910  -4.6701  -4.6289  -4.5289  -4.4908  -4.4344
    -4.4013  -4.3060  -4.2827  -4.2440  -4.1942  -4.1761  -4.1344  -4.1202
    -4.0884  -4.0510  -4.0141  -3.9863  -3.9478  -3.9071  -3.8806  -3.7921
    -3.7781  -3.7166  -3.6910  -3.6213  -3.6003  -3.5925  -3.4984  -3.3860
    -3.3385  -3.3132  -3.2868  -3.2562  -3.2177  -3.1756  -3.1054  -3.0890
    -2.9132  -2.8758  -2.8158  -2.7706  -2.7144  -2.6800  -2.6670  -2.6102
    -2.5821  -2.5021  -2.4925  -2.4355  -2.4038  -2.3514  -2.2809  -2.2590
    -2.2058  -2.1853  -2.0971  -2.0356  -1.9556  -1.9339  -1.9101  -1.8438
    -1.8325  -1.7839  -1.7389  -1.6792  -1.6284  -1.5879  -1.5556  -1.5038
    -1.4696  -1.4287  -1.4003  -1.3720  -1.3549  -1.3388  -1.3079  -1.2822
    -1.1975  -1.1193  -1.0609  -1.0038  -0.9781  -0.9476  -0.9223  -0.8783
    -0.8363  -0.8131  -0.6246  -0.6032  -0.5784  -0.5146  -0.2565   0.3339
     1.1596   1.2532   1.4372   1.8265   1.8659   1.9331   1.9695   2.0371
     2.0480   2.1971   2.3080   2.3537   2.3953   2.4375   2.4616   2.5114
     2.5318   2.5559   2.5968   2.6570   2.7046   2.7295   2.7839   2.8396
     2.8841   2.9212   2.9376   2.9808   2.9985   3.0217   3.0481   3.1009
     3.1780   3.1986   3.2411   3.2659   3.3018   3.3432   3.4374   3.4719
     3.5020   3.5647   3.6187   3.6491   3.6702   3.7509   3.8271   3.8725
     4.0196   4.2155   4.2917   4.4435   4.6321   4.7300   4.8512   4.8686
     5.0081   5.0321   5.1196   5.2051   5.2479   5.3621   5.4678   5.5557
     5.6577   5.7022   5.7189   5.8095   5.8567   5.8906   5.9164   5.9391
     5.9735   5.9966   6.0703   6.1253   6.1823   6.2887   6.4056   6.4558
     6.4692   6.5856   6.7555   6.8116   7.3739   7.4903   7.7909   7.8906
     8.0887   8.2273   8.4893   8.5340   8.7829   8.8900   9.0802   9.3100
     9.3738   9.5300   9.6120

          k =-0.0253 0.0560 0.0000 ( 34699 PWs)   bands (ev):

   -58.2913 -58.2738 -57.3764 -57.3693 -57.3516 -57.3086 -57.2537 -57.0883
   -57.0605 -57.0482 -57.0229 -56.9193 -56.9078 -56.8902 -56.7910 -56.7708
   -34.6502 -34.5614 -34.5470 -34.4826 -34.4550 -34.4355 -33.7816 -33.7717
   -33.6759 -33.6440 -33.6082 -33.5846 -33.5806 -33.5797 -33.5683 -33.5615
   -33.5351 -33.5253 -33.5118 -33.4900 -33.4771 -33.4597 -33.4491 -33.4086
   -33.3657 -33.3188 -33.3152 -33.3062 -33.2778 -33.2683 -33.2518 -33.2516
   -33.2509 -33.2412 -33.2379 -33.2249 -33.2160 -33.2124 -33.1770 -33.1596
   -33.1129 -33.0715 -33.0681 -33.0448 -33.0313 -33.0170 -33.0056 -32.9797
   -18.2053 -17.7953 -17.7733 -17.6046 -17.5936 -17.4493 -17.3867 -17.3629
   -17.2418 -17.2347 -17.1972 -17.0511 -16.9415 -16.9125 -16.8744 -16.8340
   -16.7907 -16.7369 -16.7262 -16.7108 -16.6772 -16.5914 -16.5410 -16.5244
   -16.4931 -16.4344 -16.4044 -16.3996 -16.2121 -16.1961 -15.8948 -15.6338
   -15.6102 -10.8082  -5.5986  -5.0748  -5.0174  -4.9492  -4.9169  -4.8106
    -4.7885  -4.7512  -4.6810  -4.6671  -4.5191  -4.5026  -4.4393  -4.3890
    -4.3709  -4.3626  -4.3141  -4.2704  -4.2434  -4.2335  -4.2008  -4.1689
    -4.1253  -4.1170  -4.0543  -4.0209  -3.9869  -3.9612  -3.9237  -3.8836
    -3.8249  -3.7948  -3.6973  -3.6135  -3.5830  -3.5298  -3.4533  -3.3778
    -3.3592  -3.2846  -3.1810  -3.1538  -3.1163  -3.1052  -3.0530  -3.0176
    -2.9762  -2.9206  -2.8366  -2.7874  -2.7554  -2.6981  -2.6035  -2.5835
    -2.5177  -2.5045  -2.4526  -2.3847  -2.3692  -2.3110  -2.2933  -2.2528
    -2.1801  -2.1289  -2.1144  -2.0827  -2.0429  -2.0002  -1.9786  -1.9425
    -1.9251  -1.8997  -1.8862  -1.8407  -1.7642  -1.6953  -1.6845  -1.5872
    -1.5651  -1.5373  -1.5115  -1.4774  -1.4369  -1.4059  -1.3767  -1.3169
    -1.2817  -1.2147  -1.1497  -1.0263  -0.9989  -0.9658  -0.9310  -0.8504
    -0.7580  -0.7290  -0.6983  -0.6336  -0.6016  -0.5488  -0.3536   0.3143
     1.2939   1.4758   1.5711   1.7651   1.7805   1.9188   1.9856   2.0652
     2.2722   2.2830   2.3493   2.3855   2.4221   2.4945   2.5291   2.5545
     2.5799   2.6029   2.6603   2.7121   2.7281   2.7715   2.8136   2.8633
     2.8895   2.9245   2.9688   3.0139   3.0398   3.0532   3.0632   3.1169
     3.1661   3.2058   3.2252   3.2958   3.3247   3.3531   3.3845   3.4650
     3.5163   3.5414   3.6174   3.6389   3.6738   3.7334   3.7525   3.8060
     3.9022   4.1055   4.3988   4.5080   4.7230   4.8660   4.9172   4.9679
     5.0025   5.0957   5.1938   5.2141   5.3423   5.3944   5.4409   5.5353
     5.5712   5.6048   5.6588   5.7162   5.7458   5.8107   5.8273   5.8674
     5.9336   5.9483   5.9913   6.0968   6.1397   6.2173   6.3341   6.4369
     6.4599   6.4800   6.7238   6.7749   7.0701   7.2872   7.6675   7.8278
     8.0928   8.2340   8.3179   8.4896   8.7732   8.8947   9.0102   9.1803
     9.3713   9.5519   9.6448

          k =-0.0506 0.0280 0.0000 ( 34685 PWs)   bands (ev):

   -58.2977 -58.2673 -57.3787 -57.3755 -57.3452 -57.3064 -57.2545 -57.0888
   -57.0596 -57.0533 -57.0180 -56.9187 -56.9142 -56.8837 -56.7977 -56.7641
   -34.7209 -34.5667 -34.5418 -34.4980 -34.4180 -34.3819 -33.8518 -33.8449
   -33.7269 -33.6397 -33.6248 -33.5863 -33.5652 -33.5480 -33.5465 -33.5390
   -33.5260 -33.5204 -33.5102 -33.4912 -33.4852 -33.4626 -33.4498 -33.4437
   -33.3310 -33.3151 -33.3133 -33.3107 -33.3014 -33.2998 -33.2761 -33.2586
   -33.2562 -33.2332 -33.2319 -33.2270 -33.2111 -33.1969 -33.1575 -33.1303
   -33.1292 -33.0745 -33.0514 -33.0412 -33.0132 -32.9935 -32.9710 -32.9092
   -18.2546 -17.8566 -17.8440 -17.6934 -17.5801 -17.4480 -17.4304 -17.3368
   -17.3095 -17.2434 -17.1726 -17.0786 -16.9892 -16.9439 -16.9152 -16.8883
   -16.8026 -16.7597 -16.7486 -16.6886 -16.6256 -16.5418 -16.5161 -16.4817
   -16.4533 -16.3988 -16.3815 -16.3455 -16.1460 -16.1158 -15.8967 -15.6032
   -15.5565 -10.8059  -5.5325  -5.1796  -5.1465  -5.1134  -4.9416  -4.8621
    -4.7601  -4.7021  -4.6751  -4.6449  -4.5941  -4.5799  -4.5258  -4.3999
    -4.3570  -4.3159  -4.2345  -4.2094  -4.1737  -4.1586  -4.1410  -4.0536
    -4.0430  -4.0064  -3.9691  -3.9253  -3.8806  -3.8318  -3.8080  -3.7807
    -3.7148  -3.6643  -3.6430  -3.5994  -3.5822  -3.5293  -3.4804  -3.4498
    -3.3743  -3.3620  -3.2991  -3.2579  -3.1969  -3.1429  -3.1113  -3.0509
    -3.0022  -2.9731  -2.8954  -2.8292  -2.7510  -2.6912  -2.6820  -2.6602
    -2.6097  -2.5867  -2.5750  -2.5183  -2.5098  -2.3863  -2.3337  -2.3260
    -2.2629  -2.1940  -2.1782  -2.1516  -2.0746  -2.0045  -1.9971  -1.9387
    -1.9172  -1.8867  -1.8066  -1.7163  -1.7020  -1.6774  -1.6078  -1.5777
    -1.5176  -1.4687  -1.4474  -1.3875  -1.3720  -1.3201  -1.3049  -1.2535
    -1.2353  -1.1138  -1.0509  -1.0279  -1.0036  -0.9489  -0.9211  -0.8706
    -0.8211  -0.7897  -0.7112  -0.6748  -0.6534  -0.5281  -0.3832   0.3188
     1.1465   1.3465   1.4716   1.5724   1.9403   1.9504   1.9728   2.0647
     2.1308   2.2057   2.2604   2.3364   2.4118   2.4462   2.5349   2.5524
     2.5991   2.6566   2.6936   2.7076   2.7612   2.8349   2.8578   2.8884
     2.9465   2.9523   2.9854   2.9915   2.9973   3.1086   3.1154   3.1441
     3.1921   3.2207   3.2952   3.3159   3.3619   3.3887   3.4130   3.4616
     3.4750   3.5534   3.6078   3.6731   3.7470   3.7854   3.8051   3.9062
     3.9633   4.0669   4.1158   4.4130   4.5169   4.6616   4.7541   4.8151
     4.8478   4.9200   4.9727   5.2945   5.3351   5.4168   5.5328   5.5655
     5.6464   5.7726   5.7927   5.8596   5.9037   5.9193   5.9620   6.0598
     6.1004   6.1711   6.2564   6.3397   6.3918   6.4017   6.4490   6.4960
     6.5476   6.5575   6.7162   6.9143   7.0676   7.2198   7.5559   7.6071
     7.7231   8.2166   8.4102   8.4786   8.8692   8.9388   9.0625   9.2198
     9.4237   9.6049   9.6802

          k =-0.0506 0.0560 0.0000 ( 34596 PWs)   bands (ev):

   -58.2913 -58.2738 -57.3760 -57.3696 -57.3516 -57.3087 -57.2537 -57.0883
   -57.0603 -57.0484 -57.0229 -56.9193 -56.9078 -56.8902 -56.7910 -56.7708
   -34.6508 -34.5614 -34.5469 -34.4813 -34.4552 -34.4350 -33.7819 -33.7762
   -33.6760 -33.6282 -33.6081 -33.5839 -33.5822 -33.5795 -33.5626 -33.5614
   -33.5384 -33.5255 -33.5239 -33.4902 -33.4864 -33.4598 -33.4375 -33.4102
   -33.3660 -33.3186 -33.3039 -33.3014 -33.2803 -33.2704 -33.2528 -33.2517
   -33.2505 -33.2411 -33.2374 -33.2348 -33.2167 -33.2126 -33.1766 -33.1551
   -33.1129 -33.0716 -33.0680 -33.0447 -33.0355 -33.0177 -33.0055 -32.9796
   -18.1021 -17.8131 -17.6954 -17.6076 -17.5915 -17.5515 -17.3744 -17.3630
   -17.2127 -17.2003 -17.1116 -17.0892 -16.9717 -16.9060 -16.8615 -16.8372
   -16.8177 -16.8010 -16.7559 -16.7296 -16.7150 -16.6220 -16.5906 -16.5004
   -16.4899 -16.4318 -16.4151 -16.4048 -16.2115 -16.1926 -15.8947 -15.6325
   -15.6106 -10.8079  -5.2960  -4.9858  -4.9353  -4.9273  -4.7774  -4.7697
    -4.7105  -4.6338  -4.5207  -4.5007  -4.4948  -4.4121  -4.3981  -4.3749
    -4.3553  -4.3217  -4.3036  -4.2432  -4.1950  -4.1701  -4.1627  -4.1094
    -4.0971  -4.0646  -4.0406  -3.9917  -3.9752  -3.9036  -3.8837  -3.8242
    -3.7770  -3.7107  -3.6766  -3.6191  -3.6030  -3.5549  -3.4972  -3.4288
    -3.3914  -3.3145  -3.2555  -3.2251  -3.1290  -3.1259  -3.0745  -3.0472
    -2.9898  -2.9718  -2.9522  -2.8984  -2.7948  -2.7577  -2.7431  -2.7008
    -2.6239  -2.5816  -2.5398  -2.4991  -2.4722  -2.4084  -2.3830  -2.3636
    -2.3455  -2.2840  -2.1898  -2.1668  -2.1418  -2.1228  -2.0962  -2.0417
    -2.0078  -1.9655  -1.9387  -1.8685  -1.8426  -1.7762  -1.7255  -1.6534
    -1.5599  -1.5432  -1.5327  -1.4920  -1.4360  -1.3799  -1.3475  -1.2983
    -1.2365  -1.1690  -1.0707  -1.0162  -0.9821  -0.8987  -0.8462  -0.8393
    -0.7858  -0.7006  -0.6881  -0.6649  -0.6498  -0.5468  -0.4676   0.3165
     1.3145   1.5041   1.6528   1.6746   1.8593   2.0103   2.0388   2.0742
     2.2499   2.2626   2.3666   2.3831   2.4394   2.4680   2.5547   2.5915
     2.6568   2.7022   2.7362   2.7502   2.8177   2.8485   2.8776   2.9099
     2.9404   2.9577   3.0127   3.0483   3.0788   3.1203   3.1514   3.1973
     3.2021   3.2566   3.2914   3.3313   3.3402   3.3833   3.4217   3.4737
     3.4874   3.5552   3.5839   3.6453   3.6734   3.7504   3.8100   3.8464
     3.8886   3.9651   4.1592   4.5094   4.6033   4.6227   4.7603   4.8282
     4.8950   4.9714   5.0163   5.1932   5.3084   5.3820   5.4185   5.4473
     5.6008   5.6221   5.6746   5.7231   5.8858   5.9031   5.9939   6.0123
     6.0739   6.1149   6.1750   6.2103   6.3135   6.3423   6.4153   6.4296
     6.5461   6.6193   6.7613   6.8133   7.1773   7.3551   7.4994   7.6166
     7.9330   8.0114   8.1014   8.3753   8.6037   8.7182   8.8012   9.0376
     9.1886   9.3319   9.4333

     the Fermi energy is    -0.2845 ev

!    total energy              =   -3021.14986107 Ry
     Harris-Foulkes estimate   =   -3021.14985953 Ry
     estimated scf accuracy    <       0.00000016 Ry

     The total energy is the sum of the following terms:

     one-electron contribution =  -40438.77514274 Ry
     hartree contribution      =   20290.81814247 Ry
     xc contribution           =    -553.21139848 Ry
     ewald contribution        =   17680.03831313 Ry
     smearing contrib. (-TS)   =      -0.01977546 Ry

     total magnetization       =     1.06 Bohr mag/cell
     absolute magnetization    =     1.23 Bohr mag/cell

     convergence has been achieved in  13 iterations

     Forces acting on atoms (Ry/au):


     negative rho (up, down):  1.189E-02 1.196E-02
     atom    1 type  1   force =     0.00019307   -0.00088727   -0.10470105
     atom    2 type  2   force =     0.00020384    0.00068968    0.04002162
     atom    3 type  1   force =     0.00071403   -0.00173623   -0.02055802
     atom    4 type  2   force =    -0.00326239    0.00315307   -0.00323656
     atom    5 type  1   force =     0.00033731   -0.00000457    0.00031539
     atom    6 type  2   force =    -0.00010215   -0.00010492    0.00027228
     atom    7 type  1   force =     0.00075487    0.00012996   -0.00023948
     atom    8 type  2   force =    -0.00001682   -0.00034179   -0.00004127
     atom    9 type  1   force =    -0.00001817    0.00054011   -0.10482702
     atom   10 type  2   force =     0.00029581   -0.00022233    0.03599595
     atom   11 type  1   force =     0.00064149    0.00185123    0.00257352
     atom   12 type  2   force =    -0.00516211   -0.00264518   -0.00521193
     atom   13 type  1   force =     0.00037925    0.00012437   -0.00029622
     atom   14 type  2   force =     0.00001981    0.00001047   -0.00009093
     atom   15 type  1   force =    -0.00011334    0.00018565   -0.00013906
     atom   16 type  2   force =     0.00022168   -0.00047076    0.00043685
     atom   17 type  2   force =    -0.00002525   -0.00004930    0.06659630
     atom   18 type  1   force =     0.00009692    0.00003790    0.13149491
     atom   19 type  2   force =     0.00017968   -0.00052682   -0.08524716
     atom   20 type  2   force =    -0.05799092    0.00016660   -0.03604163
     atom   21 type  2   force =     0.05778240   -0.00004884   -0.03603302
     atom   22 type  1   force =    -0.00045193    0.00076253    0.08015197
     atom   23 type  2   force =     0.00016978   -0.00006759    0.00006800
     atom   24 type  2   force =     0.00074249    0.00185330   -0.03469343
     atom   25 type  2   force =     0.00412789    0.00332458   -0.00512679
     atom   26 type  1   force =     0.00044910   -0.00007275    0.00008329
     atom   27 type  2   force =    -0.00012989   -0.00011745    0.00006004
     atom   28 type  2   force =     0.00011970   -0.00018931   -0.00002970
     atom   29 type  2   force =     0.00001030   -0.00005775   -0.00000242
     atom   30 type  1   force =     0.00008910   -0.00013897   -0.00009434
     atom   31 type  2   force =     0.00034127    0.00012342    0.00004248
     atom   32 type  2   force =    -0.00014739   -0.00008098   -0.00028508
     atom   33 type  2   force =    -0.00018500    0.00002015    0.06631041
     atom   34 type  1   force =     0.00008732   -0.00004664    0.13127571
     atom   35 type  2   force =     0.00019310   -0.00012692   -0.08484968
     atom   36 type  2   force =    -0.05787716    0.00008109   -0.03567837
     atom   37 type  2   force =     0.05796643   -0.00018446   -0.03609529
     atom   38 type  1   force =    -0.00037696   -0.00022072    0.07981206
     atom   39 type  2   force =     0.00003743   -0.00025045   -0.00005049
     atom   40 type  2   force =     0.00058070    0.00123848   -0.03525531
     atom   41 type  2   force =     0.00588742   -0.00240032   -0.00723120
     atom   42 type  1   force =     0.00032393   -0.00002371   -0.00003281
     atom   43 type  2   force =    -0.00017196   -0.00010926    0.00005665
     atom   44 type  2   force =     0.00011199   -0.00015003    0.00000536
     atom   45 type  2   force =     0.00003585   -0.00015823    0.00005856
     atom   46 type  1   force =    -0.00061351   -0.00014464   -0.00013904
     atom   47 type  2   force =    -0.00012509   -0.00029559    0.00031866
     atom   48 type  2   force =     0.00002857    0.00051514   -0.00030792
     atom   49 type  2   force =    -0.00273055   -0.00109905    0.00028688
     atom   50 type  3   force =     0.00014237    0.00194046    0.00172721
     atom   51 type  4   force =    -0.00092600   -0.00069574   -0.00040506
     atom   52 type  4   force =    -0.00069097   -0.00024266    0.00004765
     atom   53 type  4   force =    -0.00114207   -0.00244583   -0.00095227
     atom   54 type  4   force =    -0.00100527   -0.00039111   -0.00011923

     Total force =     0.342363     Total SCF correction =     0.001327
 !ASE

     Writing output data file calc.save
 
     init_run     :     64.97s CPU     75.58s WALL (       1 calls)
     electrons    :   3270.38s CPU   3666.41s WALL (       1 calls)
     forces       :     48.73s CPU     50.68s WALL (       1 calls)

     Called by init_run:
     wfcinit      :     57.19s CPU     66.97s WALL (       1 calls)
     potinit      :      1.32s CPU      1.54s WALL (       1 calls)

     Called by electrons:
     c_bands      :   2859.34s CPU   3188.14s WALL (      13 calls)
     sum_band     :    352.56s CPU    413.48s WALL (      13 calls)
     v_of_rho     :     14.29s CPU     16.91s WALL (      14 calls)
     newd         :     47.46s CPU     51.32s WALL (      14 calls)
     mix_rho      :      0.53s CPU      0.71s WALL (      13 calls)
     vdW_energy   :      3.18s CPU      3.53s WALL (      15 calls)
     vdW_ffts     :      3.77s CPU      4.72s WALL (      30 calls)
     vdW_v        :      1.43s CPU      1.58s WALL (      15 calls)

     Called by c_bands:
     init_us_2    :      8.04s CPU      8.64s WALL (    1120 calls)
     cegterg      :   2811.26s CPU   3137.74s WALL (     520 calls)

     Called by *egterg:
     h_psi        :   1099.33s CPU   1337.99s WALL (    2451 calls)
     s_psi        :    189.16s CPU    194.02s WALL (    2451 calls)
     g_psi        :      5.52s CPU      5.60s WALL (    1891 calls)
     cdiaghg      :    891.20s CPU    907.77s WALL (    2411 calls)

     Called by h_psi:
     add_vuspsi   :    191.13s CPU    196.26s WALL (    2451 calls)

     General routines
     calbec       :    284.21s CPU    290.18s WALL (    3011 calls)
     fft          :      7.60s CPU      9.40s WALL (    1191 calls)
     ffts         :      0.06s CPU      0.08s WALL (      54 calls)
     fftw         :    617.81s CPU    900.27s WALL (  905776 calls)
     interpolate  :      0.41s CPU      0.61s WALL (      54 calls)
     davcio       :      0.10s CPU      3.60s WALL (      40 calls)
 
     Parallel routines
     fft_scatter  :    308.56s CPU    480.00s WALL (  907021 calls)
 
     PWSCF        :     0h56m CPU        1h 3m WALL

 
   This run was terminated on:  19:42:44  25Feb2018            

=------------------------------------------------------------------------------=
   JOB DONE.
=------------------------------------------------------------------------------=
