  python dir          : /home/vossj/suncat/lib/python2.7/site-packages/espresso
  espresso dir        : /home/vossj/suncat/esdld/espresso-dynpy-beef/bin
  pseudo dir          : /home/alatimer/bin/psp/esp_psp_w_gbrvRu/
  ase-espresso py git : ffa2778-git



     Program PWSCF v.5.1rc2 (svn rev. ) starts on 10Mar2018 at 18:40:45 

     This program is part of the open-source Quantum ESPRESSO suite
     for quantum simulation of materials; please cite
         "P. Giannozzi et al., J. Phys.:Condens. Matter 21 395502 (2009);
          URL http://www.quantum-espresso.org", 
     in publications or presentations arising from this work. More details at
     http://www.quantum-espresso.org/quote

     Parallel version (MPI), running on    16 processors
     R & G space division:  proc/nbgrp/npool/nimage =      16
     Reading input from pw.inp
     Message from routine read_cards :
     DEPRECATED: no units specified in CELL_PARAMETERS card

     Current dimensions of program PWSCF are:
     Max number of different atomic species (ntypx) = 10
     Max number of k-points (npk) =  40000
     Max angular momentum in pseudopotentials (lmaxx) =  3

     **************************************************************************
     Initializing libbeef V0.1.1 with the BEEF-vdW functional.
     Citation: Wellendorff et al., PRB 85, 235149 (2012).
     **************************************************************************


     IMPORTANT: XC functional enforced from input :
     Exchange-correlation      = BEEF ( 1  4 27 13 2)
     Any further DFT definition will be discarded
     Please, verify this is what you really want


     Subspace diagonalization in iterative solution of the eigenvalue problem:
     a serial algorithm will be used

 
     Parallelization info
     --------------------
     sticks:   dense  smooth     PW     G-vecs:    dense   smooth      PW
     Min         281     112     31                68535    17318    2565
     Max         282     113     32                68545    17369    2582
     Sum        4501    1795    503              1096637   277353   41113
 
     Generating pointlists ...
     new r_m :   0.4125 (alat units)  0.7795 (a.u.) for type    1
     new r_m :   0.4125 (alat units)  0.7795 (a.u.) for type    2
     new r_m :   0.4125 (alat units)  0.7795 (a.u.) for type    3


     bravais-lattice index     =            0
     lattice parameter (alat)  =       1.8897  a.u.
     unit-cell volume          =    7990.9933 (a.u.)^3
     number of atoms/cell      =           51
     number of atomic types    =            3
     number of electrons       =       400.00
     number of Kohn-Sham states=          300
     kinetic-energy cutoff     =      40.4243  Ry
     charge density cutoff     =     404.2426  Ry
     convergence threshold     =      7.3E-07
     mixing beta               =       0.1000
     number of iterations used =           10  plain     mixing
     Exchange-correlation      = BEEF ( 1  4 27 13 2)
     nstep                     =           50


     celldm(1)=   1.889726  celldm(2)=   0.000000  celldm(3)=   0.000000
     celldm(4)=   0.000000  celldm(5)=   0.000000  celldm(6)=   0.000000

     crystal axes: (cart. coord. in units of alat)
               a(1) = (   6.590708   0.000000   0.000000 )  
               a(2) = (   0.000000   5.950229   0.000000 )  
               a(3) = (   0.000000   0.000000  30.195235 )  

     reciprocal axes: (cart. coord. in units 2 pi/alat)
               b(1) = (  0.151729  0.000000  0.000000 )  
               b(2) = (  0.000000  0.168061  0.000000 )  
               b(3) = (  0.000000  0.000000  0.033118 )  


     PseudoPot. # 1 for Ti read from file:
     /home/alatimer/bin/psp/esp_psp_w_gbrvRu/Ti.UPF
     MD5 check sum: 8e4df49b7f0d34bbd5052bf3f5ea0213
     Pseudo is Ultrasoft, Zval = 12.0
     Generated by new atomic code, or converted to UPF format
     Using radial grid of  851 points,  6 beta functions with: 
                l(1) =   0
                l(2) =   0
                l(3) =   1
                l(4) =   1
                l(5) =   2
                l(6) =   2
     Q(r) pseudized with  8 coefficients,  rinner =    1.000   1.000   1.000
                                                       1.000   1.000

     PseudoPot. # 2 for  O read from file:
     /home/alatimer/bin/psp/esp_psp_w_gbrvRu/O.UPF
     MD5 check sum: e057bbcf3229fb5d8c36c0c92f9568b4
     Pseudo is Ultrasoft + core correction, Zval =  6.0
     Generated using "atomic" code by A. Dal Corso  v.5.0.2 svn rev. 9415
     Using radial grid of 1095 points,  4 beta functions with: 
                l(1) =   0
                l(2) =   0
                l(3) =   1
                l(4) =   1
     Q(r) pseudized with 0 coefficients 


     PseudoPot. # 3 for  N read from file:
     /home/alatimer/bin/psp/esp_psp_w_gbrvRu/N.UPF
     MD5 check sum: ed8b6a90f28a53b7d71920e7015d2dd6
     Pseudo is Ultrasoft + core correction, Zval =  5.0
     Generated using "atomic" code by A. Dal Corso  v.5.0.2 svn rev. 9415
     Using radial grid of 1085 points,  4 beta functions with: 
                l(1) =   0
                l(2) =   0
                l(3) =   1
                l(4) =   1
     Q(r) pseudized with 0 coefficients 


     vdW kernel table read from file vdW_kernel_table
     MD5 check sum: 095c7af220d748ca6e76c0b4c6cfb241

     atomic species   valence    mass     pseudopotential
        Ti1           12.00    47.88000     Ti( 1.00)
        O1             6.00    15.99940      O( 1.00)
        N1             5.00    14.00670      N( 1.00)

     Starting magnetic structure 
     atomic species   magnetization
        Ti1          0.250
        O1           0.500
        N1           0.600

     No symmetry found



   Cartesian axes

     site n.     atom                  positions (alat units)
         1           Ti1 tau(   1) = (   1.6476770   0.7437786   2.6545865  )
         2           O1  tau(   2) = (   1.6476770   2.2313359   3.9361215  )
         3           Ti1 tau(   3) = (   1.6476770   2.2313359   5.9499405  )
         4           O1  tau(   4) = (   0.3661420   0.7437786   5.9499405  )
         5           Ti1 tau(   5) = (   1.5280591   0.7315068   9.1973351  )
         6           O1  tau(   6) = (   1.6613943   2.1836906  10.6091769  )
         7           Ti1 tau(   7) = (   1.6665780   2.2096385  12.4157880  )
         8           O1  tau(   8) = (   0.4439715   0.7264440  12.7601561  )
         9           Ti1 tau(   9) = (   1.6476770   3.7188931   2.6545865  )
        10           O1  tau(  10) = (   1.6476770   5.2064503   3.9361215  )
        11           Ti1 tau(  11) = (   1.6476770   5.2064503   5.9499405  )
        12           O1  tau(  12) = (   0.3661420   3.7188931   5.9499405  )
        13           Ti1 tau(  13) = (   1.5319291   3.7072436   9.2118370  )
        14           O1  tau(  14) = (   1.6575607   5.2126413  10.6087893  )
        15           Ti1 tau(  15) = (   1.6606453   5.1916961  12.4165775  )
        16           O1  tau(  16) = (   0.4123725   3.7022030  12.5882193  )
        17           O1  tau(  17) = (   1.6476770   2.2313359   1.3730516  )
        18           Ti1 tau(  18) = (   4.9430310   2.2313359   2.6545865  )
        19           O1  tau(  19) = (   4.9430310   2.2313359   4.6684056  )
        20           O1  tau(  20) = (   6.2245660   0.7437786   2.6545865  )
        21           O1  tau(  21) = (   3.6614961   0.7437786   2.6545865  )
        22           Ti1 tau(  22) = (   4.9430310   0.7437786   5.9499405  )
        23           O1  tau(  23) = (   1.6517842   2.2287041   8.0298356  )
        24           O1  tau(  24) = (   4.9430310   2.2313359   7.2314755  )
        25           O1  tau(  25) = (   2.9292120   0.7437786   5.9499405  )
        26           Ti1 tau(  26) = (   4.8605205   2.2076595   9.4238065  )
        27           O1  tau(  27) = (   4.9553550   2.1639423  11.2756624  )
        28           O1  tau(  28) = (   6.2690671   0.7288246   9.2688367  )
        29           O1  tau(  29) = (   3.6660957   0.7249325   9.2867299  )
        30           Ti1 tau(  30) = (   4.9284588   0.7282168  12.7798302  )
        31           O1  tau(  31) = (   4.9953437   2.2216212  13.8477397  )
        32           O1  tau(  32) = (   2.9112183   0.7266397  12.7651274  )
        33           O1  tau(  33) = (   1.6476770   5.2064503   1.3730516  )
        34           Ti1 tau(  34) = (   4.9430310   5.2064503   2.6545865  )
        35           O1  tau(  35) = (   4.9430310   5.2064503   4.6684056  )
        36           O1  tau(  36) = (   6.2245660   3.7188931   2.6545865  )
        37           O1  tau(  37) = (   3.6614961   3.7188931   2.6545865  )
        38           Ti1 tau(  38) = (   4.9430310   3.7188931   5.9499405  )
        39           O1  tau(  39) = (   1.6524867   5.1852222   8.0294571  )
        40           O1  tau(  40) = (   4.9430310   5.2064503   7.2314755  )
        41           O1  tau(  41) = (   2.9292120   3.7188931   5.9499405  )
        42           Ti1 tau(  42) = (   4.8610151   5.1886528   9.4241876  )
        43           O1  tau(  43) = (   4.9550983   5.2107439  11.2753448  )
        44           O1  tau(  44) = (   6.2713562   3.7024388   9.3047907  )
        45           O1  tau(  45) = (   3.6650622   3.7005085   9.3135888  )
        46           Ti1 tau(  46) = (   5.0160509   3.7038162  12.7585864  )
        47           O1  tau(  47) = (   4.9984032   5.1727849  13.8485277  )
        48           O1  tau(  48) = (   2.9655234   3.7049164  12.5317472  )
        49           O1  tau(  49) = (   2.2548149   3.7063572  14.5693114  )
        50           N1  tau(  50) = (   2.4020298   3.6667063  16.9651815  )
        51           N1  tau(  51) = (   2.1425646   3.6919273  15.8911024  )

     number of k points=    40  Fermi-Dirac smearing, width (Ry)=  0.0073
                       cart. coord. in units 2pi/alat
        k(    1) = (   0.0000000   0.0000000   0.0000000), wk =   0.0277778
        k(    2) = (   0.0000000   0.0280101   0.0000000), wk =   0.0555556
        k(    3) = (   0.0000000   0.0560203   0.0000000), wk =   0.0555556
        k(    4) = (   0.0000000  -0.0840304   0.0000000), wk =   0.0277778
        k(    5) = (   0.0252881   0.0000000   0.0000000), wk =   0.0555556
        k(    6) = (   0.0252881   0.0280101   0.0000000), wk =   0.0555556
        k(    7) = (   0.0252881   0.0560203   0.0000000), wk =   0.0555556
        k(    8) = (   0.0252881  -0.0840304   0.0000000), wk =   0.0555556
        k(    9) = (   0.0505763   0.0000000   0.0000000), wk =   0.0555556
        k(   10) = (   0.0505763   0.0280101   0.0000000), wk =   0.0555556
        k(   11) = (   0.0505763   0.0560203   0.0000000), wk =   0.0555556
        k(   12) = (   0.0505763  -0.0840304   0.0000000), wk =   0.0555556
        k(   13) = (  -0.0758644   0.0000000   0.0000000), wk =   0.0277778
        k(   14) = (  -0.0758644   0.0280101   0.0000000), wk =   0.0555556
        k(   15) = (  -0.0758644   0.0560203   0.0000000), wk =   0.0555556
        k(   16) = (  -0.0758644  -0.0840304   0.0000000), wk =   0.0277778
        k(   17) = (  -0.0252881   0.0280101   0.0000000), wk =   0.0555556
        k(   18) = (  -0.0252881   0.0560203   0.0000000), wk =   0.0555556
        k(   19) = (  -0.0505763   0.0280101   0.0000000), wk =   0.0555556
        k(   20) = (  -0.0505763   0.0560203   0.0000000), wk =   0.0555556
        k(   21) = (   0.0000000   0.0000000   0.0000000), wk =   0.0277778
        k(   22) = (   0.0000000   0.0280101   0.0000000), wk =   0.0555556
        k(   23) = (   0.0000000   0.0560203   0.0000000), wk =   0.0555556
        k(   24) = (   0.0000000  -0.0840304   0.0000000), wk =   0.0277778
        k(   25) = (   0.0252881   0.0000000   0.0000000), wk =   0.0555556
        k(   26) = (   0.0252881   0.0280101   0.0000000), wk =   0.0555556
        k(   27) = (   0.0252881   0.0560203   0.0000000), wk =   0.0555556
        k(   28) = (   0.0252881  -0.0840304   0.0000000), wk =   0.0555556
        k(   29) = (   0.0505763   0.0000000   0.0000000), wk =   0.0555556
        k(   30) = (   0.0505763   0.0280101   0.0000000), wk =   0.0555556
        k(   31) = (   0.0505763   0.0560203   0.0000000), wk =   0.0555556
        k(   32) = (   0.0505763  -0.0840304   0.0000000), wk =   0.0555556
        k(   33) = (  -0.0758644   0.0000000   0.0000000), wk =   0.0277778
        k(   34) = (  -0.0758644   0.0280101   0.0000000), wk =   0.0555556
        k(   35) = (  -0.0758644   0.0560203   0.0000000), wk =   0.0555556
        k(   36) = (  -0.0758644  -0.0840304   0.0000000), wk =   0.0277778
        k(   37) = (  -0.0252881   0.0280101   0.0000000), wk =   0.0555556
        k(   38) = (  -0.0252881   0.0560203   0.0000000), wk =   0.0555556
        k(   39) = (  -0.0505763   0.0280101   0.0000000), wk =   0.0555556
        k(   40) = (  -0.0505763   0.0560203   0.0000000), wk =   0.0555556

     Dense  grid:  1096637 G-vectors     FFT dimensions: (  80,  72, 375)

     Smooth grid:   277353 G-vectors     FFT dimensions: (  54,  45, 240)

     Largest allocated arrays     est. size (Mb)     dimensions
        Kohn-Sham Wavefunctions         9.98 Mb     (    2180,  300)
        NL pseudopotentials            18.89 Mb     (    2180,  568)
        Each V/rho on FFT grid          4.22 Mb     (  138240,   2)
        Each G-vector array             0.52 Mb     (   68538)
        G-vector shells                 0.25 Mb     (   33046)
     Largest temporary arrays     est. size (Mb)     dimensions
        Auxiliary wavefunctions        39.92 Mb     (    2180, 1200)
        Each subspace H/S matrix       21.97 Mb     (    1200, 1200)
        Each <psi_i|beta_j> matrix      2.60 Mb     (     568,  300)
        Arrays for rho mixing          21.09 Mb     (  138240,   10)

     Check: negative/imaginary core charge=   -0.000049    0.000000

     The initial density is read from file :
     ./calc.save/charge-density.dat


     negative rho (up, down):  1.158E-02 1.158E-02


     ************************************************************************
     *
     * You are using vdW-DF for exchange-correlation in this calculation.
     * Please cite the following three references that made this development
     * possible:
     *
     *   M. Dion, H. Rydberg, E. Schroder, D. C. Langreth, and
     *   B. I. Lundqvist, Phys. Rev. Lett. 92, 246401 (2004).
     *
     *   T. Thonhauser, V. R. Cooper, S. Li, A. Puzder, P. Hyldgaard, and
     *   D. C. Langreth, Phys. Rev. B 76, 125112 (2007).
     *
     *   G. Roman-Perez and J. M. Soler, Phys. Rev. Lett. 103, 096102 (2009).
     *
     *
     * If you are using vdW-DF2, please also cite:
     *
     *   K. Lee, E. D. Murray, L. Kong, B. I. Lundqvist, and
     *   D. C. Langreth, Phys. Rev. B 82, 081101(R) (2010).
     *
     *
     * If you are calculating the stress with vdW-DF, please also cite:
     *
     *   R. Sabatini, E. Kucukbenli, B. Kolb, T. Thonhauser, and
     *   S. de Gironcoli, J. Phys.: Condens. Matter 24, 424209 (2012).
     *
     ************************************************************************

     Carrying out vdW-DF run using the following parameters:

     Nqs =      20    Nr_points =    1024   r_max =   100.000
     q_mesh =
               0.00001000     0.04494208     0.09755937     0.15916263
               0.23128650     0.31572767     0.41458969     0.53033537
               0.66584808     0.82450364     1.01025438     1.22772762
               1.48234092     1.78043706     2.12944203     2.53805004
               3.01644009     3.57652955     4.23227104     5.00000000

     Gradients computed in reciprocal space

     ************************************************************************


     Starting wfc are  300 randomized atomic wfcs

     total cpu time spent up to now is       68.4 secs

     Self-consistent Calculation

     iteration #  1     ecut=    40.42 Ry     beta=0.10
     Davidson diagonalization with overlap
     ethr =  1.00E-05,  avg # of iterations = 14.5

     negative rho (up, down):  1.158E-02 1.158E-02
 
     Magnetic moment per site:
     atom:    1    charge:    3.1249    magn:   -0.0002    constr:    0.0000
     atom:    2    charge:    2.0895    magn:    0.0001    constr:    0.0000
     atom:    3    charge:    3.1195    magn:   -0.0001    constr:    0.0000
     atom:    4    charge:    2.0870    magn:    0.0000    constr:    0.0000
     atom:    5    charge:    3.1170    magn:   -0.0001    constr:    0.0000
     atom:    6    charge:    2.0918    magn:    0.0001    constr:    0.0000
     atom:    7    charge:    3.1182    magn:   -0.0000    constr:    0.0000
     atom:    8    charge:    2.0817    magn:    0.0001    constr:    0.0000
     atom:    9    charge:    3.1249    magn:   -0.0002    constr:    0.0000
     atom:   10    charge:    2.0895    magn:    0.0001    constr:    0.0000
     atom:   11    charge:    3.1195    magn:   -0.0001    constr:    0.0000
     atom:   12    charge:    2.0870    magn:    0.0000    constr:    0.0000
     atom:   13    charge:    3.1147    magn:   -0.0001    constr:    0.0000
     atom:   14    charge:    2.0912    magn:    0.0001    constr:    0.0000
     atom:   15    charge:    3.1191    magn:   -0.0000    constr:    0.0000
     atom:   16    charge:    2.0882    magn:    0.0001    constr:    0.0000
     atom:   17    charge:    2.0627    magn:    0.0004    constr:    0.0000
     atom:   18    charge:    3.1241    magn:   -0.0000    constr:    0.0000
     atom:   19    charge:    2.0877    magn:   -0.0000    constr:    0.0000
     atom:   20    charge:    2.0847    magn:   -0.0001    constr:    0.0000
     atom:   21    charge:    2.0847    magn:   -0.0001    constr:    0.0000
     atom:   22    charge:    3.1198    magn:   -0.0000    constr:    0.0000
     atom:   23    charge:    2.0910    magn:    0.0001    constr:    0.0000
     atom:   24    charge:    2.0775    magn:    0.0001    constr:    0.0000
     atom:   25    charge:    2.0869    magn:    0.0000    constr:    0.0000
     atom:   26    charge:    3.1165    magn:   -0.0001    constr:    0.0000
     atom:   27    charge:    2.0822    magn:    0.0002    constr:    0.0000
     atom:   28    charge:    2.0879    magn:    0.0001    constr:    0.0000
     atom:   29    charge:    2.0878    magn:    0.0001    constr:    0.0000
     atom:   30    charge:    3.1168    magn:   -0.0001    constr:    0.0000
     atom:   31    charge:    2.0818    magn:    0.0003    constr:    0.0000
     atom:   32    charge:    2.0843    magn:    0.0001    constr:    0.0000
     atom:   33    charge:    2.0627    magn:    0.0004    constr:    0.0000
     atom:   34    charge:    3.1241    magn:   -0.0000    constr:    0.0000
     atom:   35    charge:    2.0877    magn:   -0.0000    constr:    0.0000
     atom:   36    charge:    2.0847    magn:   -0.0001    constr:    0.0000
     atom:   37    charge:    2.0847    magn:   -0.0001    constr:    0.0000
     atom:   38    charge:    3.1198    magn:   -0.0000    constr:    0.0000
     atom:   39    charge:    2.0913    magn:    0.0001    constr:    0.0000
     atom:   40    charge:    2.0775    magn:    0.0001    constr:    0.0000
     atom:   41    charge:    2.0869    magn:    0.0000    constr:    0.0000
     atom:   42    charge:    3.1182    magn:   -0.0001    constr:    0.0000
     atom:   43    charge:    2.0836    magn:    0.0002    constr:    0.0000
     atom:   44    charge:    2.0865    magn:    0.0001    constr:    0.0000
     atom:   45    charge:    2.0871    magn:    0.0001    constr:    0.0000
     atom:   46    charge:    3.1169    magn:   -0.0001    constr:    0.0000
     atom:   47    charge:    2.0799    magn:    0.0003    constr:    0.0000
     atom:   48    charge:    2.0825    magn:    0.0002    constr:    0.0000
     atom:   49    charge:    2.0396    magn:   -0.0000    constr:    0.0000
     atom:   50    charge:    1.2725    magn:   -0.0000    constr:    0.0000
     atom:   51    charge:    1.2925    magn:    0.0000    constr:    0.0000

     total cpu time spent up to now is      840.0 secs

     total energy              =   -3044.95121838 Ry
     Harris-Foulkes estimate   =   -3044.98486609 Ry
     estimated scf accuracy    <       0.19272339 Ry

     total magnetization       =     0.00 Bohr mag/cell
     absolute magnetization    =     0.01 Bohr mag/cell

     iteration #  2     ecut=    40.42 Ry     beta=0.10
     Davidson diagonalization with overlap
     ethr =  4.82E-05,  avg # of iterations =  2.5

     negative rho (up, down):  1.158E-02 1.158E-02
 
     Magnetic moment per site:
     atom:    1    charge:    3.1251    magn:   -0.0001    constr:    0.0000
     atom:    2    charge:    2.0894    magn:    0.0001    constr:    0.0000
     atom:    3    charge:    3.1196    magn:   -0.0001    constr:    0.0000
     atom:    4    charge:    2.0870    magn:    0.0000    constr:    0.0000
     atom:    5    charge:    3.1170    magn:   -0.0001    constr:    0.0000
     atom:    6    charge:    2.0918    magn:    0.0001    constr:    0.0000
     atom:    7    charge:    3.1183    magn:   -0.0000    constr:    0.0000
     atom:    8    charge:    2.0815    magn:    0.0001    constr:    0.0000
     atom:    9    charge:    3.1251    magn:   -0.0001    constr:    0.0000
     atom:   10    charge:    2.0894    magn:    0.0001    constr:    0.0000
     atom:   11    charge:    3.1196    magn:   -0.0001    constr:    0.0000
     atom:   12    charge:    2.0870    magn:    0.0000    constr:    0.0000
     atom:   13    charge:    3.1148    magn:   -0.0001    constr:    0.0000
     atom:   14    charge:    2.0912    magn:    0.0001    constr:    0.0000
     atom:   15    charge:    3.1192    magn:   -0.0000    constr:    0.0000
     atom:   16    charge:    2.0882    magn:    0.0001    constr:    0.0000
     atom:   17    charge:    2.0625    magn:    0.0004    constr:    0.0000
     atom:   18    charge:    3.1239    magn:   -0.0000    constr:    0.0000
     atom:   19    charge:    2.0878    magn:   -0.0000    constr:    0.0000
     atom:   20    charge:    2.0847    magn:   -0.0001    constr:    0.0000
     atom:   21    charge:    2.0847    magn:   -0.0001    constr:    0.0000
     atom:   22    charge:    3.1197    magn:   -0.0000    constr:    0.0000
     atom:   23    charge:    2.0909    magn:    0.0001    constr:    0.0000
     atom:   24    charge:    2.0777    magn:    0.0001    constr:    0.0000
     atom:   25    charge:    2.0869    magn:    0.0000    constr:    0.0000
     atom:   26    charge:    3.1165    magn:   -0.0001    constr:    0.0000
     atom:   27    charge:    2.0823    magn:    0.0002    constr:    0.0000
     atom:   28    charge:    2.0879    magn:    0.0001    constr:    0.0000
     atom:   29    charge:    2.0878    magn:    0.0001    constr:    0.0000
     atom:   30    charge:    3.1168    magn:   -0.0001    constr:    0.0000
     atom:   31    charge:    2.0816    magn:    0.0003    constr:    0.0000
     atom:   32    charge:    2.0842    magn:    0.0001    constr:    0.0000
     atom:   33    charge:    2.0625    magn:    0.0004    constr:    0.0000
     atom:   34    charge:    3.1239    magn:   -0.0000    constr:    0.0000
     atom:   35    charge:    2.0878    magn:   -0.0000    constr:    0.0000
     atom:   36    charge:    2.0847    magn:   -0.0001    constr:    0.0000
     atom:   37    charge:    2.0847    magn:   -0.0001    constr:    0.0000
     atom:   38    charge:    3.1197    magn:   -0.0000    constr:    0.0000
     atom:   39    charge:    2.0913    magn:    0.0001    constr:    0.0000
     atom:   40    charge:    2.0777    magn:    0.0001    constr:    0.0000
     atom:   41    charge:    2.0869    magn:    0.0000    constr:    0.0000
     atom:   42    charge:    3.1181    magn:   -0.0001    constr:    0.0000
     atom:   43    charge:    2.0837    magn:    0.0002    constr:    0.0000
     atom:   44    charge:    2.0865    magn:    0.0001    constr:    0.0000
     atom:   45    charge:    2.0871    magn:    0.0001    constr:    0.0000
     atom:   46    charge:    3.1170    magn:   -0.0001    constr:    0.0000
     atom:   47    charge:    2.0797    magn:    0.0003    constr:    0.0000
     atom:   48    charge:    2.0826    magn:    0.0001    constr:    0.0000
     atom:   49    charge:    2.0354    magn:   -0.0000    constr:    0.0000
     atom:   50    charge:    1.2802    magn:   -0.0000    constr:    0.0000
     atom:   51    charge:    1.2914    magn:    0.0000    constr:    0.0000

     total cpu time spent up to now is     1041.1 secs

     total energy              =   -3044.95107145 Ry
     Harris-Foulkes estimate   =   -3044.96031182 Ry
     estimated scf accuracy    <       0.03813069 Ry

     total magnetization       =     0.00 Bohr mag/cell
     absolute magnetization    =     0.01 Bohr mag/cell

     iteration #  3     ecut=    40.42 Ry     beta=0.10
     Davidson diagonalization with overlap
     ethr =  9.53E-06,  avg # of iterations =  5.7

     negative rho (up, down):  1.159E-02 1.159E-02
 
     Magnetic moment per site:
     atom:    1    charge:    3.1251    magn:   -0.0001    constr:    0.0000
     atom:    2    charge:    2.0894    magn:    0.0001    constr:    0.0000
     atom:    3    charge:    3.1197    magn:   -0.0000    constr:    0.0000
     atom:    4    charge:    2.0870    magn:    0.0000    constr:    0.0000
     atom:    5    charge:    3.1170    magn:   -0.0000    constr:    0.0000
     atom:    6    charge:    2.0916    magn:    0.0000    constr:    0.0000
     atom:    7    charge:    3.1185    magn:   -0.0000    constr:    0.0000
     atom:    8    charge:    2.0813    magn:    0.0001    constr:    0.0000
     atom:    9    charge:    3.1251    magn:   -0.0001    constr:    0.0000
     atom:   10    charge:    2.0894    magn:    0.0001    constr:    0.0000
     atom:   11    charge:    3.1197    magn:   -0.0000    constr:    0.0000
     atom:   12    charge:    2.0870    magn:    0.0000    constr:    0.0000
     atom:   13    charge:    3.1148    magn:   -0.0000    constr:    0.0000
     atom:   14    charge:    2.0911    magn:    0.0000    constr:    0.0000
     atom:   15    charge:    3.1194    magn:   -0.0000    constr:    0.0000
     atom:   16    charge:    2.0883    magn:    0.0000    constr:    0.0000
     atom:   17    charge:    2.0622    magn:    0.0003    constr:    0.0000
     atom:   18    charge:    3.1239    magn:   -0.0000    constr:    0.0000
     atom:   19    charge:    2.0878    magn:   -0.0000    constr:    0.0000
     atom:   20    charge:    2.0847    magn:   -0.0001    constr:    0.0000
     atom:   21    charge:    2.0847    magn:   -0.0001    constr:    0.0000
     atom:   22    charge:    3.1197    magn:   -0.0000    constr:    0.0000
     atom:   23    charge:    2.0908    magn:    0.0001    constr:    0.0000
     atom:   24    charge:    2.0779    magn:    0.0001    constr:    0.0000
     atom:   25    charge:    2.0869    magn:    0.0000    constr:    0.0000
     atom:   26    charge:    3.1164    magn:   -0.0001    constr:    0.0000
     atom:   27    charge:    2.0825    magn:    0.0001    constr:    0.0000
     atom:   28    charge:    2.0879    magn:    0.0001    constr:    0.0000
     atom:   29    charge:    2.0877    magn:    0.0001    constr:    0.0000
     atom:   30    charge:    3.1168    magn:   -0.0001    constr:    0.0000
     atom:   31    charge:    2.0814    magn:    0.0002    constr:    0.0000
     atom:   32    charge:    2.0842    magn:    0.0001    constr:    0.0000
     atom:   33    charge:    2.0622    magn:    0.0003    constr:    0.0000
     atom:   34    charge:    3.1239    magn:   -0.0000    constr:    0.0000
     atom:   35    charge:    2.0878    magn:   -0.0000    constr:    0.0000
     atom:   36    charge:    2.0847    magn:   -0.0001    constr:    0.0000
     atom:   37    charge:    2.0847    magn:   -0.0001    constr:    0.0000
     atom:   38    charge:    3.1197    magn:   -0.0000    constr:    0.0000
     atom:   39    charge:    2.0911    magn:    0.0001    constr:    0.0000
     atom:   40    charge:    2.0779    magn:    0.0001    constr:    0.0000
     atom:   41    charge:    2.0869    magn:    0.0000    constr:    0.0000
     atom:   42    charge:    3.1181    magn:   -0.0001    constr:    0.0000
     atom:   43    charge:    2.0839    magn:    0.0001    constr:    0.0000
     atom:   44    charge:    2.0865    magn:    0.0001    constr:    0.0000
     atom:   45    charge:    2.0871    magn:    0.0001    constr:    0.0000
     atom:   46    charge:    3.1172    magn:   -0.0001    constr:    0.0000
     atom:   47    charge:    2.0795    magn:    0.0002    constr:    0.0000
     atom:   48    charge:    2.0832    magn:    0.0001    constr:    0.0000
     atom:   49    charge:    2.0388    magn:   -0.0000    constr:    0.0000
     atom:   50    charge:    1.2815    magn:   -0.0000    constr:    0.0000
     atom:   51    charge:    1.2929    magn:    0.0000    constr:    0.0000

     total cpu time spent up to now is     1293.0 secs

     total energy              =   -3044.94969546 Ry
     Harris-Foulkes estimate   =   -3044.95364684 Ry
     estimated scf accuracy    <       0.01111176 Ry

     total magnetization       =     0.00 Bohr mag/cell
     absolute magnetization    =     0.01 Bohr mag/cell

     iteration #  4     ecut=    40.42 Ry     beta=0.10
     Davidson diagonalization with overlap
     ethr =  2.78E-06,  avg # of iterations =  2.9

     negative rho (up, down):  1.160E-02 1.160E-02
 
     Magnetic moment per site:
     atom:    1    charge:    3.1250    magn:   -0.0001    constr:    0.0000
     atom:    2    charge:    2.0894    magn:    0.0001    constr:    0.0000
     atom:    3    charge:    3.1196    magn:   -0.0000    constr:    0.0000
     atom:    4    charge:    2.0870    magn:    0.0000    constr:    0.0000
     atom:    5    charge:    3.1170    magn:   -0.0000    constr:    0.0000
     atom:    6    charge:    2.0916    magn:    0.0000    constr:    0.0000
     atom:    7    charge:    3.1185    magn:   -0.0000    constr:    0.0000
     atom:    8    charge:    2.0815    magn:    0.0000    constr:    0.0000
     atom:    9    charge:    3.1250    magn:   -0.0001    constr:    0.0000
     atom:   10    charge:    2.0894    magn:    0.0001    constr:    0.0000
     atom:   11    charge:    3.1196    magn:   -0.0000    constr:    0.0000
     atom:   12    charge:    2.0870    magn:    0.0000    constr:    0.0000
     atom:   13    charge:    3.1148    magn:   -0.0000    constr:    0.0000
     atom:   14    charge:    2.0911    magn:    0.0000    constr:    0.0000
     atom:   15    charge:    3.1194    magn:   -0.0000    constr:    0.0000
     atom:   16    charge:    2.0884    magn:    0.0000    constr:    0.0000
     atom:   17    charge:    2.0624    magn:    0.0002    constr:    0.0000
     atom:   18    charge:    3.1239    magn:   -0.0000    constr:    0.0000
     atom:   19    charge:    2.0878    magn:   -0.0000    constr:    0.0000
     atom:   20    charge:    2.0846    magn:   -0.0000    constr:    0.0000
     atom:   21    charge:    2.0846    magn:   -0.0000    constr:    0.0000
     atom:   22    charge:    3.1197    magn:   -0.0000    constr:    0.0000
     atom:   23    charge:    2.0908    magn:    0.0000    constr:    0.0000
     atom:   24    charge:    2.0777    magn:    0.0000    constr:    0.0000
     atom:   25    charge:    2.0869    magn:    0.0000    constr:    0.0000
     atom:   26    charge:    3.1165    magn:   -0.0000    constr:    0.0000
     atom:   27    charge:    2.0824    magn:    0.0001    constr:    0.0000
     atom:   28    charge:    2.0879    magn:    0.0001    constr:    0.0000
     atom:   29    charge:    2.0877    magn:    0.0000    constr:    0.0000
     atom:   30    charge:    3.1168    magn:   -0.0001    constr:    0.0000
     atom:   31    charge:    2.0815    magn:    0.0002    constr:    0.0000
     atom:   32    charge:    2.0843    magn:    0.0000    constr:    0.0000
     atom:   33    charge:    2.0624    magn:    0.0002    constr:    0.0000
     atom:   34    charge:    3.1239    magn:   -0.0000    constr:    0.0000
     atom:   35    charge:    2.0878    magn:   -0.0000    constr:    0.0000
     atom:   36    charge:    2.0846    magn:   -0.0000    constr:    0.0000
     atom:   37    charge:    2.0846    magn:   -0.0000    constr:    0.0000
     atom:   38    charge:    3.1197    magn:   -0.0000    constr:    0.0000
     atom:   39    charge:    2.0912    magn:    0.0000    constr:    0.0000
     atom:   40    charge:    2.0777    magn:    0.0000    constr:    0.0000
     atom:   41    charge:    2.0869    magn:    0.0000    constr:    0.0000
     atom:   42    charge:    3.1181    magn:   -0.0000    constr:    0.0000
     atom:   43    charge:    2.0838    magn:    0.0001    constr:    0.0000
     atom:   44    charge:    2.0864    magn:    0.0001    constr:    0.0000
     atom:   45    charge:    2.0871    magn:    0.0000    constr:    0.0000
     atom:   46    charge:    3.1171    magn:   -0.0001    constr:    0.0000
     atom:   47    charge:    2.0796    magn:    0.0002    constr:    0.0000
     atom:   48    charge:    2.0834    magn:    0.0001    constr:    0.0000
     atom:   49    charge:    2.0457    magn:   -0.0000    constr:    0.0000
     atom:   50    charge:    1.2789    magn:   -0.0000    constr:    0.0000
     atom:   51    charge:    1.2965    magn:    0.0000    constr:    0.0000

     total cpu time spent up to now is     1501.6 secs

     total energy              =   -3044.94791356 Ry
     Harris-Foulkes estimate   =   -3044.95016141 Ry
     estimated scf accuracy    <       0.00415827 Ry

     total magnetization       =     0.00 Bohr mag/cell
     absolute magnetization    =     0.00 Bohr mag/cell

     iteration #  5     ecut=    40.42 Ry     beta=0.10
     Davidson diagonalization with overlap
     ethr =  1.04E-06,  avg # of iterations =  3.1

     negative rho (up, down):  1.160E-02 1.160E-02
 
     Magnetic moment per site:
     atom:    1    charge:    3.1250    magn:   -0.0001    constr:    0.0000
     atom:    2    charge:    2.0894    magn:    0.0001    constr:    0.0000
     atom:    3    charge:    3.1196    magn:   -0.0000    constr:    0.0000
     atom:    4    charge:    2.0870    magn:    0.0000    constr:    0.0000
     atom:    5    charge:    3.1170    magn:   -0.0000    constr:    0.0000
     atom:    6    charge:    2.0917    magn:    0.0000    constr:    0.0000
     atom:    7    charge:    3.1183    magn:   -0.0000    constr:    0.0000
     atom:    8    charge:    2.0817    magn:    0.0000    constr:    0.0000
     atom:    9    charge:    3.1250    magn:   -0.0001    constr:    0.0000
     atom:   10    charge:    2.0894    magn:    0.0001    constr:    0.0000
     atom:   11    charge:    3.1196    magn:   -0.0000    constr:    0.0000
     atom:   12    charge:    2.0870    magn:    0.0000    constr:    0.0000
     atom:   13    charge:    3.1147    magn:   -0.0000    constr:    0.0000
     atom:   14    charge:    2.0912    magn:    0.0000    constr:    0.0000
     atom:   15    charge:    3.1192    magn:   -0.0000    constr:    0.0000
     atom:   16    charge:    2.0883    magn:    0.0000    constr:    0.0000
     atom:   17    charge:    2.0624    magn:    0.0002    constr:    0.0000
     atom:   18    charge:    3.1240    magn:   -0.0000    constr:    0.0000
     atom:   19    charge:    2.0878    magn:   -0.0000    constr:    0.0000
     atom:   20    charge:    2.0847    magn:   -0.0000    constr:    0.0000
     atom:   21    charge:    2.0847    magn:   -0.0000    constr:    0.0000
     atom:   22    charge:    3.1197    magn:   -0.0000    constr:    0.0000
     atom:   23    charge:    2.0909    magn:    0.0000    constr:    0.0000
     atom:   24    charge:    2.0776    magn:    0.0000    constr:    0.0000
     atom:   25    charge:    2.0869    magn:    0.0000    constr:    0.0000
     atom:   26    charge:    3.1165    magn:   -0.0000    constr:    0.0000
     atom:   27    charge:    2.0823    magn:    0.0001    constr:    0.0000
     atom:   28    charge:    2.0879    magn:    0.0000    constr:    0.0000
     atom:   29    charge:    2.0877    magn:    0.0000    constr:    0.0000
     atom:   30    charge:    3.1168    magn:   -0.0001    constr:    0.0000
     atom:   31    charge:    2.0816    magn:    0.0001    constr:    0.0000
     atom:   32    charge:    2.0843    magn:    0.0000    constr:    0.0000
     atom:   33    charge:    2.0624    magn:    0.0002    constr:    0.0000
     atom:   34    charge:    3.1240    magn:   -0.0000    constr:    0.0000
     atom:   35    charge:    2.0878    magn:   -0.0000    constr:    0.0000
     atom:   36    charge:    2.0847    magn:   -0.0000    constr:    0.0000
     atom:   37    charge:    2.0847    magn:   -0.0000    constr:    0.0000
     atom:   38    charge:    3.1197    magn:   -0.0000    constr:    0.0000
     atom:   39    charge:    2.0913    magn:    0.0000    constr:    0.0000
     atom:   40    charge:    2.0776    magn:    0.0000    constr:    0.0000
     atom:   41    charge:    2.0869    magn:    0.0000    constr:    0.0000
     atom:   42    charge:    3.1182    magn:   -0.0000    constr:    0.0000
     atom:   43    charge:    2.0837    magn:    0.0001    constr:    0.0000
     atom:   44    charge:    2.0864    magn:    0.0001    constr:    0.0000
     atom:   45    charge:    2.0871    magn:    0.0000    constr:    0.0000
     atom:   46    charge:    3.1170    magn:   -0.0001    constr:    0.0000
     atom:   47    charge:    2.0797    magn:    0.0001    constr:    0.0000
     atom:   48    charge:    2.0830    magn:    0.0001    constr:    0.0000
     atom:   49    charge:    2.0455    magn:   -0.0000    constr:    0.0000
     atom:   50    charge:    1.2781    magn:   -0.0000    constr:    0.0000
     atom:   51    charge:    1.2971    magn:    0.0000    constr:    0.0000

     total cpu time spent up to now is     1716.6 secs

     total energy              =   -3044.94834261 Ry
     Harris-Foulkes estimate   =   -3044.94843147 Ry
     estimated scf accuracy    <       0.00037555 Ry

     total magnetization       =     0.00 Bohr mag/cell
     absolute magnetization    =     0.00 Bohr mag/cell

     iteration #  6     ecut=    40.42 Ry     beta=0.10
     Davidson diagonalization with overlap
     ethr =  9.39E-08,  avg # of iterations =  2.0

     negative rho (up, down):  1.160E-02 1.160E-02
 
     Magnetic moment per site:
     atom:    1    charge:    3.1250    magn:   -0.0001    constr:    0.0000
     atom:    2    charge:    2.0894    magn:    0.0000    constr:    0.0000
     atom:    3    charge:    3.1196    magn:   -0.0000    constr:    0.0000
     atom:    4    charge:    2.0870    magn:    0.0000    constr:    0.0000
     atom:    5    charge:    3.1170    magn:   -0.0000    constr:    0.0000
     atom:    6    charge:    2.0917    magn:    0.0000    constr:    0.0000
     atom:    7    charge:    3.1183    magn:   -0.0000    constr:    0.0000
     atom:    8    charge:    2.0816    magn:    0.0000    constr:    0.0000
     atom:    9    charge:    3.1250    magn:   -0.0001    constr:    0.0000
     atom:   10    charge:    2.0894    magn:    0.0000    constr:    0.0000
     atom:   11    charge:    3.1196    magn:   -0.0000    constr:    0.0000
     atom:   12    charge:    2.0870    magn:    0.0000    constr:    0.0000
     atom:   13    charge:    3.1148    magn:   -0.0000    constr:    0.0000
     atom:   14    charge:    2.0912    magn:    0.0000    constr:    0.0000
     atom:   15    charge:    3.1193    magn:   -0.0000    constr:    0.0000
     atom:   16    charge:    2.0883    magn:    0.0000    constr:    0.0000
     atom:   17    charge:    2.0624    magn:    0.0002    constr:    0.0000
     atom:   18    charge:    3.1239    magn:   -0.0000    constr:    0.0000
     atom:   19    charge:    2.0878    magn:   -0.0000    constr:    0.0000
     atom:   20    charge:    2.0847    magn:   -0.0000    constr:    0.0000
     atom:   21    charge:    2.0847    magn:   -0.0000    constr:    0.0000
     atom:   22    charge:    3.1197    magn:   -0.0000    constr:    0.0000
     atom:   23    charge:    2.0909    magn:    0.0000    constr:    0.0000
     atom:   24    charge:    2.0777    magn:    0.0000    constr:    0.0000
     atom:   25    charge:    2.0869    magn:    0.0000    constr:    0.0000
     atom:   26    charge:    3.1165    magn:   -0.0000    constr:    0.0000
     atom:   27    charge:    2.0823    magn:    0.0001    constr:    0.0000
     atom:   28    charge:    2.0879    magn:    0.0000    constr:    0.0000
     atom:   29    charge:    2.0877    magn:    0.0000    constr:    0.0000
     atom:   30    charge:    3.1168    magn:   -0.0001    constr:    0.0000
     atom:   31    charge:    2.0816    magn:    0.0001    constr:    0.0000
     atom:   32    charge:    2.0843    magn:    0.0000    constr:    0.0000
     atom:   33    charge:    2.0624    magn:    0.0002    constr:    0.0000
     atom:   34    charge:    3.1239    magn:   -0.0000    constr:    0.0000
     atom:   35    charge:    2.0878    magn:   -0.0000    constr:    0.0000
     atom:   36    charge:    2.0847    magn:   -0.0000    constr:    0.0000
     atom:   37    charge:    2.0847    magn:   -0.0000    constr:    0.0000
     atom:   38    charge:    3.1197    magn:   -0.0000    constr:    0.0000
     atom:   39    charge:    2.0912    magn:    0.0000    constr:    0.0000
     atom:   40    charge:    2.0777    magn:    0.0000    constr:    0.0000
     atom:   41    charge:    2.0869    magn:    0.0000    constr:    0.0000
     atom:   42    charge:    3.1181    magn:   -0.0000    constr:    0.0000
     atom:   43    charge:    2.0837    magn:    0.0001    constr:    0.0000
     atom:   44    charge:    2.0865    magn:    0.0000    constr:    0.0000
     atom:   45    charge:    2.0871    magn:    0.0000    constr:    0.0000
     atom:   46    charge:    3.1171    magn:   -0.0001    constr:    0.0000
     atom:   47    charge:    2.0797    magn:    0.0001    constr:    0.0000
     atom:   48    charge:    2.0830    magn:    0.0001    constr:    0.0000
     atom:   49    charge:    2.0455    magn:   -0.0000    constr:    0.0000
     atom:   50    charge:    1.2773    magn:   -0.0000    constr:    0.0000
     atom:   51    charge:    1.2972    magn:    0.0000    constr:    0.0000

     total cpu time spent up to now is     1911.7 secs

     total energy              =   -3044.94834910 Ry
     Harris-Foulkes estimate   =   -3044.94836743 Ry
     estimated scf accuracy    <       0.00010949 Ry

     total magnetization       =     0.00 Bohr mag/cell
     absolute magnetization    =     0.00 Bohr mag/cell

     iteration #  7     ecut=    40.42 Ry     beta=0.10
     Davidson diagonalization with overlap
     ethr =  2.74E-08,  avg # of iterations =  2.0

     negative rho (up, down):  1.160E-02 1.160E-02
 
     Magnetic moment per site:
     atom:    1    charge:    3.1250    magn:   -0.0001    constr:    0.0000
     atom:    2    charge:    2.0894    magn:    0.0000    constr:    0.0000
     atom:    3    charge:    3.1196    magn:   -0.0000    constr:    0.0000
     atom:    4    charge:    2.0870    magn:    0.0000    constr:    0.0000
     atom:    5    charge:    3.1170    magn:   -0.0000    constr:    0.0000
     atom:    6    charge:    2.0917    magn:    0.0000    constr:    0.0000
     atom:    7    charge:    3.1184    magn:   -0.0000    constr:    0.0000
     atom:    8    charge:    2.0815    magn:    0.0000    constr:    0.0000
     atom:    9    charge:    3.1250    magn:   -0.0001    constr:    0.0000
     atom:   10    charge:    2.0894    magn:    0.0000    constr:    0.0000
     atom:   11    charge:    3.1196    magn:   -0.0000    constr:    0.0000
     atom:   12    charge:    2.0870    magn:    0.0000    constr:    0.0000
     atom:   13    charge:    3.1148    magn:   -0.0000    constr:    0.0000
     atom:   14    charge:    2.0912    magn:    0.0000    constr:    0.0000
     atom:   15    charge:    3.1193    magn:   -0.0000    constr:    0.0000
     atom:   16    charge:    2.0882    magn:    0.0000    constr:    0.0000
     atom:   17    charge:    2.0624    magn:    0.0001    constr:    0.0000
     atom:   18    charge:    3.1239    magn:   -0.0000    constr:    0.0000
     atom:   19    charge:    2.0878    magn:   -0.0000    constr:    0.0000
     atom:   20    charge:    2.0847    magn:   -0.0000    constr:    0.0000
     atom:   21    charge:    2.0847    magn:   -0.0000    constr:    0.0000
     atom:   22    charge:    3.1197    magn:   -0.0000    constr:    0.0000
     atom:   23    charge:    2.0908    magn:    0.0000    constr:    0.0000
     atom:   24    charge:    2.0778    magn:    0.0000    constr:    0.0000
     atom:   25    charge:    2.0869    magn:    0.0000    constr:    0.0000
     atom:   26    charge:    3.1165    magn:   -0.0000    constr:    0.0000
     atom:   27    charge:    2.0824    magn:    0.0001    constr:    0.0000
     atom:   28    charge:    2.0879    magn:    0.0000    constr:    0.0000
     atom:   29    charge:    2.0877    magn:    0.0000    constr:    0.0000
     atom:   30    charge:    3.1168    magn:   -0.0000    constr:    0.0000
     atom:   31    charge:    2.0815    magn:    0.0001    constr:    0.0000
     atom:   32    charge:    2.0842    magn:    0.0000    constr:    0.0000
     atom:   33    charge:    2.0624    magn:    0.0001    constr:    0.0000
     atom:   34    charge:    3.1239    magn:   -0.0000    constr:    0.0000
     atom:   35    charge:    2.0878    magn:   -0.0000    constr:    0.0000
     atom:   36    charge:    2.0847    magn:   -0.0000    constr:    0.0000
     atom:   37    charge:    2.0847    magn:   -0.0000    constr:    0.0000
     atom:   38    charge:    3.1197    magn:   -0.0000    constr:    0.0000
     atom:   39    charge:    2.0912    magn:    0.0000    constr:    0.0000
     atom:   40    charge:    2.0778    magn:    0.0000    constr:    0.0000
     atom:   41    charge:    2.0869    magn:    0.0000    constr:    0.0000
     atom:   42    charge:    3.1181    magn:   -0.0000    constr:    0.0000
     atom:   43    charge:    2.0838    magn:    0.0001    constr:    0.0000
     atom:   44    charge:    2.0865    magn:    0.0000    constr:    0.0000
     atom:   45    charge:    2.0871    magn:    0.0000    constr:    0.0000
     atom:   46    charge:    3.1171    magn:   -0.0000    constr:    0.0000
     atom:   47    charge:    2.0796    magn:    0.0001    constr:    0.0000
     atom:   48    charge:    2.0830    magn:    0.0000    constr:    0.0000
     atom:   49    charge:    2.0451    magn:    0.0000    constr:    0.0000
     atom:   50    charge:    1.2764    magn:   -0.0000    constr:    0.0000
     atom:   51    charge:    1.2970    magn:    0.0000    constr:    0.0000

     total cpu time spent up to now is     2103.9 secs

     total energy              =   -3044.94833672 Ry
     Harris-Foulkes estimate   =   -3044.94835219 Ry
     estimated scf accuracy    <       0.00005006 Ry

     total magnetization       =     0.00 Bohr mag/cell
     absolute magnetization    =     0.00 Bohr mag/cell

     iteration #  8     ecut=    40.42 Ry     beta=0.10
     Davidson diagonalization with overlap
     ethr =  1.25E-08,  avg # of iterations =  3.0

     negative rho (up, down):  1.160E-02 1.160E-02
 
     Magnetic moment per site:
     atom:    1    charge:    3.1250    magn:   -0.0000    constr:    0.0000
     atom:    2    charge:    2.0894    magn:    0.0000    constr:    0.0000
     atom:    3    charge:    3.1196    magn:   -0.0000    constr:    0.0000
     atom:    4    charge:    2.0870    magn:    0.0000    constr:    0.0000
     atom:    5    charge:    3.1170    magn:   -0.0000    constr:    0.0000
     atom:    6    charge:    2.0917    magn:    0.0000    constr:    0.0000
     atom:    7    charge:    3.1184    magn:   -0.0000    constr:    0.0000
     atom:    8    charge:    2.0815    magn:    0.0000    constr:    0.0000
     atom:    9    charge:    3.1250    magn:   -0.0000    constr:    0.0000
     atom:   10    charge:    2.0894    magn:    0.0000    constr:    0.0000
     atom:   11    charge:    3.1196    magn:   -0.0000    constr:    0.0000
     atom:   12    charge:    2.0870    magn:    0.0000    constr:    0.0000
     atom:   13    charge:    3.1148    magn:   -0.0000    constr:    0.0000
     atom:   14    charge:    2.0911    magn:    0.0000    constr:    0.0000
     atom:   15    charge:    3.1193    magn:   -0.0000    constr:    0.0000
     atom:   16    charge:    2.0883    magn:    0.0000    constr:    0.0000
     atom:   17    charge:    2.0624    magn:    0.0001    constr:    0.0000
     atom:   18    charge:    3.1239    magn:   -0.0000    constr:    0.0000
     atom:   19    charge:    2.0878    magn:   -0.0000    constr:    0.0000
     atom:   20    charge:    2.0847    magn:   -0.0000    constr:    0.0000
     atom:   21    charge:    2.0847    magn:   -0.0000    constr:    0.0000
     atom:   22    charge:    3.1197    magn:   -0.0000    constr:    0.0000
     atom:   23    charge:    2.0908    magn:    0.0000    constr:    0.0000
     atom:   24    charge:    2.0777    magn:    0.0000    constr:    0.0000
     atom:   25    charge:    2.0869    magn:    0.0000    constr:    0.0000
     atom:   26    charge:    3.1165    magn:   -0.0000    constr:    0.0000
     atom:   27    charge:    2.0824    magn:    0.0000    constr:    0.0000
     atom:   28    charge:    2.0879    magn:    0.0000    constr:    0.0000
     atom:   29    charge:    2.0877    magn:    0.0000    constr:    0.0000
     atom:   30    charge:    3.1168    magn:   -0.0000    constr:    0.0000
     atom:   31    charge:    2.0815    magn:    0.0001    constr:    0.0000
     atom:   32    charge:    2.0842    magn:    0.0000    constr:    0.0000
     atom:   33    charge:    2.0624    magn:    0.0001    constr:    0.0000
     atom:   34    charge:    3.1239    magn:   -0.0000    constr:    0.0000
     atom:   35    charge:    2.0878    magn:   -0.0000    constr:    0.0000
     atom:   36    charge:    2.0847    magn:   -0.0000    constr:    0.0000
     atom:   37    charge:    2.0847    magn:   -0.0000    constr:    0.0000
     atom:   38    charge:    3.1197    magn:   -0.0000    constr:    0.0000
     atom:   39    charge:    2.0912    magn:    0.0000    constr:    0.0000
     atom:   40    charge:    2.0777    magn:    0.0000    constr:    0.0000
     atom:   41    charge:    2.0869    magn:    0.0000    constr:    0.0000
     atom:   42    charge:    3.1181    magn:   -0.0000    constr:    0.0000
     atom:   43    charge:    2.0838    magn:    0.0000    constr:    0.0000
     atom:   44    charge:    2.0865    magn:    0.0000    constr:    0.0000
     atom:   45    charge:    2.0871    magn:    0.0000    constr:    0.0000
     atom:   46    charge:    3.1171    magn:   -0.0000    constr:    0.0000
     atom:   47    charge:    2.0796    magn:    0.0001    constr:    0.0000
     atom:   48    charge:    2.0832    magn:    0.0000    constr:    0.0000
     atom:   49    charge:    2.0451    magn:    0.0000    constr:    0.0000
     atom:   50    charge:    1.2762    magn:   -0.0000    constr:    0.0000
     atom:   51    charge:    1.2968    magn:    0.0000    constr:    0.0000

     total cpu time spent up to now is     2314.5 secs

     total energy              =   -3044.94833823 Ry
     Harris-Foulkes estimate   =   -3044.94834066 Ry
     estimated scf accuracy    <       0.00001155 Ry

     total magnetization       =     0.00 Bohr mag/cell
     absolute magnetization    =     0.00 Bohr mag/cell

     iteration #  9     ecut=    40.42 Ry     beta=0.10
     Davidson diagonalization with overlap
     ethr =  2.89E-09,  avg # of iterations =  3.0

     negative rho (up, down):  1.160E-02 1.160E-02
 
     Magnetic moment per site:
     atom:    1    charge:    3.1250    magn:   -0.0000    constr:    0.0000
     atom:    2    charge:    2.0894    magn:    0.0000    constr:    0.0000
     atom:    3    charge:    3.1196    magn:   -0.0000    constr:    0.0000
     atom:    4    charge:    2.0870    magn:    0.0000    constr:    0.0000
     atom:    5    charge:    3.1170    magn:   -0.0000    constr:    0.0000
     atom:    6    charge:    2.0917    magn:    0.0000    constr:    0.0000
     atom:    7    charge:    3.1184    magn:   -0.0000    constr:    0.0000
     atom:    8    charge:    2.0815    magn:    0.0000    constr:    0.0000
     atom:    9    charge:    3.1250    magn:   -0.0000    constr:    0.0000
     atom:   10    charge:    2.0894    magn:    0.0000    constr:    0.0000
     atom:   11    charge:    3.1196    magn:   -0.0000    constr:    0.0000
     atom:   12    charge:    2.0870    magn:    0.0000    constr:    0.0000
     atom:   13    charge:    3.1148    magn:   -0.0000    constr:    0.0000
     atom:   14    charge:    2.0912    magn:    0.0000    constr:    0.0000
     atom:   15    charge:    3.1193    magn:   -0.0000    constr:    0.0000
     atom:   16    charge:    2.0883    magn:    0.0000    constr:    0.0000
     atom:   17    charge:    2.0624    magn:    0.0001    constr:    0.0000
     atom:   18    charge:    3.1239    magn:   -0.0000    constr:    0.0000
     atom:   19    charge:    2.0878    magn:   -0.0000    constr:    0.0000
     atom:   20    charge:    2.0847    magn:   -0.0000    constr:    0.0000
     atom:   21    charge:    2.0847    magn:   -0.0000    constr:    0.0000
     atom:   22    charge:    3.1197    magn:   -0.0000    constr:    0.0000
     atom:   23    charge:    2.0909    magn:    0.0000    constr:    0.0000
     atom:   24    charge:    2.0777    magn:    0.0000    constr:    0.0000
     atom:   25    charge:    2.0869    magn:    0.0000    constr:    0.0000
     atom:   26    charge:    3.1165    magn:   -0.0000    constr:    0.0000
     atom:   27    charge:    2.0824    magn:    0.0000    constr:    0.0000
     atom:   28    charge:    2.0879    magn:    0.0000    constr:    0.0000
     atom:   29    charge:    2.0877    magn:    0.0000    constr:    0.0000
     atom:   30    charge:    3.1168    magn:   -0.0000    constr:    0.0000
     atom:   31    charge:    2.0815    magn:    0.0001    constr:    0.0000
     atom:   32    charge:    2.0842    magn:    0.0000    constr:    0.0000
     atom:   33    charge:    2.0624    magn:    0.0001    constr:    0.0000
     atom:   34    charge:    3.1239    magn:   -0.0000    constr:    0.0000
     atom:   35    charge:    2.0878    magn:   -0.0000    constr:    0.0000
     atom:   36    charge:    2.0847    magn:   -0.0000    constr:    0.0000
     atom:   37    charge:    2.0847    magn:   -0.0000    constr:    0.0000
     atom:   38    charge:    3.1197    magn:   -0.0000    constr:    0.0000
     atom:   39    charge:    2.0912    magn:    0.0000    constr:    0.0000
     atom:   40    charge:    2.0777    magn:    0.0000    constr:    0.0000
     atom:   41    charge:    2.0869    magn:    0.0000    constr:    0.0000
     atom:   42    charge:    3.1181    magn:   -0.0000    constr:    0.0000
     atom:   43    charge:    2.0838    magn:    0.0000    constr:    0.0000
     atom:   44    charge:    2.0864    magn:    0.0000    constr:    0.0000
     atom:   45    charge:    2.0871    magn:    0.0000    constr:    0.0000
     atom:   46    charge:    3.1171    magn:   -0.0000    constr:    0.0000
     atom:   47    charge:    2.0796    magn:    0.0001    constr:    0.0000
     atom:   48    charge:    2.0832    magn:    0.0000    constr:    0.0000
     atom:   49    charge:    2.0452    magn:    0.0000    constr:    0.0000
     atom:   50    charge:    1.2761    magn:   -0.0000    constr:    0.0000
     atom:   51    charge:    1.2968    magn:    0.0000    constr:    0.0000

     total cpu time spent up to now is     2523.7 secs

     total energy              =   -3044.94833876 Ry
     Harris-Foulkes estimate   =   -3044.94833903 Ry
     estimated scf accuracy    <       0.00000200 Ry

     total magnetization       =     0.00 Bohr mag/cell
     absolute magnetization    =     0.00 Bohr mag/cell

     iteration # 10     ecut=    40.42 Ry     beta=0.10
     Davidson diagonalization with overlap
     ethr =  5.00E-10,  avg # of iterations =  2.0

     negative rho (up, down):  1.160E-02 1.160E-02
 
     Magnetic moment per site:
     atom:    1    charge:    3.1250    magn:   -0.0000    constr:    0.0000
     atom:    2    charge:    2.0894    magn:    0.0000    constr:    0.0000
     atom:    3    charge:    3.1196    magn:   -0.0000    constr:    0.0000
     atom:    4    charge:    2.0870    magn:    0.0000    constr:    0.0000
     atom:    5    charge:    3.1170    magn:   -0.0000    constr:    0.0000
     atom:    6    charge:    2.0917    magn:    0.0000    constr:    0.0000
     atom:    7    charge:    3.1184    magn:   -0.0000    constr:    0.0000
     atom:    8    charge:    2.0816    magn:    0.0000    constr:    0.0000
     atom:    9    charge:    3.1250    magn:   -0.0000    constr:    0.0000
     atom:   10    charge:    2.0894    magn:    0.0000    constr:    0.0000
     atom:   11    charge:    3.1196    magn:   -0.0000    constr:    0.0000
     atom:   12    charge:    2.0870    magn:    0.0000    constr:    0.0000
     atom:   13    charge:    3.1148    magn:   -0.0000    constr:    0.0000
     atom:   14    charge:    2.0912    magn:    0.0000    constr:    0.0000
     atom:   15    charge:    3.1193    magn:   -0.0000    constr:    0.0000
     atom:   16    charge:    2.0883    magn:    0.0000    constr:    0.0000
     atom:   17    charge:    2.0624    magn:    0.0000    constr:    0.0000
     atom:   18    charge:    3.1239    magn:   -0.0000    constr:    0.0000
     atom:   19    charge:    2.0878    magn:   -0.0000    constr:    0.0000
     atom:   20    charge:    2.0847    magn:   -0.0000    constr:    0.0000
     atom:   21    charge:    2.0847    magn:   -0.0000    constr:    0.0000
     atom:   22    charge:    3.1197    magn:   -0.0000    constr:    0.0000
     atom:   23    charge:    2.0909    magn:    0.0000    constr:    0.0000
     atom:   24    charge:    2.0777    magn:    0.0000    constr:    0.0000
     atom:   25    charge:    2.0869    magn:    0.0000    constr:    0.0000
     atom:   26    charge:    3.1165    magn:   -0.0000    constr:    0.0000
     atom:   27    charge:    2.0824    magn:    0.0000    constr:    0.0000
     atom:   28    charge:    2.0879    magn:    0.0000    constr:    0.0000
     atom:   29    charge:    2.0877    magn:    0.0000    constr:    0.0000
     atom:   30    charge:    3.1168    magn:   -0.0000    constr:    0.0000
     atom:   31    charge:    2.0815    magn:    0.0000    constr:    0.0000
     atom:   32    charge:    2.0843    magn:    0.0000    constr:    0.0000
     atom:   33    charge:    2.0624    magn:    0.0000    constr:    0.0000
     atom:   34    charge:    3.1239    magn:   -0.0000    constr:    0.0000
     atom:   35    charge:    2.0878    magn:   -0.0000    constr:    0.0000
     atom:   36    charge:    2.0847    magn:   -0.0000    constr:    0.0000
     atom:   37    charge:    2.0847    magn:   -0.0000    constr:    0.0000
     atom:   38    charge:    3.1197    magn:   -0.0000    constr:    0.0000
     atom:   39    charge:    2.0912    magn:    0.0000    constr:    0.0000
     atom:   40    charge:    2.0777    magn:    0.0000    constr:    0.0000
     atom:   41    charge:    2.0869    magn:    0.0000    constr:    0.0000
     atom:   42    charge:    3.1181    magn:   -0.0000    constr:    0.0000
     atom:   43    charge:    2.0838    magn:    0.0000    constr:    0.0000
     atom:   44    charge:    2.0865    magn:    0.0000    constr:    0.0000
     atom:   45    charge:    2.0871    magn:    0.0000    constr:    0.0000
     atom:   46    charge:    3.1171    magn:   -0.0000    constr:    0.0000
     atom:   47    charge:    2.0796    magn:    0.0000    constr:    0.0000
     atom:   48    charge:    2.0831    magn:    0.0000    constr:    0.0000
     atom:   49    charge:    2.0452    magn:    0.0000    constr:    0.0000
     atom:   50    charge:    1.2764    magn:   -0.0000    constr:    0.0000
     atom:   51    charge:    1.2969    magn:    0.0000    constr:    0.0000

     total cpu time spent up to now is     2721.1 secs

     End of self-consistent calculation

 ------ SPIN UP ------------


          k = 0.0000 0.0000 0.0000 ( 34665 PWs)   bands (ev):

   -57.8016 -57.7667 -57.4863 -57.4308 -57.3590 -57.3227 -57.2550 -57.2197
   -57.1568 -57.1215 -57.0903 -57.0549 -56.8527 -56.7825 -56.2645 -56.2293
   -34.2380 -34.0827 -34.0542 -34.0331 -34.0032 -33.9089 -33.8482 -33.8348
   -33.7990 -33.7484 -33.7040 -33.6937 -33.6888 -33.6610 -33.6481 -33.6416
   -33.6225 -33.6126 -33.5887 -33.5334 -33.4954 -33.4363 -33.4306 -33.4157
   -33.4087 -33.4056 -33.3574 -33.3561 -33.3553 -33.3369 -33.3324 -33.3121
   -33.2862 -33.2802 -33.2558 -33.2469 -33.2216 -33.1137 -33.1097 -33.0543
   -33.0096 -32.9081 -32.6832 -32.6157 -32.5896 -32.4872 -32.3954 -32.2872
   -24.3249 -20.9273 -18.1493 -17.9532 -17.7224 -17.6043 -17.4689 -17.4673
   -17.1881 -17.1709 -17.1193 -17.0315 -17.0249 -16.9889 -16.9622 -16.8944
   -16.8422 -16.8378 -16.8128 -16.7719 -16.7160 -16.6666 -16.5460 -16.5276
   -16.4928 -16.4826 -16.3981 -16.2898 -16.2514 -16.2192 -16.0787 -16.0482
   -14.8471 -14.7624  -9.7001  -7.5778  -7.5669  -6.0207  -5.5426  -5.4894
    -5.3331  -5.3245  -5.2710  -4.9709  -4.9147  -4.5619  -4.5611  -4.5230
    -4.5121  -4.4672  -4.3461  -4.2433  -4.1957  -4.1795  -4.1450  -4.1420
    -4.1362  -4.1307  -4.0683  -4.0651  -3.9836  -3.9605  -3.9308  -3.8865
    -3.8586  -3.7784  -3.7481  -3.7250  -3.6938  -3.6211  -3.5991  -3.5225
    -3.5195  -3.4944  -3.4231  -3.3065  -3.1762  -3.1429  -3.0377  -2.9840
    -2.9354  -2.8479  -2.7902  -2.7828  -2.7191  -2.7144  -2.7040  -2.5720
    -2.5362  -2.4841  -2.4060  -2.3739  -2.3471  -2.3237  -2.2980  -2.2568
    -2.2485  -2.2198  -2.1831  -2.1539  -2.1390  -2.0226  -1.9664  -1.8668
    -1.7275  -1.7257  -1.6919  -1.6553  -1.6272  -1.6176  -1.5404  -1.5236
    -1.4190  -1.4080  -1.3843  -1.3769  -1.3546  -1.2569  -1.2085  -1.1980
    -1.1722  -1.1070  -1.0457  -0.9933  -0.8925  -0.7204  -0.6924  -0.6858
    -0.6180  -0.4951  -0.3521  -0.2144  -0.1479   0.0123   0.1386   0.1538
     1.5403   1.5698   1.8567   1.8996   1.9026   1.9283   2.0969   2.1123
     2.1487   2.2667   2.3847   2.3969   2.4286   2.4503   2.4903   2.5052
     2.5480   2.5892   2.6527   2.6942   2.6978   2.7084   2.7919   2.8408
     2.8976   2.9236   3.0096   3.0190   3.0224   3.0464   3.0899   3.1094
     3.1134   3.1221   3.1292   3.1604   3.2642   3.3186   3.3308   3.3825
     3.4052   3.4394   3.4445   3.5586   3.5606   3.6984   3.9032   4.0148
     4.0599   4.0636   4.0978   4.2086   4.2736   4.4807   4.5608   4.6848
     4.9336   4.9476   5.0380   5.1416   5.2272   5.4086   5.4182   5.4492
     5.5258   5.6058   5.6572   5.6605   5.7369   5.7461   5.7602   5.7630
     5.9429   5.9668   6.0318   6.0496   6.1243   6.1670   6.2043   6.2433
     6.5017   6.6161   6.7892   6.8059   6.9019   6.9947   7.1843   7.2766
     7.8892   7.9863   8.1681   8.3832   8.7196   8.8873   8.9184   8.9521
     9.1773   9.2485   9.2986   9.3449

          k = 0.0000 0.0280 0.0000 ( 34717 PWs)   bands (ev):

   -57.7993 -57.7690 -57.4848 -57.4323 -57.3567 -57.3250 -57.2527 -57.2221
   -57.1545 -57.1239 -57.0879 -57.0573 -56.8515 -56.7838 -56.2622 -56.2316
   -34.2127 -34.0807 -34.0560 -34.0073 -33.9970 -33.9154 -33.8752 -33.8096
   -33.7926 -33.7239 -33.7064 -33.6972 -33.6900 -33.6611 -33.6459 -33.6428
   -33.6228 -33.5886 -33.5823 -33.5265 -33.5041 -33.4560 -33.4342 -33.4253
   -33.4105 -33.3995 -33.3825 -33.3520 -33.3359 -33.3313 -33.3311 -33.3185
   -33.2870 -33.2852 -33.2798 -33.2487 -33.2471 -33.1131 -33.1067 -33.0549
   -33.0140 -32.9363 -32.6576 -32.6139 -32.5914 -32.4810 -32.4017 -32.3147
   -24.3249 -20.9272 -18.0877 -17.8952 -17.6694 -17.5510 -17.4475 -17.4209
   -17.2022 -17.1644 -17.1407 -17.0988 -17.0309 -16.9843 -16.9493 -16.8796
   -16.8630 -16.8194 -16.8051 -16.7717 -16.7467 -16.7240 -16.5701 -16.5127
   -16.4973 -16.4724 -16.4277 -16.2859 -16.2691 -16.2363 -16.1038 -16.0909
   -14.8570 -14.7857  -9.7000  -7.5793  -7.5668  -6.0197  -5.4544  -5.4052
    -5.2564  -5.2437  -5.1937  -4.8530  -4.8396  -4.5852  -4.5569  -4.4927
    -4.4624  -4.4286  -4.2906  -4.2715  -4.2612  -4.2160  -4.2095  -4.1677
    -4.1304  -4.1169  -4.0854  -4.0735  -4.0508  -4.0275  -3.9844  -3.9630
    -3.9031  -3.8961  -3.8400  -3.7813  -3.7130  -3.6980  -3.6755  -3.5407
    -3.4623  -3.4435  -3.3520  -3.2882  -3.1039  -3.0581  -2.9652  -2.9299
    -2.8083  -2.7710  -2.7346  -2.7276  -2.6460  -2.6129  -2.6087  -2.5881
    -2.5451  -2.5349  -2.4950  -2.4273  -2.3924  -2.3161  -2.2969  -2.2574
    -2.2080  -2.1880  -2.1714  -2.0954  -2.0259  -1.9922  -1.9174  -1.8425
    -1.8139  -1.7924  -1.7627  -1.7422  -1.6780  -1.6496  -1.6068  -1.5715
    -1.5331  -1.4740  -1.4363  -1.3860  -1.3631  -1.3310  -1.2483  -1.2125
    -1.1618  -1.1295  -1.0441  -1.0096  -0.9210  -0.8906  -0.8220  -0.7318
    -0.7070  -0.5100  -0.3919  -0.2041  -0.2033   0.0230   0.0932   0.1181
     1.6264   1.6728   1.8836   1.9004   1.9546   2.0251   2.0735   2.1413
     2.1954   2.2944   2.3441   2.3973   2.4052   2.4678   2.4785   2.5054
     2.5447   2.5709   2.6166   2.6648   2.7200   2.7632   2.7978   2.8146
     2.8558   2.8992   2.9687   2.9844   3.0109   3.0452   3.0706   3.0946
     3.1213   3.1306   3.2115   3.2344   3.2793   3.3434   3.3888   3.4378
     3.4766   3.5147   3.5284   3.5292   3.6091   3.6649   3.8542   3.9733
     4.0326   4.0813   4.1605   4.2027   4.2062   4.4236   4.6190   4.7826
     4.9403   5.0275   5.1358   5.2016   5.2314   5.4316   5.4579   5.4985
     5.5181   5.5903   5.6216   5.6459   5.6980   5.7221   5.7593   5.8426
     5.8510   5.9608   6.0005   6.0275   6.0368   6.0522   6.1404   6.2937
     6.4791   6.5589   6.7210   6.8102   6.8301   6.9529   7.0887   7.3644
     7.6548   7.9961   8.0979   8.2682   8.4161   8.6684   8.9437   9.0317
     9.0741   9.2830   9.3423   9.3935

          k = 0.0000 0.0560 0.0000 ( 34721 PWs)   bands (ev):

   -57.7929 -57.7755 -57.4815 -57.4357 -57.3506 -57.3312 -57.2462 -57.2286
   -57.1481 -57.1303 -57.0815 -57.0637 -56.8488 -56.7865 -56.2557 -56.2381
   -34.1429 -34.0754 -34.0611 -33.9799 -33.9482 -33.9367 -33.9328 -33.7765
   -33.7452 -33.7358 -33.7213 -33.6887 -33.6762 -33.6643 -33.6490 -33.6462
   -33.5648 -33.5528 -33.5443 -33.5200 -33.5071 -33.5069 -33.4558 -33.4493
   -33.4289 -33.4152 -33.3831 -33.3571 -33.3476 -33.3362 -33.3335 -33.3294
   -33.3128 -33.2984 -33.2766 -33.2732 -33.2374 -33.1124 -33.1028 -33.0562
   -33.0274 -33.0042 -32.6092 -32.5962 -32.5868 -32.4645 -32.4186 -32.3889
   -24.3248 -20.9269 -17.9162 -17.7352 -17.5298 -17.4197 -17.4010 -17.3961
   -17.2928 -17.2706 -17.1533 -17.0578 -17.0443 -17.0233 -16.9986 -16.9545
   -16.8392 -16.8316 -16.8303 -16.7870 -16.7275 -16.6562 -16.6342 -16.5898
   -16.5084 -16.4457 -16.4248 -16.3059 -16.2992 -16.2548 -16.2158 -16.1537
   -14.8746 -14.8360  -9.6997  -7.5822  -7.5664  -6.0178  -5.2111  -5.1701
    -5.0493  -5.0144  -4.9852  -4.7096  -4.6405  -4.6010  -4.5252  -4.5186
    -4.4899  -4.4715  -4.4415  -4.3687  -4.3361  -4.3250  -4.3039  -4.2990
    -4.2304  -4.1952  -4.1683  -4.1196  -4.1053  -4.0687  -4.0461  -3.9939
    -3.9307  -3.9031  -3.8326  -3.7592  -3.7032  -3.5801  -3.5509  -3.4558
    -3.3950  -3.3599  -3.3406  -3.2450  -3.1463  -2.9995  -2.9525  -2.9381
    -2.9213  -2.8555  -2.7605  -2.7079  -2.6605  -2.6241  -2.5797  -2.4414
    -2.4333  -2.4215  -2.3878  -2.3641  -2.3150  -2.2744  -2.2552  -2.2492
    -2.1766  -2.1564  -2.0729  -2.0423  -2.0155  -2.0149  -1.9820  -1.9573
    -1.9134  -1.8781  -1.8398  -1.7609  -1.6873  -1.6559  -1.6436  -1.6308
    -1.6179  -1.5463  -1.4928  -1.4793  -1.4552  -1.4190  -1.3445  -1.3323
    -1.2604  -1.2169  -1.1435  -1.1132  -1.0359  -0.9726  -0.9063  -0.8726
    -0.7776  -0.6900  -0.5731  -0.3681  -0.0231   0.0336   0.0642   0.0673
     1.7629   1.9157   1.9253   2.0048   2.0427   2.0833   2.1577   2.2286
     2.2479   2.2820   2.2886   2.2980   2.3359   2.3785   2.3999   2.5403
     2.5488   2.5853   2.6680   2.6823   2.7184   2.7654   2.7818   2.8280
     2.8316   2.8531   2.8742   2.9670   2.9914   3.0362   3.1156   3.1229
     3.1401   3.2003   3.2273   3.2432   3.3509   3.3988   3.4304   3.5131
     3.5771   3.5868   3.6431   3.6976   3.7088   3.7494   3.7635   3.8777
     4.0094   4.0175   4.0362   4.1323   4.2587   4.3650   4.7436   4.8701
     5.0584   5.1882   5.2737   5.3272   5.3569   5.4037   5.4273   5.5060
     5.5530   5.6187   5.6358   5.6431   5.6693   5.7118   5.7553   5.7643
     5.7819   5.8156   5.8565   5.9194   5.9974   6.0440   6.1930   6.3010
     6.3838   6.4167   6.6598   6.6647   6.6833   6.9115   7.0105   7.2724
     7.2960   7.6552   7.7493   8.2560   8.4087   8.5837   8.9106   9.0293
     9.1426   9.3578   9.4343   9.5576

          k = 0.0000-0.0840 0.0000 ( 34678 PWs)   bands (ev):

   -57.7842 -57.7842 -57.4796 -57.4375 -57.3448 -57.3370 -57.2375 -57.2373
   -57.1406 -57.1379 -57.0736 -57.0716 -56.8473 -56.7880 -56.2470 -56.2469
   -34.0682 -34.0682 -34.0463 -34.0463 -33.9564 -33.9564 -33.8538 -33.8211
   -33.7593 -33.7399 -33.6883 -33.6829 -33.6664 -33.6508 -33.6407 -33.6288
   -33.5542 -33.5540 -33.5420 -33.5348 -33.4793 -33.4788 -33.4569 -33.4545
   -33.4290 -33.4224 -33.4218 -33.4207 -33.3607 -33.3585 -33.3321 -33.3291
   -33.3165 -33.3145 -33.2700 -33.2682 -33.1684 -33.1359 -33.1091 -33.0597
   -33.0561 -33.0246 -32.6027 -32.6027 -32.4888 -32.4888 -32.4415 -32.4415
   -24.3248 -20.9268 -17.6781 -17.6663 -17.5142 -17.5137 -17.3929 -17.3746
   -17.2168 -17.2112 -17.1539 -17.1533 -17.1175 -17.1141 -16.9444 -16.9442
   -16.9185 -16.9145 -16.7514 -16.7187 -16.6949 -16.6860 -16.6217 -16.6150
   -16.5239 -16.4805 -16.3557 -16.3539 -16.3067 -16.3057 -16.2222 -16.2209
   -14.8728 -14.8728  -9.6996  -7.5835  -7.5662  -6.0169  -4.8989  -4.8956
    -4.8376  -4.8375  -4.7800  -4.7647  -4.7404  -4.7341  -4.6965  -4.6672
    -4.5032  -4.4853  -4.4704  -4.4687  -4.4021  -4.4006  -4.3957  -4.3930
    -4.2317  -4.1922  -4.1336  -4.1315  -4.1206  -4.0986  -3.9820  -3.9281
    -3.9272  -3.8921  -3.8160  -3.7753  -3.6318  -3.5931  -3.4399  -3.4284
    -3.2782  -3.2673  -3.2055  -3.1282  -3.1128  -3.0772  -2.9453  -2.9289
    -2.9197  -2.8587  -2.8355  -2.7948  -2.6885  -2.6635  -2.6395  -2.6259
    -2.6022  -2.5916  -2.5489  -2.4311  -2.4146  -2.3872  -2.1330  -2.1022
    -2.0747  -2.0193  -1.9869  -1.9538  -1.9108  -1.9096  -1.9026  -1.8566
    -1.8471  -1.8400  -1.8219  -1.7657  -1.7512  -1.6911  -1.6085  -1.6080
    -1.5628  -1.5450  -1.5341  -1.5298  -1.5228  -1.5170  -1.4944  -1.3983
    -1.3463  -1.2389  -1.2276  -1.1998  -1.1061  -1.1017  -1.0767  -1.0732
    -0.6573  -0.6142  -0.5724  -0.5696   0.0332   0.0335   0.0699   0.0702
     1.9291   1.9326   2.0369   2.0402   2.1203   2.1206   2.1326   2.1587
     2.2424   2.2424   2.2532   2.2678   2.3671   2.4093   2.4524   2.4549
     2.5500   2.5546   2.6159   2.6161   2.7225   2.7757   2.7867   2.8477
     2.8550   2.8926   2.9318   2.9749   2.9987   3.0215   3.0810   3.0942
     3.1070   3.2495   3.2801   3.3461   3.3522   3.3554   3.3557   3.6012
     3.6438   3.6475   3.7141   3.7252   3.7570   3.8109   3.8121   3.8986
     3.9432   3.9457   4.0087   4.0092   4.1647   4.4524   4.8175   4.8414
     5.1782   5.1983   5.3129   5.3490   5.4033   5.4033   5.5180   5.5455
     5.5807   5.5984   5.6119   5.6667   5.6833   5.7151   5.7279   5.7283
     5.7505   5.8509   5.8569   5.8741   6.0131   6.0193   6.0509   6.0905
     6.4315   6.4362   6.5677   6.6006   6.8327   6.8504   6.9529   6.9739
     7.2581   7.4863   7.5663   8.1880   8.3220   8.6449   9.0344   9.1093
     9.3237   9.3983   9.6301   9.6823

          k = 0.0253 0.0000 0.0000 ( 34707 PWs)   bands (ev):

   -57.8016 -57.7667 -57.4862 -57.4308 -57.3590 -57.3227 -57.2550 -57.2197
   -57.1569 -57.1215 -57.0903 -57.0549 -56.8527 -56.7825 -56.2645 -56.2293
   -34.2384 -34.0827 -34.0542 -34.0332 -34.0025 -33.9089 -33.8482 -33.8354
   -33.7990 -33.7498 -33.7034 -33.6928 -33.6887 -33.6621 -33.6528 -33.6485
   -33.6225 -33.5988 -33.5869 -33.5278 -33.4959 -33.4362 -33.4307 -33.4153
   -33.4087 -33.4057 -33.3595 -33.3569 -33.3553 -33.3424 -33.3312 -33.3122
   -33.2862 -33.2800 -33.2560 -33.2469 -33.2217 -33.1148 -33.1099 -33.0543
   -33.0096 -32.9082 -32.6832 -32.6167 -32.5891 -32.4872 -32.3955 -32.2873
   -24.3249 -20.9272 -18.1209 -17.9118 -17.6816 -17.5667 -17.4679 -17.4644
   -17.2490 -17.2071 -17.1184 -17.0317 -17.0310 -17.0173 -16.9915 -16.9388
   -16.8952 -16.8687 -16.8000 -16.7570 -16.6773 -16.5846 -16.5809 -16.4962
   -16.4936 -16.4893 -16.4410 -16.2902 -16.2417 -16.2198 -16.0782 -16.0482
   -14.8460 -14.7623  -9.6994  -7.5780  -7.5669  -6.0201  -5.5113  -5.3744
    -5.2229  -5.2117  -5.1638  -4.9628  -4.9133  -4.7550  -4.5577  -4.5464
    -4.4866  -4.4672  -4.4201  -4.4133  -4.3081  -4.1718  -4.1614  -4.1399
    -4.0688  -4.0531  -4.0493  -3.9620  -3.9454  -3.9103  -3.8545  -3.8163
    -3.8087  -3.7835  -3.7454  -3.7063  -3.6753  -3.5973  -3.5582  -3.4674
    -3.4319  -3.3989  -3.3095  -3.2365  -3.1920  -3.1312  -3.1124  -3.0146
    -2.9991  -2.8979  -2.8630  -2.7710  -2.7303  -2.7033  -2.6763  -2.6515
    -2.6278  -2.5833  -2.4791  -2.4612  -2.4268  -2.3497  -2.3325  -2.2940
    -2.2262  -2.1893  -2.1847  -2.0945  -2.0749  -2.0050  -1.9082  -1.8665
    -1.7791  -1.7554  -1.7245  -1.6988  -1.6800  -1.6087  -1.5851  -1.4730
    -1.4613  -1.4488  -1.4068  -1.3773  -1.3456  -1.3128  -1.2455  -1.2332
    -1.2036  -1.0917  -1.0706  -0.9697  -0.9345  -0.8761  -0.7834  -0.7481
    -0.6712  -0.5395  -0.3465  -0.2396  -0.1803  -0.0018   0.0961   0.0970
     1.5581   1.6247   1.9018   1.9256   2.0235   2.0343   2.0849   2.1595
     2.2434   2.2702   2.3444   2.3498   2.3955   2.4390   2.4607   2.4784
     2.4911   2.5598   2.5771   2.6341   2.7036   2.7130   2.7447   2.8584
     2.8748   2.9304   3.0204   3.0259   3.0385   3.1051   3.1134   3.1217
     3.1693   3.2186   3.2264   3.2702   3.3227   3.3585   3.4116   3.4190
     3.4439   3.4610   3.4860   3.5228   3.6217   3.6442   3.8340   3.9386
     4.0579   4.1032   4.1196   4.2012   4.2585   4.4343   4.6658   4.7109
     4.7957   4.9551   4.9629   5.0183   5.0351   5.0631   5.2354   5.5134
     5.5902   5.6663   5.7570   5.7652   5.7946   5.8541   5.9481   5.9785
     5.9948   6.0623   6.0671   6.0960   6.1593   6.1737   6.2496   6.3372
     6.5160   6.6300   6.7467   6.8069   6.9058   6.9113   7.1841   7.2833
     7.4880   8.0351   8.1323   8.3549   8.3980   8.7703   8.8096   8.9129
     8.9431   9.2441   9.3057   9.4278

          k = 0.0253 0.0280 0.0000 ( 34687 PWs)   bands (ev):

   -57.7993 -57.7690 -57.4847 -57.4323 -57.3567 -57.3250 -57.2527 -57.2221
   -57.1545 -57.1239 -57.0879 -57.0573 -56.8515 -56.7838 -56.2622 -56.2316
   -34.2130 -34.0807 -34.0560 -34.0074 -33.9963 -33.9153 -33.8752 -33.8102
   -33.7927 -33.7252 -33.7063 -33.6967 -33.6892 -33.6615 -33.6495 -33.6458
   -33.6231 -33.5806 -33.5797 -33.5210 -33.5042 -33.4561 -33.4341 -33.4240
   -33.4105 -33.3997 -33.3833 -33.3551 -33.3403 -33.3309 -33.3306 -33.3185
   -33.2871 -33.2852 -33.2798 -33.2487 -33.2471 -33.1140 -33.1068 -33.0550
   -33.0140 -32.9363 -32.6575 -32.6149 -32.5909 -32.4811 -32.4017 -32.3147
   -24.3248 -20.9271 -18.0608 -17.8547 -17.6302 -17.5148 -17.4470 -17.4157
   -17.2330 -17.2048 -17.1803 -17.0617 -17.0331 -17.0102 -16.9628 -16.9321
   -16.9016 -16.8303 -16.8187 -16.7915 -16.7215 -16.6361 -16.6023 -16.5164
   -16.4857 -16.4700 -16.4589 -16.2857 -16.2599 -16.2368 -16.1035 -16.0913
   -14.8559 -14.7857  -9.6992  -7.5794  -7.5667  -6.0191  -5.4268  -5.2896
    -5.1440  -5.1318  -5.0857  -4.8479  -4.8377  -4.7016  -4.5428  -4.4985
    -4.4531  -4.4175  -4.3886  -4.3293  -4.2978  -4.2589  -4.1970  -4.1719
    -4.1270  -4.0975  -4.0670  -4.0489  -4.0067  -3.9484  -3.9365  -3.9040
    -3.8848  -3.8338  -3.8171  -3.7322  -3.7124  -3.6576  -3.6526  -3.4558
    -3.4251  -3.3612  -3.3133  -3.2552  -3.1389  -3.0798  -3.0419  -2.9076
    -2.8238  -2.8039  -2.7742  -2.7638  -2.7248  -2.6486  -2.6067  -2.5872
    -2.5646  -2.5512  -2.5231  -2.4889  -2.4312  -2.3648  -2.3278  -2.3005
    -2.2375  -2.2226  -2.1687  -2.0689  -2.0365  -2.0076  -1.9690  -1.8795
    -1.8498  -1.8236  -1.7617  -1.7369  -1.7136  -1.6922  -1.6368  -1.5980
    -1.5412  -1.4836  -1.4584  -1.4356  -1.3907  -1.3506  -1.2966  -1.2075
    -1.1798  -1.1739  -1.0313  -0.9728  -0.9521  -0.8821  -0.8639  -0.8434
    -0.7592  -0.5497  -0.4028  -0.2562  -0.1980   0.0276   0.0691   0.0781
     1.6194   1.7458   1.9148   1.9322   2.0472   2.0657   2.1609   2.1978
     2.2588   2.3027   2.3406   2.3569   2.4040   2.4207   2.4307   2.4607
     2.5365   2.5673   2.6043   2.6388   2.6565   2.7196   2.8082   2.8396
     2.8771   2.9140   3.0035   3.0156   3.0199   3.0271   3.0806   3.1152
     3.1987   3.2576   3.2880   3.2943   3.3260   3.3704   3.4084   3.4769
     3.4928   3.5368   3.5500   3.5549   3.6115   3.6656   3.7904   3.9203
     4.0482   4.0757   4.1312   4.1890   4.2595   4.3838   4.7102   4.7972
     4.8480   4.9627   5.0107   5.0558   5.0659   5.1311   5.2843   5.5489
     5.5896   5.6168   5.6736   5.7519   5.7586   5.8433   5.9062   5.9487
     5.9769   6.0147   6.0363   6.0529   6.0744   6.0971   6.3170   6.3241
     6.4973   6.5670   6.7377   6.7881   6.8355   6.9110   7.0809   7.3089
     7.5110   8.0288   8.1090   8.1793   8.2878   8.5313   8.5720   8.8090
     9.0072   9.2612   9.3959   9.4736

          k = 0.0253 0.0560 0.0000 ( 34699 PWs)   bands (ev):

   -57.7929 -57.7754 -57.4814 -57.4357 -57.3506 -57.3312 -57.2462 -57.2286
   -57.1481 -57.1303 -57.0815 -57.0637 -56.8488 -56.7865 -56.2557 -56.2381
   -34.1431 -34.0754 -34.0611 -33.9794 -33.9483 -33.9367 -33.9326 -33.7765
   -33.7454 -33.7361 -33.7214 -33.6879 -33.6762 -33.6646 -33.6505 -33.6475
   -33.5636 -33.5533 -33.5442 -33.5165 -33.5070 -33.5026 -33.4565 -33.4462
   -33.4288 -33.4152 -33.3832 -33.3573 -33.3495 -33.3368 -33.3363 -33.3305
   -33.3129 -33.2990 -33.2766 -33.2731 -33.2373 -33.1130 -33.1029 -33.0565
   -33.0274 -33.0041 -32.6098 -32.5960 -32.5867 -32.4645 -32.4186 -32.3889
   -24.3248 -20.9268 -17.8937 -17.6981 -17.4968 -17.4130 -17.3933 -17.3722
   -17.2838 -17.2733 -17.1571 -17.1000 -17.0499 -17.0077 -16.9850 -16.9621
   -16.8784 -16.8669 -16.8264 -16.7805 -16.7425 -16.7103 -16.6552 -16.5625
   -16.5513 -16.4402 -16.4105 -16.2990 -16.2968 -16.2558 -16.2164 -16.1533
   -14.8740 -14.8362  -9.6990  -7.5822  -7.5663  -6.0174  -5.1954  -5.0551
    -4.9359  -4.9052  -4.8794  -4.7038  -4.6398  -4.6203  -4.5064  -4.4967
    -4.4785  -4.4680  -4.3676  -4.3287  -4.3256  -4.2888  -4.2604  -4.2464
    -4.1987  -4.1858  -4.1626  -4.1282  -4.0606  -4.0473  -4.0375  -3.9828
    -3.9468  -3.8908  -3.8223  -3.7841  -3.7004  -3.6064  -3.5193  -3.4465
    -3.4063  -3.3872  -3.3521  -3.1787  -3.1440  -3.0140  -2.9654  -2.9466
    -2.9192  -2.8457  -2.7714  -2.7397  -2.6843  -2.6443  -2.6025  -2.5569
    -2.5319  -2.4875  -2.4467  -2.4303  -2.3858  -2.3691  -2.2867  -2.2458
    -2.2285  -2.1981  -2.1430  -2.1111  -2.0644  -2.0512  -1.9834  -1.9721
    -1.9205  -1.8999  -1.8444  -1.8103  -1.7946  -1.7511  -1.6973  -1.6650
    -1.6368  -1.5603  -1.5424  -1.4673  -1.4424  -1.3919  -1.3507  -1.3212
    -1.2340  -1.2074  -1.1345  -1.0656  -1.0420  -0.9427  -0.9213  -0.8504
    -0.7988  -0.7108  -0.5787  -0.3800  -0.0216   0.0194   0.0444   0.0675
     1.7593   1.9421   1.9503   2.0732   2.0839   2.1088   2.1932   2.2015
[...]
    -2.6438  -2.6000  -2.5944  -2.5870  -2.5496  -2.5137  -2.4793  -2.4653
    -2.4645  -2.3961  -2.3545  -2.3368  -2.3074  -2.2773  -2.2287  -2.2263
    -2.2077  -2.1211  -2.1176  -2.1157  -1.9896  -1.9498  -1.7982  -1.7715
    -1.7082  -1.6621  -1.4058  -1.3606  -1.3018  -1.3003  -1.1384  -1.1283
    -1.1208  -1.1157  -1.0877  -1.0606  -1.0132  -0.8740  -0.8626  -0.7417
    -0.7242  -0.7113  -0.6405  -0.6388  -0.0426  -0.0426   0.0950   0.0952
     2.0170   2.0292   2.0698   2.0776   2.0972   2.0994   2.1157   2.1182
     2.3838   2.3934   2.4017   2.4186   2.4806   2.4854   2.5487   2.5666
     2.5815   2.5819   2.6451   2.7543   2.7627   2.8616   2.8748   2.8933
     2.9043   2.9885   3.0600   3.1298   3.1368   3.1916   3.2215   3.2850
     3.3103   3.3600   3.3717   3.3931   3.4219   3.4246   3.4704   3.5193
     3.5881   3.6270   3.7473   3.7621   3.8225   3.8379   3.8385   3.8461
     3.9710   3.9760   3.9952   3.9952   4.3247   4.5883   4.6815   4.6820
     4.7434   4.7657   4.8041   4.8078   4.8116   4.8385   5.1051   5.1323
     5.2566   5.2890   5.6480   5.6605   5.8365   5.8508   5.9689   6.0669
     6.1776   6.2334   6.2398   6.2684   6.3189   6.4032   6.5025   6.5520
     6.5532   6.5687   6.7300   6.7308   6.7796   6.7810   7.0117   7.0400
     7.6111   7.6169   7.7671   7.7857   8.0344   8.0644   8.2530   8.3834
     8.4877   8.5363   8.6761   9.1650

          k =-0.0253 0.0280 0.0000 ( 34687 PWs)   bands (ev):

   -57.7993 -57.7691 -57.4848 -57.4324 -57.3567 -57.3251 -57.2527 -57.2221
   -57.1545 -57.1239 -57.0880 -57.0574 -56.8516 -56.7839 -56.2624 -56.2318
   -34.2130 -34.0808 -34.0560 -34.0074 -33.9963 -33.9153 -33.8752 -33.8102
   -33.7927 -33.7253 -33.7063 -33.6969 -33.6892 -33.6616 -33.6496 -33.6458
   -33.6231 -33.5806 -33.5797 -33.5211 -33.5043 -33.4561 -33.4342 -33.4240
   -33.4105 -33.3997 -33.3833 -33.3552 -33.3403 -33.3311 -33.3306 -33.3185
   -33.2871 -33.2853 -33.2799 -33.2488 -33.2471 -33.1141 -33.1069 -33.0551
   -33.0141 -32.9364 -32.6576 -32.6150 -32.5910 -32.4812 -32.4019 -32.3149
   -24.3248 -20.9271 -18.0607 -17.8547 -17.6302 -17.5147 -17.4469 -17.4155
   -17.2330 -17.2051 -17.1803 -17.0617 -17.0333 -17.0103 -16.9633 -16.9321
   -16.9016 -16.8302 -16.8187 -16.7910 -16.7205 -16.6361 -16.6025 -16.5165
   -16.4857 -16.4697 -16.4588 -16.2856 -16.2598 -16.2368 -16.1033 -16.0912
   -14.8556 -14.7854  -9.6992  -7.5794  -7.5667  -6.0191  -5.4267  -5.2896
    -5.1437  -5.1314  -5.0857  -4.8482  -4.8378  -4.7023  -4.5416  -4.4989
    -4.4530  -4.4175  -4.3891  -4.3293  -4.2981  -4.2587  -4.1994  -4.1716
    -4.1272  -4.0979  -4.0672  -4.0490  -4.0059  -3.9485  -3.9362  -3.9048
    -3.8838  -3.8337  -3.8188  -3.7321  -3.7126  -3.6577  -3.6517  -3.4542
    -3.4237  -3.3588  -3.3115  -3.2563  -3.1383  -3.0798  -3.0419  -2.9089
    -2.8249  -2.8001  -2.7747  -2.7642  -2.7257  -2.6483  -2.6071  -2.5844
    -2.5674  -2.5503  -2.5231  -2.4893  -2.4330  -2.3644  -2.3259  -2.3015
    -2.2356  -2.2225  -2.1698  -2.0717  -2.0369  -2.0067  -1.9685  -1.8854
    -1.8474  -1.8251  -1.7646  -1.7356  -1.7147  -1.6908  -1.6367  -1.5981
    -1.5380  -1.4810  -1.4584  -1.4335  -1.3915  -1.3511  -1.2986  -1.2076
    -1.1819  -1.1756  -1.0315  -0.9700  -0.9495  -0.8842  -0.8638  -0.8402
    -0.7597  -0.5498  -0.4027  -0.2562  -0.1978   0.0278   0.0694   0.0783
     1.6194   1.7458   1.9148   1.9326   2.0473   2.0674   2.1615   2.1995
     2.2615   2.3018   2.3390   2.3527   2.4048   2.4211   2.4305   2.4624
     2.5359   2.5678   2.6041   2.6376   2.6566   2.7200   2.8043   2.8394
     2.8785   2.9139   3.0025   3.0142   3.0192   3.0263   3.0818   3.1131
     3.2002   3.2602   3.2881   3.2947   3.3258   3.3691   3.4096   3.4762
     3.4929   3.5369   3.5505   3.5554   3.6104   3.6655   3.7906   3.9204
     4.0482   4.0757   4.1311   4.1890   4.2589   4.3837   4.7102   4.7940
     4.8500   4.9622   5.0095   5.0551   5.0659   5.1301   5.2834   5.5486
     5.5881   5.6176   5.6739   5.7516   5.7586   5.8420   5.9117   5.9507
     5.9760   6.0145   6.0352   6.0526   6.0747   6.0967   6.3169   6.3240
     6.4990   6.5674   6.7377   6.7880   6.8354   6.9154   7.0809   7.3059
     7.5109   8.0288   8.1124   8.1750   8.2877   8.5309   8.5706   8.8101
     9.0082   9.2591   9.3997   9.4711

          k =-0.0253 0.0560 0.0000 ( 34699 PWs)   bands (ev):

   -57.7929 -57.7755 -57.4815 -57.4357 -57.3506 -57.3312 -57.2463 -57.2286
   -57.1482 -57.1303 -57.0816 -57.0638 -56.8489 -56.7866 -56.2559 -56.2383
   -34.1432 -34.0754 -34.0611 -33.9794 -33.9483 -33.9368 -33.9326 -33.7765
   -33.7455 -33.7361 -33.7214 -33.6880 -33.6762 -33.6647 -33.6505 -33.6475
   -33.5635 -33.5533 -33.5445 -33.5165 -33.5069 -33.5026 -33.4566 -33.4462
   -33.4288 -33.4153 -33.3832 -33.3573 -33.3496 -33.3369 -33.3363 -33.3305
   -33.3130 -33.2990 -33.2766 -33.2732 -33.2374 -33.1131 -33.1031 -33.0566
   -33.0275 -33.0042 -32.6100 -32.5961 -32.5869 -32.4647 -32.4188 -32.3890
   -24.3248 -20.9268 -17.8935 -17.6981 -17.4967 -17.4132 -17.3933 -17.3722
   -17.2833 -17.2734 -17.1572 -17.1000 -17.0504 -17.0077 -16.9850 -16.9637
   -16.8784 -16.8668 -16.8254 -16.7784 -16.7429 -16.7102 -16.6558 -16.5622
   -16.5513 -16.4401 -16.4104 -16.2989 -16.2967 -16.2557 -16.2164 -16.1531
   -14.8737 -14.8359  -9.6990  -7.5822  -7.5663  -6.0174  -5.1953  -5.0552
    -4.9348  -4.9048  -4.8794  -4.7033  -4.6401  -4.6213  -4.5065  -4.4997
    -4.4770  -4.4677  -4.3695  -4.3299  -4.3254  -4.2886  -4.2585  -4.2461
    -4.1988  -4.1866  -4.1621  -4.1286  -4.0600  -4.0488  -4.0381  -3.9837
    -3.9473  -3.8909  -3.8226  -3.7833  -3.7003  -3.6051  -3.5205  -3.4428
    -3.4051  -3.3852  -3.3497  -3.1795  -3.1460  -3.0131  -2.9652  -2.9463
    -2.9175  -2.8462  -2.7704  -2.7404  -2.6850  -2.6442  -2.6033  -2.5564
    -2.5315  -2.4869  -2.4470  -2.4311  -2.3852  -2.3694  -2.2871  -2.2468
    -2.2291  -2.1991  -2.1435  -2.1123  -2.0637  -2.0537  -1.9834  -1.9699
    -1.9232  -1.9022  -1.8475  -1.8112  -1.7922  -1.7511  -1.6950  -1.6668
    -1.6341  -1.5594  -1.5422  -1.4640  -1.4410  -1.3953  -1.3517  -1.3199
    -1.2344  -1.2069  -1.1331  -1.0652  -1.0416  -0.9425  -0.9208  -0.8518
    -0.7991  -0.7100  -0.5785  -0.3801  -0.0214   0.0197   0.0446   0.0677
     1.7592   1.9428   1.9502   2.0732   2.0835   2.1110   2.1951   2.2026
     2.2760   2.2972   2.3219   2.3345   2.3743   2.4173   2.4494   2.5380
     2.5872   2.6051   2.6705   2.6864   2.7008   2.7226   2.7791   2.8137
     2.8339   2.8479   2.8972   2.9066   3.0190   3.0857   3.1535   3.1746
     3.2286   3.2389   3.2723   3.3028   3.3517   3.4003   3.4520   3.4778
     3.5469   3.6128   3.6666   3.6951   3.7282   3.7579   3.7772   3.8505
     3.9679   3.9981   4.0352   4.1719   4.2287   4.4065   4.8018   4.8737
     5.0179   5.0472   5.1260   5.1433   5.1675   5.2472   5.3534   5.4466
     5.4650   5.5223   5.6231   5.6536   5.7426   5.7562   5.8195   5.8511
     5.8996   5.9298   5.9783   6.0376   6.0705   6.2343   6.2691   6.3510
     6.4214   6.4546   6.6689   6.6738   6.7063   6.9173   7.0231   7.2517
     7.3035   7.6838   7.8164   8.0174   8.3505   8.5516   8.6118   8.8937
     9.0269   9.0633   9.2519   9.3758

          k =-0.0506 0.0280 0.0000 ( 34685 PWs)   bands (ev):

   -57.7993 -57.7691 -57.4848 -57.4324 -57.3567 -57.3251 -57.2527 -57.2221
   -57.1546 -57.1239 -57.0880 -57.0574 -56.8516 -56.7839 -56.2624 -56.2318
   -34.2137 -34.0807 -34.0560 -34.0076 -33.9949 -33.9153 -33.8753 -33.8115
   -33.7927 -33.7281 -33.7062 -33.6963 -33.6885 -33.6634 -33.6563 -33.6459
   -33.6239 -33.5771 -33.5663 -33.5090 -33.5047 -33.4564 -33.4340 -33.4216
   -33.4105 -33.3999 -33.3863 -33.3617 -33.3496 -33.3303 -33.3291 -33.3185
   -33.2872 -33.2855 -33.2799 -33.2487 -33.2470 -33.1162 -33.1070 -33.0552
   -33.0141 -32.9365 -32.6575 -32.6168 -32.5901 -32.4812 -32.4019 -32.3149
   -24.3248 -20.9268 -18.0018 -17.7563 -17.5361 -17.4521 -17.4456 -17.3723
   -17.3195 -17.2316 -17.2141 -17.0807 -17.0671 -17.0361 -17.0324 -16.9770
   -16.9595 -16.9390 -16.8487 -16.7288 -16.6912 -16.6436 -16.5625 -16.5456
   -16.5072 -16.4626 -16.4390 -16.2844 -16.2484 -16.2378 -16.1032 -16.0922
   -14.8536 -14.7854  -9.6978  -7.5796  -7.5666  -6.0183  -5.4101  -4.9960
    -4.9193  -4.9035  -4.8353  -4.8128  -4.7922  -4.7537  -4.6195  -4.5495
    -4.5385  -4.4825  -4.4278  -4.3326  -4.2858  -4.1993  -4.1481  -4.1297
    -4.1123  -4.1027  -4.0306  -3.9855  -3.9533  -3.9228  -3.8839  -3.8593
    -3.8355  -3.8054  -3.7559  -3.6984  -3.6803  -3.5640  -3.4275  -3.3900
    -3.3678  -3.3101  -3.2793  -3.2279  -3.1609  -3.0778  -3.0334  -2.9791
    -2.9145  -2.8872  -2.8427  -2.8330  -2.7804  -2.7264  -2.7126  -2.6604
    -2.6185  -2.5915  -2.5621  -2.5163  -2.4757  -2.4507  -2.4037  -2.3799
    -2.3152  -2.2836  -2.2028  -2.1748  -2.1093  -2.0815  -2.0675  -2.0228
    -1.9695  -1.9100  -1.8806  -1.8494  -1.8224  -1.7530  -1.6675  -1.6149
    -1.5754  -1.5443  -1.4690  -1.4419  -1.3992  -1.3811  -1.2975  -1.2421
    -1.1577  -1.1229  -1.0072  -0.9987  -0.9279  -0.9016  -0.8720  -0.8307
    -0.7958  -0.6314  -0.4328  -0.3777  -0.1847  -0.0017   0.0291   0.0429
     1.6039   1.8101   1.9488   1.9603   1.9840   2.0574   2.0944   2.1738
     2.2675   2.2815   2.3253   2.3836   2.4337   2.4725   2.4760   2.5457
     2.5615   2.6032   2.6333   2.6783   2.7281   2.7967   2.8508   2.8559
     2.9010   2.9460   2.9751   3.0339   3.0461   3.0892   3.1691   3.1978
     3.2592   3.2898   3.3296   3.3571   3.4082   3.4484   3.4707   3.5132
     3.5211   3.5537   3.5681   3.6369   3.6768   3.7081   3.7665   3.8540
     3.9581   4.0500   4.1657   4.1792   4.3036   4.3835   4.5524   4.6548
     4.6828   4.7073   4.8756   4.9221   5.0210   5.3353   5.3647   5.4919
     5.5338   5.6028   5.6813   5.7342   5.7599   5.7768   5.9000   5.9520
     6.0004   6.0449   6.2406   6.2946   6.3112   6.3957   6.4547   6.5243
     6.5642   6.6154   6.7064   6.7415   6.8459   6.9265   7.0471   7.1316
     7.4000   7.6748   7.7980   8.0954   8.2793   8.3639   8.5126   8.9362
     9.0615   9.1542   9.3372   9.4558

          k =-0.0506 0.0560 0.0000 ( 34596 PWs)   bands (ev):

   -57.7929 -57.7755 -57.4815 -57.4357 -57.3506 -57.3312 -57.2462 -57.2286
   -57.1482 -57.1303 -57.0816 -57.0638 -56.8489 -56.7866 -56.2559 -56.2383
   -34.1437 -34.0754 -34.0611 -33.9782 -33.9484 -33.9369 -33.9322 -33.7765
   -33.7460 -33.7367 -33.7215 -33.6867 -33.6762 -33.6655 -33.6530 -33.6495
   -33.5607 -33.5544 -33.5447 -33.5098 -33.5064 -33.4924 -33.4592 -33.4399
   -33.4287 -33.4152 -33.3833 -33.3573 -33.3533 -33.3443 -33.3363 -33.3326
   -33.3132 -33.3003 -33.2766 -33.2730 -33.2372 -33.1143 -33.1032 -33.0572
   -33.0275 -33.0041 -32.6111 -32.5957 -32.5867 -32.4647 -32.4188 -32.3889
   -24.3248 -20.9266 -17.8449 -17.6052 -17.4221 -17.4021 -17.3863 -17.3147
   -17.2794 -17.2403 -17.1705 -17.1411 -17.0632 -17.0463 -16.9803 -16.9628
   -16.9607 -16.8888 -16.8765 -16.8124 -16.7736 -16.7470 -16.6830 -16.6373
   -16.5309 -16.4296 -16.3915 -16.2912 -16.2894 -16.2585 -16.2179 -16.1527
   -14.8724 -14.8362  -9.6975  -7.5823  -7.5662  -6.0167  -5.1872  -4.7612
    -4.7076  -4.6948  -4.6553  -4.6220  -4.6110  -4.5749  -4.4682  -4.4522
    -4.4272  -4.4144  -4.3225  -4.2632  -4.2543  -4.2451  -4.2024  -4.1809
    -4.1587  -4.1443  -4.1322  -4.1054  -4.0528  -4.0160  -4.0040  -3.9717
    -3.9185  -3.8605  -3.7953  -3.7586  -3.6554  -3.6286  -3.4813  -3.4575
    -3.4395  -3.3724  -3.3548  -3.1754  -3.0892  -3.0513  -3.0003  -2.9607
    -2.9306  -2.8844  -2.8638  -2.8304  -2.7809  -2.7405  -2.6887  -2.6810
    -2.6054  -2.5935  -2.5628  -2.4851  -2.4586  -2.4383  -2.4220  -2.3969
    -2.3727  -2.3263  -2.2603  -2.2499  -2.2224  -2.2012  -2.1494  -2.1333
    -2.0645  -2.0279  -1.9946  -1.9526  -1.9078  -1.8288  -1.7591  -1.7442
    -1.6764  -1.5771  -1.5019  -1.4550  -1.4229  -1.3445  -1.3039  -1.1998
    -1.1494  -1.1128  -1.0660  -1.0011  -0.9593  -0.8971  -0.8834  -0.8097
    -0.7762  -0.7600  -0.6335  -0.4401  -0.0331   0.0040   0.0174   0.0735
     1.7623   1.9668   1.9792   2.0475   2.1002   2.1377   2.1520   2.2048
     2.2505   2.2943   2.4150   2.4484   2.4577   2.4855   2.5021   2.5305
     2.6244   2.6403   2.6704   2.6932   2.7353   2.7571   2.8209   2.8537
     2.9206   2.9349   2.9733   3.0048   3.0533   3.0938   3.2214   3.2472
     3.2776   3.2976   3.3492   3.3617   3.4052   3.4164   3.4514   3.4994
     3.5782   3.6335   3.6511   3.7293   3.7717   3.7944   3.8073   3.8254
     3.8715   3.9938   4.0467   4.1727   4.2457   4.4909   4.6767   4.7007
     4.7760   4.7826   4.9236   5.0303   5.1029   5.1644   5.2379   5.2664
     5.3351   5.4931   5.5873   5.6593   5.7031   5.7670   5.8569   5.9962
     6.0389   6.1429   6.1838   6.2324   6.2836   6.3286   6.4843   6.4992
     6.5602   6.6114   6.6324   6.7036   6.7566   6.8668   6.9451   7.2896
     7.3448   7.6296   7.7393   8.0055   8.0657   8.1639   8.5359   8.6425
     8.7832   8.8946   9.1293   9.3466

     the Fermi energy is     0.8880 ev

!    total energy              =   -3044.94833914 Ry
     Harris-Foulkes estimate   =   -3044.94833893 Ry
     estimated scf accuracy    <       0.00000064 Ry

     The total energy is the sum of the following terms:

     one-electron contribution =  -40847.60554382 Ry
     hartree contribution      =   20496.49334248 Ry
     xc contribution           =    -557.19120339 Ry
     ewald contribution        =   17863.35526941 Ry
     smearing contrib. (-TS)   =      -0.00020382 Ry

     total magnetization       =     0.00 Bohr mag/cell
     absolute magnetization    =     0.00 Bohr mag/cell

     convergence has been achieved in  10 iterations

     Forces acting on atoms (Ry/au):


     negative rho (up, down):  1.160E-02 1.160E-02
     atom    1 type  1   force =    -0.00008747    0.00030577   -0.13583744
     atom    2 type  2   force =     0.00010254   -0.00007953    0.07501320
     atom    3 type  1   force =     0.00126573    0.00108748   -0.05965037
     atom    4 type  2   force =     0.00661612   -0.00006723    0.00963627
     atom    5 type  1   force =    -0.00128674   -0.00013943    0.00017436
     atom    6 type  2   force =    -0.00171382   -0.00335514   -0.00933205
     atom    7 type  1   force =     0.01021968    0.00753805   -0.01428258
     atom    8 type  2   force =     0.00057623   -0.00011471    0.00035776
     atom    9 type  1   force =     0.00012659    0.00035193   -0.13591328
     atom   10 type  2   force =     0.00016646   -0.00003100    0.07495689
     atom   11 type  1   force =     0.00126393   -0.00085856   -0.05977699
     atom   12 type  2   force =     0.00605095   -0.00011024    0.00850409
     atom   13 type  1   force =     0.00008652   -0.00015435   -0.00018690
     atom   14 type  2   force =    -0.00189682    0.00277519   -0.00940527
     atom   15 type  1   force =     0.01038701   -0.00736445   -0.01455100
     atom   16 type  2   force =     0.00654708    0.00010158    0.00977765
     atom   17 type  2   force =    -0.00002799   -0.00005690    0.07986627
     atom   18 type  1   force =    -0.00006251    0.00022881    0.11925209
     atom   19 type  2   force =     0.00038677    0.00018901   -0.06826431
     atom   20 type  2   force =    -0.06268503    0.00005196   -0.03214368
     atom   21 type  2   force =     0.06273110    0.00015340   -0.03261331
     atom   22 type  1   force =    -0.00049802   -0.00012353    0.06443223
     atom   23 type  2   force =     0.00016406    0.00059081   -0.00282071
     atom   24 type  2   force =     0.00049310    0.00004355   -0.02256666
     atom   25 type  2   force =    -0.00646427   -0.00025320    0.00819477
     atom   26 type  1   force =    -0.00009897   -0.00007373    0.00269619
     atom   27 type  2   force =     0.00236799   -0.00130659   -0.00257926
     atom   28 type  2   force =    -0.00005293   -0.00001499   -0.00151545
     atom   29 type  2   force =     0.00013303   -0.00005272   -0.00059138
     atom   30 type  1   force =     0.00562525    0.00034462   -0.00042519
     atom   31 type  2   force =    -0.00195366    0.00149039    0.00094490
     atom   32 type  2   force =     0.00165700   -0.00009666    0.00144467
     atom   33 type  2   force =    -0.00000399    0.00015347    0.07993569
     atom   34 type  1   force =    -0.00007821    0.00023538    0.11925732
     atom   35 type  2   force =     0.00035370    0.00032793   -0.06821209
     atom   36 type  2   force =    -0.06267887    0.00009842   -0.03235346
     atom   37 type  2   force =     0.06284389    0.00017232   -0.03210725
     atom   38 type  1   force =    -0.00070112    0.00001000    0.06427536
     atom   39 type  2   force =     0.00020161   -0.00079173   -0.00280865
     atom   40 type  2   force =     0.00060311   -0.00227479   -0.02272400
     atom   41 type  2   force =    -0.00620598   -0.00030719    0.00759364
     atom   42 type  1   force =    -0.00008486   -0.00007094    0.00269205
     atom   43 type  2   force =     0.00241671    0.00130410   -0.00260247
     atom   44 type  2   force =     0.00034929   -0.00012868   -0.00078498
     atom   45 type  2   force =    -0.00023054   -0.00006098   -0.00097320
     atom   46 type  1   force =    -0.01784994    0.00043559   -0.00428177
     atom   47 type  2   force =    -0.00195446   -0.00134180    0.00094647
     atom   48 type  2   force =    -0.00229533   -0.00040522   -0.02414164
     atom   49 type  2   force =    -0.04552661    0.00044161    0.18960685
     atom   50 type  3   force =    -0.00058051   -0.00118496    0.09758583
     atom   51 type  3   force =     0.03128319    0.00238788   -0.22369919

     Total force =     0.486014     Total SCF correction =     0.001413
 !ASE

     Writing output data file calc.save
 
     init_run     :     54.40s CPU     68.03s WALL (       1 calls)
     electrons    :   2082.36s CPU   2653.03s WALL (       1 calls)
     forces       :     40.34s CPU     42.12s WALL (       1 calls)

     Called by init_run:
     wfcinit      :     46.67s CPU     59.49s WALL (       1 calls)
     potinit      :      1.32s CPU      1.59s WALL (       1 calls)

     Called by electrons:
     c_bands      :   1802.28s CPU   2302.26s WALL (      10 calls)
     sum_band     :    235.43s CPU    299.86s WALL (      10 calls)
     v_of_rho     :     10.85s CPU     13.70s WALL (      11 calls)
     newd         :     37.32s CPU     40.95s WALL (      11 calls)
     mix_rho      :      0.37s CPU      0.53s WALL (      10 calls)
     vdW_energy   :      1.95s CPU      2.39s WALL (      12 calls)
     vdW_ffts     :      2.93s CPU      3.95s WALL (      24 calls)
     vdW_v        :      1.13s CPU      1.36s WALL (      12 calls)

     Called by c_bands:
     init_us_2    :      5.86s CPU      6.39s WALL (     880 calls)
     cegterg      :   1762.92s CPU   2260.88s WALL (     400 calls)

     Called by *egterg:
     h_psi        :    703.21s CPU   1110.35s WALL (    2072 calls)
     s_psi        :     93.20s CPU     96.95s WALL (    2072 calls)
     g_psi        :      4.91s CPU      4.98s WALL (    1632 calls)
     cdiaghg      :    613.89s CPU    627.34s WALL (    2032 calls)

     Called by h_psi:
     add_vuspsi   :     93.87s CPU     98.29s WALL (    2072 calls)

     General routines
     calbec       :    142.91s CPU    146.49s WALL (    2512 calls)
     fft          :      6.10s CPU      8.01s WALL (     948 calls)
     ffts         :      0.04s CPU      0.07s WALL (      42 calls)
     fftw         :    464.85s CPU    895.14s WALL (  723398 calls)
     interpolate  :      0.30s CPU      0.51s WALL (      42 calls)
     davcio       :      0.00s CPU      0.57s WALL (      40 calls)
 
     Parallel routines
     fft_scatter  :    254.92s CPU    478.59s WALL (  724388 calls)
 
     PWSCF        : 36m21.22s CPU    46m 8.75s WALL

 
   This run was terminated on:  19:26:54  10Mar2018            

=------------------------------------------------------------------------------=
   JOB DONE.
=------------------------------------------------------------------------------=
