  python dir          : /home/vossj/suncat/lib/python2.7/site-packages/espresso
  espresso dir        : /home/vossj/suncat/esdld/espresso-dynpy-beef/bin
  pseudo dir          : /home/alatimer/bin/psp/esp_psp_w_gbrvRu/
  ase-espresso py git : ffa2778-git



     Program PWSCF v.5.1rc2 (svn rev. ) starts on 10Mar2018 at  6:43:34 

     This program is part of the open-source Quantum ESPRESSO suite
     for quantum simulation of materials; please cite
         "P. Giannozzi et al., J. Phys.:Condens. Matter 21 395502 (2009);
          URL http://www.quantum-espresso.org", 
     in publications or presentations arising from this work. More details at
     http://www.quantum-espresso.org/quote

     Parallel version (MPI), running on    16 processors
     R & G space division:  proc/nbgrp/npool/nimage =      16
     Reading input from pw.inp
     Message from routine read_cards :
     DEPRECATED: no units specified in CELL_PARAMETERS card

     Current dimensions of program PWSCF are:
     Max number of different atomic species (ntypx) = 10
     Max number of k-points (npk) =  40000
     Max angular momentum in pseudopotentials (lmaxx) =  3

     **************************************************************************
     Initializing libbeef V0.1.1 with the BEEF-vdW functional.
     Citation: Wellendorff et al., PRB 85, 235149 (2012).
     **************************************************************************


     IMPORTANT: XC functional enforced from input :
     Exchange-correlation      = BEEF ( 1  4 27 13 2)
     Any further DFT definition will be discarded
     Please, verify this is what you really want


     Subspace diagonalization in iterative solution of the eigenvalue problem:
     a serial algorithm will be used

 
     Parallelization info
     --------------------
     sticks:   dense  smooth     PW     G-vecs:    dense   smooth      PW
     Min         281     112     31                68535    17318    2565
     Max         282     113     32                68545    17369    2582
     Sum        4501    1795    503              1096637   277353   41113
 
     Generating pointlists ...
     new r_m :   0.4125 (alat units)  0.7795 (a.u.) for type    1
     new r_m :   0.4125 (alat units)  0.7795 (a.u.) for type    2
     new r_m :   0.4125 (alat units)  0.7795 (a.u.) for type    3


     bravais-lattice index     =            0
     lattice parameter (alat)  =       1.8897  a.u.
     unit-cell volume          =    7990.9933 (a.u.)^3
     number of atoms/cell      =           51
     number of atomic types    =            3
     number of electrons       =       400.00
     number of Kohn-Sham states=          300
     kinetic-energy cutoff     =      40.4243  Ry
     charge density cutoff     =     404.2426  Ry
     convergence threshold     =      7.3E-07
     mixing beta               =       0.1000
     number of iterations used =           10  plain     mixing
     Exchange-correlation      = BEEF ( 1  4 27 13 2)
     nstep                     =           50


     celldm(1)=   1.889726  celldm(2)=   0.000000  celldm(3)=   0.000000
     celldm(4)=   0.000000  celldm(5)=   0.000000  celldm(6)=   0.000000

     crystal axes: (cart. coord. in units of alat)
               a(1) = (   6.590708   0.000000   0.000000 )  
               a(2) = (   0.000000   5.950229   0.000000 )  
               a(3) = (   0.000000   0.000000  30.195235 )  

     reciprocal axes: (cart. coord. in units 2 pi/alat)
               b(1) = (  0.151729  0.000000  0.000000 )  
               b(2) = (  0.000000  0.168061  0.000000 )  
               b(3) = (  0.000000  0.000000  0.033118 )  


     PseudoPot. # 1 for Ti read from file:
     /home/alatimer/bin/psp/esp_psp_w_gbrvRu/Ti.UPF
     MD5 check sum: 8e4df49b7f0d34bbd5052bf3f5ea0213
     Pseudo is Ultrasoft, Zval = 12.0
     Generated by new atomic code, or converted to UPF format
     Using radial grid of  851 points,  6 beta functions with: 
                l(1) =   0
                l(2) =   0
                l(3) =   1
                l(4) =   1
                l(5) =   2
                l(6) =   2
     Q(r) pseudized with  8 coefficients,  rinner =    1.000   1.000   1.000
                                                       1.000   1.000

     PseudoPot. # 2 for  O read from file:
     /home/alatimer/bin/psp/esp_psp_w_gbrvRu/O.UPF
     MD5 check sum: e057bbcf3229fb5d8c36c0c92f9568b4
     Pseudo is Ultrasoft + core correction, Zval =  6.0
     Generated using "atomic" code by A. Dal Corso  v.5.0.2 svn rev. 9415
     Using radial grid of 1095 points,  4 beta functions with: 
                l(1) =   0
                l(2) =   0
                l(3) =   1
                l(4) =   1
     Q(r) pseudized with 0 coefficients 


     PseudoPot. # 3 for  N read from file:
     /home/alatimer/bin/psp/esp_psp_w_gbrvRu/N.UPF
     MD5 check sum: ed8b6a90f28a53b7d71920e7015d2dd6
     Pseudo is Ultrasoft + core correction, Zval =  5.0
     Generated using "atomic" code by A. Dal Corso  v.5.0.2 svn rev. 9415
     Using radial grid of 1085 points,  4 beta functions with: 
                l(1) =   0
                l(2) =   0
                l(3) =   1
                l(4) =   1
     Q(r) pseudized with 0 coefficients 


     vdW kernel table read from file vdW_kernel_table
     MD5 check sum: 095c7af220d748ca6e76c0b4c6cfb241

     atomic species   valence    mass     pseudopotential
        Ti1           12.00    47.88000     Ti( 1.00)
        O1             6.00    15.99940      O( 1.00)
        N1             5.00    14.00670      N( 1.00)

     Starting magnetic structure 
     atomic species   magnetization
        Ti1          0.250
        O1           0.500
        N1           0.600

     No symmetry found



   Cartesian axes

     site n.     atom                  positions (alat units)
         1           Ti1 tau(   1) = (   1.6476770   0.7437786   2.6545865  )
         2           O1  tau(   2) = (   1.6476770   2.2313359   3.9361215  )
         3           Ti1 tau(   3) = (   1.6476770   2.2313359   5.9499405  )
         4           O1  tau(   4) = (   0.3661420   0.7437786   5.9499405  )
         5           Ti1 tau(   5) = (   1.5280591   0.7315068   9.1973351  )
         6           O1  tau(   6) = (   1.6613943   2.1836906  10.6091769  )
         7           Ti1 tau(   7) = (   1.6665780   2.2096385  12.4157880  )
         8           O1  tau(   8) = (   0.4439715   0.7264440  12.7601561  )
         9           Ti1 tau(   9) = (   1.6476770   3.7188931   2.6545865  )
        10           O1  tau(  10) = (   1.6476770   5.2064503   3.9361215  )
        11           Ti1 tau(  11) = (   1.6476770   5.2064503   5.9499405  )
        12           O1  tau(  12) = (   0.3661420   3.7188931   5.9499405  )
        13           Ti1 tau(  13) = (   1.5319291   3.7072436   9.2118370  )
        14           O1  tau(  14) = (   1.6575607   5.2126413  10.6087893  )
        15           Ti1 tau(  15) = (   1.6606453   5.1916961  12.4165775  )
        16           O1  tau(  16) = (   0.4123725   3.7022030  12.5882193  )
        17           O1  tau(  17) = (   1.6476770   2.2313359   1.3730516  )
        18           Ti1 tau(  18) = (   4.9430310   2.2313359   2.6545865  )
        19           O1  tau(  19) = (   4.9430310   2.2313359   4.6684056  )
        20           O1  tau(  20) = (   6.2245660   0.7437786   2.6545865  )
        21           O1  tau(  21) = (   3.6614961   0.7437786   2.6545865  )
        22           Ti1 tau(  22) = (   4.9430310   0.7437786   5.9499405  )
        23           O1  tau(  23) = (   1.6517842   2.2287041   8.0298356  )
        24           O1  tau(  24) = (   4.9430310   2.2313359   7.2314755  )
        25           O1  tau(  25) = (   2.9292120   0.7437786   5.9499405  )
        26           Ti1 tau(  26) = (   4.8605205   2.2076595   9.4238065  )
        27           O1  tau(  27) = (   4.9553550   2.1639423  11.2756624  )
        28           O1  tau(  28) = (   6.2690671   0.7288246   9.2688367  )
        29           O1  tau(  29) = (   3.6660957   0.7249325   9.2867299  )
        30           Ti1 tau(  30) = (   4.9284588   0.7282168  12.7798302  )
        31           O1  tau(  31) = (   4.9953437   2.2216212  13.8477397  )
        32           O1  tau(  32) = (   2.9112183   0.7266397  12.7651274  )
        33           O1  tau(  33) = (   1.6476770   5.2064503   1.3730516  )
        34           Ti1 tau(  34) = (   4.9430310   5.2064503   2.6545865  )
        35           O1  tau(  35) = (   4.9430310   5.2064503   4.6684056  )
        36           O1  tau(  36) = (   6.2245660   3.7188931   2.6545865  )
        37           O1  tau(  37) = (   3.6614961   3.7188931   2.6545865  )
        38           Ti1 tau(  38) = (   4.9430310   3.7188931   5.9499405  )
        39           O1  tau(  39) = (   1.6524867   5.1852222   8.0294571  )
        40           O1  tau(  40) = (   4.9430310   5.2064503   7.2314755  )
        41           O1  tau(  41) = (   2.9292120   3.7188931   5.9499405  )
        42           Ti1 tau(  42) = (   4.8610151   5.1886528   9.4241876  )
        43           O1  tau(  43) = (   4.9550983   5.2107439  11.2753448  )
        44           O1  tau(  44) = (   6.2713562   3.7024388   9.3047907  )
        45           O1  tau(  45) = (   3.6650622   3.7005085   9.3135888  )
        46           Ti1 tau(  46) = (   5.0160509   3.7038162  12.7585864  )
        47           O1  tau(  47) = (   4.9984032   5.1727849  13.8485277  )
        48           O1  tau(  48) = (   2.9655234   3.7049164  12.5317472  )
        49           O1  tau(  49) = (   2.2848149   3.7063572  14.5693114  )
        50           N1  tau(  50) = (   2.4020298   3.6667063  16.9651815  )
        51           N1  tau(  51) = (   2.1425646   3.6919273  15.8611024  )

     number of k points=    40  Fermi-Dirac smearing, width (Ry)=  0.0073
                       cart. coord. in units 2pi/alat
        k(    1) = (   0.0000000   0.0000000   0.0000000), wk =   0.0277778
        k(    2) = (   0.0000000   0.0280101   0.0000000), wk =   0.0555556
        k(    3) = (   0.0000000   0.0560203   0.0000000), wk =   0.0555556
        k(    4) = (   0.0000000  -0.0840304   0.0000000), wk =   0.0277778
        k(    5) = (   0.0252881   0.0000000   0.0000000), wk =   0.0555556
        k(    6) = (   0.0252881   0.0280101   0.0000000), wk =   0.0555556
        k(    7) = (   0.0252881   0.0560203   0.0000000), wk =   0.0555556
        k(    8) = (   0.0252881  -0.0840304   0.0000000), wk =   0.0555556
        k(    9) = (   0.0505763   0.0000000   0.0000000), wk =   0.0555556
        k(   10) = (   0.0505763   0.0280101   0.0000000), wk =   0.0555556
        k(   11) = (   0.0505763   0.0560203   0.0000000), wk =   0.0555556
        k(   12) = (   0.0505763  -0.0840304   0.0000000), wk =   0.0555556
        k(   13) = (  -0.0758644   0.0000000   0.0000000), wk =   0.0277778
        k(   14) = (  -0.0758644   0.0280101   0.0000000), wk =   0.0555556
        k(   15) = (  -0.0758644   0.0560203   0.0000000), wk =   0.0555556
        k(   16) = (  -0.0758644  -0.0840304   0.0000000), wk =   0.0277778
        k(   17) = (  -0.0252881   0.0280101   0.0000000), wk =   0.0555556
        k(   18) = (  -0.0252881   0.0560203   0.0000000), wk =   0.0555556
        k(   19) = (  -0.0505763   0.0280101   0.0000000), wk =   0.0555556
        k(   20) = (  -0.0505763   0.0560203   0.0000000), wk =   0.0555556
        k(   21) = (   0.0000000   0.0000000   0.0000000), wk =   0.0277778
        k(   22) = (   0.0000000   0.0280101   0.0000000), wk =   0.0555556
        k(   23) = (   0.0000000   0.0560203   0.0000000), wk =   0.0555556
        k(   24) = (   0.0000000  -0.0840304   0.0000000), wk =   0.0277778
        k(   25) = (   0.0252881   0.0000000   0.0000000), wk =   0.0555556
        k(   26) = (   0.0252881   0.0280101   0.0000000), wk =   0.0555556
        k(   27) = (   0.0252881   0.0560203   0.0000000), wk =   0.0555556
        k(   28) = (   0.0252881  -0.0840304   0.0000000), wk =   0.0555556
        k(   29) = (   0.0505763   0.0000000   0.0000000), wk =   0.0555556
        k(   30) = (   0.0505763   0.0280101   0.0000000), wk =   0.0555556
        k(   31) = (   0.0505763   0.0560203   0.0000000), wk =   0.0555556
        k(   32) = (   0.0505763  -0.0840304   0.0000000), wk =   0.0555556
        k(   33) = (  -0.0758644   0.0000000   0.0000000), wk =   0.0277778
        k(   34) = (  -0.0758644   0.0280101   0.0000000), wk =   0.0555556
        k(   35) = (  -0.0758644   0.0560203   0.0000000), wk =   0.0555556
        k(   36) = (  -0.0758644  -0.0840304   0.0000000), wk =   0.0277778
        k(   37) = (  -0.0252881   0.0280101   0.0000000), wk =   0.0555556
        k(   38) = (  -0.0252881   0.0560203   0.0000000), wk =   0.0555556
        k(   39) = (  -0.0505763   0.0280101   0.0000000), wk =   0.0555556
        k(   40) = (  -0.0505763   0.0560203   0.0000000), wk =   0.0555556

     Dense  grid:  1096637 G-vectors     FFT dimensions: (  80,  72, 375)

     Smooth grid:   277353 G-vectors     FFT dimensions: (  54,  45, 240)

     Largest allocated arrays     est. size (Mb)     dimensions
        Kohn-Sham Wavefunctions         9.98 Mb     (    2180,  300)
        NL pseudopotentials            18.89 Mb     (    2180,  568)
        Each V/rho on FFT grid          4.22 Mb     (  138240,   2)
        Each G-vector array             0.52 Mb     (   68538)
        G-vector shells                 0.25 Mb     (   33046)
     Largest temporary arrays     est. size (Mb)     dimensions
        Auxiliary wavefunctions        39.92 Mb     (    2180, 1200)
        Each subspace H/S matrix       21.97 Mb     (    1200, 1200)
        Each <psi_i|beta_j> matrix      2.60 Mb     (     568,  300)
        Arrays for rho mixing          21.09 Mb     (  138240,   10)

     Check: negative/imaginary core charge=   -0.000049    0.000000

     The initial density is read from file :
     ./calc.save/charge-density.dat


     negative rho (up, down):  1.158E-02 1.158E-02


     ************************************************************************
     *
     * You are using vdW-DF for exchange-correlation in this calculation.
     * Please cite the following three references that made this development
     * possible:
     *
     *   M. Dion, H. Rydberg, E. Schroder, D. C. Langreth, and
     *   B. I. Lundqvist, Phys. Rev. Lett. 92, 246401 (2004).
     *
     *   T. Thonhauser, V. R. Cooper, S. Li, A. Puzder, P. Hyldgaard, and
     *   D. C. Langreth, Phys. Rev. B 76, 125112 (2007).
     *
     *   G. Roman-Perez and J. M. Soler, Phys. Rev. Lett. 103, 096102 (2009).
     *
     *
     * If you are using vdW-DF2, please also cite:
     *
     *   K. Lee, E. D. Murray, L. Kong, B. I. Lundqvist, and
     *   D. C. Langreth, Phys. Rev. B 82, 081101(R) (2010).
     *
     *
     * If you are calculating the stress with vdW-DF, please also cite:
     *
     *   R. Sabatini, E. Kucukbenli, B. Kolb, T. Thonhauser, and
     *   S. de Gironcoli, J. Phys.: Condens. Matter 24, 424209 (2012).
     *
     ************************************************************************

     Carrying out vdW-DF run using the following parameters:

     Nqs =      20    Nr_points =    1024   r_max =   100.000
     q_mesh =
               0.00001000     0.04494208     0.09755937     0.15916263
               0.23128650     0.31572767     0.41458969     0.53033537
               0.66584808     0.82450364     1.01025438     1.22772762
               1.48234092     1.78043706     2.12944203     2.53805004
               3.01644009     3.57652955     4.23227104     5.00000000

     Gradients computed in reciprocal space

     ************************************************************************


     Starting wfc are  300 randomized atomic wfcs

     total cpu time spent up to now is       69.1 secs

     Self-consistent Calculation

     iteration #  1     ecut=    40.42 Ry     beta=0.10
     Davidson diagonalization with overlap
     ethr =  1.00E-05,  avg # of iterations = 15.0

     negative rho (up, down):  1.158E-02 1.158E-02
 
     Magnetic moment per site:
     atom:    1    charge:    3.1250    magn:   -0.0002    constr:    0.0000
     atom:    2    charge:    2.0894    magn:    0.0001    constr:    0.0000
     atom:    3    charge:    3.1196    magn:   -0.0001    constr:    0.0000
     atom:    4    charge:    2.0870    magn:    0.0000    constr:    0.0000
     atom:    5    charge:    3.1170    magn:   -0.0001    constr:    0.0000
     atom:    6    charge:    2.0918    magn:    0.0001    constr:    0.0000
     atom:    7    charge:    3.1179    magn:   -0.0000    constr:    0.0000
     atom:    8    charge:    2.0813    magn:    0.0001    constr:    0.0000
     atom:    9    charge:    3.1250    magn:   -0.0002    constr:    0.0000
     atom:   10    charge:    2.0894    magn:    0.0001    constr:    0.0000
     atom:   11    charge:    3.1196    magn:   -0.0001    constr:    0.0000
     atom:   12    charge:    2.0870    magn:    0.0000    constr:    0.0000
     atom:   13    charge:    3.1148    magn:   -0.0001    constr:    0.0000
     atom:   14    charge:    2.0913    magn:    0.0001    constr:    0.0000
     atom:   15    charge:    3.1189    magn:   -0.0000    constr:    0.0000
     atom:   16    charge:    2.0873    magn:    0.0001    constr:    0.0000
     atom:   17    charge:    2.0624    magn:    0.0004    constr:    0.0000
     atom:   18    charge:    3.1239    magn:   -0.0000    constr:    0.0000
     atom:   19    charge:    2.0878    magn:   -0.0000    constr:    0.0000
     atom:   20    charge:    2.0847    magn:   -0.0001    constr:    0.0000
     atom:   21    charge:    2.0847    magn:   -0.0001    constr:    0.0000
     atom:   22    charge:    3.1197    magn:   -0.0000    constr:    0.0000
     atom:   23    charge:    2.0909    magn:    0.0001    constr:    0.0000
     atom:   24    charge:    2.0777    magn:    0.0001    constr:    0.0000
     atom:   25    charge:    2.0869    magn:    0.0000    constr:    0.0000
     atom:   26    charge:    3.1164    magn:   -0.0001    constr:    0.0000
     atom:   27    charge:    2.0824    magn:    0.0002    constr:    0.0000
     atom:   28    charge:    2.0879    magn:    0.0001    constr:    0.0000
     atom:   29    charge:    2.0878    magn:    0.0001    constr:    0.0000
     atom:   30    charge:    3.1166    magn:   -0.0001    constr:    0.0000
     atom:   31    charge:    2.0819    magn:    0.0003    constr:    0.0000
     atom:   32    charge:    2.0847    magn:    0.0001    constr:    0.0000
     atom:   33    charge:    2.0624    magn:    0.0004    constr:    0.0000
     atom:   34    charge:    3.1239    magn:   -0.0000    constr:    0.0000
     atom:   35    charge:    2.0878    magn:   -0.0000    constr:    0.0000
     atom:   36    charge:    2.0847    magn:   -0.0001    constr:    0.0000
     atom:   37    charge:    2.0847    magn:   -0.0001    constr:    0.0000
     atom:   38    charge:    3.1197    magn:   -0.0000    constr:    0.0000
     atom:   39    charge:    2.0912    magn:    0.0001    constr:    0.0000
     atom:   40    charge:    2.0777    magn:    0.0001    constr:    0.0000
     atom:   41    charge:    2.0869    magn:    0.0000    constr:    0.0000
     atom:   42    charge:    3.1181    magn:   -0.0001    constr:    0.0000
     atom:   43    charge:    2.0838    magn:    0.0002    constr:    0.0000
     atom:   44    charge:    2.0864    magn:    0.0001    constr:    0.0000
     atom:   45    charge:    2.0871    magn:    0.0001    constr:    0.0000
     atom:   46    charge:    3.1174    magn:   -0.0001    constr:    0.0000
     atom:   47    charge:    2.0801    magn:    0.0003    constr:    0.0000
     atom:   48    charge:    2.0853    magn:    0.0002    constr:    0.0000
     atom:   49    charge:    2.0481    magn:   -0.0000    constr:    0.0000
     atom:   50    charge:    1.2591    magn:   -0.0000    constr:    0.0000
     atom:   51    charge:    1.2846    magn:    0.0000    constr:    0.0000

     total cpu time spent up to now is      801.8 secs

     total energy              =   -3044.97939097 Ry
     Harris-Foulkes estimate   =   -3044.99259775 Ry
     estimated scf accuracy    <       0.08869287 Ry

     total magnetization       =     0.00 Bohr mag/cell
     absolute magnetization    =     0.01 Bohr mag/cell

     iteration #  2     ecut=    40.42 Ry     beta=0.10
     Davidson diagonalization with overlap
     ethr =  2.22E-05,  avg # of iterations =  1.1

     negative rho (up, down):  1.159E-02 1.159E-02
 
     Magnetic moment per site:
     atom:    1    charge:    3.1250    magn:   -0.0001    constr:    0.0000
     atom:    2    charge:    2.0894    magn:    0.0001    constr:    0.0000
     atom:    3    charge:    3.1196    magn:   -0.0000    constr:    0.0000
     atom:    4    charge:    2.0870    magn:    0.0000    constr:    0.0000
     atom:    5    charge:    3.1170    magn:   -0.0000    constr:    0.0000
     atom:    6    charge:    2.0918    magn:    0.0000    constr:    0.0000
     atom:    7    charge:    3.1176    magn:   -0.0000    constr:    0.0000
     atom:    8    charge:    2.0812    magn:    0.0001    constr:    0.0000
     atom:    9    charge:    3.1250    magn:   -0.0001    constr:    0.0000
     atom:   10    charge:    2.0894    magn:    0.0001    constr:    0.0000
     atom:   11    charge:    3.1196    magn:   -0.0000    constr:    0.0000
     atom:   12    charge:    2.0870    magn:    0.0000    constr:    0.0000
     atom:   13    charge:    3.1147    magn:   -0.0000    constr:    0.0000
     atom:   14    charge:    2.0913    magn:    0.0000    constr:    0.0000
     atom:   15    charge:    3.1185    magn:   -0.0000    constr:    0.0000
     atom:   16    charge:    2.0863    magn:    0.0000    constr:    0.0000
     atom:   17    charge:    2.0624    magn:    0.0003    constr:    0.0000
     atom:   18    charge:    3.1239    magn:   -0.0000    constr:    0.0000
     atom:   19    charge:    2.0878    magn:   -0.0000    constr:    0.0000
     atom:   20    charge:    2.0847    magn:   -0.0001    constr:    0.0000
     atom:   21    charge:    2.0847    magn:   -0.0001    constr:    0.0000
     atom:   22    charge:    3.1197    magn:   -0.0000    constr:    0.0000
     atom:   23    charge:    2.0909    magn:    0.0001    constr:    0.0000
     atom:   24    charge:    2.0777    magn:    0.0001    constr:    0.0000
     atom:   25    charge:    2.0869    magn:    0.0000    constr:    0.0000
     atom:   26    charge:    3.1165    magn:   -0.0001    constr:    0.0000
     atom:   27    charge:    2.0823    magn:    0.0001    constr:    0.0000
     atom:   28    charge:    2.0879    magn:    0.0001    constr:    0.0000
     atom:   29    charge:    2.0877    magn:    0.0001    constr:    0.0000
     atom:   30    charge:    3.1166    magn:   -0.0001    constr:    0.0000
     atom:   31    charge:    2.0825    magn:    0.0002    constr:    0.0000
     atom:   32    charge:    2.0849    magn:    0.0001    constr:    0.0000
     atom:   33    charge:    2.0624    magn:    0.0003    constr:    0.0000
     atom:   34    charge:    3.1239    magn:   -0.0000    constr:    0.0000
     atom:   35    charge:    2.0878    magn:   -0.0000    constr:    0.0000
     atom:   36    charge:    2.0847    magn:   -0.0001    constr:    0.0000
     atom:   37    charge:    2.0847    magn:   -0.0001    constr:    0.0000
     atom:   38    charge:    3.1197    magn:   -0.0000    constr:    0.0000
     atom:   39    charge:    2.0913    magn:    0.0001    constr:    0.0000
     atom:   40    charge:    2.0777    magn:    0.0001    constr:    0.0000
     atom:   41    charge:    2.0869    magn:    0.0000    constr:    0.0000
     atom:   42    charge:    3.1181    magn:   -0.0001    constr:    0.0000
     atom:   43    charge:    2.0837    magn:    0.0001    constr:    0.0000
     atom:   44    charge:    2.0865    magn:    0.0001    constr:    0.0000
     atom:   45    charge:    2.0871    magn:    0.0001    constr:    0.0000
     atom:   46    charge:    3.1176    magn:   -0.0001    constr:    0.0000
     atom:   47    charge:    2.0806    magn:    0.0002    constr:    0.0000
     atom:   48    charge:    2.0870    magn:    0.0001    constr:    0.0000
     atom:   49    charge:    2.0515    magn:   -0.0000    constr:    0.0000
     atom:   50    charge:    1.2593    magn:   -0.0000    constr:    0.0000
     atom:   51    charge:    1.2823    magn:    0.0000    constr:    0.0000

     total cpu time spent up to now is      973.7 secs

     total energy              =   -3044.95177418 Ry
     Harris-Foulkes estimate   =   -3044.98015177 Ry
     estimated scf accuracy    <       0.05807954 Ry

     total magnetization       =     0.00 Bohr mag/cell
     absolute magnetization    =     0.01 Bohr mag/cell

     iteration #  3     ecut=    40.42 Ry     beta=0.10
     Davidson diagonalization with overlap
     ethr =  1.45E-05,  avg # of iterations =  2.4

     negative rho (up, down):  1.159E-02 1.159E-02
 
     Magnetic moment per site:
     atom:    1    charge:    3.1250    magn:   -0.0001    constr:    0.0000
     atom:    2    charge:    2.0894    magn:    0.0001    constr:    0.0000
     atom:    3    charge:    3.1196    magn:   -0.0000    constr:    0.0000
     atom:    4    charge:    2.0870    magn:    0.0000    constr:    0.0000
     atom:    5    charge:    3.1170    magn:   -0.0000    constr:    0.0000
     atom:    6    charge:    2.0914    magn:    0.0000    constr:    0.0000
     atom:    7    charge:    3.1192    magn:   -0.0000    constr:    0.0000
     atom:    8    charge:    2.0822    magn:    0.0000    constr:    0.0000
     atom:    9    charge:    3.1250    magn:   -0.0001    constr:    0.0000
     atom:   10    charge:    2.0894    magn:    0.0001    constr:    0.0000
     atom:   11    charge:    3.1196    magn:   -0.0000    constr:    0.0000
     atom:   12    charge:    2.0870    magn:    0.0000    constr:    0.0000
     atom:   13    charge:    3.1148    magn:   -0.0000    constr:    0.0000
     atom:   14    charge:    2.0908    magn:    0.0000    constr:    0.0000
     atom:   15    charge:    3.1201    magn:   -0.0000    constr:    0.0000
     atom:   16    charge:    2.0892    magn:    0.0000    constr:    0.0000
     atom:   17    charge:    2.0624    magn:    0.0002    constr:    0.0000
     atom:   18    charge:    3.1239    magn:   -0.0000    constr:    0.0000
     atom:   19    charge:    2.0878    magn:   -0.0000    constr:    0.0000
     atom:   20    charge:    2.0847    magn:   -0.0000    constr:    0.0000
     atom:   21    charge:    2.0847    magn:   -0.0000    constr:    0.0000
     atom:   22    charge:    3.1197    magn:   -0.0000    constr:    0.0000
     atom:   23    charge:    2.0908    magn:    0.0000    constr:    0.0000
     atom:   24    charge:    2.0777    magn:    0.0000    constr:    0.0000
     atom:   25    charge:    2.0869    magn:    0.0000    constr:    0.0000
     atom:   26    charge:    3.1166    magn:   -0.0000    constr:    0.0000
     atom:   27    charge:    2.0823    magn:    0.0001    constr:    0.0000
     atom:   28    charge:    2.0879    magn:    0.0001    constr:    0.0000
     atom:   29    charge:    2.0877    magn:    0.0000    constr:    0.0000
     atom:   30    charge:    3.1172    magn:   -0.0001    constr:    0.0000
     atom:   31    charge:    2.0814    magn:    0.0002    constr:    0.0000
     atom:   32    charge:    2.0832    magn:    0.0000    constr:    0.0000
     atom:   33    charge:    2.0624    magn:    0.0002    constr:    0.0000
     atom:   34    charge:    3.1239    magn:   -0.0000    constr:    0.0000
     atom:   35    charge:    2.0878    magn:   -0.0000    constr:    0.0000
     atom:   36    charge:    2.0847    magn:   -0.0000    constr:    0.0000
     atom:   37    charge:    2.0847    magn:   -0.0000    constr:    0.0000
     atom:   38    charge:    3.1197    magn:   -0.0000    constr:    0.0000
     atom:   39    charge:    2.0912    magn:    0.0000    constr:    0.0000
     atom:   40    charge:    2.0777    magn:    0.0000    constr:    0.0000
     atom:   41    charge:    2.0869    magn:    0.0000    constr:    0.0000
     atom:   42    charge:    3.1182    magn:   -0.0000    constr:    0.0000
     atom:   43    charge:    2.0837    magn:    0.0001    constr:    0.0000
     atom:   44    charge:    2.0865    magn:    0.0001    constr:    0.0000
     atom:   45    charge:    2.0870    magn:    0.0000    constr:    0.0000
     atom:   46    charge:    3.1167    magn:   -0.0001    constr:    0.0000
     atom:   47    charge:    2.0796    magn:    0.0002    constr:    0.0000
     atom:   48    charge:    2.0812    magn:    0.0001    constr:    0.0000
     atom:   49    charge:    2.0502    magn:   -0.0000    constr:    0.0000
     atom:   50    charge:    1.2590    magn:   -0.0000    constr:    0.0000
     atom:   51    charge:    1.2851    magn:    0.0000    constr:    0.0000

     total cpu time spent up to now is     1169.0 secs

     total energy              =   -3044.95266786 Ry
     Harris-Foulkes estimate   =   -3044.95766720 Ry
     estimated scf accuracy    <       0.00988929 Ry

     total magnetization       =     0.00 Bohr mag/cell
     absolute magnetization    =     0.00 Bohr mag/cell

     iteration #  4     ecut=    40.42 Ry     beta=0.10
     Davidson diagonalization with overlap
     ethr =  2.47E-06,  avg # of iterations =  5.5

     negative rho (up, down):  1.159E-02 1.159E-02
 
     Magnetic moment per site:
     atom:    1    charge:    3.1250    magn:   -0.0001    constr:    0.0000
     atom:    2    charge:    2.0894    magn:    0.0001    constr:    0.0000
     atom:    3    charge:    3.1196    magn:   -0.0000    constr:    0.0000
     atom:    4    charge:    2.0870    magn:    0.0000    constr:    0.0000
     atom:    5    charge:    3.1170    magn:   -0.0000    constr:    0.0000
     atom:    6    charge:    2.0916    magn:    0.0000    constr:    0.0000
     atom:    7    charge:    3.1187    magn:   -0.0000    constr:    0.0000
     atom:    8    charge:    2.0818    magn:    0.0000    constr:    0.0000
     atom:    9    charge:    3.1250    magn:   -0.0001    constr:    0.0000
     atom:   10    charge:    2.0894    magn:    0.0001    constr:    0.0000
     atom:   11    charge:    3.1196    magn:   -0.0000    constr:    0.0000
     atom:   12    charge:    2.0870    magn:    0.0000    constr:    0.0000
     atom:   13    charge:    3.1148    magn:   -0.0000    constr:    0.0000
     atom:   14    charge:    2.0911    magn:    0.0000    constr:    0.0000
     atom:   15    charge:    3.1196    magn:   -0.0000    constr:    0.0000
     atom:   16    charge:    2.0889    magn:    0.0000    constr:    0.0000
     atom:   17    charge:    2.0624    magn:    0.0002    constr:    0.0000
     atom:   18    charge:    3.1239    magn:   -0.0000    constr:    0.0000
     atom:   19    charge:    2.0878    magn:   -0.0000    constr:    0.0000
     atom:   20    charge:    2.0847    magn:   -0.0000    constr:    0.0000
     atom:   21    charge:    2.0847    magn:   -0.0000    constr:    0.0000
     atom:   22    charge:    3.1197    magn:   -0.0000    constr:    0.0000
     atom:   23    charge:    2.0908    magn:    0.0000    constr:    0.0000
     atom:   24    charge:    2.0777    magn:    0.0000    constr:    0.0000
     atom:   25    charge:    2.0869    magn:    0.0000    constr:    0.0000
     atom:   26    charge:    3.1165    magn:   -0.0000    constr:    0.0000
     atom:   27    charge:    2.0824    magn:    0.0001    constr:    0.0000
     atom:   28    charge:    2.0879    magn:    0.0001    constr:    0.0000
     atom:   29    charge:    2.0878    magn:    0.0000    constr:    0.0000
     atom:   30    charge:    3.1169    magn:   -0.0001    constr:    0.0000
     atom:   31    charge:    2.0813    magn:    0.0002    constr:    0.0000
     atom:   32    charge:    2.0839    magn:    0.0000    constr:    0.0000
     atom:   33    charge:    2.0624    magn:    0.0002    constr:    0.0000
     atom:   34    charge:    3.1239    magn:   -0.0000    constr:    0.0000
     atom:   35    charge:    2.0878    magn:   -0.0000    constr:    0.0000
     atom:   36    charge:    2.0847    magn:   -0.0000    constr:    0.0000
     atom:   37    charge:    2.0847    magn:   -0.0000    constr:    0.0000
     atom:   38    charge:    3.1197    magn:   -0.0000    constr:    0.0000
     atom:   39    charge:    2.0912    magn:    0.0000    constr:    0.0000
     atom:   40    charge:    2.0777    magn:    0.0000    constr:    0.0000
     atom:   41    charge:    2.0869    magn:    0.0000    constr:    0.0000
     atom:   42    charge:    3.1181    magn:   -0.0000    constr:    0.0000
     atom:   43    charge:    2.0838    magn:    0.0001    constr:    0.0000
     atom:   44    charge:    2.0865    magn:    0.0001    constr:    0.0000
     atom:   45    charge:    2.0872    magn:    0.0000    constr:    0.0000
     atom:   46    charge:    3.1169    magn:   -0.0001    constr:    0.0000
     atom:   47    charge:    2.0794    magn:    0.0002    constr:    0.0000
     atom:   48    charge:    2.0829    magn:    0.0001    constr:    0.0000
     atom:   49    charge:    2.0506    magn:    0.0000    constr:    0.0000
     atom:   50    charge:    1.2588    magn:   -0.0000    constr:    0.0000
     atom:   51    charge:    1.2854    magn:    0.0000    constr:    0.0000

     total cpu time spent up to now is     1414.5 secs

     total energy              =   -3044.95386250 Ry
     Harris-Foulkes estimate   =   -3044.95408173 Ry
     estimated scf accuracy    <       0.00083423 Ry

     total magnetization       =     0.00 Bohr mag/cell
     absolute magnetization    =     0.00 Bohr mag/cell

     iteration #  5     ecut=    40.42 Ry     beta=0.10
     Davidson diagonalization with overlap
     ethr =  2.09E-07,  avg # of iterations =  2.0

     negative rho (up, down):  1.159E-02 1.159E-02
 
     Magnetic moment per site:
     atom:    1    charge:    3.1250    magn:   -0.0001    constr:    0.0000
     atom:    2    charge:    2.0894    magn:    0.0001    constr:    0.0000
     atom:    3    charge:    3.1196    magn:   -0.0000    constr:    0.0000
     atom:    4    charge:    2.0870    magn:    0.0000    constr:    0.0000
     atom:    5    charge:    3.1170    magn:   -0.0000    constr:    0.0000
     atom:    6    charge:    2.0917    magn:    0.0000    constr:    0.0000
     atom:    7    charge:    3.1187    magn:   -0.0000    constr:    0.0000
     atom:    8    charge:    2.0817    magn:    0.0000    constr:    0.0000
     atom:    9    charge:    3.1250    magn:   -0.0001    constr:    0.0000
     atom:   10    charge:    2.0894    magn:    0.0001    constr:    0.0000
     atom:   11    charge:    3.1196    magn:   -0.0000    constr:    0.0000
     atom:   12    charge:    2.0870    magn:    0.0000    constr:    0.0000
     atom:   13    charge:    3.1148    magn:   -0.0000    constr:    0.0000
     atom:   14    charge:    2.0911    magn:    0.0000    constr:    0.0000
     atom:   15    charge:    3.1196    magn:   -0.0000    constr:    0.0000
     atom:   16    charge:    2.0890    magn:    0.0000    constr:    0.0000
     atom:   17    charge:    2.0624    magn:    0.0002    constr:    0.0000
     atom:   18    charge:    3.1239    magn:   -0.0000    constr:    0.0000
     atom:   19    charge:    2.0878    magn:   -0.0000    constr:    0.0000
     atom:   20    charge:    2.0847    magn:   -0.0000    constr:    0.0000
     atom:   21    charge:    2.0847    magn:   -0.0000    constr:    0.0000
     atom:   22    charge:    3.1197    magn:   -0.0000    constr:    0.0000
     atom:   23    charge:    2.0908    magn:    0.0000    constr:    0.0000
     atom:   24    charge:    2.0777    magn:    0.0000    constr:    0.0000
     atom:   25    charge:    2.0869    magn:    0.0000    constr:    0.0000
     atom:   26    charge:    3.1165    magn:   -0.0000    constr:    0.0000
     atom:   27    charge:    2.0824    magn:    0.0001    constr:    0.0000
     atom:   28    charge:    2.0878    magn:    0.0000    constr:    0.0000
     atom:   29    charge:    2.0878    magn:    0.0000    constr:    0.0000
     atom:   30    charge:    3.1168    magn:   -0.0001    constr:    0.0000
     atom:   31    charge:    2.0812    magn:    0.0001    constr:    0.0000
     atom:   32    charge:    2.0841    magn:    0.0000    constr:    0.0000
     atom:   33    charge:    2.0624    magn:    0.0002    constr:    0.0000
     atom:   34    charge:    3.1239    magn:   -0.0000    constr:    0.0000
     atom:   35    charge:    2.0878    magn:   -0.0000    constr:    0.0000
     atom:   36    charge:    2.0847    magn:   -0.0000    constr:    0.0000
     atom:   37    charge:    2.0847    magn:   -0.0000    constr:    0.0000
     atom:   38    charge:    3.1197    magn:   -0.0000    constr:    0.0000
     atom:   39    charge:    2.0912    magn:    0.0000    constr:    0.0000
     atom:   40    charge:    2.0777    magn:    0.0000    constr:    0.0000
     atom:   41    charge:    2.0869    magn:    0.0000    constr:    0.0000
     atom:   42    charge:    3.1181    magn:   -0.0000    constr:    0.0000
     atom:   43    charge:    2.0838    magn:    0.0001    constr:    0.0000
     atom:   44    charge:    2.0864    magn:    0.0000    constr:    0.0000
     atom:   45    charge:    2.0872    magn:    0.0000    constr:    0.0000
     atom:   46    charge:    3.1169    magn:   -0.0001    constr:    0.0000
     atom:   47    charge:    2.0793    magn:    0.0001    constr:    0.0000
     atom:   48    charge:    2.0830    magn:    0.0001    constr:    0.0000
     atom:   49    charge:    2.0502    magn:    0.0000    constr:    0.0000
     atom:   50    charge:    1.2588    magn:   -0.0000    constr:    0.0000
     atom:   51    charge:    1.2862    magn:    0.0000    constr:    0.0000

     total cpu time spent up to now is     1602.2 secs

     total energy              =   -3044.95384455 Ry
     Harris-Foulkes estimate   =   -3044.95395242 Ry
     estimated scf accuracy    <       0.00039545 Ry

     total magnetization       =     0.00 Bohr mag/cell
     absolute magnetization    =     0.00 Bohr mag/cell

     iteration #  6     ecut=    40.42 Ry     beta=0.10
     Davidson diagonalization with overlap
     ethr =  9.89E-08,  avg # of iterations =  2.0

     negative rho (up, down):  1.159E-02 1.159E-02
 
     Magnetic moment per site:
     atom:    1    charge:    3.1250    magn:   -0.0001    constr:    0.0000
     atom:    2    charge:    2.0894    magn:    0.0000    constr:    0.0000
     atom:    3    charge:    3.1196    magn:   -0.0000    constr:    0.0000
     atom:    4    charge:    2.0870    magn:    0.0000    constr:    0.0000
     atom:    5    charge:    3.1170    magn:   -0.0000    constr:    0.0000
     atom:    6    charge:    2.0917    magn:    0.0000    constr:    0.0000
     atom:    7    charge:    3.1186    magn:   -0.0000    constr:    0.0000
     atom:    8    charge:    2.0815    magn:    0.0000    constr:    0.0000
     atom:    9    charge:    3.1250    magn:   -0.0001    constr:    0.0000
     atom:   10    charge:    2.0894    magn:    0.0000    constr:    0.0000
     atom:   11    charge:    3.1196    magn:   -0.0000    constr:    0.0000
     atom:   12    charge:    2.0870    magn:    0.0000    constr:    0.0000
     atom:   13    charge:    3.1148    magn:   -0.0000    constr:    0.0000
     atom:   14    charge:    2.0912    magn:    0.0000    constr:    0.0000
     atom:   15    charge:    3.1195    magn:   -0.0000    constr:    0.0000
     atom:   16    charge:    2.0886    magn:    0.0000    constr:    0.0000
     atom:   17    charge:    2.0624    magn:    0.0002    constr:    0.0000
     atom:   18    charge:    3.1239    magn:   -0.0000    constr:    0.0000
     atom:   19    charge:    2.0878    magn:   -0.0000    constr:    0.0000
     atom:   20    charge:    2.0847    magn:   -0.0000    constr:    0.0000
     atom:   21    charge:    2.0847    magn:   -0.0000    constr:    0.0000
     atom:   22    charge:    3.1197    magn:   -0.0000    constr:    0.0000
     atom:   23    charge:    2.0909    magn:    0.0000    constr:    0.0000
     atom:   24    charge:    2.0777    magn:    0.0000    constr:    0.0000
     atom:   25    charge:    2.0869    magn:    0.0000    constr:    0.0000
     atom:   26    charge:    3.1165    magn:   -0.0000    constr:    0.0000
     atom:   27    charge:    2.0824    magn:    0.0001    constr:    0.0000
     atom:   28    charge:    2.0879    magn:    0.0000    constr:    0.0000
     atom:   29    charge:    2.0878    magn:    0.0000    constr:    0.0000
     atom:   30    charge:    3.1168    magn:   -0.0001    constr:    0.0000
     atom:   31    charge:    2.0813    magn:    0.0001    constr:    0.0000
     atom:   32    charge:    2.0843    magn:    0.0000    constr:    0.0000
     atom:   33    charge:    2.0624    magn:    0.0002    constr:    0.0000
     atom:   34    charge:    3.1239    magn:   -0.0000    constr:    0.0000
     atom:   35    charge:    2.0878    magn:   -0.0000    constr:    0.0000
     atom:   36    charge:    2.0847    magn:   -0.0000    constr:    0.0000
     atom:   37    charge:    2.0847    magn:   -0.0000    constr:    0.0000
     atom:   38    charge:    3.1197    magn:   -0.0000    constr:    0.0000
     atom:   39    charge:    2.0912    magn:    0.0000    constr:    0.0000
     atom:   40    charge:    2.0777    magn:    0.0000    constr:    0.0000
     atom:   41    charge:    2.0869    magn:    0.0000    constr:    0.0000
     atom:   42    charge:    3.1181    magn:   -0.0000    constr:    0.0000
     atom:   43    charge:    2.0838    magn:    0.0001    constr:    0.0000
     atom:   44    charge:    2.0865    magn:    0.0000    constr:    0.0000
     atom:   45    charge:    2.0871    magn:    0.0000    constr:    0.0000
     atom:   46    charge:    3.1170    magn:   -0.0001    constr:    0.0000
     atom:   47    charge:    2.0794    magn:    0.0001    constr:    0.0000
     atom:   48    charge:    2.0834    magn:    0.0001    constr:    0.0000
     atom:   49    charge:    2.0505    magn:    0.0000    constr:    0.0000
     atom:   50    charge:    1.2590    magn:   -0.0000    constr:    0.0000
     atom:   51    charge:    1.2861    magn:    0.0000    constr:    0.0000

     total cpu time spent up to now is     1787.5 secs

     total energy              =   -3044.95384477 Ry
     Harris-Foulkes estimate   =   -3044.95387228 Ry
     estimated scf accuracy    <       0.00011532 Ry

     total magnetization       =     0.00 Bohr mag/cell
     absolute magnetization    =     0.00 Bohr mag/cell

     iteration #  7     ecut=    40.42 Ry     beta=0.10
     Davidson diagonalization with overlap
     ethr =  2.88E-08,  avg # of iterations =  2.0

     negative rho (up, down):  1.159E-02 1.159E-02
 
     Magnetic moment per site:
     atom:    1    charge:    3.1250    magn:   -0.0001    constr:    0.0000
     atom:    2    charge:    2.0894    magn:    0.0000    constr:    0.0000
     atom:    3    charge:    3.1196    magn:   -0.0000    constr:    0.0000
     atom:    4    charge:    2.0870    magn:    0.0000    constr:    0.0000
     atom:    5    charge:    3.1170    magn:   -0.0000    constr:    0.0000
     atom:    6    charge:    2.0917    magn:    0.0000    constr:    0.0000
     atom:    7    charge:    3.1185    magn:   -0.0000    constr:    0.0000
     atom:    8    charge:    2.0815    magn:    0.0000    constr:    0.0000
     atom:    9    charge:    3.1250    magn:   -0.0001    constr:    0.0000
     atom:   10    charge:    2.0894    magn:    0.0000    constr:    0.0000
     atom:   11    charge:    3.1196    magn:   -0.0000    constr:    0.0000
     atom:   12    charge:    2.0870    magn:    0.0000    constr:    0.0000
     atom:   13    charge:    3.1148    magn:   -0.0000    constr:    0.0000
     atom:   14    charge:    2.0912    magn:    0.0000    constr:    0.0000
     atom:   15    charge:    3.1194    magn:   -0.0000    constr:    0.0000
     atom:   16    charge:    2.0882    magn:    0.0000    constr:    0.0000
     atom:   17    charge:    2.0623    magn:    0.0001    constr:    0.0000
     atom:   18    charge:    3.1239    magn:   -0.0000    constr:    0.0000
     atom:   19    charge:    2.0878    magn:   -0.0000    constr:    0.0000
     atom:   20    charge:    2.0847    magn:   -0.0000    constr:    0.0000
     atom:   21    charge:    2.0847    magn:   -0.0000    constr:    0.0000
     atom:   22    charge:    3.1197    magn:   -0.0000    constr:    0.0000
     atom:   23    charge:    2.0909    magn:    0.0000    constr:    0.0000
     atom:   24    charge:    2.0777    magn:    0.0000    constr:    0.0000
     atom:   25    charge:    2.0869    magn:    0.0000    constr:    0.0000
     atom:   26    charge:    3.1165    magn:   -0.0000    constr:    0.0000
     atom:   27    charge:    2.0824    magn:    0.0001    constr:    0.0000
     atom:   28    charge:    2.0879    magn:    0.0000    constr:    0.0000
     atom:   29    charge:    2.0877    magn:    0.0000    constr:    0.0000
     atom:   30    charge:    3.1168    magn:   -0.0000    constr:    0.0000
     atom:   31    charge:    2.0814    magn:    0.0001    constr:    0.0000
     atom:   32    charge:    2.0843    magn:    0.0000    constr:    0.0000
     atom:   33    charge:    2.0623    magn:    0.0001    constr:    0.0000
     atom:   34    charge:    3.1239    magn:   -0.0000    constr:    0.0000
     atom:   35    charge:    2.0878    magn:   -0.0000    constr:    0.0000
     atom:   36    charge:    2.0847    magn:   -0.0000    constr:    0.0000
     atom:   37    charge:    2.0847    magn:   -0.0000    constr:    0.0000
     atom:   38    charge:    3.1197    magn:   -0.0000    constr:    0.0000
     atom:   39    charge:    2.0912    magn:    0.0000    constr:    0.0000
     atom:   40    charge:    2.0777    magn:    0.0000    constr:    0.0000
     atom:   41    charge:    2.0869    magn:    0.0000    constr:    0.0000
     atom:   42    charge:    3.1181    magn:   -0.0000    constr:    0.0000
     atom:   43    charge:    2.0838    magn:    0.0001    constr:    0.0000
     atom:   44    charge:    2.0865    magn:    0.0000    constr:    0.0000
     atom:   45    charge:    2.0871    magn:    0.0000    constr:    0.0000
     atom:   46    charge:    3.1171    magn:   -0.0000    constr:    0.0000
     atom:   47    charge:    2.0796    magn:    0.0001    constr:    0.0000
     atom:   48    charge:    2.0837    magn:    0.0000    constr:    0.0000
     atom:   49    charge:    2.0509    magn:    0.0000    constr:    0.0000
     atom:   50    charge:    1.2592    magn:   -0.0000    constr:    0.0000
     atom:   51    charge:    1.2857    magn:    0.0000    constr:    0.0000

     total cpu time spent up to now is     1972.9 secs

     total energy              =   -3044.95384242 Ry
     Harris-Foulkes estimate   =   -3044.95385022 Ry
     estimated scf accuracy    <       0.00003556 Ry

     total magnetization       =     0.00 Bohr mag/cell
     absolute magnetization    =     0.00 Bohr mag/cell

     iteration #  8     ecut=    40.42 Ry     beta=0.10
     Davidson diagonalization with overlap
     ethr =  8.89E-09,  avg # of iterations =  2.0

     negative rho (up, down):  1.159E-02 1.159E-02
 
     Magnetic moment per site:
     atom:    1    charge:    3.1250    magn:   -0.0000    constr:    0.0000
     atom:    2    charge:    2.0894    magn:    0.0000    constr:    0.0000
     atom:    3    charge:    3.1196    magn:   -0.0000    constr:    0.0000
     atom:    4    charge:    2.0870    magn:    0.0000    constr:    0.0000
     atom:    5    charge:    3.1170    magn:   -0.0000    constr:    0.0000
     atom:    6    charge:    2.0917    magn:    0.0000    constr:    0.0000
     atom:    7    charge:    3.1185    magn:   -0.0000    constr:    0.0000
     atom:    8    charge:    2.0815    magn:    0.0000    constr:    0.0000
     atom:    9    charge:    3.1250    magn:   -0.0000    constr:    0.0000
     atom:   10    charge:    2.0894    magn:    0.0000    constr:    0.0000
     atom:   11    charge:    3.1196    magn:   -0.0000    constr:    0.0000
     atom:   12    charge:    2.0870    magn:    0.0000    constr:    0.0000
     atom:   13    charge:    3.1148    magn:   -0.0000    constr:    0.0000
     atom:   14    charge:    2.0912    magn:    0.0000    constr:    0.0000
     atom:   15    charge:    3.1194    magn:   -0.0000    constr:    0.0000
     atom:   16    charge:    2.0882    magn:    0.0000    constr:    0.0000
     atom:   17    charge:    2.0624    magn:    0.0001    constr:    0.0000
     atom:   18    charge:    3.1239    magn:   -0.0000    constr:    0.0000
     atom:   19    charge:    2.0878    magn:   -0.0000    constr:    0.0000
     atom:   20    charge:    2.0847    magn:   -0.0000    constr:    0.0000
     atom:   21    charge:    2.0847    magn:   -0.0000    constr:    0.0000
     atom:   22    charge:    3.1197    magn:   -0.0000    constr:    0.0000
     atom:   23    charge:    2.0909    magn:    0.0000    constr:    0.0000
     atom:   24    charge:    2.0777    magn:    0.0000    constr:    0.0000
     atom:   25    charge:    2.0869    magn:    0.0000    constr:    0.0000
     atom:   26    charge:    3.1165    magn:   -0.0000    constr:    0.0000
     atom:   27    charge:    2.0824    magn:    0.0000    constr:    0.0000
     atom:   28    charge:    2.0879    magn:    0.0000    constr:    0.0000
     atom:   29    charge:    2.0877    magn:    0.0000    constr:    0.0000
     atom:   30    charge:    3.1168    magn:   -0.0000    constr:    0.0000
     atom:   31    charge:    2.0815    magn:    0.0001    constr:    0.0000
     atom:   32    charge:    2.0843    magn:    0.0000    constr:    0.0000
     atom:   33    charge:    2.0624    magn:    0.0001    constr:    0.0000
     atom:   34    charge:    3.1239    magn:   -0.0000    constr:    0.0000
     atom:   35    charge:    2.0878    magn:   -0.0000    constr:    0.0000
     atom:   36    charge:    2.0847    magn:   -0.0000    constr:    0.0000
     atom:   37    charge:    2.0847    magn:   -0.0000    constr:    0.0000
     atom:   38    charge:    3.1197    magn:   -0.0000    constr:    0.0000
     atom:   39    charge:    2.0912    magn:    0.0000    constr:    0.0000
     atom:   40    charge:    2.0777    magn:    0.0000    constr:    0.0000
     atom:   41    charge:    2.0869    magn:    0.0000    constr:    0.0000
     atom:   42    charge:    3.1181    magn:   -0.0000    constr:    0.0000
     atom:   43    charge:    2.0838    magn:    0.0000    constr:    0.0000
     atom:   44    charge:    2.0865    magn:    0.0000    constr:    0.0000
     atom:   45    charge:    2.0871    magn:    0.0000    constr:    0.0000
     atom:   46    charge:    3.1171    magn:   -0.0000    constr:    0.0000
     atom:   47    charge:    2.0796    magn:    0.0001    constr:    0.0000
     atom:   48    charge:    2.0835    magn:    0.0000    constr:    0.0000
     atom:   49    charge:    2.0509    magn:    0.0000    constr:    0.0000
     atom:   50    charge:    1.2592    magn:   -0.0000    constr:    0.0000
     atom:   51    charge:    1.2856    magn:    0.0000    constr:    0.0000

     total cpu time spent up to now is     2162.6 secs

     total energy              =   -3044.95384551 Ry
     Harris-Foulkes estimate   =   -3044.95384581 Ry
     estimated scf accuracy    <       0.00000799 Ry

     total magnetization       =     0.00 Bohr mag/cell
     absolute magnetization    =     0.00 Bohr mag/cell

     iteration #  9     ecut=    40.42 Ry     beta=0.10
     Davidson diagonalization with overlap
     ethr =  2.00E-09,  avg # of iterations =  2.0

     negative rho (up, down):  1.158E-02 1.158E-02
 
     Magnetic moment per site:
     atom:    1    charge:    3.1250    magn:   -0.0000    constr:    0.0000
     atom:    2    charge:    2.0894    magn:    0.0000    constr:    0.0000
     atom:    3    charge:    3.1196    magn:   -0.0000    constr:    0.0000
     atom:    4    charge:    2.0870    magn:    0.0000    constr:    0.0000
     atom:    5    charge:    3.1170    magn:   -0.0000    constr:    0.0000
     atom:    6    charge:    2.0917    magn:    0.0000    constr:    0.0000
     atom:    7    charge:    3.1184    magn:   -0.0000    constr:    0.0000
     atom:    8    charge:    2.0815    magn:    0.0000    constr:    0.0000
     atom:    9    charge:    3.1250    magn:   -0.0000    constr:    0.0000
     atom:   10    charge:    2.0894    magn:    0.0000    constr:    0.0000
     atom:   11    charge:    3.1196    magn:   -0.0000    constr:    0.0000
     atom:   12    charge:    2.0870    magn:    0.0000    constr:    0.0000
     atom:   13    charge:    3.1148    magn:   -0.0000    constr:    0.0000
     atom:   14    charge:    2.0911    magn:    0.0000    constr:    0.0000
     atom:   15    charge:    3.1194    magn:   -0.0000    constr:    0.0000
     atom:   16    charge:    2.0882    magn:    0.0000    constr:    0.0000
     atom:   17    charge:    2.0624    magn:    0.0001    constr:    0.0000
     atom:   18    charge:    3.1239    magn:   -0.0000    constr:    0.0000
     atom:   19    charge:    2.0878    magn:   -0.0000    constr:    0.0000
     atom:   20    charge:    2.0847    magn:   -0.0000    constr:    0.0000
     atom:   21    charge:    2.0847    magn:   -0.0000    constr:    0.0000
     atom:   22    charge:    3.1197    magn:   -0.0000    constr:    0.0000
     atom:   23    charge:    2.0909    magn:    0.0000    constr:    0.0000
     atom:   24    charge:    2.0777    magn:    0.0000    constr:    0.0000
     atom:   25    charge:    2.0869    magn:    0.0000    constr:    0.0000
     atom:   26    charge:    3.1165    magn:   -0.0000    constr:    0.0000
     atom:   27    charge:    2.0824    magn:    0.0000    constr:    0.0000
     atom:   28    charge:    2.0879    magn:    0.0000    constr:    0.0000
     atom:   29    charge:    2.0877    magn:    0.0000    constr:    0.0000
     atom:   30    charge:    3.1168    magn:   -0.0000    constr:    0.0000
     atom:   31    charge:    2.0815    magn:    0.0001    constr:    0.0000
     atom:   32    charge:    2.0843    magn:    0.0000    constr:    0.0000
     atom:   33    charge:    2.0624    magn:    0.0001    constr:    0.0000
     atom:   34    charge:    3.1239    magn:   -0.0000    constr:    0.0000
     atom:   35    charge:    2.0878    magn:   -0.0000    constr:    0.0000
     atom:   36    charge:    2.0847    magn:   -0.0000    constr:    0.0000
     atom:   37    charge:    2.0847    magn:   -0.0000    constr:    0.0000
     atom:   38    charge:    3.1197    magn:   -0.0000    constr:    0.0000
     atom:   39    charge:    2.0912    magn:    0.0000    constr:    0.0000
     atom:   40    charge:    2.0777    magn:    0.0000    constr:    0.0000
     atom:   41    charge:    2.0869    magn:    0.0000    constr:    0.0000
     atom:   42    charge:    3.1181    magn:   -0.0000    constr:    0.0000
     atom:   43    charge:    2.0838    magn:    0.0000    constr:    0.0000
     atom:   44    charge:    2.0865    magn:    0.0000    constr:    0.0000
     atom:   45    charge:    2.0871    magn:    0.0000    constr:    0.0000
     atom:   46    charge:    3.1171    magn:   -0.0000    constr:    0.0000
     atom:   47    charge:    2.0797    magn:    0.0001    constr:    0.0000
     atom:   48    charge:    2.0836    magn:    0.0000    constr:    0.0000
     atom:   49    charge:    2.0509    magn:    0.0000    constr:    0.0000
     atom:   50    charge:    1.2592    magn:   -0.0000    constr:    0.0000
     atom:   51    charge:    1.2856    magn:    0.0000    constr:    0.0000

     total cpu time spent up to now is     2350.5 secs

     total energy              =   -3044.95384692 Ry
     Harris-Foulkes estimate   =   -3044.95384637 Ry
     estimated scf accuracy    <       0.00000308 Ry

     total magnetization       =     0.00 Bohr mag/cell
     absolute magnetization    =     0.00 Bohr mag/cell

     iteration # 10     ecut=    40.42 Ry     beta=0.10
     Davidson diagonalization with overlap
     ethr =  7.69E-10,  avg # of iterations =  2.0

     negative rho (up, down):  1.158E-02 1.158E-02
 
     Magnetic moment per site:
     atom:    1    charge:    3.1250    magn:   -0.0000    constr:    0.0000
     atom:    2    charge:    2.0894    magn:    0.0000    constr:    0.0000
     atom:    3    charge:    3.1196    magn:   -0.0000    constr:    0.0000
     atom:    4    charge:    2.0870    magn:    0.0000    constr:    0.0000
     atom:    5    charge:    3.1170    magn:   -0.0000    constr:    0.0000
     atom:    6    charge:    2.0917    magn:    0.0000    constr:    0.0000
     atom:    7    charge:    3.1184    magn:   -0.0000    constr:    0.0000
     atom:    8    charge:    2.0815    magn:    0.0000    constr:    0.0000
     atom:    9    charge:    3.1250    magn:   -0.0000    constr:    0.0000
     atom:   10    charge:    2.0894    magn:    0.0000    constr:    0.0000
     atom:   11    charge:    3.1196    magn:   -0.0000    constr:    0.0000
     atom:   12    charge:    2.0870    magn:    0.0000    constr:    0.0000
     atom:   13    charge:    3.1148    magn:   -0.0000    constr:    0.0000
     atom:   14    charge:    2.0911    magn:    0.0000    constr:    0.0000
     atom:   15    charge:    3.1194    magn:   -0.0000    constr:    0.0000
     atom:   16    charge:    2.0883    magn:    0.0000    constr:    0.0000
     atom:   17    charge:    2.0624    magn:    0.0001    constr:    0.0000
     atom:   18    charge:    3.1239    magn:   -0.0000    constr:    0.0000
     atom:   19    charge:    2.0878    magn:   -0.0000    constr:    0.0000
     atom:   20    charge:    2.0847    magn:   -0.0000    constr:    0.0000
     atom:   21    charge:    2.0847    magn:   -0.0000    constr:    0.0000
     atom:   22    charge:    3.1197    magn:   -0.0000    constr:    0.0000
     atom:   23    charge:    2.0909    magn:    0.0000    constr:    0.0000
     atom:   24    charge:    2.0777    magn:    0.0000    constr:    0.0000
     atom:   25    charge:    2.0869    magn:    0.0000    constr:    0.0000
     atom:   26    charge:    3.1165    magn:   -0.0000    constr:    0.0000
     atom:   27    charge:    2.0824    magn:    0.0000    constr:    0.0000
     atom:   28    charge:    2.0879    magn:    0.0000    constr:    0.0000
     atom:   29    charge:    2.0877    magn:    0.0000    constr:    0.0000
     atom:   30    charge:    3.1168    magn:   -0.0000    constr:    0.0000
     atom:   31    charge:    2.0816    magn:    0.0000    constr:    0.0000
     atom:   32    charge:    2.0842    magn:    0.0000    constr:    0.0000
     atom:   33    charge:    2.0624    magn:    0.0001    constr:    0.0000
     atom:   34    charge:    3.1239    magn:   -0.0000    constr:    0.0000
     atom:   35    charge:    2.0878    magn:   -0.0000    constr:    0.0000
     atom:   36    charge:    2.0847    magn:   -0.0000    constr:    0.0000
     atom:   37    charge:    2.0847    magn:   -0.0000    constr:    0.0000
     atom:   38    charge:    3.1197    magn:   -0.0000    constr:    0.0000
     atom:   39    charge:    2.0912    magn:    0.0000    constr:    0.0000
     atom:   40    charge:    2.0777    magn:    0.0000    constr:    0.0000
     atom:   41    charge:    2.0869    magn:    0.0000    constr:    0.0000
     atom:   42    charge:    3.1181    magn:   -0.0000    constr:    0.0000
     atom:   43    charge:    2.0838    magn:    0.0000    constr:    0.0000
     atom:   44    charge:    2.0865    magn:    0.0000    constr:    0.0000
     atom:   45    charge:    2.0871    magn:    0.0000    constr:    0.0000
     atom:   46    charge:    3.1171    magn:   -0.0000    constr:    0.0000
     atom:   47    charge:    2.0797    magn:    0.0000    constr:    0.0000
     atom:   48    charge:    2.0836    magn:    0.0000    constr:    0.0000
     atom:   49    charge:    2.0509    magn:    0.0000    constr:    0.0000
     atom:   50    charge:    1.2592    magn:   -0.0000    constr:    0.0000
     atom:   51    charge:    1.2856    magn:    0.0000    constr:    0.0000

     total cpu time spent up to now is     2534.0 secs

     total energy              =   -3044.95384758 Ry
     Harris-Foulkes estimate   =   -3044.95384706 Ry
     estimated scf accuracy    <       0.00000110 Ry

     total magnetization       =     0.00 Bohr mag/cell
     absolute magnetization    =     0.00 Bohr mag/cell

     iteration # 11     ecut=    40.42 Ry     beta=0.10
     Davidson diagonalization with overlap
     ethr =  2.76E-10,  avg # of iterations =  2.0

     negative rho (up, down):  1.158E-02 1.158E-02
 
     Magnetic moment per site:
     atom:    1    charge:    3.1250    magn:   -0.0000    constr:    0.0000
     atom:    2    charge:    2.0894    magn:    0.0000    constr:    0.0000
     atom:    3    charge:    3.1196    magn:   -0.0000    constr:    0.0000
     atom:    4    charge:    2.0870    magn:    0.0000    constr:    0.0000
     atom:    5    charge:    3.1170    magn:   -0.0000    constr:    0.0000
     atom:    6    charge:    2.0917    magn:    0.0000    constr:    0.0000
     atom:    7    charge:    3.1185    magn:   -0.0000    constr:    0.0000
     atom:    8    charge:    2.0816    magn:    0.0000    constr:    0.0000
     atom:    9    charge:    3.1250    magn:   -0.0000    constr:    0.0000
     atom:   10    charge:    2.0894    magn:    0.0000    constr:    0.0000
     atom:   11    charge:    3.1196    magn:   -0.0000    constr:    0.0000
     atom:   12    charge:    2.0870    magn:    0.0000    constr:    0.0000
     atom:   13    charge:    3.1148    magn:   -0.0000    constr:    0.0000
     atom:   14    charge:    2.0912    magn:    0.0000    constr:    0.0000
     atom:   15    charge:    3.1194    magn:   -0.0000    constr:    0.0000
     atom:   16    charge:    2.0882    magn:    0.0000    constr:    0.0000
     atom:   17    charge:    2.0624    magn:    0.0000    constr:    0.0000
     atom:   18    charge:    3.1239    magn:   -0.0000    constr:    0.0000
     atom:   19    charge:    2.0878    magn:   -0.0000    constr:    0.0000
     atom:   20    charge:    2.0847    magn:   -0.0000    constr:    0.0000
     atom:   21    charge:    2.0847    magn:   -0.0000    constr:    0.0000
     atom:   22    charge:    3.1197    magn:   -0.0000    constr:    0.0000
     atom:   23    charge:    2.0908    magn:    0.0000    constr:    0.0000
     atom:   24    charge:    2.0777    magn:    0.0000    constr:    0.0000
     atom:   25    charge:    2.0869    magn:    0.0000    constr:    0.0000
     atom:   26    charge:    3.1165    magn:   -0.0000    constr:    0.0000
     atom:   27    charge:    2.0824    magn:    0.0000    constr:    0.0000
     atom:   28    charge:    2.0879    magn:    0.0000    constr:    0.0000
     atom:   29    charge:    2.0877    magn:    0.0000    constr:    0.0000
     atom:   30    charge:    3.1168    magn:   -0.0000    constr:    0.0000
     atom:   31    charge:    2.0815    magn:    0.0000    constr:    0.0000
     atom:   32    charge:    2.0842    magn:    0.0000    constr:    0.0000
     atom:   33    charge:    2.0624    magn:    0.0000    constr:    0.0000
     atom:   34    charge:    3.1239    magn:   -0.0000    constr:    0.0000
     atom:   35    charge:    2.0878    magn:   -0.0000    constr:    0.0000
     atom:   36    charge:    2.0847    magn:   -0.0000    constr:    0.0000
     atom:   37    charge:    2.0847    magn:   -0.0000    constr:    0.0000
     atom:   38    charge:    3.1197    magn:   -0.0000    constr:    0.0000
     atom:   39    charge:    2.0912    magn:    0.0000    constr:    0.0000
     atom:   40    charge:    2.0777    magn:    0.0000    constr:    0.0000
     atom:   41    charge:    2.0869    magn:    0.0000    constr:    0.0000
     atom:   42    charge:    3.1181    magn:   -0.0000    constr:    0.0000
     atom:   43    charge:    2.0838    magn:    0.0000    constr:    0.0000
     atom:   44    charge:    2.0865    magn:    0.0000    constr:    0.0000
     atom:   45    charge:    2.0871    magn:    0.0000    constr:    0.0000
     atom:   46    charge:    3.1171    magn:   -0.0000    constr:    0.0000
     atom:   47    charge:    2.0796    magn:    0.0000    constr:    0.0000
     atom:   48    charge:    2.0836    magn:    0.0000    constr:    0.0000
     atom:   49    charge:    2.0509    magn:    0.0000    constr:    0.0000
     atom:   50    charge:    1.2592    magn:   -0.0000    constr:    0.0000
     atom:   51    charge:    1.2856    magn:    0.0000    constr:    0.0000

     total cpu time spent up to now is     2724.8 secs

     End of self-consistent calculation

 ------ SPIN UP ------------


          k = 0.0000 0.0000 0.0000 ( 34665 PWs)   bands (ev):

   -57.8251 -57.7902 -57.5160 -57.4605 -57.3931 -57.3568 -57.2808 -57.2454
   -57.1832 -57.1479 -57.1198 -57.0845 -56.8851 -56.8137 -56.2871 -56.2518
   -34.2615 -34.1063 -34.0777 -34.0629 -34.0266 -33.9323 -33.8716 -33.8686
   -33.8306 -33.7742 -33.7366 -33.7264 -33.7223 -33.6909 -33.6744 -33.6714
   -33.6522 -33.6422 -33.6225 -33.5593 -33.5298 -33.4638 -33.4622 -33.4414
   -33.4345 -33.4319 -33.3891 -33.3856 -33.3811 -33.3632 -33.3587 -33.3384
   -33.3157 -33.3097 -33.2821 -33.2765 -33.2511 -33.1464 -33.1418 -33.0860
   -33.0410 -32.9397 -32.7058 -32.6382 -32.6122 -32.5097 -32.4180 -32.3097
   -24.2075 -20.9535 -18.1794 -17.9776 -17.7552 -17.6328 -17.4992 -17.4972
   -17.2152 -17.1940 -17.1498 -17.0567 -17.0546 -17.0120 -16.9982 -16.9240
   -16.8762 -16.8645 -16.8432 -16.8019 -16.7390 -16.6927 -16.5756 -16.5516
   -16.5229 -16.5141 -16.4243 -16.3140 -16.2785 -16.2469 -16.1095 -16.0794
   -14.8694 -14.7845  -9.7618  -7.4544  -7.4524  -5.9858  -5.5711  -5.5138
    -5.3650  -5.3560  -5.2978  -5.0018  -4.9408  -4.5913  -4.5868  -4.5511
    -4.5427  -4.4945  -4.3697  -4.2741  -4.2255  -4.2079  -4.1715  -4.1704
    -4.1646  -4.1580  -4.0931  -4.0882  -4.0136  -3.9911  -3.9603  -3.9168
    -3.8830  -3.8116  -3.7763  -3.7518  -3.7226  -3.6461  -3.6250  -3.5479
    -3.5452  -3.5214  -3.4532  -3.3349  -3.2063  -3.1701  -3.0660  -3.0071
    -2.9541  -2.8816  -2.8168  -2.7985  -2.7452  -2.7438  -2.7275  -2.6017
    -2.5643  -2.5095  -2.4340  -2.4011  -2.3725  -2.3540  -2.3262  -2.2852
    -2.2762  -2.2505  -2.2119  -2.1792  -2.1735  -2.0501  -1.9955  -1.8965
    -1.7521  -1.7504  -1.7249  -1.6816  -1.6559  -1.6445  -1.5670  -1.5477
    -1.4452  -1.4359  -1.4137  -1.4035  -1.3855  -1.2862  -1.2365  -1.2253
    -1.2037  -1.1354  -1.0747  -1.0189  -0.9201  -0.7463  -0.7162  -0.7120
    -0.6494  -0.5227  -0.3738  -0.2372  -0.1753  -0.0105   0.1162   0.1313
     1.5168   1.5457   1.8303   1.8661   1.8790   1.8978   2.0661   2.0859
     2.1202   2.2363   2.3560   2.3696   2.4053   2.4241   2.4614   2.4727
     2.5234   2.5599   2.5650   2.6450   2.6652   2.6751   2.7576   2.8004
     2.8644   2.8920   2.9843   2.9929   2.9940   3.0166   3.0622   3.0794
     3.0907   3.0950   3.1026   3.1371   3.2351   3.2959   3.3007   3.3208
     3.3513   3.3812   3.4147   3.5288   3.5313   3.6678   3.8756   3.9830
     3.9901   4.0410   4.0605   4.1776   4.2507   4.4576   4.5347   4.6554
     4.9031   4.9416   5.0095   5.1310   5.2039   5.3878   5.3929   5.4196
     5.4933   5.5806   5.6240   5.6345   5.7124   5.7292   5.7353   5.7571
     5.9197   5.9610   6.0091   6.0164   6.0955   6.1400   6.2039   6.2174
     6.4725   6.6180   6.7681   6.7831   6.8789   7.1616   7.2794   7.3450
     7.9206   7.9844   8.1607   8.4208   8.7013   8.9108   8.9120   8.9524
     9.2121   9.2606   9.2841   9.3565

          k = 0.0000 0.0280 0.0000 ( 34717 PWs)   bands (ev):

   -57.8228 -57.7925 -57.5145 -57.4620 -57.3908 -57.3592 -57.2784 -57.2478
   -57.1808 -57.1502 -57.1175 -57.0868 -56.8838 -56.8150 -56.2847 -56.2541
   -34.2361 -34.1042 -34.0796 -34.0372 -34.0205 -33.9388 -33.8986 -33.8434
   -33.8242 -33.7503 -33.7392 -33.7307 -33.7211 -33.6916 -33.6760 -33.6725
   -33.6491 -33.6181 -33.6161 -33.5523 -33.5386 -33.4891 -33.4600 -33.4511
   -33.4363 -33.4259 -33.4082 -33.3815 -33.3629 -33.3621 -33.3574 -33.3449
   -33.3154 -33.3148 -33.3072 -33.2783 -33.2767 -33.1459 -33.1387 -33.0866
   -33.0453 -32.9680 -32.6801 -32.6365 -32.6140 -32.5036 -32.4243 -32.3373
   -24.2075 -20.9534 -18.1178 -17.9196 -17.7023 -17.5795 -17.4783 -17.4503
   -17.2326 -17.1923 -17.1637 -17.1227 -17.0597 -17.0086 -16.9873 -16.9098
   -16.8949 -16.8480 -16.8325 -16.8021 -16.7697 -16.7503 -16.5999 -16.5443
   -16.5213 -16.5023 -16.4539 -16.3101 -16.2962 -16.2644 -16.1347 -16.1219
   -14.8792 -14.8078  -9.7617  -7.4558  -7.4523  -5.9849  -5.4830  -5.4295
    -5.2866  -5.2769  -5.2205  -4.8836  -4.8657  -4.6158  -4.5862  -4.5181
    -4.4905  -4.4562  -4.3205  -4.2952  -4.2911  -4.2410  -4.2352  -4.1980
    -4.1600  -4.1478  -4.1114  -4.0984  -4.0821  -4.0577  -4.0125  -3.9893
    -3.9319  -3.9263  -3.8646  -3.8062  -3.7395  -3.7242  -3.7038  -3.5693
    -3.4888  -3.4726  -3.3819  -3.3108  -3.1320  -3.0869  -2.9941  -2.9547
    -2.8310  -2.7912  -2.7581  -2.7521  -2.6734  -2.6419  -2.6363  -2.6184
    -2.5720  -2.5607  -2.5217  -2.4541  -2.4165  -2.3464  -2.3255  -2.2835
    -2.2366  -2.2183  -2.2035  -2.1242  -2.0537  -2.0194  -1.9427  -1.8755
    -1.8446  -1.8219  -1.7915  -1.7730  -1.7005  -1.6761  -1.6346  -1.6011
    -1.5603  -1.5001  -1.4663  -1.4113  -1.3915  -1.3598  -1.2789  -1.2399
    -1.1934  -1.1562  -1.0696  -1.0336  -0.9498  -0.9150  -0.8479  -0.7629
    -0.7337  -0.5375  -0.4146  -0.2307  -0.2262   0.0003   0.0707   0.0957
     1.6025   1.6494   1.8596   1.8684   1.9226   1.9993   2.0439   2.1117
     2.1694   2.2646   2.3185   2.3735   2.3751   2.4389   2.4475   2.4807
     2.5087   2.5242   2.5863   2.5976   2.6675   2.7245   2.7669   2.7824
     2.8222   2.8735   2.9374   2.9539   2.9856   3.0165   3.0414   3.0698
     3.0906   3.1009   3.1861   3.2012   3.2527   3.3132   3.3470   3.4013
     3.4146   3.4666   3.4999   3.5052   3.5675   3.6347   3.8260   3.9414
     3.9886   4.0524   4.1290   4.1572   4.1825   4.4005   4.5923   4.7535
     4.9093   5.0188   5.1075   5.1959   5.2081   5.4042   5.4271   5.4773
     5.4884   5.5614   5.5954   5.6200   5.6671   5.6926   5.7317   5.8194
     5.8592   5.9280   5.9750   6.0140   6.0227   6.0276   6.1145   6.2868
     6.4527   6.5432   6.7169   6.7863   6.8074   7.0673   7.2830   7.3732
     7.6819   7.9798   8.1019   8.2925   8.4146   8.7132   9.0013   9.0250
     9.0797   9.2969   9.3608   9.4086

          k = 0.0000 0.0560 0.0000 ( 34721 PWs)   bands (ev):

   -57.8164 -57.7989 -57.5112 -57.4654 -57.3847 -57.3653 -57.2720 -57.2543
   -57.1744 -57.1566 -57.1111 -57.0933 -56.8812 -56.8177 -56.2783 -56.2606
   -34.1663 -34.0989 -34.0846 -34.0034 -33.9716 -33.9666 -33.9563 -33.8082
   -33.7778 -33.7679 -33.7546 -33.7185 -33.7088 -33.6953 -33.6774 -33.6741
   -33.5986 -33.5791 -33.5788 -33.5495 -33.5402 -33.5328 -33.4815 -33.4751
   -33.4547 -33.4410 -33.4095 -33.3835 -33.3771 -33.3626 -33.3598 -33.3557
   -33.3423 -33.3279 -33.3060 -33.3035 -33.2683 -33.1452 -33.1349 -33.0879
   -33.0587 -33.0357 -32.6317 -32.6188 -32.6093 -32.4871 -32.4412 -32.4114
   -24.2074 -20.9532 -17.9464 -17.7595 -17.5626 -17.4510 -17.4305 -17.4251
   -17.3222 -17.2944 -17.1835 -17.0821 -17.0809 -17.0482 -17.0248 -16.9841
   -16.8652 -16.8627 -16.8534 -16.8168 -16.7539 -16.6878 -16.6639 -16.6213
   -16.5346 -16.4748 -16.4490 -16.3332 -16.3238 -16.2832 -16.2468 -16.1845
   -14.8968 -14.8581  -9.7615  -7.4587  -7.4520  -5.9831  -5.2403  -5.1941
    -5.0788  -5.0484  -5.0119  -4.7399  -4.6665  -4.6300  -4.5548  -4.5449
    -4.5168  -4.5011  -4.4716  -4.3935  -4.3614  -4.3572  -4.3306  -4.3266
    -4.2587  -4.2222  -4.2020  -4.1500  -4.1360  -4.0967  -4.0709  -4.0200
    -3.9577  -3.9299  -3.8598  -3.7847  -3.7283  -3.6054  -3.5789  -3.4853
    -3.4223  -3.3888  -3.3690  -3.2716  -3.1767  -3.0205  -2.9782  -2.9645
    -2.9372  -2.8817  -2.7856  -2.7355  -2.6839  -2.6512  -2.6051  -2.4703
    -2.4573  -2.4494  -2.4160  -2.3931  -2.3422  -2.3068  -2.2838  -2.2784
    -2.2058  -2.1834  -2.1022  -2.0703  -2.0476  -2.0395  -2.0131  -1.9896
    -1.9430  -1.9051  -1.8684  -1.7881  -1.7199  -1.6862  -1.6720  -1.6580
    -1.6436  -1.5744  -1.5202  -1.5045  -1.4838  -1.4457  -1.3743  -1.3590
    -1.2837  -1.2431  -1.1697  -1.1440  -1.0665  -1.0009  -0.9310  -0.8991
    -0.8009  -0.7169  -0.5996  -0.3961  -0.0453   0.0109   0.0417   0.0449
     1.7392   1.8832   1.9017   1.9813   2.0111   2.0538   2.1324   2.1978
     2.2184   2.2551   2.2589   2.2732   2.2999   2.3532   2.3764   2.5067
     2.5200   2.5517   2.5909   2.6453   2.6654   2.7343   2.7520   2.7956
     2.8024   2.8239   2.8449   2.9385   2.9581   3.0088   3.0831   3.0927
     3.1075   3.1701   3.1919   3.2186   3.3224   3.3659   3.4066   3.4674
     3.4854   3.5532   3.6128   3.6648   3.6847   3.7193   3.7397   3.8465
     3.9799   3.9934   4.0091   4.0964   4.2355   4.3180   4.7164   4.8414
     5.0276   5.1648   5.2504   5.2988   5.3284   5.3970   5.4162   5.4738
     5.5230   5.5955   5.6085   5.6171   5.6408   5.6902   5.7241   5.7367
     5.7530   5.7912   5.8284   5.8935   5.9785   6.0213   6.1915   6.3001
     6.3745   6.4096   6.6402   6.6475   6.7683   6.9106   7.0201   7.2637
     7.5248   7.6722   7.7740   8.2711   8.4227   8.6042   8.8920   9.0347
     9.2037   9.3496   9.4460   9.5803

          k = 0.0000-0.0840 0.0000 ( 34678 PWs)   bands (ev):

   -57.8077 -57.8077 -57.5094 -57.4672 -57.3789 -57.3711 -57.2632 -57.2631
   -57.1669 -57.1642 -57.1032 -57.1012 -56.8798 -56.8191 -56.2695 -56.2694
   -34.0918 -34.0918 -34.0697 -34.0697 -33.9799 -33.9799 -33.8838 -33.8510
   -33.7912 -33.7731 -33.7207 -33.7136 -33.6985 -33.6810 -33.6742 -33.6627
   -33.5800 -33.5798 -33.5756 -33.5684 -33.5051 -33.5047 -33.4833 -33.4809
   -33.4585 -33.4507 -33.4478 -33.4475 -33.3871 -33.3848 -33.3584 -33.3553
   -33.3461 -33.3440 -33.2995 -33.2977 -33.2006 -33.1675 -33.1419 -33.0916
   -33.0878 -33.0557 -32.6252 -32.6252 -32.5113 -32.5113 -32.4641 -32.4641
   -24.2074 -20.9531 -17.7084 -17.6968 -17.5390 -17.5382 -17.4240 -17.4049
   -17.2505 -17.2434 -17.1820 -17.1814 -17.1472 -17.1438 -16.9674 -16.9673
   -16.9442 -16.9401 -16.7809 -16.7500 -16.7243 -16.7199 -16.6480 -16.6412
   -16.5542 -16.5098 -16.3810 -16.3793 -16.3343 -16.3331 -16.2526 -16.2515
   -14.8949 -14.8949  -9.7614  -7.4601  -7.4518  -5.9823  -4.9293  -4.9265
    -4.8608  -4.8607  -4.8101  -4.7942  -4.7683  -4.7613  -4.7281  -4.7025
    -4.5315  -4.5131  -4.4990  -4.4971  -4.4272  -4.4256  -4.4211  -4.4186
    -4.2646  -4.2247  -4.1611  -4.1596  -4.1473  -4.1261  -4.0132  -3.9574
    -3.9557  -3.9204  -3.8447  -3.7992  -3.6583  -3.6205  -3.4666  -3.4552
    -3.2991  -3.2935  -3.2330  -3.1559  -3.1352  -3.1072  -2.9704  -2.9500
    -2.9410  -2.8839  -2.8630  -2.8183  -2.7177  -2.6856  -2.6707  -2.6524
    -2.6277  -2.6199  -2.5751  -2.4591  -2.4475  -2.4180  -2.1616  -2.1268
    -2.1039  -2.0617  -2.0178  -1.9851  -1.9377  -1.9372  -1.9312  -1.8818
    -1.8737  -1.8689  -1.8513  -1.7951  -1.7806  -1.7121  -1.6345  -1.6339
    -1.5942  -1.5740  -1.5599  -1.5575  -1.5506  -1.5457  -1.5257  -1.4219
    -1.3768  -1.2676  -1.2541  -1.2260  -1.1323  -1.1269  -1.1030  -1.0980
    -0.6871  -0.6396  -0.6001  -0.5963   0.0106   0.0109   0.0477   0.0479
     1.9043   1.9080   2.0044   2.0073   2.0968   2.0970   2.1011   2.1238
     2.2191   2.2191   2.2237   2.2388   2.3364   2.3777   2.4272   2.4300
     2.5209   2.5256   2.5876   2.5902   2.5988   2.7453   2.7576   2.8194
     2.8267   2.8604   2.9011   2.9434   2.9706   2.9906   3.0479   3.0649
     3.0746   3.2078   3.2499   3.3203   3.3270   3.3284   3.3297   3.4819
     3.6145   3.6172   3.6843   3.6978   3.7259   3.7844   3.7859   3.8653
     3.9197   3.9221   3.9855   3.9860   4.1293   4.4043   4.7899   4.8146
     5.1497   5.1655   5.2847   5.3218   5.3801   5.3801   5.4897   5.5149
     5.5488   5.5660   5.5800   5.6376   5.6557   5.6984   5.7021   5.7036
     5.7484   5.8284   5.8428   5.8595   5.9984   6.0040   6.0359   6.0970
     6.4152   6.4201   6.5511   6.5875   6.8555   6.8626   6.9732   6.9810
     7.4796   7.4983   7.6352   8.1941   8.3312   8.6593   9.0428   9.1162
     9.3746   9.4283   9.6095   9.6593

          k = 0.0253 0.0000 0.0000 ( 34707 PWs)   bands (ev):

   -57.8251 -57.7902 -57.5160 -57.4605 -57.3931 -57.3568 -57.2807 -57.2454
   -57.1832 -57.1479 -57.1198 -57.0845 -56.8851 -56.8137 -56.2871 -56.2518
   -34.2618 -34.1063 -34.0777 -34.0630 -34.0259 -33.9324 -33.8717 -33.8692
   -33.8306 -33.7757 -33.7363 -33.7260 -33.7214 -33.6919 -33.6826 -33.6748
   -33.6523 -33.6284 -33.6207 -33.5537 -33.5302 -33.4639 -33.4620 -33.4411
   -33.4345 -33.4321 -33.3890 -33.3886 -33.3811 -33.3686 -33.3575 -33.3385
   -33.3156 -33.3096 -33.2823 -33.2765 -33.2512 -33.1475 -33.1419 -33.0860
   -33.0410 -32.9398 -32.7057 -32.6393 -32.6117 -32.5097 -32.4180 -32.3099
   -24.2075 -20.9534 -18.1512 -17.9361 -17.7148 -17.5950 -17.4986 -17.4937
   -17.2720 -17.2341 -17.1490 -17.0654 -17.0562 -17.0487 -17.0211 -16.9642
   -16.9190 -16.9002 -16.8232 -16.7925 -16.7066 -16.6113 -16.6096 -16.5238
   -16.5211 -16.5195 -16.4671 -16.3144 -16.2689 -16.2475 -16.1089 -16.0794
   -14.8682 -14.7844  -9.7612  -7.4546  -7.4522  -5.9853  -5.5412  -5.3976
    -5.2559  -5.2419  -5.1902  -4.9937  -4.9394  -4.7845  -4.5832  -4.5704
    -4.5195  -4.4963  -4.4466  -4.4400  -4.3374  -4.2015  -4.1912  -4.1701
    -4.0934  -4.0778  -4.0724  -3.9896  -3.9727  -3.9419  -3.8790  -3.8445
    -3.8371  -3.8153  -3.7772  -3.7328  -3.7042  -3.6232  -3.5832  -3.4911
    -3.4631  -3.4266  -3.3387  -3.2632  -3.2221  -3.1593  -3.1391  -3.0440
    -3.0232  -2.9208  -2.8918  -2.7869  -2.7602  -2.7268  -2.7032  -2.6782
    -2.6538  -2.6116  -2.5044  -2.4874  -2.4531  -2.3767  -2.3622  -2.3187
    -2.2567  -2.2186  -2.2140  -2.1302  -2.1006  -2.0314  -1.9395  -1.8965
    -1.8047  -1.7801  -1.7557  -1.7293  -1.7071  -1.6351  -1.6128  -1.4987
    -1.4884  -1.4785  -1.4355  -1.4084  -1.3705  -1.3424  -1.2744  -1.2584
    -1.2325  -1.1203  -1.0985  -0.9986  -0.9626  -0.9016  -0.8138  -0.7745
    -0.6948  -0.5665  -0.3682  -0.2650  -0.2053  -0.0246   0.0737   0.0746
     1.5341   1.6011   1.8782   1.8964   1.9891   2.0070   2.0546   2.1334
     2.2145   2.2439   2.3135   2.3223   2.3661   2.4156   2.4322   2.4493
     2.4614   2.5312   2.5335   2.5974   2.6287   2.6722   2.7024   2.8261
     2.8413   2.8974   2.9946   3.0008   3.0090   3.0752   3.0855   3.0953
     3.1459   3.1869   3.2037   3.2399   3.2928   3.3261   3.3319   3.3840
     3.3920   3.4309   3.4626   3.4935   3.5908   3.6139   3.8062   3.8907
     4.0353   4.0648   4.0694   4.1684   4.2355   4.4109   4.6405   4.6813
     4.7660   4.9245   4.9394   4.9894   5.0095   5.0613   5.2214   5.4933
     5.5662   5.6332   5.7266   5.7375   5.7898   5.8309   5.9408   5.9509
     5.9783   6.0346   6.0377   6.0696   6.1330   6.1477   6.2450   6.3143
     6.4868   6.6328   6.7399   6.7759   6.8829   7.0971   7.1614   7.3270
     7.6615   8.0334   8.1542   8.3443   8.4015   8.7519   8.8331   8.9258
     8.9645   9.2490   9.2906   9.4222

          k = 0.0253 0.0280 0.0000 ( 34687 PWs)   bands (ev):

   -57.8228 -57.7925 -57.5145 -57.4620 -57.3908 -57.3592 -57.2784 -57.2478
   -57.1809 -57.1502 -57.1175 -57.0868 -56.8838 -56.8150 -56.2847 -56.2541
   -34.2364 -34.1043 -34.0796 -34.0372 -34.0198 -33.9387 -33.8986 -33.8440
   -33.8243 -33.7515 -33.7393 -33.7304 -33.7200 -33.6920 -33.6793 -33.6759
[...]
    -2.6745  -2.6305  -2.6247  -2.6134  -2.5779  -2.5434  -2.5066  -2.4898
    -2.4892  -2.4192  -2.3842  -2.3755  -2.3355  -2.3050  -2.2603  -2.2566
    -2.2346  -2.1471  -2.1434  -2.1409  -2.0156  -1.9759  -1.8267  -1.8000
    -1.7366  -1.6896  -1.4351  -1.3909  -1.3258  -1.3246  -1.1685  -1.1541
    -1.1472  -1.1455  -1.1202  -1.0882  -1.0441  -0.9126  -0.8918  -0.7610
    -0.7494  -0.7352  -0.6671  -0.6665  -0.0650  -0.0650   0.0726   0.0729
     1.9857   1.9978   2.0418   2.0491   2.0716   2.0746   2.0859   2.0894
     2.3551   2.3670   2.3735   2.3855   2.4505   2.4558   2.5220   2.5322
     2.5578   2.5584   2.6063   2.6600   2.7227   2.8352   2.8481   2.8657
     2.8765   2.9525   3.0274   3.1024   3.1087   3.1618   3.1914   3.2566
     3.2810   3.2999   3.3325   3.3607   3.3943   3.3974   3.4406   3.4751
     3.5578   3.5810   3.6837   3.7267   3.7917   3.8141   3.8159   3.8168
     3.9474   3.9524   3.9720   3.9720   4.2911   4.5433   4.6582   4.6587
     4.7140   4.7360   4.7732   4.7816   4.7831   4.8057   5.0738   5.1046
     5.2282   5.2604   5.6178   5.6341   5.8094   5.8235   5.9409   6.0457
     6.1680   6.2068   6.2134   6.2438   6.4157   6.4518   6.4741   6.5295
     6.5310   6.5510   6.7070   6.7078   6.7629   6.7645   7.0387   7.1023
     7.6458   7.6825   7.8033   7.8151   8.0426   8.0962   8.3246   8.4027
     8.5437   8.6115   8.6867   9.1810

          k =-0.0253 0.0280 0.0000 ( 34687 PWs)   bands (ev):

   -57.8228 -57.7925 -57.5146 -57.4621 -57.3908 -57.3592 -57.2784 -57.2478
   -57.1809 -57.1502 -57.1175 -57.0869 -56.8839 -56.8151 -56.2848 -56.2543
   -34.2364 -34.1043 -34.0796 -34.0373 -34.0198 -33.9387 -33.8986 -33.8441
   -33.8243 -33.7516 -33.7393 -33.7305 -33.7200 -33.6920 -33.6794 -33.6759
   -33.6494 -33.6144 -33.6093 -33.5469 -33.5388 -33.4892 -33.4600 -33.4498
   -33.4363 -33.4260 -33.4091 -33.3847 -33.3665 -33.3626 -33.3569 -33.3449
   -33.3155 -33.3148 -33.3073 -33.2783 -33.2767 -33.1469 -33.1389 -33.0867
   -33.0454 -32.9680 -32.6801 -32.6375 -32.6136 -32.5038 -32.4244 -32.3374
   -24.2074 -20.9533 -18.0909 -17.8791 -17.6633 -17.5431 -17.4778 -17.4448
   -17.2563 -17.2353 -17.2080 -17.0864 -17.0634 -17.0451 -16.9929 -16.9557
   -16.9276 -16.8623 -16.8420 -16.8250 -16.7498 -16.6622 -16.6319 -16.5479
   -16.5108 -16.4996 -16.4839 -16.3098 -16.2870 -16.2648 -16.1343 -16.1223
   -14.8779 -14.8076  -9.7611  -7.4559  -7.4521  -5.9844  -5.4567  -5.3128
    -5.1754  -5.1631  -5.1121  -4.8786  -4.8642  -4.7318  -4.5718  -4.5243
    -4.4775  -4.4479  -4.4171  -4.3582  -4.3253  -4.2881  -4.2289  -4.1966
    -4.1566  -4.1256  -4.0932  -4.0747  -4.0358  -3.9758  -3.9629  -3.9322
    -3.9162  -3.8586  -3.8496  -3.7592  -3.7387  -3.6838  -3.6775  -3.4820
    -3.4537  -3.3882  -3.3393  -3.2808  -3.1646  -3.1103  -3.0702  -2.9359
    -2.8488  -2.8206  -2.7980  -2.7882  -2.7515  -2.6777  -2.6330  -2.6126
    -2.5946  -2.5762  -2.5490  -2.5175  -2.4596  -2.3937  -2.3520  -2.3299
    -2.2651  -2.2493  -2.1969  -2.1061  -2.0653  -2.0337  -1.9947  -1.9151
    -1.8751  -1.8559  -1.7938  -1.7642  -1.7424  -1.7193  -1.6651  -1.6249
    -1.5661  -1.5097  -1.4839  -1.4626  -1.4209  -1.3794  -1.3297  -1.2340
    -1.2111  -1.2034  -1.0576  -0.9964  -0.9756  -0.9128  -0.8893  -0.8687
    -0.7865  -0.5766  -0.4257  -0.2835  -0.2200   0.0049   0.0469   0.0559
     1.5956   1.7222   1.8907   1.9017   2.0172   2.0353   2.1354   2.1715
     2.2339   2.2751   2.3116   2.3230   2.3770   2.3887   2.4068   2.4254
     2.5038   2.5377   2.5705   2.6028   2.6208   2.6335   2.7684   2.8054
     2.8464   2.8884   2.9729   2.9830   2.9917   2.9968   3.0524   3.0876
     3.1682   3.2262   3.2613   3.2673   3.2980   3.3235   3.3737   3.4257
     3.4595   3.4913   3.5145   3.5309   3.5783   3.6277   3.7617   3.8845
     4.0167   4.0457   4.0898   4.1660   4.2177   4.3602   4.6840   4.7645
     4.8200   4.9360   4.9815   5.0264   5.0371   5.1266   5.2765   5.5221
     5.5596   5.5962   5.6419   5.7239   5.7377   5.8168   5.8831   5.9237
     5.9526   5.9947   6.0221   6.0336   6.0485   6.0865   6.2941   6.3132
     6.4732   6.5510   6.7354   6.7699   6.8127   7.0578   7.1560   7.3688
     7.5511   8.0125   8.1428   8.2258   8.3180   8.5243   8.5756   8.8363
     9.0229   9.2772   9.4013   9.4718

          k =-0.0253 0.0560 0.0000 ( 34699 PWs)   bands (ev):

   -57.8164 -57.7990 -57.5113 -57.4654 -57.3847 -57.3654 -57.2720 -57.2543
   -57.1745 -57.1567 -57.1111 -57.0933 -56.8813 -56.8178 -56.2784 -56.2607
   -34.1666 -34.0989 -34.0847 -34.0029 -33.9717 -33.9667 -33.9561 -33.8083
   -33.7781 -33.7682 -33.7547 -33.7178 -33.7088 -33.6956 -33.6790 -33.6755
   -33.5972 -33.5797 -33.5790 -33.5460 -33.5400 -33.5284 -33.4823 -33.4720
   -33.4546 -33.4411 -33.4096 -33.3837 -33.3791 -33.3631 -33.3626 -33.3568
   -33.3425 -33.3285 -33.3061 -33.3034 -33.2683 -33.1458 -33.1351 -33.0883
   -33.0588 -33.0357 -32.6325 -32.6186 -32.6093 -32.4872 -32.4413 -32.4115
   -24.2074 -20.9531 -17.9238 -17.7224 -17.5297 -17.4451 -17.4222 -17.4011
   -17.3127 -17.2970 -17.1872 -17.1241 -17.0878 -17.0341 -17.0091 -16.9934
   -16.9016 -16.8931 -16.8571 -16.8080 -16.7746 -16.7364 -16.6853 -16.5933
   -16.5777 -16.4693 -16.4346 -16.3263 -16.3213 -16.2841 -16.2476 -16.1840
   -14.8959 -14.8581  -9.7608  -7.4588  -7.4518  -5.9828  -5.2255  -5.0783
    -4.9647  -4.9384  -4.9059  -4.7338  -4.6661  -4.6505  -4.5341  -4.5281
    -4.5048  -4.4968  -4.3976  -4.3573  -4.3499  -4.3211  -4.2869  -4.2719
    -4.2273  -4.2138  -4.1938  -4.1585  -4.0903  -4.0771  -4.0644  -4.0103
    -3.9741  -3.9174  -3.8487  -3.8097  -3.7260  -3.6322  -3.5468  -3.4705
    -3.4344  -3.4145  -3.3770  -3.2047  -3.1762  -3.0346  -2.9919  -2.9722
    -2.9391  -2.8698  -2.7945  -2.7666  -2.7105  -2.6716  -2.6287  -2.5814
    -2.5596  -2.5170  -2.4726  -2.4574  -2.4152  -2.3966  -2.3165  -2.2744
    -2.2575  -2.2327  -2.1749  -2.1383  -2.0917  -2.0811  -2.0131  -1.9997
    -1.9514  -1.9291  -1.8750  -1.8388  -1.8195  -1.7801  -1.7243  -1.6967
    -1.6638  -1.5882  -1.5675  -1.4919  -1.4706  -1.4243  -1.3829  -1.3444
    -1.2602  -1.2316  -1.1601  -1.0964  -1.0711  -0.9711  -0.9459  -0.8780
    -0.8225  -0.7367  -0.6049  -0.4077  -0.0438  -0.0029   0.0222   0.0452
     1.7354   1.9100   1.9265   2.0492   2.0540   2.0797   2.1658   2.1755
     2.2494   2.2667   2.2888   2.3046   2.3491   2.3937   2.4231   2.5022
     2.5545   2.5756   2.6023   2.6461   2.6642   2.6796   2.7431   2.7826
     2.8032   2.8186   2.8688   2.8779   2.9869   3.0549   3.1214   3.1409
     3.1983   3.2092   3.2414   3.2728   3.3227   3.3633   3.4176   3.4377
     3.5109   3.5369   3.6348   3.6631   3.6972   3.7318   3.7532   3.8193
     3.9358   3.9746   4.0107   4.1358   4.2053   4.3610   4.7748   4.8441
     4.9880   5.0233   5.0965   5.1141   5.1380   5.2239   5.3243   5.4282
     5.4542   5.5148   5.5930   5.6251   5.7158   5.7296   5.7917   5.8218
     5.8776   5.9046   5.9490   6.0115   6.0497   6.2216   6.2465   6.3610
     6.4108   6.4488   6.6495   6.6537   6.8075   6.9078   7.0540   7.2866
     7.3930   7.7232   7.8378   8.1037   8.3673   8.5572   8.6343   8.9043
     9.0234   9.0601   9.3009   9.3905

          k =-0.0506 0.0280 0.0000 ( 34685 PWs)   bands (ev):

   -57.8228 -57.7925 -57.5145 -57.4621 -57.3908 -57.3592 -57.2784 -57.2478
   -57.1809 -57.1502 -57.1175 -57.0869 -56.8839 -56.8151 -56.2848 -56.2543
   -34.2371 -34.1043 -34.0796 -34.0375 -34.0184 -33.9387 -33.8987 -33.8453
   -33.8243 -33.7542 -33.7393 -33.7302 -33.7189 -33.6936 -33.6863 -33.6759
   -33.6502 -33.6109 -33.5958 -33.5392 -33.5348 -33.4895 -33.4598 -33.4474
   -33.4363 -33.4263 -33.4121 -33.3912 -33.3758 -33.3619 -33.3554 -33.3449
   -33.3155 -33.3150 -33.3074 -33.2782 -33.2766 -33.1489 -33.1389 -33.0869
   -33.0454 -32.9681 -32.6800 -32.6394 -32.6127 -32.5038 -32.4244 -32.3374
   -24.2074 -20.9531 -18.0324 -17.7804 -17.5702 -17.4800 -17.4761 -17.4018
   -17.3425 -17.2590 -17.2442 -17.1150 -17.0924 -17.0656 -17.0621 -17.0028
   -16.9838 -16.9705 -16.8719 -16.7643 -16.7207 -16.6730 -16.5885 -16.5717
   -16.5378 -16.4925 -16.4630 -16.3086 -16.2757 -16.2659 -16.1342 -16.1232
   -14.8759 -14.8076  -9.7598  -7.4562  -7.4518  -5.9837  -5.4403  -5.0192
    -4.9462  -4.9354  -4.8663  -4.8415  -4.8229  -4.7805  -4.6434  -4.5825
    -4.5648  -4.5121  -4.4532  -4.3619  -4.3144  -4.2283  -4.1770  -4.1572
    -4.1380  -4.1283  -4.0565  -4.0134  -3.9795  -3.9536  -3.9115  -3.8870
    -3.8666  -3.8312  -3.7849  -3.7251  -3.7083  -3.5902  -3.4542  -3.4194
    -3.3941  -3.3395  -3.3081  -3.2573  -3.1889  -3.1059  -3.0614  -3.0054
    -2.9361  -2.9123  -2.8669  -2.8576  -2.8080  -2.7522  -2.7373  -2.6866
    -2.6443  -2.6153  -2.5895  -2.5418  -2.5010  -2.4783  -2.4328  -2.4086
    -2.3435  -2.3139  -2.2316  -2.2064  -2.1391  -2.1081  -2.0947  -2.0508
    -2.0002  -1.9370  -1.9074  -1.8773  -1.8496  -1.7811  -1.6956  -1.6400
    -1.6046  -1.5731  -1.4989  -1.4718  -1.4309  -1.4092  -1.3261  -1.2715
    -1.1894  -1.1488  -1.0383  -1.0249  -0.9573  -0.9280  -0.8945  -0.8596
    -0.8201  -0.6563  -0.4572  -0.4032  -0.2069  -0.0242   0.0065   0.0201
     1.5801   1.7862   1.9180   1.9364   1.9551   2.0310   2.0643   2.1411
     2.2387   2.2542   2.2949   2.3556   2.4046   2.4476   2.4494   2.5158
     2.5314   2.5645   2.6004   2.6157   2.6649   2.7617   2.8190   2.8255
     2.8674   2.9208   2.9442   3.0080   3.0159   3.0623   3.1390   3.1626
     3.2284   3.2607   3.2953   3.3111   3.3746   3.3975   3.4379   3.4754
     3.4935   3.5276   3.5407   3.5918   3.6343   3.6845   3.7342   3.8193
     3.9258   4.0263   4.1316   4.1440   4.2792   4.3467   4.5225   4.6310
     4.6528   4.6791   4.8458   4.8971   4.9898   5.3089   5.3759   5.4701
     5.5144   5.5724   5.6507   5.7056   5.7325   5.7489   5.8802   5.9282
     5.9783   6.0192   6.2548   6.2704   6.3062   6.3685   6.4293   6.5132
     6.5400   6.6210   6.6836   6.7319   6.8229   6.9610   7.0252   7.3775
     7.4501   7.6940   7.8148   8.0784   8.3120   8.4077   8.5252   8.9201
     9.0820   9.1660   9.3755   9.4670

          k =-0.0506 0.0560 0.0000 ( 34596 PWs)   bands (ev):

   -57.8164 -57.7989 -57.5113 -57.4654 -57.3847 -57.3654 -57.2719 -57.2543
   -57.1745 -57.1567 -57.1111 -57.0933 -56.8813 -56.8178 -56.2784 -56.2607
   -34.1671 -34.0989 -34.0846 -34.0017 -33.9719 -33.9668 -33.9557 -33.8083
   -33.7788 -33.7686 -33.7547 -33.7166 -33.7088 -33.6961 -33.6814 -33.6778
   -33.5944 -33.5807 -33.5791 -33.5398 -33.5391 -33.5182 -33.4850 -33.4657
   -33.4545 -33.4410 -33.4097 -33.3838 -33.3826 -33.3705 -33.3626 -33.3589
   -33.3427 -33.3298 -33.3060 -33.3032 -33.2681 -33.1470 -33.1352 -33.0889
   -33.0588 -33.0356 -32.6336 -32.6182 -32.6092 -32.4872 -32.4413 -32.4114
   -24.2074 -20.9530 -17.8755 -17.6293 -17.4557 -17.4341 -17.4153 -17.3425
   -17.3028 -17.2712 -17.1991 -17.1656 -17.0959 -17.0754 -17.0098 -16.9877
   -16.9853 -16.9170 -16.9071 -16.8441 -16.8028 -16.7763 -16.7091 -16.6634
   -16.5619 -16.4589 -16.4156 -16.3169 -16.3156 -16.2869 -16.2492 -16.1835
   -14.8947 -14.8584  -9.7595  -7.4590  -7.4513  -5.9821  -5.2176  -4.7847
    -4.7341  -4.7251  -4.6885  -4.6506  -4.6405  -4.6034  -4.4999  -4.4802
    -4.4556  -4.4389  -4.3475  -4.2956  -4.2781  -4.2730  -4.2311  -4.2105
    -4.1865  -4.1737  -4.1594  -4.1338  -4.0800  -4.0427  -4.0315  -4.0025
    -3.9473  -3.8866  -3.8212  -3.7860  -3.6827  -3.6539  -3.5110  -3.4872
    -3.4683  -3.3995  -3.3808  -3.2025  -3.1133  -3.0785  -3.0281  -2.9869
    -2.9497  -2.9122  -2.8900  -2.8568  -2.8033  -2.7666  -2.7136  -2.7062
    -2.6340  -2.6193  -2.5931  -2.5133  -2.4857  -2.4658  -2.4474  -2.4239
    -2.4008  -2.3600  -2.2894  -2.2767  -2.2522  -2.2263  -2.1790  -2.1636
    -2.0932  -2.0547  -2.0230  -1.9812  -1.9366  -1.8558  -1.7867  -1.7719
    -1.7040  -1.6039  -1.5306  -1.4842  -1.4515  -1.3729  -1.3361  -1.2291
    -1.1757  -1.1378  -1.0937  -1.0330  -0.9879  -0.9251  -0.9120  -0.8353
    -0.8004  -0.7860  -0.6582  -0.4670  -0.0555  -0.0184  -0.0050   0.0510
     1.7383   1.9338   1.9554   2.0155   2.0724   2.1124   2.1211   2.1753
     2.2219   2.2697   2.3838   2.4213   2.4291   2.4559   2.4746   2.4990
     2.5866   2.6038   2.6365   2.6502   2.6688   2.7215   2.7915   2.8210
     2.8917   2.9048   2.9447   2.9753   3.0241   3.0630   3.1903   3.2183
     3.2372   3.2662   3.3139   3.3268   3.3711   3.3878   3.4066   3.4673
     3.5447   3.5820   3.6090   3.6898   3.7406   3.7702   3.7804   3.7964
     3.8381   3.9708   4.0229   4.1496   4.2091   4.4480   4.6463   4.6772
     4.7488   4.7514   4.8965   5.0004   5.0725   5.1408   5.2101   5.2352
     5.3070   5.4646   5.5705   5.6351   5.7116   5.7415   5.8317   5.9717
     6.0145   6.1159   6.1660   6.2111   6.2555   6.3041   6.4673   6.4869
     6.5509   6.5915   6.6535   6.6816   6.8419   6.8839   6.9994   7.3117
     7.3283   7.7429   7.7753   8.0215   8.0995   8.1778   8.5784   8.6716
     8.8446   8.9141   9.1435   9.3687

     the Fermi energy is     0.8646 ev

!    total energy              =   -3044.95385126 Ry
     Harris-Foulkes estimate   =   -3044.95384769 Ry
     estimated scf accuracy    <       0.00000017 Ry

     The total energy is the sum of the following terms:

     one-electron contribution =  -40855.52710183 Ry
     hartree contribution      =   20500.06410917 Ry
     xc contribution           =    -557.16092407 Ry
     ewald contribution        =   17867.67027116 Ry
     smearing contrib. (-TS)   =      -0.00020569 Ry

     total magnetization       =     0.00 Bohr mag/cell
     absolute magnetization    =     0.00 Bohr mag/cell

     convergence has been achieved in  11 iterations

     Forces acting on atoms (Ry/au):


     negative rho (up, down):  1.158E-02 1.158E-02
     atom    1 type  1   force =    -0.00011378    0.00030058   -0.13604301
     atom    2 type  2   force =     0.00009934   -0.00006244    0.07518638
     atom    3 type  1   force =     0.00123669    0.00106585   -0.05991415
     atom    4 type  2   force =     0.00657809   -0.00004124    0.00967638
     atom    5 type  1   force =    -0.00134239   -0.00013635   -0.00006946
     atom    6 type  2   force =    -0.00187758   -0.00352548   -0.00888782
     atom    7 type  1   force =     0.01116339    0.00802202   -0.01626999
     atom    8 type  2   force =     0.00060622   -0.00010994    0.00067818
     atom    9 type  1   force =     0.00010060    0.00036257   -0.13606447
     atom   10 type  2   force =     0.00015666   -0.00005393    0.07511719
     atom   11 type  1   force =     0.00123077   -0.00082054   -0.06003141
     atom   12 type  2   force =     0.00596813   -0.00010995    0.00855648
     atom   13 type  1   force =     0.00013246   -0.00015242   -0.00045320
     atom   14 type  2   force =    -0.00207555    0.00293365   -0.00893973
     atom   15 type  1   force =     0.01132543   -0.00781390   -0.01652078
     atom   16 type  2   force =     0.00751161    0.00001408    0.01151925
     atom   17 type  2   force =    -0.00005567   -0.00007030    0.08008202
     atom   18 type  1   force =    -0.00000632    0.00026185    0.11907044
     atom   19 type  2   force =     0.00035491    0.00019259   -0.06810239
     atom   20 type  2   force =    -0.06274228    0.00003318   -0.03208513
     atom   21 type  2   force =     0.06274757    0.00017396   -0.03256990
     atom   22 type  1   force =    -0.00045967   -0.00012612    0.06425406
     atom   23 type  2   force =     0.00016405    0.00062581   -0.00260937
     atom   24 type  2   force =     0.00049784   -0.00001211   -0.02240087
     atom   25 type  2   force =    -0.00643925   -0.00024839    0.00825723
     atom   26 type  1   force =    -0.00015630   -0.00004496    0.00248020
     atom   27 type  2   force =     0.00246374   -0.00141518   -0.00244097
     atom   28 type  2   force =    -0.00002992   -0.00002144   -0.00151077
     atom   29 type  2   force =     0.00005522   -0.00006588   -0.00057179
     atom   30 type  1   force =     0.00566384    0.00038661   -0.00055505
     atom   31 type  2   force =    -0.00199475    0.00167342    0.00093362
     atom   32 type  2   force =     0.00139772   -0.00011341    0.00181604
     atom   33 type  2   force =    -0.00001045    0.00016336    0.08014645
     atom   34 type  1   force =    -0.00005192    0.00022220    0.11909548
     atom   35 type  2   force =     0.00033378    0.00031976   -0.06802614
     atom   36 type  2   force =    -0.06275512    0.00011875   -0.03232888
     atom   37 type  2   force =     0.06280343    0.00017929   -0.03206376
     atom   38 type  1   force =    -0.00069298   -0.00000370    0.06409209
     atom   39 type  2   force =     0.00020586   -0.00078576   -0.00262806
     atom   40 type  2   force =     0.00061600   -0.00223285   -0.02257814
     atom   41 type  2   force =    -0.00614736   -0.00030956    0.00769746
     atom   42 type  1   force =    -0.00012813   -0.00008084    0.00253530
     atom   43 type  2   force =     0.00255797    0.00144765   -0.00246244
     atom   44 type  2   force =     0.00035024   -0.00012609   -0.00072710
     atom   45 type  2   force =    -0.00023880   -0.00006397   -0.00090502
     atom   46 type  1   force =    -0.01908961    0.00041355   -0.00489765
     atom   47 type  2   force =    -0.00217668   -0.00143695    0.00088845
     atom   48 type  2   force =    -0.00010607   -0.00043947   -0.02969672
     atom   49 type  2   force =    -0.05450460    0.00046206    0.17590172
     atom   50 type  3   force =    -0.03409125    0.00173707   -0.03093156
     atom   51 type  3   force =     0.07096489   -0.00068673   -0.07469866

     Total force =     0.430043     Total SCF correction =     0.001315
 !ASE

     Writing output data file calc.save
 
     init_run     :     53.81s CPU     68.67s WALL (       1 calls)
     electrons    :   2199.30s CPU   2656.06s WALL (       1 calls)
     forces       :     41.10s CPU     42.33s WALL (       1 calls)

     Called by init_run:
     wfcinit      :     46.12s CPU     60.13s WALL (       1 calls)
     potinit      :      1.27s CPU      1.57s WALL (       1 calls)

     Called by electrons:
     c_bands      :   1888.46s CPU   2271.58s WALL (      11 calls)
     sum_band     :    261.27s CPU    328.46s WALL (      11 calls)
     v_of_rho     :     11.97s CPU     14.97s WALL (      12 calls)
     newd         :     41.01s CPU     44.66s WALL (      12 calls)
     mix_rho      :      0.45s CPU      0.64s WALL (      11 calls)
     vdW_energy   :      2.12s CPU      2.58s WALL (      13 calls)
     vdW_ffts     :      3.19s CPU      4.23s WALL (      26 calls)
     vdW_v        :      1.30s CPU      1.51s WALL (      13 calls)

     Called by c_bands:
     init_us_2    :      6.41s CPU      6.97s WALL (     960 calls)
     cegterg      :   1849.24s CPU   2230.35s WALL (     440 calls)

     Called by *egterg:
     h_psi        :    808.31s CPU   1106.90s WALL (    1999 calls)
     s_psi        :     99.96s CPU    104.28s WALL (    1999 calls)
     g_psi        :      5.29s CPU      5.41s WALL (    1519 calls)
     cdiaghg      :    572.41s CPU    586.15s WALL (    1959 calls)

     Called by h_psi:
     add_vuspsi   :    100.53s CPU    105.19s WALL (    1999 calls)

     General routines
     calbec       :    155.34s CPU    159.00s WALL (    2479 calls)
     fft          :      7.29s CPU      9.43s WALL (    1029 calls)
     ffts         :      0.09s CPU      0.11s WALL (      46 calls)
     fftw         :    528.75s CPU    878.71s WALL (  787948 calls)
     interpolate  :      0.38s CPU      0.62s WALL (      46 calls)
     davcio       :      0.05s CPU      1.73s WALL (      40 calls)
 
     Parallel routines
     fft_scatter  :    275.22s CPU    485.61s WALL (  789023 calls)
 
     PWSCF        : 38m15.09s CPU    46m10.48s WALL

 
   This run was terminated on:   7:29:45  10Mar2018            

=------------------------------------------------------------------------------=
   JOB DONE.
=------------------------------------------------------------------------------=
