  python dir          : /home/vossj/suncat/lib/python2.7/site-packages/espresso
  espresso dir        : /home/vossj/suncat/esdld/espresso-dynpy-beef/bin
  pseudo dir          : /home/alatimer/bin/psp/esp_psp_w_gbrvRu/
  ase-espresso py git : ffa2778-git



     Program PWSCF v.5.1rc2 (svn rev. ) starts on 12Feb2018 at 13:19:54 

     This program is part of the open-source Quantum ESPRESSO suite
     for quantum simulation of materials; please cite
         "P. Giannozzi et al., J. Phys.:Condens. Matter 21 395502 (2009);
          URL http://www.quantum-espresso.org", 
     in publications or presentations arising from this work. More details at
     http://www.quantum-espresso.org/quote

     Parallel version (MPI), running on    16 processors
     R & G space division:  proc/nbgrp/npool/nimage =      16
     Reading input from pw.inp
     Message from routine read_cards :
     DEPRECATED: no units specified in CELL_PARAMETERS card

     Current dimensions of program PWSCF are:
     Max number of different atomic species (ntypx) = 10
     Max number of k-points (npk) =  40000
     Max angular momentum in pseudopotentials (lmaxx) =  3

     **************************************************************************
     Initializing libbeef V0.1.1 with the BEEF-vdW functional.
     Citation: Wellendorff et al., PRB 85, 235149 (2012).
     **************************************************************************


     IMPORTANT: XC functional enforced from input :
     Exchange-correlation      = BEEF ( 1  4 27 13 2)
     Any further DFT definition will be discarded
     Please, verify this is what you really want


     Subspace diagonalization in iterative solution of the eigenvalue problem:
     a serial algorithm will be used

 
     Parallelization info
     --------------------
     sticks:   dense  smooth     PW     G-vecs:    dense   smooth      PW
     Min         281     112     31                68535    17318    2565
     Max         282     113     32                68545    17369    2582
     Sum        4501    1795    503              1096637   277353   41113
 
     Generating pointlists ...
     new r_m :   0.4125 (alat units)  0.7795 (a.u.) for type    1
     new r_m :   0.4115 (alat units)  0.7777 (a.u.) for type    2
     new r_m :   0.4125 (alat units)  0.7795 (a.u.) for type    3
     new r_m :   0.4115 (alat units)  0.7777 (a.u.) for type    4


     bravais-lattice index     =            0
     lattice parameter (alat)  =       1.8897  a.u.
     unit-cell volume          =    7990.9933 (a.u.)^3
     number of atoms/cell      =           54
     number of atomic types    =            4
     number of electrons       =       398.00
     number of Kohn-Sham states=          299
     kinetic-energy cutoff     =      40.4243  Ry
     charge density cutoff     =     404.2426  Ry
     convergence threshold     =      7.3E-07
     mixing beta               =       0.1000
     number of iterations used =           10  plain     mixing
     Exchange-correlation      = BEEF ( 1  4 27 13 2)
     nstep                     =           50


     celldm(1)=   1.889726  celldm(2)=   0.000000  celldm(3)=   0.000000
     celldm(4)=   0.000000  celldm(5)=   0.000000  celldm(6)=   0.000000

     crystal axes: (cart. coord. in units of alat)
               a(1) = (   6.590708   0.000000   0.000000 )  
               a(2) = (   0.000000   5.950229   0.000000 )  
               a(3) = (   0.000000   0.000000  30.195235 )  

     reciprocal axes: (cart. coord. in units 2 pi/alat)
               b(1) = (  0.151729  0.000000  0.000000 )  
               b(2) = (  0.000000  0.168061  0.000000 )  
               b(3) = (  0.000000  0.000000  0.033118 )  


     PseudoPot. # 1 for Ti read from file:
     /home/alatimer/bin/psp/esp_psp_w_gbrvRu/Ti.UPF
     MD5 check sum: 8e4df49b7f0d34bbd5052bf3f5ea0213
     Pseudo is Ultrasoft, Zval = 12.0
     Generated by new atomic code, or converted to UPF format
     Using radial grid of  851 points,  6 beta functions with: 
                l(1) =   0
                l(2) =   0
                l(3) =   1
                l(4) =   1
                l(5) =   2
                l(6) =   2
     Q(r) pseudized with  8 coefficients,  rinner =    1.000   1.000   1.000
                                                       1.000   1.000

     PseudoPot. # 2 for  O read from file:
     /home/alatimer/bin/psp/esp_psp_w_gbrvRu/O.UPF
     MD5 check sum: e057bbcf3229fb5d8c36c0c92f9568b4
     Pseudo is Ultrasoft + core correction, Zval =  6.0
     Generated using "atomic" code by A. Dal Corso  v.5.0.2 svn rev. 9415
     Using radial grid of 1095 points,  4 beta functions with: 
                l(1) =   0
                l(2) =   0
                l(3) =   1
                l(4) =   1
     Q(r) pseudized with 0 coefficients 


     PseudoPot. # 3 for  C read from file:
     /home/alatimer/bin/psp/esp_psp_w_gbrvRu/C.UPF
     MD5 check sum: ab446d787031eba755f1d5ee46644bb0
     Pseudo is Ultrasoft + core correction, Zval =  4.0
     Generated using "atomic" code by A. Dal Corso  v.5.0.2 svn rev. 9415
     Using radial grid of 1073 points,  4 beta functions with: 
                l(1) =   0
                l(2) =   0
                l(3) =   1
                l(4) =   1
     Q(r) pseudized with 0 coefficients 


     PseudoPot. # 4 for  H read from file:
     /home/alatimer/bin/psp/esp_psp_w_gbrvRu/H.UPF
     MD5 check sum: bd57da0722753ddfd9833a65b40bb853
     Pseudo is Ultrasoft, Zval =  1.0
     Generated using "atomic" code by A. Dal Corso  v.5.0.2 svn rev. 9415
     Using radial grid of  929 points,  2 beta functions with: 
                l(1) =   0
                l(2) =   0
     Q(r) pseudized with 0 coefficients 


     vdW kernel table read from file vdW_kernel_table
     MD5 check sum: 095c7af220d748ca6e76c0b4c6cfb241

     atomic species   valence    mass     pseudopotential
        Ti1           12.00    47.88000     Ti( 1.00)
        O1             6.00    15.99940      O( 1.00)
        C1             4.00    12.01100      C( 1.00)
        H1             1.00     1.00794      H( 1.00)

     Starting magnetic structure 
     atomic species   magnetization
        Ti1          0.250
        O1           0.500
        C1           0.750
        H1           0.000

     No symmetry found



   Cartesian axes

     site n.     atom                  positions (alat units)
         1           Ti1 tau(   1) = (   1.6476770   0.7437786   2.6545865  )
         2           O1  tau(   2) = (   1.6476770   2.2313359   3.9361215  )
         3           Ti1 tau(   3) = (   1.6476770   2.2313359   5.9499405  )
         4           O1  tau(   4) = (   0.3661420   0.7437786   5.9499405  )
         5           Ti1 tau(   5) = (   1.7592931   0.7557636   9.1813031  )
         6           O1  tau(   6) = (   1.6162490   2.2572048  10.5951269  )
         7           Ti1 tau(   7) = (   1.5595004   2.2680265  12.4668274  )
         8           O1  tau(   8) = (   0.3709531   0.7738127  12.6996540  )
         9           Ti1 tau(   9) = (   1.6476770   3.7188931   2.6545865  )
        10           O1  tau(  10) = (   1.6476770   5.2064503   3.9361215  )
        11           Ti1 tau(  11) = (   1.6476770   5.2064503   5.9499405  )
        12           O1  tau(  12) = (   0.3661420   3.7188931   5.9499405  )
        13           Ti1 tau(  13) = (   1.7607536   3.7112867   9.1949733  )
        14           O1  tau(  14) = (   1.6133076   5.2250699  10.5465640  )
        15           Ti1 tau(  15) = (   1.6492307   5.2431137  12.3448001  )
        16           O1  tau(  16) = (   0.3719744   3.7598389  12.7007434  )
        17           O1  tau(  17) = (   1.6476770   2.2313359   1.3730516  )
        18           Ti1 tau(  18) = (   4.9430310   2.2313359   2.6545865  )
        19           O1  tau(  19) = (   4.9430310   2.2313359   4.6684056  )
        20           O1  tau(  20) = (   6.2245660   0.7437786   2.6545865  )
        21           O1  tau(  21) = (   3.6614961   0.7437786   2.6545865  )
        22           Ti1 tau(  22) = (   4.9430310   0.7437786   5.9499405  )
        23           O1  tau(  23) = (   1.6387103   2.2391978   8.0037664  )
        24           O1  tau(  24) = (   4.9430310   2.2313359   7.2314755  )
        25           O1  tau(  25) = (   2.9292120   0.7437786   5.9499405  )
        26           Ti1 tau(  26) = (   5.0158092   2.2383949   9.3973727  )
        27           O1  tau(  27) = (   4.9391445   2.2276729  11.2675731  )
        28           O1  tau(  28) = (   6.2094020   0.7514556   9.2742047  )
        29           O1  tau(  29) = (   3.6131301   0.7515640   9.2682932  )
        30           Ti1 tau(  30) = (   4.8940083   0.8207741  12.7348365  )
        31           O1  tau(  31) = (   4.8487174   2.2703822  13.8475395  )
        32           O1  tau(  32) = (   2.8766274   0.7418004  12.6316555  )
        33           O1  tau(  33) = (   1.6476770   5.2064503   1.3730516  )
        34           Ti1 tau(  34) = (   4.9430310   5.2064503   2.6545865  )
        35           O1  tau(  35) = (   4.9430310   5.2064503   4.6684056  )
        36           O1  tau(  36) = (   6.2245660   3.7188931   2.6545865  )
        37           O1  tau(  37) = (   3.6614961   3.7188931   2.6545865  )
        38           Ti1 tau(  38) = (   4.9430310   3.7188931   5.9499405  )
        39           O1  tau(  39) = (   1.6418458   5.2133935   8.0066417  )
        40           O1  tau(  40) = (   4.9430310   5.2064503   7.2314755  )
        41           O1  tau(  41) = (   2.9292120   3.7188931   5.9499405  )
        42           Ti1 tau(  42) = (   5.0218241   5.2139137   9.3870600  )
        43           O1  tau(  43) = (   4.9399496   5.2040061  11.2598200  )
        44           O1  tau(  44) = (   6.2073000   3.7245411   9.2731052  )
        45           O1  tau(  45) = (   3.6137513   3.7232133   9.2682466  )
        46           Ti1 tau(  46) = (   4.8936935   3.8094630  12.7397413  )
        47           O1  tau(  47) = (   4.9051259   5.2510468  13.8339921  )
        48           O1  tau(  48) = (   2.8743370   3.7938830  12.6403791  )
        49           C1  tau(  49) = (   1.0587210   2.2268971  15.9066084  )
        50           O1  tau(  50) = (   1.8617182   2.2355032  14.7378010  )
        51           H1  tau(  51) = (   0.0310076   2.2200215  15.5603933  )
        52           H1  tau(  52) = (   2.8355400   2.2288152  14.9543747  )
        53           H1  tau(  53) = (   1.2478062   1.3326534  16.5039879  )
        54           H1  tau(  54) = (   1.2341453   3.1195140  16.5098874  )

     number of k points=    40  Fermi-Dirac smearing, width (Ry)=  0.0073
                       cart. coord. in units 2pi/alat
        k(    1) = (   0.0000000   0.0000000   0.0000000), wk =   0.0277778
        k(    2) = (   0.0000000   0.0280101   0.0000000), wk =   0.0555556
        k(    3) = (   0.0000000   0.0560203   0.0000000), wk =   0.0555556
        k(    4) = (   0.0000000  -0.0840304   0.0000000), wk =   0.0277778
        k(    5) = (   0.0252881   0.0000000   0.0000000), wk =   0.0555556
        k(    6) = (   0.0252881   0.0280101   0.0000000), wk =   0.0555556
        k(    7) = (   0.0252881   0.0560203   0.0000000), wk =   0.0555556
        k(    8) = (   0.0252881  -0.0840304   0.0000000), wk =   0.0555556
        k(    9) = (   0.0505763   0.0000000   0.0000000), wk =   0.0555556
        k(   10) = (   0.0505763   0.0280101   0.0000000), wk =   0.0555556
        k(   11) = (   0.0505763   0.0560203   0.0000000), wk =   0.0555556
        k(   12) = (   0.0505763  -0.0840304   0.0000000), wk =   0.0555556
        k(   13) = (  -0.0758644   0.0000000   0.0000000), wk =   0.0277778
        k(   14) = (  -0.0758644   0.0280101   0.0000000), wk =   0.0555556
        k(   15) = (  -0.0758644   0.0560203   0.0000000), wk =   0.0555556
        k(   16) = (  -0.0758644  -0.0840304   0.0000000), wk =   0.0277778
        k(   17) = (  -0.0252881   0.0280101   0.0000000), wk =   0.0555556
        k(   18) = (  -0.0252881   0.0560203   0.0000000), wk =   0.0555556
        k(   19) = (  -0.0505763   0.0280101   0.0000000), wk =   0.0555556
        k(   20) = (  -0.0505763   0.0560203   0.0000000), wk =   0.0555556
        k(   21) = (   0.0000000   0.0000000   0.0000000), wk =   0.0277778
        k(   22) = (   0.0000000   0.0280101   0.0000000), wk =   0.0555556
        k(   23) = (   0.0000000   0.0560203   0.0000000), wk =   0.0555556
        k(   24) = (   0.0000000  -0.0840304   0.0000000), wk =   0.0277778
        k(   25) = (   0.0252881   0.0000000   0.0000000), wk =   0.0555556
        k(   26) = (   0.0252881   0.0280101   0.0000000), wk =   0.0555556
        k(   27) = (   0.0252881   0.0560203   0.0000000), wk =   0.0555556
        k(   28) = (   0.0252881  -0.0840304   0.0000000), wk =   0.0555556
        k(   29) = (   0.0505763   0.0000000   0.0000000), wk =   0.0555556
        k(   30) = (   0.0505763   0.0280101   0.0000000), wk =   0.0555556
        k(   31) = (   0.0505763   0.0560203   0.0000000), wk =   0.0555556
        k(   32) = (   0.0505763  -0.0840304   0.0000000), wk =   0.0555556
        k(   33) = (  -0.0758644   0.0000000   0.0000000), wk =   0.0277778
        k(   34) = (  -0.0758644   0.0280101   0.0000000), wk =   0.0555556
        k(   35) = (  -0.0758644   0.0560203   0.0000000), wk =   0.0555556
        k(   36) = (  -0.0758644  -0.0840304   0.0000000), wk =   0.0277778
        k(   37) = (  -0.0252881   0.0280101   0.0000000), wk =   0.0555556
        k(   38) = (  -0.0252881   0.0560203   0.0000000), wk =   0.0555556
        k(   39) = (  -0.0505763   0.0280101   0.0000000), wk =   0.0555556
        k(   40) = (  -0.0505763   0.0560203   0.0000000), wk =   0.0555556

     Dense  grid:  1096637 G-vectors     FFT dimensions: (  80,  72, 375)

     Smooth grid:   277353 G-vectors     FFT dimensions: (  54,  45, 240)

     Largest allocated arrays     est. size (Mb)     dimensions
        Kohn-Sham Wavefunctions         9.95 Mb     (    2180,  299)
        NL pseudopotentials            18.89 Mb     (    2180,  568)
        Each V/rho on FFT grid          4.22 Mb     (  138240,   2)
        Each G-vector array             0.52 Mb     (   68538)
        G-vector shells                 0.25 Mb     (   33046)
     Largest temporary arrays     est. size (Mb)     dimensions
        Auxiliary wavefunctions        39.78 Mb     (    2180, 1196)
        Each subspace H/S matrix       21.83 Mb     (    1196, 1196)
        Each <psi_i|beta_j> matrix      2.59 Mb     (     568,  299)
        Arrays for rho mixing          21.09 Mb     (  138240,   10)

     Check: negative/imaginary core charge=   -0.000049    0.000000

     The initial density is read from file :
     ./calc.save/charge-density.dat


     negative rho (up, down):  1.209E-02 1.209E-02


     ************************************************************************
     *
     * You are using vdW-DF for exchange-correlation in this calculation.
     * Please cite the following three references that made this development
     * possible:
     *
     *   M. Dion, H. Rydberg, E. Schroder, D. C. Langreth, and
     *   B. I. Lundqvist, Phys. Rev. Lett. 92, 246401 (2004).
     *
     *   T. Thonhauser, V. R. Cooper, S. Li, A. Puzder, P. Hyldgaard, and
     *   D. C. Langreth, Phys. Rev. B 76, 125112 (2007).
     *
     *   G. Roman-Perez and J. M. Soler, Phys. Rev. Lett. 103, 096102 (2009).
     *
     *
     * If you are using vdW-DF2, please also cite:
     *
     *   K. Lee, E. D. Murray, L. Kong, B. I. Lundqvist, and
     *   D. C. Langreth, Phys. Rev. B 82, 081101(R) (2010).
     *
     *
     * If you are calculating the stress with vdW-DF, please also cite:
     *
     *   R. Sabatini, E. Kucukbenli, B. Kolb, T. Thonhauser, and
     *   S. de Gironcoli, J. Phys.: Condens. Matter 24, 424209 (2012).
     *
     ************************************************************************

     Carrying out vdW-DF run using the following parameters:

     Nqs =      20    Nr_points =    1024   r_max =   100.000
     q_mesh =
               0.00001000     0.04494208     0.09755937     0.15916263
               0.23128650     0.31572767     0.41458969     0.53033537
               0.66584808     0.82450364     1.01025438     1.22772762
               1.48234092     1.78043706     2.12944203     2.53805004
               3.01644009     3.57652955     4.23227104     5.00000000

     Gradients computed in reciprocal space

     ************************************************************************


     Starting wfc are  300 randomized atomic wfcs

     total cpu time spent up to now is       70.1 secs

     Self-consistent Calculation

     iteration #  1     ecut=    40.42 Ry     beta=0.10
     Davidson diagonalization with overlap
     ethr =  1.00E-05,  avg # of iterations = 14.6

     negative rho (up, down):  1.209E-02 1.209E-02
 
     Magnetic moment per site:
     atom:    1    charge:    3.1250    magn:   -0.0002    constr:    0.0000
     atom:    2    charge:    2.0787    magn:    0.0000    constr:    0.0000
     atom:    3    charge:    3.1198    magn:    0.0000    constr:    0.0000
     atom:    4    charge:    2.0768    magn:   -0.0001    constr:    0.0000
     atom:    5    charge:    3.1166    magn:    0.0000    constr:    0.0000
     atom:    6    charge:    2.0769    magn:   -0.0001    constr:    0.0000
     atom:    7    charge:    3.1160    magn:    0.0001    constr:    0.0000
     atom:    8    charge:    2.0744    magn:   -0.0001    constr:    0.0000
     atom:    9    charge:    3.1250    magn:   -0.0002    constr:    0.0000
     atom:   10    charge:    2.0788    magn:    0.0000    constr:    0.0000
     atom:   11    charge:    3.1197    magn:    0.0000    constr:    0.0000
     atom:   12    charge:    2.0768    magn:   -0.0001    constr:    0.0000
     atom:   13    charge:    3.1158    magn:    0.0000    constr:    0.0000
     atom:   14    charge:    2.0850    magn:   -0.0001    constr:    0.0000
     atom:   15    charge:    3.1190    magn:    0.0001    constr:    0.0000
     atom:   16    charge:    2.0738    magn:   -0.0001    constr:    0.0000
     atom:   17    charge:    2.0518    magn:    0.0005    constr:    0.0000
     atom:   18    charge:    3.1240    magn:   -0.0001    constr:    0.0000
     atom:   19    charge:    2.0766    magn:   -0.0000    constr:    0.0000
     atom:   20    charge:    2.0746    magn:    0.0000    constr:    0.0000
     atom:   21    charge:    2.0746    magn:    0.0000    constr:    0.0000
     atom:   22    charge:    3.1196    magn:    0.0000    constr:    0.0000
     atom:   23    charge:    2.0824    magn:   -0.0001    constr:    0.0000
     atom:   24    charge:    2.0682    magn:   -0.0001    constr:    0.0000
     atom:   25    charge:    2.0770    magn:   -0.0001    constr:    0.0000
     atom:   26    charge:    3.1145    magn:    0.0001    constr:    0.0000
     atom:   27    charge:    2.0739    magn:   -0.0001    constr:    0.0000
     atom:   28    charge:    2.0776    magn:   -0.0001    constr:    0.0000
     atom:   29    charge:    2.0776    magn:   -0.0001    constr:    0.0000
     atom:   30    charge:    3.1167    magn:    0.0000    constr:    0.0000
     atom:   31    charge:    2.0703    magn:   -0.0000    constr:    0.0000
     atom:   32    charge:    2.0755    magn:   -0.0001    constr:    0.0000
     atom:   33    charge:    2.0518    magn:    0.0005    constr:    0.0000
     atom:   34    charge:    3.1239    magn:   -0.0001    constr:    0.0000
     atom:   35    charge:    2.0766    magn:   -0.0000    constr:    0.0000
     atom:   36    charge:    2.0746    magn:    0.0000    constr:    0.0000
     atom:   37    charge:    2.0746    magn:    0.0000    constr:    0.0000
     atom:   38    charge:    3.1196    magn:    0.0000    constr:    0.0000
     atom:   39    charge:    2.0805    magn:   -0.0001    constr:    0.0000
     atom:   40    charge:    2.0686    magn:   -0.0001    constr:    0.0000
     atom:   41    charge:    2.0769    magn:   -0.0001    constr:    0.0000
     atom:   42    charge:    3.1141    magn:    0.0001    constr:    0.0000
     atom:   43    charge:    2.0725    magn:   -0.0001    constr:    0.0000
     atom:   44    charge:    2.0774    magn:   -0.0001    constr:    0.0000
     atom:   45    charge:    2.0782    magn:   -0.0001    constr:    0.0000
     atom:   46    charge:    3.1165    magn:    0.0000    constr:    0.0000
     atom:   47    charge:    2.0694    magn:   -0.0000    constr:    0.0000
     atom:   48    charge:    2.0760    magn:   -0.0001    constr:    0.0000
     atom:   49    charge:    0.6602    magn:   -0.0001    constr:    0.0000
     atom:   50    charge:    2.0870    magn:   -0.0001    constr:    0.0000
     atom:   51    charge:    0.4278    magn:    0.0000    constr:    0.0000
     atom:   52    charge:    0.4234    magn:    0.0000    constr:    0.0000
     atom:   53    charge:    0.4291    magn:    0.0000    constr:    0.0000
     atom:   54    charge:    0.4293    magn:    0.0000    constr:    0.0000

     total cpu time spent up to now is      832.1 secs

     total energy              =   -3021.44889233 Ry
     Harris-Foulkes estimate   =   -3021.46457301 Ry
     estimated scf accuracy    <       0.10289167 Ry

     total magnetization       =     0.00 Bohr mag/cell
     absolute magnetization    =     0.01 Bohr mag/cell

     iteration #  2     ecut=    40.42 Ry     beta=0.10
     Davidson diagonalization with overlap
     ethr =  2.59E-05,  avg # of iterations =  2.0

     negative rho (up, down):  1.210E-02 1.210E-02
 
     Magnetic moment per site:
     atom:    1    charge:    3.1250    magn:   -0.0001    constr:    0.0000
     atom:    2    charge:    2.0787    magn:    0.0000    constr:    0.0000
     atom:    3    charge:    3.1197    magn:    0.0000    constr:    0.0000
     atom:    4    charge:    2.0768    magn:   -0.0000    constr:    0.0000
     atom:    5    charge:    3.1166    magn:    0.0000    constr:    0.0000
     atom:    6    charge:    2.0768    magn:   -0.0001    constr:    0.0000
     atom:    7    charge:    3.1164    magn:    0.0000    constr:    0.0000
     atom:    8    charge:    2.0750    magn:   -0.0001    constr:    0.0000
     atom:    9    charge:    3.1250    magn:   -0.0001    constr:    0.0000
     atom:   10    charge:    2.0788    magn:    0.0000    constr:    0.0000
     atom:   11    charge:    3.1197    magn:    0.0000    constr:    0.0000
     atom:   12    charge:    2.0768    magn:   -0.0000    constr:    0.0000
     atom:   13    charge:    3.1158    magn:    0.0000    constr:    0.0000
     atom:   14    charge:    2.0850    magn:   -0.0001    constr:    0.0000
     atom:   15    charge:    3.1189    magn:    0.0000    constr:    0.0000
     atom:   16    charge:    2.0744    magn:   -0.0001    constr:    0.0000
     atom:   17    charge:    2.0518    magn:    0.0004    constr:    0.0000
     atom:   18    charge:    3.1239    magn:   -0.0001    constr:    0.0000
     atom:   19    charge:    2.0766    magn:   -0.0000    constr:    0.0000
     atom:   20    charge:    2.0746    magn:    0.0000    constr:    0.0000
     atom:   21    charge:    2.0746    magn:    0.0000    constr:    0.0000
     atom:   22    charge:    3.1196    magn:    0.0000    constr:    0.0000
     atom:   23    charge:    2.0824    magn:   -0.0001    constr:    0.0000
     atom:   24    charge:    2.0682    magn:   -0.0000    constr:    0.0000
     atom:   25    charge:    2.0770    magn:   -0.0000    constr:    0.0000
     atom:   26    charge:    3.1146    magn:    0.0000    constr:    0.0000
     atom:   27    charge:    2.0740    magn:   -0.0001    constr:    0.0000
     atom:   28    charge:    2.0775    magn:   -0.0001    constr:    0.0000
     atom:   29    charge:    2.0776    magn:   -0.0001    constr:    0.0000
     atom:   30    charge:    3.1167    magn:    0.0000    constr:    0.0000
     atom:   31    charge:    2.0698    magn:   -0.0000    constr:    0.0000
     atom:   32    charge:    2.0750    magn:   -0.0001    constr:    0.0000
     atom:   33    charge:    2.0518    magn:    0.0004    constr:    0.0000
     atom:   34    charge:    3.1239    magn:   -0.0001    constr:    0.0000
     atom:   35    charge:    2.0766    magn:   -0.0000    constr:    0.0000
     atom:   36    charge:    2.0746    magn:    0.0000    constr:    0.0000
     atom:   37    charge:    2.0746    magn:    0.0000    constr:    0.0000
     atom:   38    charge:    3.1196    magn:    0.0000    constr:    0.0000
     atom:   39    charge:    2.0805    magn:   -0.0001    constr:    0.0000
     atom:   40    charge:    2.0686    magn:   -0.0000    constr:    0.0000
     atom:   41    charge:    2.0769    magn:   -0.0000    constr:    0.0000
     atom:   42    charge:    3.1141    magn:    0.0000    constr:    0.0000
     atom:   43    charge:    2.0725    magn:   -0.0000    constr:    0.0000
     atom:   44    charge:    2.0774    magn:   -0.0001    constr:    0.0000
     atom:   45    charge:    2.0782    magn:   -0.0001    constr:    0.0000
     atom:   46    charge:    3.1165    magn:    0.0000    constr:    0.0000
     atom:   47    charge:    2.0694    magn:   -0.0000    constr:    0.0000
     atom:   48    charge:    2.0754    magn:   -0.0001    constr:    0.0000
     atom:   49    charge:    0.6672    magn:   -0.0000    constr:    0.0000
     atom:   50    charge:    2.0909    magn:   -0.0000    constr:    0.0000
     atom:   51    charge:    0.4284    magn:    0.0000    constr:    0.0000
     atom:   52    charge:    0.4029    magn:    0.0000    constr:    0.0000
     atom:   53    charge:    0.4281    magn:    0.0000    constr:    0.0000
     atom:   54    charge:    0.4284    magn:    0.0000    constr:    0.0000

     total cpu time spent up to now is     1020.3 secs

     total energy              =   -3021.41013877 Ry
     Harris-Foulkes estimate   =   -3021.44964730 Ry
     estimated scf accuracy    <       0.06895255 Ry

     total magnetization       =     0.00 Bohr mag/cell
     absolute magnetization    =     0.01 Bohr mag/cell

     iteration #  3     ecut=    40.42 Ry     beta=0.10
     Davidson diagonalization with overlap
     ethr =  1.73E-05,  avg # of iterations =  4.8

     negative rho (up, down):  1.209E-02 1.209E-02
 
     Magnetic moment per site:
     atom:    1    charge:    3.1250    magn:   -0.0001    constr:    0.0000
     atom:    2    charge:    2.0787    magn:    0.0000    constr:    0.0000
     atom:    3    charge:    3.1198    magn:    0.0000    constr:    0.0000
     atom:    4    charge:    2.0768    magn:   -0.0000    constr:    0.0000
     atom:    5    charge:    3.1166    magn:    0.0000    constr:    0.0000
     atom:    6    charge:    2.0773    magn:   -0.0001    constr:    0.0000
     atom:    7    charge:    3.1157    magn:    0.0000    constr:    0.0000
     atom:    8    charge:    2.0730    magn:   -0.0001    constr:    0.0000
     atom:    9    charge:    3.1250    magn:   -0.0001    constr:    0.0000
     atom:   10    charge:    2.0788    magn:    0.0000    constr:    0.0000
     atom:   11    charge:    3.1197    magn:    0.0000    constr:    0.0000
     atom:   12    charge:    2.0768    magn:   -0.0000    constr:    0.0000
     atom:   13    charge:    3.1158    magn:    0.0000    constr:    0.0000
     atom:   14    charge:    2.0850    magn:   -0.0001    constr:    0.0000
     atom:   15    charge:    3.1186    magn:    0.0000    constr:    0.0000
     atom:   16    charge:    2.0725    magn:   -0.0001    constr:    0.0000
     atom:   17    charge:    2.0518    magn:    0.0003    constr:    0.0000
     atom:   18    charge:    3.1239    magn:   -0.0001    constr:    0.0000
     atom:   19    charge:    2.0766    magn:   -0.0000    constr:    0.0000
     atom:   20    charge:    2.0746    magn:    0.0000    constr:    0.0000
     atom:   21    charge:    2.0746    magn:    0.0000    constr:    0.0000
     atom:   22    charge:    3.1196    magn:    0.0000    constr:    0.0000
     atom:   23    charge:    2.0824    magn:   -0.0001    constr:    0.0000
     atom:   24    charge:    2.0682    magn:   -0.0000    constr:    0.0000
     atom:   25    charge:    2.0770    magn:   -0.0000    constr:    0.0000
     atom:   26    charge:    3.1145    magn:    0.0000    constr:    0.0000
     atom:   27    charge:    2.0739    magn:   -0.0000    constr:    0.0000
     atom:   28    charge:    2.0775    magn:   -0.0001    constr:    0.0000
     atom:   29    charge:    2.0777    magn:   -0.0001    constr:    0.0000
     atom:   30    charge:    3.1166    magn:    0.0000    constr:    0.0000
     atom:   31    charge:    2.0711    magn:   -0.0000    constr:    0.0000
     atom:   32    charge:    2.0772    magn:   -0.0001    constr:    0.0000
     atom:   33    charge:    2.0518    magn:    0.0003    constr:    0.0000
     atom:   34    charge:    3.1239    magn:   -0.0001    constr:    0.0000
     atom:   35    charge:    2.0766    magn:   -0.0000    constr:    0.0000
     atom:   36    charge:    2.0746    magn:    0.0000    constr:    0.0000
     atom:   37    charge:    2.0746    magn:    0.0000    constr:    0.0000
     atom:   38    charge:    3.1196    magn:    0.0000    constr:    0.0000
     atom:   39    charge:    2.0805    magn:   -0.0001    constr:    0.0000
     atom:   40    charge:    2.0686    magn:   -0.0000    constr:    0.0000
     atom:   41    charge:    2.0769    magn:   -0.0000    constr:    0.0000
     atom:   42    charge:    3.1141    magn:    0.0000    constr:    0.0000
     atom:   43    charge:    2.0724    magn:   -0.0000    constr:    0.0000
     atom:   44    charge:    2.0773    magn:   -0.0001    constr:    0.0000
     atom:   45    charge:    2.0783    magn:   -0.0001    constr:    0.0000
     atom:   46    charge:    3.1164    magn:    0.0000    constr:    0.0000
     atom:   47    charge:    2.0694    magn:   -0.0000    constr:    0.0000
     atom:   48    charge:    2.0776    magn:   -0.0001    constr:    0.0000
     atom:   49    charge:    0.6647    magn:   -0.0000    constr:    0.0000
     atom:   50    charge:    2.0899    magn:   -0.0000    constr:    0.0000
     atom:   51    charge:    0.4285    magn:    0.0000    constr:    0.0000
     atom:   52    charge:    0.4014    magn:    0.0000    constr:    0.0000
     atom:   53    charge:    0.4288    magn:    0.0000    constr:    0.0000
     atom:   54    charge:    0.4290    magn:    0.0000    constr:    0.0000

     total cpu time spent up to now is     1263.4 secs

     total energy              =   -3021.41845655 Ry
     Harris-Foulkes estimate   =   -3021.42051328 Ry
     estimated scf accuracy    <       0.00642449 Ry

     total magnetization       =     0.00 Bohr mag/cell
     absolute magnetization    =     0.00 Bohr mag/cell

     iteration #  4     ecut=    40.42 Ry     beta=0.10
     Davidson diagonalization with overlap
     ethr =  1.61E-06,  avg # of iterations =  7.9

     negative rho (up, down):  1.209E-02 1.209E-02
 
     Magnetic moment per site:
     atom:    1    charge:    3.1250    magn:   -0.0001    constr:    0.0000
     atom:    2    charge:    2.0787    magn:    0.0000    constr:    0.0000
     atom:    3    charge:    3.1198    magn:    0.0000    constr:    0.0000
     atom:    4    charge:    2.0768    magn:   -0.0000    constr:    0.0000
     atom:    5    charge:    3.1166    magn:    0.0000    constr:    0.0000
     atom:    6    charge:    2.0772    magn:   -0.0001    constr:    0.0000
     atom:    7    charge:    3.1155    magn:    0.0000    constr:    0.0000
     atom:    8    charge:    2.0729    magn:   -0.0001    constr:    0.0000
     atom:    9    charge:    3.1250    magn:   -0.0001    constr:    0.0000
     atom:   10    charge:    2.0788    magn:    0.0000    constr:    0.0000
     atom:   11    charge:    3.1197    magn:    0.0000    constr:    0.0000
     atom:   12    charge:    2.0768    magn:   -0.0000    constr:    0.0000
     atom:   13    charge:    3.1158    magn:    0.0000    constr:    0.0000
     atom:   14    charge:    2.0850    magn:   -0.0001    constr:    0.0000
     atom:   15    charge:    3.1188    magn:    0.0000    constr:    0.0000
     atom:   16    charge:    2.0724    magn:   -0.0001    constr:    0.0000
     atom:   17    charge:    2.0518    magn:    0.0003    constr:    0.0000
     atom:   18    charge:    3.1239    magn:   -0.0000    constr:    0.0000
     atom:   19    charge:    2.0766    magn:   -0.0000    constr:    0.0000
     atom:   20    charge:    2.0746    magn:    0.0000    constr:    0.0000
     atom:   21    charge:    2.0746    magn:    0.0000    constr:    0.0000
     atom:   22    charge:    3.1196    magn:    0.0000    constr:    0.0000
     atom:   23    charge:    2.0824    magn:   -0.0001    constr:    0.0000
     atom:   24    charge:    2.0682    magn:   -0.0000    constr:    0.0000
     atom:   25    charge:    2.0770    magn:   -0.0000    constr:    0.0000
     atom:   26    charge:    3.1145    magn:    0.0000    constr:    0.0000
     atom:   27    charge:    2.0739    magn:   -0.0000    constr:    0.0000
     atom:   28    charge:    2.0775    magn:   -0.0000    constr:    0.0000
     atom:   29    charge:    2.0776    magn:   -0.0001    constr:    0.0000
     atom:   30    charge:    3.1167    magn:    0.0000    constr:    0.0000
     atom:   31    charge:    2.0712    magn:   -0.0000    constr:    0.0000
     atom:   32    charge:    2.0772    magn:   -0.0001    constr:    0.0000
     atom:   33    charge:    2.0518    magn:    0.0003    constr:    0.0000
     atom:   34    charge:    3.1239    magn:   -0.0000    constr:    0.0000
     atom:   35    charge:    2.0766    magn:   -0.0000    constr:    0.0000
     atom:   36    charge:    2.0746    magn:    0.0000    constr:    0.0000
     atom:   37    charge:    2.0746    magn:    0.0000    constr:    0.0000
     atom:   38    charge:    3.1196    magn:    0.0000    constr:    0.0000
     atom:   39    charge:    2.0805    magn:   -0.0001    constr:    0.0000
     atom:   40    charge:    2.0686    magn:   -0.0000    constr:    0.0000
     atom:   41    charge:    2.0769    magn:   -0.0000    constr:    0.0000
     atom:   42    charge:    3.1141    magn:    0.0000    constr:    0.0000
     atom:   43    charge:    2.0724    magn:   -0.0000    constr:    0.0000
     atom:   44    charge:    2.0774    magn:   -0.0000    constr:    0.0000
     atom:   45    charge:    2.0783    magn:   -0.0001    constr:    0.0000
     atom:   46    charge:    3.1165    magn:    0.0000    constr:    0.0000
     atom:   47    charge:    2.0694    magn:   -0.0000    constr:    0.0000
     atom:   48    charge:    2.0775    magn:   -0.0001    constr:    0.0000
     atom:   49    charge:    0.6627    magn:   -0.0000    constr:    0.0000
     atom:   50    charge:    2.0895    magn:   -0.0000    constr:    0.0000
     atom:   51    charge:    0.4286    magn:    0.0000    constr:    0.0000
     atom:   52    charge:    0.3993    magn:    0.0000    constr:    0.0000
     atom:   53    charge:    0.4293    magn:    0.0000    constr:    0.0000
     atom:   54    charge:    0.4296    magn:    0.0000    constr:    0.0000

     total cpu time spent up to now is     1538.8 secs

     total energy              =   -3021.41816117 Ry
     Harris-Foulkes estimate   =   -3021.41886311 Ry
     estimated scf accuracy    <       0.00170120 Ry

     total magnetization       =     0.00 Bohr mag/cell
     absolute magnetization    =     0.00 Bohr mag/cell

     iteration #  5     ecut=    40.42 Ry     beta=0.10
     Davidson diagonalization with overlap
     ethr =  4.27E-07,  avg # of iterations =  3.2

     negative rho (up, down):  1.208E-02 1.208E-02
 
     Magnetic moment per site:
     atom:    1    charge:    3.1250    magn:   -0.0001    constr:    0.0000
     atom:    2    charge:    2.0787    magn:    0.0000    constr:    0.0000
     atom:    3    charge:    3.1198    magn:    0.0000    constr:    0.0000
     atom:    4    charge:    2.0768    magn:   -0.0000    constr:    0.0000
     atom:    5    charge:    3.1166    magn:    0.0000    constr:    0.0000
     atom:    6    charge:    2.0770    magn:   -0.0000    constr:    0.0000
     atom:    7    charge:    3.1156    magn:    0.0000    constr:    0.0000
     atom:    8    charge:    2.0736    magn:   -0.0000    constr:    0.0000
     atom:    9    charge:    3.1250    magn:   -0.0001    constr:    0.0000
     atom:   10    charge:    2.0788    magn:    0.0000    constr:    0.0000
     atom:   11    charge:    3.1197    magn:    0.0000    constr:    0.0000
     atom:   12    charge:    2.0768    magn:   -0.0000    constr:    0.0000
     atom:   13    charge:    3.1158    magn:    0.0000    constr:    0.0000
     atom:   14    charge:    2.0850    magn:   -0.0000    constr:    0.0000
     atom:   15    charge:    3.1189    magn:    0.0000    constr:    0.0000
     atom:   16    charge:    2.0730    magn:   -0.0000    constr:    0.0000
     atom:   17    charge:    2.0517    magn:    0.0002    constr:    0.0000
     atom:   18    charge:    3.1239    magn:   -0.0000    constr:    0.0000
     atom:   19    charge:    2.0766    magn:   -0.0000    constr:    0.0000
     atom:   20    charge:    2.0746    magn:    0.0000    constr:    0.0000
     atom:   21    charge:    2.0746    magn:    0.0000    constr:    0.0000
     atom:   22    charge:    3.1196    magn:    0.0000    constr:    0.0000
     atom:   23    charge:    2.0824    magn:   -0.0000    constr:    0.0000
     atom:   24    charge:    2.0682    magn:   -0.0000    constr:    0.0000
     atom:   25    charge:    2.0770    magn:   -0.0000    constr:    0.0000
     atom:   26    charge:    3.1145    magn:    0.0000    constr:    0.0000
     atom:   27    charge:    2.0739    magn:   -0.0000    constr:    0.0000
     atom:   28    charge:    2.0776    magn:   -0.0000    constr:    0.0000
     atom:   29    charge:    2.0776    magn:   -0.0000    constr:    0.0000
     atom:   30    charge:    3.1168    magn:    0.0000    constr:    0.0000
     atom:   31    charge:    2.0709    magn:   -0.0000    constr:    0.0000
     atom:   32    charge:    2.0764    magn:   -0.0000    constr:    0.0000
     atom:   33    charge:    2.0517    magn:    0.0002    constr:    0.0000
     atom:   34    charge:    3.1239    magn:   -0.0000    constr:    0.0000
     atom:   35    charge:    2.0766    magn:   -0.0000    constr:    0.0000
     atom:   36    charge:    2.0746    magn:    0.0000    constr:    0.0000
     atom:   37    charge:    2.0746    magn:    0.0000    constr:    0.0000
     atom:   38    charge:    3.1196    magn:    0.0000    constr:    0.0000
     atom:   39    charge:    2.0805    magn:   -0.0000    constr:    0.0000
     atom:   40    charge:    2.0686    magn:   -0.0000    constr:    0.0000
     atom:   41    charge:    2.0769    magn:   -0.0000    constr:    0.0000
     atom:   42    charge:    3.1141    magn:    0.0000    constr:    0.0000
     atom:   43    charge:    2.0725    magn:   -0.0000    constr:    0.0000
     atom:   44    charge:    2.0775    magn:   -0.0000    constr:    0.0000
     atom:   45    charge:    2.0782    magn:   -0.0000    constr:    0.0000
     atom:   46    charge:    3.1165    magn:    0.0000    constr:    0.0000
     atom:   47    charge:    2.0694    magn:   -0.0000    constr:    0.0000
     atom:   48    charge:    2.0768    magn:   -0.0000    constr:    0.0000
     atom:   49    charge:    0.6596    magn:   -0.0000    constr:    0.0000
     atom:   50    charge:    2.0887    magn:   -0.0000    constr:    0.0000
     atom:   51    charge:    0.4284    magn:    0.0000    constr:    0.0000
     atom:   52    charge:    0.4012    magn:    0.0000    constr:    0.0000
     atom:   53    charge:    0.4300    magn:    0.0000    constr:    0.0000
     atom:   54    charge:    0.4302    magn:    0.0000    constr:    0.0000

     total cpu time spent up to now is     1749.1 secs

     total energy              =   -3021.41808288 Ry
     Harris-Foulkes estimate   =   -3021.41835298 Ry
     estimated scf accuracy    <       0.00055621 Ry

     total magnetization       =     0.00 Bohr mag/cell
     absolute magnetization    =     0.00 Bohr mag/cell

     iteration #  6     ecut=    40.42 Ry     beta=0.10
     Davidson diagonalization with overlap
     ethr =  1.40E-07,  avg # of iterations =  4.1

     negative rho (up, down):  1.209E-02 1.209E-02
 
     Magnetic moment per site:
     atom:    1    charge:    3.1250    magn:   -0.0001    constr:    0.0000
     atom:    2    charge:    2.0787    magn:    0.0000    constr:    0.0000
     atom:    3    charge:    3.1198    magn:    0.0000    constr:    0.0000
     atom:    4    charge:    2.0768    magn:   -0.0000    constr:    0.0000
     atom:    5    charge:    3.1166    magn:    0.0000    constr:    0.0000
     atom:    6    charge:    2.0770    magn:   -0.0000    constr:    0.0000
     atom:    7    charge:    3.1157    magn:    0.0000    constr:    0.0000
     atom:    8    charge:    2.0737    magn:   -0.0000    constr:    0.0000
     atom:    9    charge:    3.1250    magn:   -0.0001    constr:    0.0000
     atom:   10    charge:    2.0788    magn:    0.0000    constr:    0.0000
     atom:   11    charge:    3.1197    magn:    0.0000    constr:    0.0000
     atom:   12    charge:    2.0768    magn:   -0.0000    constr:    0.0000
     atom:   13    charge:    3.1158    magn:    0.0000    constr:    0.0000
     atom:   14    charge:    2.0850    magn:   -0.0000    constr:    0.0000
     atom:   15    charge:    3.1188    magn:    0.0000    constr:    0.0000
     atom:   16    charge:    2.0731    magn:   -0.0000    constr:    0.0000
     atom:   17    charge:    2.0518    magn:    0.0002    constr:    0.0000
     atom:   18    charge:    3.1239    magn:   -0.0000    constr:    0.0000
     atom:   19    charge:    2.0766    magn:   -0.0000    constr:    0.0000
     atom:   20    charge:    2.0746    magn:    0.0000    constr:    0.0000
     atom:   21    charge:    2.0746    magn:    0.0000    constr:    0.0000
     atom:   22    charge:    3.1196    magn:    0.0000    constr:    0.0000
     atom:   23    charge:    2.0824    magn:   -0.0000    constr:    0.0000
     atom:   24    charge:    2.0682    magn:   -0.0000    constr:    0.0000
     atom:   25    charge:    2.0770    magn:   -0.0000    constr:    0.0000
     atom:   26    charge:    3.1145    magn:    0.0000    constr:    0.0000
     atom:   27    charge:    2.0739    magn:   -0.0000    constr:    0.0000
     atom:   28    charge:    2.0775    magn:   -0.0000    constr:    0.0000
     atom:   29    charge:    2.0776    magn:   -0.0000    constr:    0.0000
     atom:   30    charge:    3.1166    magn:    0.0000    constr:    0.0000
     atom:   31    charge:    2.0709    magn:   -0.0000    constr:    0.0000
     atom:   32    charge:    2.0763    magn:   -0.0000    constr:    0.0000
     atom:   33    charge:    2.0518    magn:    0.0002    constr:    0.0000
     atom:   34    charge:    3.1239    magn:   -0.0000    constr:    0.0000
     atom:   35    charge:    2.0766    magn:   -0.0000    constr:    0.0000
     atom:   36    charge:    2.0746    magn:    0.0000    constr:    0.0000
     atom:   37    charge:    2.0746    magn:    0.0000    constr:    0.0000
     atom:   38    charge:    3.1196    magn:    0.0000    constr:    0.0000
     atom:   39    charge:    2.0805    magn:   -0.0000    constr:    0.0000
     atom:   40    charge:    2.0686    magn:   -0.0000    constr:    0.0000
     atom:   41    charge:    2.0769    magn:   -0.0000    constr:    0.0000
     atom:   42    charge:    3.1141    magn:    0.0000    constr:    0.0000
     atom:   43    charge:    2.0724    magn:   -0.0000    constr:    0.0000
     atom:   44    charge:    2.0774    magn:   -0.0000    constr:    0.0000
     atom:   45    charge:    2.0782    magn:   -0.0000    constr:    0.0000
     atom:   46    charge:    3.1165    magn:    0.0000    constr:    0.0000
     atom:   47    charge:    2.0694    magn:   -0.0000    constr:    0.0000
     atom:   48    charge:    2.0767    magn:   -0.0000    constr:    0.0000
     atom:   49    charge:    0.6596    magn:   -0.0000    constr:    0.0000
     atom:   50    charge:    2.0889    magn:   -0.0000    constr:    0.0000
     atom:   51    charge:    0.4283    magn:    0.0000    constr:    0.0000
     atom:   52    charge:    0.4015    magn:    0.0000    constr:    0.0000
     atom:   53    charge:    0.4300    magn:    0.0000    constr:    0.0000
     atom:   54    charge:    0.4302    magn:    0.0000    constr:    0.0000

     total cpu time spent up to now is     1977.8 secs

     total energy              =   -3021.41817808 Ry
     Harris-Foulkes estimate   =   -3021.41819068 Ry
     estimated scf accuracy    <       0.00006338 Ry

     total magnetization       =     0.00 Bohr mag/cell
     absolute magnetization    =     0.00 Bohr mag/cell

     iteration #  7     ecut=    40.42 Ry     beta=0.10
     Davidson diagonalization with overlap
     ethr =  1.59E-08,  avg # of iterations =  3.0

     negative rho (up, down):  1.209E-02 1.209E-02
 
     Magnetic moment per site:
     atom:    1    charge:    3.1250    magn:   -0.0001    constr:    0.0000
     atom:    2    charge:    2.0787    magn:    0.0000    constr:    0.0000
     atom:    3    charge:    3.1198    magn:    0.0000    constr:    0.0000
     atom:    4    charge:    2.0768    magn:   -0.0000    constr:    0.0000
     atom:    5    charge:    3.1166    magn:    0.0000    constr:    0.0000
     atom:    6    charge:    2.0770    magn:   -0.0000    constr:    0.0000
     atom:    7    charge:    3.1157    magn:    0.0000    constr:    0.0000
     atom:    8    charge:    2.0738    magn:   -0.0000    constr:    0.0000
     atom:    9    charge:    3.1250    magn:   -0.0001    constr:    0.0000
     atom:   10    charge:    2.0788    magn:    0.0000    constr:    0.0000
     atom:   11    charge:    3.1197    magn:    0.0000    constr:    0.0000
     atom:   12    charge:    2.0768    magn:   -0.0000    constr:    0.0000
     atom:   13    charge:    3.1158    magn:    0.0000    constr:    0.0000
     atom:   14    charge:    2.0850    magn:   -0.0000    constr:    0.0000
     atom:   15    charge:    3.1188    magn:    0.0000    constr:    0.0000
     atom:   16    charge:    2.0732    magn:   -0.0000    constr:    0.0000
     atom:   17    charge:    2.0518    magn:    0.0002    constr:    0.0000
     atom:   18    charge:    3.1239    magn:   -0.0000    constr:    0.0000
     atom:   19    charge:    2.0766    magn:   -0.0000    constr:    0.0000
     atom:   20    charge:    2.0746    magn:    0.0000    constr:    0.0000
     atom:   21    charge:    2.0746    magn:    0.0000    constr:    0.0000
     atom:   22    charge:    3.1196    magn:    0.0000    constr:    0.0000
     atom:   23    charge:    2.0824    magn:   -0.0000    constr:    0.0000
     atom:   24    charge:    2.0682    magn:   -0.0000    constr:    0.0000
     atom:   25    charge:    2.0770    magn:   -0.0000    constr:    0.0000
     atom:   26    charge:    3.1145    magn:    0.0000    constr:    0.0000
     atom:   27    charge:    2.0739    magn:   -0.0000    constr:    0.0000
     atom:   28    charge:    2.0775    magn:   -0.0000    constr:    0.0000
     atom:   29    charge:    2.0776    magn:   -0.0000    constr:    0.0000
     atom:   30    charge:    3.1166    magn:    0.0000    constr:    0.0000
     atom:   31    charge:    2.0708    magn:   -0.0000    constr:    0.0000
     atom:   32    charge:    2.0763    magn:   -0.0000    constr:    0.0000
     atom:   33    charge:    2.0518    magn:    0.0002    constr:    0.0000
     atom:   34    charge:    3.1239    magn:   -0.0000    constr:    0.0000
     atom:   35    charge:    2.0766    magn:   -0.0000    constr:    0.0000
     atom:   36    charge:    2.0746    magn:    0.0000    constr:    0.0000
     atom:   37    charge:    2.0746    magn:    0.0000    constr:    0.0000
     atom:   38    charge:    3.1196    magn:    0.0000    constr:    0.0000
     atom:   39    charge:    2.0805    magn:   -0.0000    constr:    0.0000
     atom:   40    charge:    2.0686    magn:   -0.0000    constr:    0.0000
     atom:   41    charge:    2.0769    magn:   -0.0000    constr:    0.0000
     atom:   42    charge:    3.1141    magn:    0.0000    constr:    0.0000
     atom:   43    charge:    2.0724    magn:   -0.0000    constr:    0.0000
     atom:   44    charge:    2.0774    magn:   -0.0000    constr:    0.0000
     atom:   45    charge:    2.0782    magn:   -0.0000    constr:    0.0000
     atom:   46    charge:    3.1165    magn:    0.0000    constr:    0.0000
     atom:   47    charge:    2.0694    magn:   -0.0000    constr:    0.0000
     atom:   48    charge:    2.0767    magn:   -0.0000    constr:    0.0000
     atom:   49    charge:    0.6598    magn:   -0.0000    constr:    0.0000
     atom:   50    charge:    2.0891    magn:   -0.0000    constr:    0.0000
     atom:   51    charge:    0.4283    magn:    0.0000    constr:    0.0000
     atom:   52    charge:    0.4018    magn:    0.0000    constr:    0.0000
     atom:   53    charge:    0.4299    magn:    0.0000    constr:    0.0000
     atom:   54    charge:    0.4301    magn:    0.0000    constr:    0.0000

     total cpu time spent up to now is     2182.0 secs

     total energy              =   -3021.41817816 Ry
     Harris-Foulkes estimate   =   -3021.41818167 Ry
     estimated scf accuracy    <       0.00002562 Ry

     total magnetization       =     0.00 Bohr mag/cell
     absolute magnetization    =     0.00 Bohr mag/cell

     iteration #  8     ecut=    40.42 Ry     beta=0.10
     Davidson diagonalization with overlap
     ethr =  6.44E-09,  avg # of iterations =  3.0

     negative rho (up, down):  1.209E-02 1.209E-02
 
     Magnetic moment per site:
     atom:    1    charge:    3.1250    magn:   -0.0000    constr:    0.0000
     atom:    2    charge:    2.0787    magn:    0.0000    constr:    0.0000
     atom:    3    charge:    3.1198    magn:    0.0000    constr:    0.0000
     atom:    4    charge:    2.0768    magn:   -0.0000    constr:    0.0000
     atom:    5    charge:    3.1166    magn:    0.0000    constr:    0.0000
     atom:    6    charge:    2.0771    magn:   -0.0000    constr:    0.0000
     atom:    7    charge:    3.1157    magn:    0.0000    constr:    0.0000
     atom:    8    charge:    2.0737    magn:   -0.0000    constr:    0.0000
     atom:    9    charge:    3.1250    magn:   -0.0000    constr:    0.0000
     atom:   10    charge:    2.0787    magn:    0.0000    constr:    0.0000
     atom:   11    charge:    3.1197    magn:    0.0000    constr:    0.0000
     atom:   12    charge:    2.0768    magn:   -0.0000    constr:    0.0000
     atom:   13    charge:    3.1158    magn:    0.0000    constr:    0.0000
     atom:   14    charge:    2.0850    magn:   -0.0000    constr:    0.0000
     atom:   15    charge:    3.1188    magn:    0.0000    constr:    0.0000
     atom:   16    charge:    2.0732    magn:   -0.0000    constr:    0.0000
     atom:   17    charge:    2.0518    magn:    0.0001    constr:    0.0000
     atom:   18    charge:    3.1239    magn:   -0.0000    constr:    0.0000
     atom:   19    charge:    2.0766    magn:   -0.0000    constr:    0.0000
     atom:   20    charge:    2.0746    magn:    0.0000    constr:    0.0000
     atom:   21    charge:    2.0746    magn:    0.0000    constr:    0.0000
     atom:   22    charge:    3.1196    magn:    0.0000    constr:    0.0000
     atom:   23    charge:    2.0824    magn:   -0.0000    constr:    0.0000
     atom:   24    charge:    2.0682    magn:   -0.0000    constr:    0.0000
     atom:   25    charge:    2.0770    magn:   -0.0000    constr:    0.0000
     atom:   26    charge:    3.1145    magn:    0.0000    constr:    0.0000
     atom:   27    charge:    2.0739    magn:   -0.0000    constr:    0.0000
     atom:   28    charge:    2.0775    magn:   -0.0000    constr:    0.0000
     atom:   29    charge:    2.0776    magn:   -0.0000    constr:    0.0000
     atom:   30    charge:    3.1166    magn:    0.0000    constr:    0.0000
     atom:   31    charge:    2.0707    magn:   -0.0000    constr:    0.0000
     atom:   32    charge:    2.0763    magn:   -0.0000    constr:    0.0000
     atom:   33    charge:    2.0518    magn:    0.0001    constr:    0.0000
     atom:   34    charge:    3.1239    magn:   -0.0000    constr:    0.0000
     atom:   35    charge:    2.0766    magn:   -0.0000    constr:    0.0000
     atom:   36    charge:    2.0746    magn:    0.0000    constr:    0.0000
     atom:   37    charge:    2.0746    magn:    0.0000    constr:    0.0000
     atom:   38    charge:    3.1196    magn:    0.0000    constr:    0.0000
     atom:   39    charge:    2.0805    magn:   -0.0000    constr:    0.0000
     atom:   40    charge:    2.0686    magn:   -0.0000    constr:    0.0000
     atom:   41    charge:    2.0769    magn:   -0.0000    constr:    0.0000
     atom:   42    charge:    3.1141    magn:    0.0000    constr:    0.0000
     atom:   43    charge:    2.0725    magn:   -0.0000    constr:    0.0000
     atom:   44    charge:    2.0774    magn:   -0.0000    constr:    0.0000
     atom:   45    charge:    2.0782    magn:   -0.0000    constr:    0.0000
     atom:   46    charge:    3.1165    magn:    0.0000    constr:    0.0000
     atom:   47    charge:    2.0693    magn:   -0.0000    constr:    0.0000
     atom:   48    charge:    2.0767    magn:   -0.0000    constr:    0.0000
     atom:   49    charge:    0.6602    magn:   -0.0000    constr:    0.0000
     atom:   50    charge:    2.0893    magn:   -0.0000    constr:    0.0000
     atom:   51    charge:    0.4282    magn:    0.0000    constr:    0.0000
     atom:   52    charge:    0.4020    magn:    0.0000    constr:    0.0000
     atom:   53    charge:    0.4298    magn:    0.0000    constr:    0.0000
     atom:   54    charge:    0.4300    magn:    0.0000    constr:    0.0000

     total cpu time spent up to now is     2386.8 secs

     total energy              =   -3021.41817502 Ry
     Harris-Foulkes estimate   =   -3021.41817909 Ry
     estimated scf accuracy    <       0.00001288 Ry

     total magnetization       =     0.00 Bohr mag/cell
     absolute magnetization    =     0.00 Bohr mag/cell

     iteration #  9     ecut=    40.42 Ry     beta=0.10
     Davidson diagonalization with overlap
     ethr =  3.24E-09,  avg # of iterations =  3.5

     negative rho (up, down):  1.209E-02 1.209E-02
 
     Magnetic moment per site:
     atom:    1    charge:    3.1250    magn:   -0.0000    constr:    0.0000
     atom:    2    charge:    2.0787    magn:    0.0000    constr:    0.0000
     atom:    3    charge:    3.1198    magn:    0.0000    constr:    0.0000
     atom:    4    charge:    2.0768    magn:   -0.0000    constr:    0.0000
     atom:    5    charge:    3.1166    magn:    0.0000    constr:    0.0000
     atom:    6    charge:    2.0770    magn:   -0.0000    constr:    0.0000
     atom:    7    charge:    3.1157    magn:    0.0000    constr:    0.0000
     atom:    8    charge:    2.0737    magn:   -0.0000    constr:    0.0000
     atom:    9    charge:    3.1250    magn:   -0.0000    constr:    0.0000
     atom:   10    charge:    2.0788    magn:    0.0000    constr:    0.0000
     atom:   11    charge:    3.1197    magn:    0.0000    constr:    0.0000
     atom:   12    charge:    2.0768    magn:   -0.0000    constr:    0.0000
     atom:   13    charge:    3.1158    magn:    0.0000    constr:    0.0000
     atom:   14    charge:    2.0850    magn:   -0.0000    constr:    0.0000
     atom:   15    charge:    3.1188    magn:    0.0000    constr:    0.0000
     atom:   16    charge:    2.0732    magn:   -0.0000    constr:    0.0000
     atom:   17    charge:    2.0518    magn:    0.0001    constr:    0.0000
     atom:   18    charge:    3.1239    magn:   -0.0000    constr:    0.0000
     atom:   19    charge:    2.0766    magn:   -0.0000    constr:    0.0000
     atom:   20    charge:    2.0746    magn:    0.0000    constr:    0.0000
     atom:   21    charge:    2.0746    magn:    0.0000    constr:    0.0000
     atom:   22    charge:    3.1196    magn:    0.0000    constr:    0.0000
     atom:   23    charge:    2.0824    magn:   -0.0000    constr:    0.0000
     atom:   24    charge:    2.0682    magn:   -0.0000    constr:    0.0000
     atom:   25    charge:    2.0770    magn:   -0.0000    constr:    0.0000
     atom:   26    charge:    3.1145    magn:    0.0000    constr:    0.0000
     atom:   27    charge:    2.0739    magn:   -0.0000    constr:    0.0000
     atom:   28    charge:    2.0775    magn:   -0.0000    constr:    0.0000
     atom:   29    charge:    2.0776    magn:   -0.0000    constr:    0.0000
     atom:   30    charge:    3.1167    magn:    0.0000    constr:    0.0000
     atom:   31    charge:    2.0707    magn:   -0.0000    constr:    0.0000
     atom:   32    charge:    2.0763    magn:   -0.0000    constr:    0.0000
     atom:   33    charge:    2.0518    magn:    0.0001    constr:    0.0000
     atom:   34    charge:    3.1239    magn:   -0.0000    constr:    0.0000
     atom:   35    charge:    2.0766    magn:   -0.0000    constr:    0.0000
     atom:   36    charge:    2.0746    magn:    0.0000    constr:    0.0000
     atom:   37    charge:    2.0746    magn:    0.0000    constr:    0.0000
     atom:   38    charge:    3.1196    magn:    0.0000    constr:    0.0000
     atom:   39    charge:    2.0805    magn:   -0.0000    constr:    0.0000
     atom:   40    charge:    2.0686    magn:   -0.0000    constr:    0.0000
     atom:   41    charge:    2.0769    magn:   -0.0000    constr:    0.0000
     atom:   42    charge:    3.1141    magn:    0.0000    constr:    0.0000
     atom:   43    charge:    2.0724    magn:   -0.0000    constr:    0.0000
     atom:   44    charge:    2.0774    magn:   -0.0000    constr:    0.0000
     atom:   45    charge:    2.0782    magn:   -0.0000    constr:    0.0000
     atom:   46    charge:    3.1165    magn:    0.0000    constr:    0.0000
     atom:   47    charge:    2.0694    magn:   -0.0000    constr:    0.0000
     atom:   48    charge:    2.0767    magn:   -0.0000    constr:    0.0000
     atom:   49    charge:    0.6603    magn:   -0.0000    constr:    0.0000
     atom:   50    charge:    2.0893    magn:   -0.0000    constr:    0.0000
     atom:   51    charge:    0.4283    magn:    0.0000    constr:    0.0000
     atom:   52    charge:    0.4021    magn:    0.0000    constr:    0.0000
     atom:   53    charge:    0.4297    magn:    0.0000    constr:    0.0000
     atom:   54    charge:    0.4300    magn:    0.0000    constr:    0.0000

     total cpu time spent up to now is     2601.0 secs

     total energy              =   -3021.41817679 Ry
     Harris-Foulkes estimate   =   -3021.41817660 Ry
     estimated scf accuracy    <       0.00000148 Ry

     total magnetization       =     0.00 Bohr mag/cell
     absolute magnetization    =     0.00 Bohr mag/cell

     iteration # 10     ecut=    40.42 Ry     beta=0.10
     Davidson diagonalization with overlap
     ethr =  3.71E-10,  avg # of iterations =  3.0

     negative rho (up, down):  1.208E-02 1.208E-02
 
     Magnetic moment per site:
     atom:    1    charge:    3.1250    magn:   -0.0000    constr:    0.0000
     atom:    2    charge:    2.0787    magn:    0.0000    constr:    0.0000
     atom:    3    charge:    3.1198    magn:    0.0000    constr:    0.0000
     atom:    4    charge:    2.0768    magn:   -0.0000    constr:    0.0000
     atom:    5    charge:    3.1166    magn:    0.0000    constr:    0.0000
     atom:    6    charge:    2.0771    magn:   -0.0000    constr:    0.0000
     atom:    7    charge:    3.1157    magn:    0.0000    constr:    0.0000
     atom:    8    charge:    2.0737    magn:   -0.0000    constr:    0.0000
     atom:    9    charge:    3.1250    magn:   -0.0000    constr:    0.0000
     atom:   10    charge:    2.0787    magn:    0.0000    constr:    0.0000
     atom:   11    charge:    3.1197    magn:    0.0000    constr:    0.0000
     atom:   12    charge:    2.0768    magn:   -0.0000    constr:    0.0000
     atom:   13    charge:    3.1158    magn:    0.0000    constr:    0.0000
     atom:   14    charge:    2.0850    magn:   -0.0000    constr:    0.0000
     atom:   15    charge:    3.1188    magn:    0.0000    constr:    0.0000
     atom:   16    charge:    2.0731    magn:   -0.0000    constr:    0.0000
     atom:   17    charge:    2.0518    magn:    0.0001    constr:    0.0000
     atom:   18    charge:    3.1239    magn:   -0.0000    constr:    0.0000
     atom:   19    charge:    2.0766    magn:   -0.0000    constr:    0.0000
     atom:   20    charge:    2.0746    magn:    0.0000    constr:    0.0000
     atom:   21    charge:    2.0746    magn:    0.0000    constr:    0.0000
     atom:   22    charge:    3.1196    magn:    0.0000    constr:    0.0000
     atom:   23    charge:    2.0824    magn:   -0.0000    constr:    0.0000
     atom:   24    charge:    2.0682    magn:   -0.0000    constr:    0.0000
     atom:   25    charge:    2.0770    magn:   -0.0000    constr:    0.0000
     atom:   26    charge:    3.1145    magn:    0.0000    constr:    0.0000
     atom:   27    charge:    2.0739    magn:   -0.0000    constr:    0.0000
     atom:   28    charge:    2.0775    magn:   -0.0000    constr:    0.0000
     atom:   29    charge:    2.0776    magn:   -0.0000    constr:    0.0000
     atom:   30    charge:    3.1167    magn:    0.0000    constr:    0.0000
     atom:   31    charge:    2.0708    magn:   -0.0000    constr:    0.0000
     atom:   32    charge:    2.0764    magn:   -0.0000    constr:    0.0000
     atom:   33    charge:    2.0518    magn:    0.0001    constr:    0.0000
     atom:   34    charge:    3.1239    magn:   -0.0000    constr:    0.0000
     atom:   35    charge:    2.0766    magn:   -0.0000    constr:    0.0000
     atom:   36    charge:    2.0746    magn:    0.0000    constr:    0.0000
     atom:   37    charge:    2.0746    magn:    0.0000    constr:    0.0000
     atom:   38    charge:    3.1196    magn:    0.0000    constr:    0.0000
     atom:   39    charge:    2.0805    magn:   -0.0000    constr:    0.0000
     atom:   40    charge:    2.0686    magn:   -0.0000    constr:    0.0000
     atom:   41    charge:    2.0769    magn:   -0.0000    constr:    0.0000
     atom:   42    charge:    3.1141    magn:    0.0000    constr:    0.0000
     atom:   43    charge:    2.0725    magn:   -0.0000    constr:    0.0000
     atom:   44    charge:    2.0774    magn:   -0.0000    constr:    0.0000
     atom:   45    charge:    2.0782    magn:   -0.0000    constr:    0.0000
     atom:   46    charge:    3.1165    magn:    0.0000    constr:    0.0000
     atom:   47    charge:    2.0694    magn:   -0.0000    constr:    0.0000
     atom:   48    charge:    2.0768    magn:   -0.0000    constr:    0.0000
     atom:   49    charge:    0.6602    magn:   -0.0000    constr:    0.0000
     atom:   50    charge:    2.0892    magn:   -0.0000    constr:    0.0000
     atom:   51    charge:    0.4284    magn:    0.0000    constr:    0.0000
     atom:   52    charge:    0.4022    magn:    0.0000    constr:    0.0000
     atom:   53    charge:    0.4297    magn:    0.0000    constr:    0.0000
     atom:   54    charge:    0.4300    magn:    0.0000    constr:    0.0000

     total cpu time spent up to now is     2807.8 secs

     End of self-consistent calculation

 ------ SPIN UP ------------


          k = 0.0000 0.0000 0.0000 ( 34665 PWs)   bands (ev):

   -57.7066 -57.6716 -57.3273 -57.2910 -57.2426 -57.1182 -57.0818 -57.0810
   -57.0616 -57.0462 -56.9997 -56.9642 -56.7415 -56.7039 -56.1570 -56.1217
   -34.1427 -33.9888 -33.9603 -33.9076 -33.8795 -33.8133 -33.7528 -33.6635
   -33.6280 -33.6136 -33.5762 -33.5502 -33.5282 -33.5172 -33.4993 -33.4961
   -33.4747 -33.4638 -33.4417 -33.4073 -33.3327 -33.3005 -33.2802 -33.2709
   -33.2655 -33.2639 -33.2539 -33.2517 -33.2456 -33.2398 -33.2381 -33.2209
   -33.1900 -33.1897 -33.1832 -33.1505 -33.1279 -33.0074 -32.9894 -32.9684
   -32.9189 -32.8162 -32.5748 -32.5093 -32.4832 -32.3790 -32.2873 -32.1790
   -20.2974 -18.0220 -17.8495 -17.5662 -17.4717 -17.3823 -17.2611 -17.0865
   -17.0741 -16.9838 -16.9471 -16.8919 -16.7937 -16.7872 -16.7390 -16.7160
   -16.7137 -16.6724 -16.6189 -16.6155 -16.5445 -16.4253 -16.4129 -16.4062
   -16.3321 -16.2763 -16.2035 -16.1761 -16.1583 -15.9908 -15.9396 -14.7412
   -14.6575 -11.3775  -7.2176  -5.4978  -5.4050  -5.3303  -5.2309  -5.2147
    -5.1549  -5.1364  -4.8478  -4.8268  -4.4804  -4.4523  -4.3684  -4.3644
    -4.3306  -4.2404  -4.0988  -4.0711  -4.0656  -4.0261  -4.0087  -4.0002
    -3.9684  -3.9614  -3.9594  -3.8486  -3.7982  -3.7749  -3.7431  -3.7240
    -3.6415  -3.6263  -3.5968  -3.5870  -3.5283  -3.5160  -3.4175  -3.4011
    -3.3686  -3.2687  -3.2342  -3.1833  -3.0223  -2.9446  -2.8865  -2.8350
    -2.7005  -2.6171  -2.5984  -2.5888  -2.5879  -2.5783  -2.4408  -2.4232
    -2.3443  -2.2772  -2.2558  -2.2135  -2.2094  -2.1721  -2.1475  -2.1019
    -2.0566  -2.0412  -2.0295  -1.8924  -1.8731  -1.7660  -1.7467  -1.6321
    -1.5530  -1.5488  -1.4977  -1.4894  -1.4707  -1.4321  -1.3318  -1.3179
    -1.3092  -1.2891  -1.2518  -1.1448  -1.0954  -1.0783  -1.0752  -1.0311
    -0.9638  -0.9248  -0.8221  -0.7701  -0.6191  -0.5961  -0.5770  -0.4897
    -0.3859  -0.2494  -0.0923  -0.0355   0.1237   0.2407   0.2544   1.6349
     1.6672   1.9772   1.9943   2.0560   2.0849   2.1965   2.2340   2.2776
     2.4204   2.4880   2.5171   2.5230   2.5336   2.6221   2.6405   2.6490
     2.7061   2.7906   2.8169   2.8291   2.9010   2.9900   3.0231   3.0888
     3.0974   3.1044   3.1527   3.1935   3.1988   3.2190   3.2307   3.2420
     3.2529   3.2795   3.3863   3.4240   3.4469   3.4565   3.5207   3.5762
     3.6433   3.6855   3.7980   3.9718   4.0072   4.0815   4.1724   4.3120
     4.3283   4.3842   4.5835   4.5924   4.8047   4.8291   5.0784   5.1573
     5.2382   5.3230   5.4748   5.5090   5.5251   5.5829   5.6701   5.7015
     5.7915   5.8553   5.8670   5.8764   5.9453   6.0399   6.0404   6.0671
     6.1369   6.2206   6.2329   6.2877   6.3698   6.5735   6.6270   6.7574
     6.8318   6.9817   7.0274   7.1595   7.2948   7.6125   7.9111   8.2492
     8.3469   8.6702   8.7883   8.8781   8.9381   8.9956   9.1975   9.2876
     9.3474   9.3829   9.4941

          k = 0.0000 0.0280 0.0000 ( 34717 PWs)   bands (ev):

   -57.7043 -57.6740 -57.3249 -57.2934 -57.2421 -57.1159 -57.0839 -57.0789
   -57.0620 -57.0486 -56.9973 -56.9666 -56.7390 -56.7064 -56.1546 -56.1241
   -34.1173 -33.9868 -33.9622 -33.9014 -33.8536 -33.8198 -33.7798 -33.6408
   -33.6212 -33.5887 -33.5509 -33.5473 -33.5301 -33.5102 -33.5027 -33.4938
   -33.4816 -33.4717 -33.4397 -33.4004 -33.3266 -33.2987 -33.2940 -33.2725
   -33.2698 -33.2630 -33.2600 -33.2481 -33.2465 -33.2447 -33.2443 -33.2283
   -33.2111 -33.1948 -33.1867 -33.1545 -33.1513 -33.0035 -32.9881 -32.9697
   -32.9240 -32.8442 -32.5491 -32.5076 -32.4851 -32.3729 -32.2936 -32.2065
   -20.2973 -17.9602 -17.7918 -17.5132 -17.4195 -17.3387 -17.2344 -17.1008
   -17.0438 -17.0064 -17.0016 -16.8940 -16.8290 -16.7712 -16.7159 -16.6992
   -16.6848 -16.6761 -16.6678 -16.6496 -16.6035 -16.4491 -16.3943 -16.3762
   -16.3588 -16.3059 -16.2206 -16.1831 -16.1617 -16.0217 -15.9765 -14.7513
   -14.6809 -11.3771  -7.2172  -5.4682  -5.3230  -5.2646  -5.2352  -5.1400
    -5.0775  -5.0571  -4.7723  -4.7124  -4.4449  -4.4094  -4.4023  -4.3211
    -4.3100  -4.1679  -4.1336  -4.1223  -4.1003  -4.0793  -4.0425  -4.0401
    -3.9739  -3.9703  -3.9588  -3.9016  -3.8618  -3.8552  -3.8453  -3.7740
    -3.7290  -3.7159  -3.6740  -3.6244  -3.5842  -3.5644  -3.4373  -3.3613
    -3.3052  -3.2458  -3.1831  -3.1134  -2.9430  -2.8797  -2.7475  -2.7349
    -2.6217  -2.6073  -2.5328  -2.5185  -2.4875  -2.4528  -2.4206  -2.4156
    -2.3960  -2.3706  -2.2963  -2.2855  -2.1767  -2.1508  -2.1449  -2.1040
    -2.0308  -2.0061  -1.9629  -1.8839  -1.8188  -1.7723  -1.7154  -1.6903
    -1.6518  -1.6370  -1.5733  -1.5345  -1.4892  -1.4466  -1.4438  -1.4051
    -1.3629  -1.2796  -1.2276  -1.2217  -1.1662  -1.0968  -1.0707  -1.0309
    -1.0181  -0.9131  -0.8682  -0.7996  -0.7669  -0.7152  -0.6172  -0.6013
    -0.4042  -0.2779  -0.0990  -0.0898   0.1387   0.1943   0.2209   1.7211
     1.7671   1.9780   2.0555   2.1203   2.1431   2.2090   2.2655   2.3038
     2.4150   2.4527   2.4913   2.5257   2.5770   2.5950   2.6207   2.6828
     2.7237   2.7612   2.7875   2.9021   2.9131   2.9413   2.9663   3.0017
     3.1014   3.1071   3.1262   3.1662   3.1839   3.1961   3.2483   3.2947
     3.3272   3.3625   3.3967   3.4640   3.4962   3.5439   3.5520   3.6411
     3.6555   3.6757   3.7618   3.9498   4.0238   4.1055   4.1834   4.2759
     4.3155   4.3882   4.5332   4.6865   4.8593   4.9156   5.0816   5.2497
     5.2956   5.3275   5.5289   5.5627   5.5934   5.6213   5.6760   5.7121
     5.7759   5.7839   5.8423   5.8681   5.8881   5.9401   6.0625   6.1180
     6.1418   6.1470   6.1717   6.1990   6.2668   6.5478   6.5926   6.6907
     6.8414   6.9269   6.9581   7.0914   7.2271   7.6111   7.9349   8.0205
     8.0550   8.4505   8.5641   8.8414   8.9329   8.9985   9.0790   9.1422
     9.2782   9.4470   9.5136

          k = 0.0000 0.0560 0.0000 ( 34721 PWs)   bands (ev):

   -57.6979 -57.6804 -57.3183 -57.3000 -57.2413 -57.1098 -57.0900 -57.0725
   -57.0629 -57.0550 -56.9909 -56.9731 -56.7324 -56.7130 -56.1482 -56.1305
   -34.0475 -33.9815 -33.9672 -33.8843 -33.8528 -33.8372 -33.7825 -33.6055
   -33.5829 -33.5815 -33.5444 -33.5369 -33.5150 -33.5136 -33.4872 -33.4808
   -33.4662 -33.4368 -33.4284 -33.3809 -33.3267 -33.3214 -33.3212 -33.3101
   -33.2944 -33.2847 -33.2762 -33.2745 -33.2619 -33.2559 -33.2427 -33.2406
   -33.2198 -33.2079 -33.1802 -33.1750 -33.1369 -32.9985 -32.9845 -32.9730
   -32.9369 -32.9138 -32.5028 -32.4898 -32.4784 -32.3563 -32.3105 -32.2806
   -20.2970 -17.7891 -17.6332 -17.3819 -17.2854 -17.2698 -17.2285 -17.1751
   -17.1454 -16.9718 -16.9609 -16.9269 -16.8827 -16.8297 -16.7980 -16.7333
   -16.7245 -16.6937 -16.6359 -16.6055 -16.5503 -16.5145 -16.4337 -16.3865
   -16.3722 -16.3101 -16.2496 -16.2043 -16.1654 -16.1221 -16.0496 -14.7695
   -14.7315 -11.3763  -7.2163  -5.4385  -5.2460  -5.0844  -5.0470  -4.9338
    -4.8671  -4.8344  -4.5704  -4.5139  -4.4822  -4.4271  -4.4176  -4.3757
    -4.3408  -4.2681  -4.2441  -4.2206  -4.2046  -4.1957  -4.1648  -4.0839
    -4.0672  -4.0155  -3.9965  -3.9781  -3.9389  -3.9002  -3.8633  -3.8261
    -3.8060  -3.7396  -3.6439  -3.5940  -3.4413  -3.4357  -3.3100  -3.2752
    -3.2458  -3.2213  -3.2009  -3.0905  -2.8912  -2.8515  -2.8441  -2.8065
    -2.7299  -2.6778  -2.5554  -2.4815  -2.4519  -2.3303  -2.3236  -2.3197
    -2.3120  -2.2578  -2.2154  -2.1885  -2.1557  -2.1265  -2.0405  -2.0197
    -1.9692  -1.9564  -1.9273  -1.9132  -1.8915  -1.8576  -1.8261  -1.7901
    -1.7535  -1.7043  -1.6337  -1.5508  -1.5369  -1.5197  -1.4661  -1.4290
    -1.3900  -1.3732  -1.3589  -1.2995  -1.2482  -1.2267  -1.1624  -1.1075
    -1.0794  -1.0324  -0.9283  -0.8937  -0.8597  -0.7941  -0.7732  -0.6679
    -0.5963  -0.4727  -0.2516   0.0837   0.1358   0.1710   0.1777   1.8567
     2.0167   2.0880   2.1012   2.1997   2.2251   2.2609   2.3568   2.3801
     2.3879   2.4020   2.4241   2.4676   2.4953   2.5284   2.6650   2.6856
     2.7237   2.7667   2.8215   2.8940   2.9059   2.9284   2.9629   2.9633
     3.0054   3.0893   3.1268   3.1477   3.2406   3.2515   3.2766   3.3210
     3.3581   3.3760   3.4320   3.5284   3.5346   3.6257   3.6669   3.7167
     3.7501   3.8147   3.8481   3.8818   3.9213   4.1212   4.1328   4.1503
     4.3175   4.3676   4.5559   4.8980   5.0066   5.0605   5.1637   5.3704
     5.3741   5.4686   5.5085   5.5402   5.6376   5.7131   5.7162   5.7242
     5.7705   5.7786   5.7920   5.8474   5.8757   5.9439   5.9654   5.9799
     5.9916   6.0460   6.1476   6.1636   6.2964   6.3651   6.4039   6.6168
     6.6523   6.7735   6.8550   7.0389   7.2179   7.3317   7.4490   7.7467
     8.0988   8.2204   8.3501   8.6304   8.9003   8.9860   9.2961   9.3350
     9.4067   9.4530   9.5713

          k = 0.0000-0.0840 0.0000 ( 34678 PWs)   bands (ev):

   -57.6892 -57.6891 -57.3108 -57.3075 -57.2409 -57.1044 -57.0955 -57.0638
   -57.0637 -57.0633 -56.9825 -56.9815 -56.7255 -56.7199 -56.1394 -56.1394
   -33.9744 -33.9743 -33.9510 -33.9508 -33.8609 -33.8608 -33.6957 -33.6717
   -33.5756 -33.5723 -33.5386 -33.5276 -33.5233 -33.4875 -33.4632 -33.4344
   -33.4225 -33.4160 -33.3837 -33.3834 -33.3733 -33.3555 -33.3497 -33.3337
   -33.3325 -33.2933 -33.2866 -33.2845 -33.2781 -33.2775 -33.2412 -33.2394
   -33.2252 -33.2234 -33.1733 -33.1725 -33.0598 -33.0393 -32.9815 -32.9757
   -32.9509 -32.9476 -32.4963 -32.4963 -32.3804 -32.3804 -32.3334 -32.3334
   -20.2968 -17.5788 -17.5145 -17.4184 -17.3981 -17.2385 -17.1851 -17.0746
   -17.0713 -17.0254 -17.0131 -16.9991 -16.8817 -16.8473 -16.8473 -16.8094
   -16.8028 -16.6060 -16.6041 -16.5363 -16.5341 -16.4971 -16.4957 -16.4146
   -16.4129 -16.2722 -16.2701 -16.2097 -16.2054 -16.1434 -16.1115 -14.7682
   -14.7681 -11.3759  -7.2158  -5.4303  -5.2518  -4.8095  -4.7411  -4.7400
    -4.6648  -4.6519  -4.6467  -4.6106  -4.5814  -4.5206  -4.5113  -4.4098
    -4.3827  -4.3480  -4.3464  -4.3171  -4.3038  -4.2885  -4.2836  -4.0642
    -4.0420  -4.0328  -4.0200  -4.0015  -3.9505  -3.8192  -3.8027  -3.7919
    -3.7242  -3.7038  -3.6492  -3.5111  -3.4813  -3.3482  -3.3350  -3.2192
    -3.1472  -3.1255  -3.0523  -3.0273  -2.9717  -2.9289  -2.8129  -2.7979
    -2.7066  -2.7017  -2.5861  -2.5479  -2.5224  -2.5037  -2.4795  -2.4555
    -2.4473  -2.4270  -2.3392  -2.2555  -2.0356  -2.0156  -1.9734  -1.9481
    -1.9349  -1.8371  -1.8309  -1.8179  -1.7932  -1.7545  -1.7398  -1.7104
    -1.6747  -1.6499  -1.6236  -1.5683  -1.5258  -1.4963  -1.4897  -1.4632
    -1.4335  -1.4260  -1.4182  -1.3926  -1.3700  -1.3364  -1.2257  -1.1969
    -1.1059  -1.0819  -1.0050  -0.9864  -0.9788  -0.9685  -0.9440  -0.5337
    -0.5291  -0.4667  -0.4522   0.1359   0.1360   0.1787   0.1804   2.0310
     2.0342   2.2085   2.2119   2.2125   2.2269   2.2754   2.3299   2.3393
     2.3393   2.3630   2.3736   2.5180   2.5456   2.5466   2.5912   2.6548
     2.7059   2.7286   2.7412   2.8815   2.9134   2.9809   2.9882   3.0475
     3.0484   3.0928   3.1031   3.1687   3.2079   3.2237   3.2362   3.3943
     3.4172   3.4285   3.4313   3.4638   3.4743   3.7128   3.7562   3.7942
     3.7977   3.8221   3.9003   3.9225   3.9585   4.0656   4.0680   4.1180
     4.1186   4.4083   4.6647   4.9513   4.9917   5.2524   5.3180   5.4482
     5.4799   5.5005   5.5006   5.5750   5.5878   5.6378   5.6555   5.6611
     5.7898   5.7947   5.8174   5.8422   5.8534   5.8581   5.8717   5.9651
     6.0117   6.0523   6.0670   6.1514   6.1877   6.3921   6.4639   6.5558
     6.5999   6.7463   6.7624   6.9725   7.0256   7.1053   7.3311   7.7298
     7.8967   8.1663   8.4470   8.7905   8.8450   8.8776   9.1534   9.5740
     9.7012   9.7382   9.8192

          k = 0.0253 0.0000 0.0000 ( 34707 PWs)   bands (ev):

   -57.7066 -57.6716 -57.3272 -57.2910 -57.2426 -57.1181 -57.0818 -57.0811
   -57.0616 -57.0462 -56.9997 -56.9642 -56.7415 -56.7039 -56.1570 -56.1217
   -34.1430 -33.9888 -33.9603 -33.9069 -33.8796 -33.8133 -33.7529 -33.6642
   -33.6280 -33.6153 -33.5765 -33.5468 -33.5420 -33.5181 -33.4961 -33.4844
   -33.4735 -33.4638 -33.4417 -33.4004 -33.3326 -33.3006 -33.2799 -33.2710
   -33.2683 -33.2678 -33.2528 -33.2502 -33.2498 -33.2398 -33.2382 -33.2208
   -33.1899 -33.1896 -33.1836 -33.1506 -33.1280 -33.0074 -32.9918 -32.9675
   -32.9190 -32.8163 -32.5747 -32.5103 -32.4827 -32.3790 -32.2874 -32.1791
   -20.2972 -17.9922 -17.8095 -17.5239 -17.4428 -17.3657 -17.2677 -17.1521
   -17.1011 -16.9847 -16.9466 -16.8809 -16.8269 -16.8160 -16.7992 -16.7885
   -16.7398 -16.7005 -16.5662 -16.5447 -16.4626 -16.4619 -16.4139 -16.3781
   -16.3496 -16.3210 -16.1922 -16.1738 -16.1596 -15.9906 -15.9393 -14.7401
   -14.6573 -11.3763  -7.2147  -5.4951  -5.3191  -5.2724  -5.2299  -5.1070
    -5.0530  -5.0263  -4.8425  -4.8221  -4.6272  -4.4775  -4.4435  -4.3398
    -4.3204  -4.3104  -4.2582  -4.1063  -4.0474  -4.0429  -4.0058  -3.9526
    -3.9458  -3.9181  -3.8390  -3.8083  -3.7613  -3.7263  -3.7034  -3.7010
    -3.6289  -3.6075  -3.5796  -3.5719  -3.5250  -3.4546  -3.3231  -3.3089
    -3.2606  -3.2306  -3.1780  -3.1151  -3.0426  -2.9860  -2.9302  -2.9037
    -2.7515  -2.6835  -2.6454  -2.6098  -2.5871  -2.5393  -2.5284  -2.5123
    -2.4409  -2.3438  -2.3310  -2.2455  -2.2299  -2.1901  -2.1642  -2.0796
    -2.0185  -2.0097  -1.9713  -1.8909  -1.8547  -1.7618  -1.7488  -1.6588
    -1.5943  -1.5904  -1.5468  -1.4724  -1.4670  -1.3725  -1.3641  -1.3538
    -1.3460  -1.2998  -1.2821  -1.1995  -1.1360  -1.1255  -1.0826  -1.0473
    -0.9792  -0.9244  -0.8375  -0.7890  -0.7826  -0.6600  -0.6525  -0.5586
    -0.4304  -0.2438  -0.1242  -0.0620   0.1096   0.1980   0.1988   1.6541
     1.7173   1.9935   2.0625   2.1401   2.2133   2.2283   2.2610   2.3696
     2.3761   2.4488   2.4951   2.5128   2.5335   2.5698   2.5887   2.6275
     2.6472   2.7247   2.7483   2.8573   2.8740   2.9597   3.0210   3.0935
     3.1134   3.1340   3.1542   3.1949   3.1990   3.2449   3.2618   3.3321
     3.3672   3.3918   3.4415   3.4643   3.5280   3.5502   3.5824   3.5919
     3.6545   3.7201   3.7375   3.9044   3.9925   4.0868   4.1666   4.2660
     4.3667   4.3864   4.5456   4.6727   4.8538   4.9055   4.9167   5.0620
     5.1124   5.1376   5.1784   5.3436   5.5643   5.6173   5.6859   5.8553
     5.8736   5.9155   5.9515   6.0260   6.0714   6.1135   6.1512   6.2004
     6.2103   6.2431   6.2483   6.2996   6.4410   6.5147   6.6356   6.6631
     6.8120   6.8611   7.0266   7.1502   7.2947   7.7392   7.8643   8.0893
     8.3318   8.3635   8.4287   8.6809   8.8392   9.0121   9.1522   9.3486
     9.3580   9.4468   9.4850

          k = 0.0253 0.0280 0.0000 ( 34687 PWs)   bands (ev):

   -57.7043 -57.6740 -57.3248 -57.2934 -57.2421 -57.1158 -57.0839 -57.0789
   -57.0620 -57.0486 -56.9973 -56.9666 -56.7390 -56.7064 -56.1546 -56.1241
   -34.1176 -33.9868 -33.9622 -33.9007 -33.8537 -33.8197 -33.7798 -33.6414
   -33.6212 -33.5903 -33.5511 -33.5440 -33.5314 -33.5257 -33.5030 -33.4823
   -33.4755 -33.4706 -33.4397 -33.3936 -33.3265 -33.2988 -33.2917 -33.2724
   -33.2699 -33.2638 -33.2631 -33.2560 -33.2461 -33.2447 -33.2435 -33.2271
   -33.2113 -33.1948 -33.1868 -33.1544 -33.1513 -33.0035 -32.9902 -32.9689
   -32.9240 -32.8442 -32.5490 -32.5085 -32.4845 -32.3729 -32.2936 -32.2065
   -20.2971 -17.9319 -17.7528 -17.4726 -17.3930 -17.3186 -17.2412 -17.1359
   -17.1071 -17.0149 -16.9712 -16.8680 -16.8380 -16.8153 -16.7936 -16.7787
   -16.7205 -16.7100 -16.6096 -16.5905 -16.5148 -16.4846 -16.3914 -16.3747
   -16.3653 -16.3376 -16.2093 -16.1826 -16.1614 -16.0222 -15.9762 -14.7503
   -14.6809 -11.3759  -7.2142  -5.4719  -5.2524  -5.2342  -5.1893  -5.0306
    -4.9747  -4.9461  -4.7673  -4.7094  -4.5713  -4.4113  -4.3801  -4.3535
    -4.2685  -4.2623  -4.1954  -4.1277  -4.0948  -4.0737  -4.0421  -4.0310
    -3.9844  -3.9511  -3.9213  -3.8766  -3.8306  -3.8187  -3.7926  -3.7274
    -3.7046  -3.6731  -3.6236  -3.6132  -3.5494  -3.5318  -3.3553  -3.2841
    -3.2600  -3.2130  -3.1493  -3.0830  -2.9901  -2.9589  -2.7892  -2.7121
    -2.6887  -2.6445  -2.6178  -2.5434  -2.5134  -2.4627  -2.4570  -2.4294
    -2.4131  -2.3950  -2.3488  -2.3111  -2.2243  -2.1869  -2.1243  -2.1095
    -2.0747  -2.0014  -1.9580  -1.8998  -1.8728  -1.8335  -1.7713  -1.6835
    -1.6535  -1.6253  -1.5976  -1.5711  -1.5178  -1.4710  -1.4485  -1.4068
    -1.3527  -1.3367  -1.2785  -1.2648  -1.2137  -1.1115  -1.1025  -1.0692
    -1.0136  -0.8938  -0.8453  -0.8411  -0.7736  -0.7463  -0.7060  -0.6675
[...]
    -1.3040  -1.2760  -1.2437  -1.1979  -1.1475  -1.0404  -1.0281  -1.0199
    -0.9978  -0.9566  -0.9147  -0.8483  -0.7653  -0.7111  -0.6527  -0.6022
    -0.5981  -0.5437  -0.5261   0.0587   0.0588   0.2035   0.2052   2.1455
     2.1464   2.1930   2.1949   2.2289   2.2300   2.2560   2.2883   2.4797
     2.4856   2.5166   2.5459   2.5999   2.6080   2.6714   2.6735   2.6823
     2.6836   2.8345   2.9003   2.9743   2.9889   3.0252   3.0328   3.0863
     3.2103   3.2406   3.2634   3.3233   3.3646   3.3808   3.4359   3.4834
     3.4911   3.5134   3.5396   3.5714   3.5945   3.6700   3.6880   3.7350
     3.8238   3.8810   3.8974   3.9453   3.9457   4.0885   4.0953   4.1041
     4.1046   4.6045   4.7757   4.7795   4.7950   4.8609   4.9120   4.9171
     4.9330   4.9746   5.0157   5.2401   5.3307   5.3493   5.3586   5.6947
     5.7915   5.9022   5.9173   5.9664   6.0366   6.1536   6.2879   6.3403
     6.3567   6.3657   6.4000   6.5705   6.6470   6.6577   6.6578   6.6953
     6.7641   6.8388   6.8399   6.8448   6.8457   7.3678   7.3996   7.5329
     7.6742   7.8331   8.0044   8.1771   8.2249   8.3233   8.4127   8.8044
     8.9212   9.0738   9.0853

          k =-0.0253 0.0280 0.0000 ( 34687 PWs)   bands (ev):

   -57.7043 -57.6741 -57.3248 -57.2933 -57.2421 -57.1158 -57.0839 -57.0789
   -57.0620 -57.0485 -56.9973 -56.9665 -56.7390 -56.7064 -56.1548 -56.1242
   -34.1177 -33.9869 -33.9622 -33.9008 -33.8536 -33.8197 -33.7799 -33.6414
   -33.6212 -33.5903 -33.5511 -33.5440 -33.5314 -33.5256 -33.5029 -33.4822
   -33.4754 -33.4705 -33.4397 -33.3936 -33.3264 -33.2988 -33.2917 -33.2724
   -33.2696 -33.2638 -33.2633 -33.2560 -33.2460 -33.2447 -33.2434 -33.2271
   -33.2113 -33.1948 -33.1867 -33.1543 -33.1513 -33.0035 -32.9901 -32.9689
   -32.9239 -32.8441 -32.5492 -32.5087 -32.4847 -32.3731 -32.2937 -32.2066
   -20.2971 -17.9320 -17.7527 -17.4726 -17.3930 -17.3187 -17.2412 -17.1359
   -17.1072 -17.0146 -16.9712 -16.8685 -16.8380 -16.8162 -16.7932 -16.7787
   -16.7205 -16.7103 -16.6094 -16.5902 -16.5148 -16.4846 -16.3914 -16.3748
   -16.3653 -16.3376 -16.2093 -16.1826 -16.1614 -16.0222 -15.9762 -14.7499
   -14.6806 -11.3759  -7.2142  -5.4718  -5.2521  -5.2342  -5.1893  -5.0310
    -4.9747  -4.9464  -4.7673  -4.7102  -4.5712  -4.4110  -4.3801  -4.3538
    -4.2699  -4.2589  -4.1967  -4.1260  -4.0994  -4.0730  -4.0447  -4.0308
    -3.9831  -3.9493  -3.9227  -3.8778  -3.8308  -3.8202  -3.7929  -3.7273
    -3.7076  -3.6726  -3.6233  -3.6124  -3.5479  -3.5307  -3.3565  -3.2822
    -3.2599  -3.2111  -3.1500  -3.0809  -2.9913  -2.9551  -2.7881  -2.7115
    -2.6878  -2.6449  -2.6176  -2.5409  -2.5142  -2.4600  -2.4565  -2.4314
    -2.4140  -2.3932  -2.3483  -2.3100  -2.2262  -2.1841  -2.1302  -2.1127
    -2.0706  -1.9978  -1.9595  -1.9032  -1.8709  -1.8340  -1.7515  -1.7168
    -1.6618  -1.6075  -1.6016  -1.5690  -1.5243  -1.4797  -1.4449  -1.3984
    -1.3526  -1.3414  -1.2896  -1.2522  -1.2040  -1.1134  -1.1000  -1.0676
    -1.0153  -0.8989  -0.8493  -0.8342  -0.7644  -0.7457  -0.7183  -0.6684
    -0.4423  -0.2888  -0.1435  -0.0928   0.1420   0.1715   0.1817   1.7130
     1.8373   2.0086   2.0912   2.1863   2.2364   2.2766   2.3106   2.3949
     2.4074   2.4408   2.4771   2.5213   2.5247   2.5379   2.5984   2.6598
     2.6968   2.7303   2.7667   2.8029   2.9291   2.9765   2.9950   3.0182
     3.0977   3.1260   3.1381   3.1656   3.2001   3.2300   3.3380   3.3641
     3.3956   3.4109   3.4557   3.4962   3.5521   3.5611   3.6280   3.6532
     3.6648   3.6995   3.7396   3.8840   3.9821   4.1313   4.1778   4.2433
     4.2991   4.4442   4.5019   4.7676   4.9277   4.9457   4.9749   5.0702
     5.1498   5.1666   5.2130   5.3781   5.6375   5.6705   5.7222   5.7801
     5.8415   5.8579   5.8632   5.9963   6.0662   6.0711   6.1154   6.1367
     6.1886   6.2002   6.2096   6.2377   6.4210   6.5162   6.6034   6.6621
     6.7818   6.8511   6.9557   7.1520   7.2245   7.4997   7.9468   8.0314
     8.0883   8.2588   8.4420   8.5800   8.6616   8.7771   8.9575   9.2747
     9.3508   9.4711   9.5109

          k =-0.0253 0.0560 0.0000 ( 34699 PWs)   bands (ev):

   -57.6980 -57.6805 -57.3183 -57.2999 -57.2413 -57.1098 -57.0899 -57.0725
   -57.0628 -57.0550 -56.9908 -56.9731 -56.7324 -56.7130 -56.1484 -56.1307
   -34.0478 -33.9816 -33.9673 -33.8839 -33.8529 -33.8371 -33.7826 -33.6055
   -33.5835 -33.5816 -33.5445 -33.5348 -33.5180 -33.5163 -33.4872 -33.4811
   -33.4651 -33.4368 -33.4230 -33.3755 -33.3271 -33.3221 -33.3169 -33.3099
   -33.2945 -33.2851 -33.2761 -33.2734 -33.2620 -33.2583 -33.2467 -33.2429
   -33.2197 -33.2085 -33.1802 -33.1749 -33.1367 -32.9985 -32.9858 -32.9729
   -32.9369 -32.9137 -32.5036 -32.4898 -32.4785 -32.3565 -32.3107 -32.2807
   -20.2968 -17.7657 -17.5974 -17.3526 -17.2733 -17.2548 -17.2029 -17.1758
   -17.1484 -17.0037 -16.9793 -16.8890 -16.8847 -16.8398 -16.8064 -16.7802
   -16.7562 -16.6796 -16.6335 -16.6146 -16.5877 -16.5402 -16.4356 -16.4225
   -16.3656 -16.2929 -16.2428 -16.2036 -16.1651 -16.1230 -16.0490 -14.7685
   -14.7313 -11.3751  -7.2132  -5.4454  -5.2452  -5.0404  -4.9564  -4.8229
    -4.7654  -4.7247  -4.5667  -4.5054  -4.4995  -4.4227  -4.4022  -4.3531
    -4.2800  -4.2408  -4.2234  -4.2009  -4.1564  -4.1492  -4.1167  -4.0700
    -4.0408  -4.0199  -4.0038  -3.9453  -3.9325  -3.8820  -3.8719  -3.8307
    -3.7818  -3.7217  -3.6636  -3.5799  -3.4801  -3.3953  -3.3236  -3.2837
    -3.2461  -3.2256  -3.1786  -3.0215  -2.9343  -2.8729  -2.8345  -2.7906
    -2.7618  -2.6534  -2.6000  -2.5182  -2.4953  -2.4481  -2.4019  -2.3703
    -2.3514  -2.3321  -2.2996  -2.2742  -2.1980  -2.1487  -2.1352  -2.0445
    -2.0295  -2.0124  -1.9537  -1.9512  -1.9128  -1.8703  -1.8391  -1.8161
    -1.7512  -1.7187  -1.6818  -1.6506  -1.5881  -1.5479  -1.5137  -1.4689
    -1.4390  -1.3810  -1.3561  -1.3089  -1.2315  -1.2147  -1.1312  -1.1118
    -1.0602  -1.0189  -0.9336  -0.8785  -0.8229  -0.8082  -0.7473  -0.6881
    -0.6157  -0.4761  -0.2665   0.0848   0.1214   0.1486   0.1810   1.8539
     2.0403   2.1257   2.1712   2.2189   2.2604   2.2985   2.3236   2.3760
     2.4354   2.4502   2.4766   2.5041   2.5129   2.5751   2.6835   2.7153
     2.7354   2.7679   2.8187   2.8323   2.8841   2.9402   2.9610   2.9774
     3.0150   3.0263   3.1600   3.1986   3.2807   3.3075   3.3254   3.3614
     3.4021   3.4281   3.4512   3.5337   3.5511   3.6254   3.6475   3.7246
     3.7832   3.8073   3.8542   3.8893   3.8985   4.0627   4.1091   4.1578
     4.3351   4.3753   4.6081   4.9577   5.0103   5.1186   5.1311   5.1483
     5.2508   5.2777   5.3046   5.4202   5.5027   5.5534   5.6308   5.7536
     5.8135   5.8394   5.8859   5.9283   5.9490   5.9891   6.0445   6.0570
     6.1255   6.1465   6.2216   6.3139   6.3718   6.3967   6.4734   6.6455
     6.6884   6.7890   6.8296   7.0326   7.1617   7.3591   7.4948   7.5848
     7.9898   8.1918   8.3568   8.5399   8.6613   8.8581   9.0597   9.1098
     9.1694   9.4958   9.6198

          k =-0.0506 0.0280 0.0000 ( 34685 PWs)   bands (ev):

   -57.7043 -57.6741 -57.3248 -57.2933 -57.2421 -57.1157 -57.0838 -57.0791
   -57.0619 -57.0486 -56.9973 -56.9665 -56.7390 -56.7064 -56.1548 -56.1242
   -34.1183 -33.9869 -33.9622 -33.8994 -33.8539 -33.8197 -33.7799 -33.6428
   -33.6212 -33.5937 -33.5517 -33.5450 -33.5370 -33.5291 -33.5028 -33.4819
   -33.4682 -33.4582 -33.4397 -33.3774 -33.3262 -33.2991 -33.2874 -33.2739
   -33.2724 -33.2707 -33.2693 -33.2640 -33.2461 -33.2447 -33.2423 -33.2248
   -33.2117 -33.1950 -33.1867 -33.1542 -33.1512 -33.0036 -32.9944 -32.9676
   -32.9239 -32.8441 -32.5491 -32.5105 -32.4838 -32.3730 -32.2938 -32.2066
   -20.2967 -17.8698 -17.6590 -17.3776 -17.3511 -17.2589 -17.2338 -17.2221
   -17.1314 -17.0523 -16.9716 -16.9300 -16.8808 -16.8660 -16.8628 -16.8427
   -16.7728 -16.7525 -16.5688 -16.5375 -16.5145 -16.4463 -16.4237 -16.3866
   -16.3786 -16.3194 -16.2003 -16.1809 -16.1602 -16.0234 -15.9760 -14.7480
   -14.6806 -11.3735  -7.2082  -5.4849  -5.2361  -5.2325  -4.8999  -4.8424
    -4.7298  -4.7140  -4.6848  -4.6644  -4.6391  -4.5171  -4.4360  -4.3546
    -4.3298  -4.3105  -4.1684  -4.1349  -4.0704  -4.0356  -4.0172  -4.0018
    -3.9907  -3.9179  -3.8683  -3.8243  -3.7827  -3.7701  -3.7270  -3.6987
    -3.6629  -3.6426  -3.5907  -3.5604  -3.4484  -3.3175  -3.2767  -3.2624
    -3.2179  -3.1778  -3.1080  -3.0672  -2.9619  -2.9449  -2.8799  -2.8475
    -2.7511  -2.6995  -2.6687  -2.6566  -2.6127  -2.5989  -2.5437  -2.5042
    -2.4458  -2.3956  -2.3892  -2.3438  -2.3172  -2.2629  -2.1882  -2.1456
    -2.1225  -2.0707  -2.0335  -1.9822  -1.9478  -1.9130  -1.8685  -1.8408
    -1.7631  -1.7490  -1.7201  -1.6496  -1.5482  -1.5149  -1.4937  -1.4255
    -1.3762  -1.3552  -1.2875  -1.2659  -1.2455  -1.1549  -1.1052  -1.0219
    -0.9809  -0.8874  -0.8629  -0.8217  -0.7869  -0.7719  -0.7144  -0.6977
    -0.5216  -0.3198  -0.2677  -0.0802   0.1027   0.1321   0.1553   1.6965
     1.8974   2.0528   2.1137   2.1189   2.1646   2.2319   2.3520   2.3637
     2.3976   2.4288   2.5093   2.5588   2.5670   2.5945   2.6743   2.6873
     2.7346   2.7939   2.8240   2.8944   2.9461   2.9726   3.0334   3.0510
     3.0812   3.1512   3.1631   3.1927   3.2935   3.3466   3.3680   3.4010
     3.4365   3.4480   3.5375   3.5762   3.5963   3.6448   3.6682   3.6760
     3.7082   3.7619   3.8108   3.8602   3.9219   4.0494   4.1613   4.2743
     4.2842   4.4153   4.6134   4.6804   4.7568   4.8028   4.8456   4.9791
     5.0031   5.1193   5.2161   5.4618   5.5872   5.6338   5.7124   5.7955
     5.8526   5.8643   5.9170   5.9404   5.9758   6.0878   6.1119   6.1326
     6.2303   6.4233   6.4765   6.5308   6.5695   6.6039   6.6759   6.7416
     6.7901   6.8100   6.9665   7.1145   7.1606   7.4016   7.5509   7.7051
     8.1342   8.1578   8.2596   8.3984   8.7693   8.9638   9.0011   9.0506
     9.3820   9.4802   9.6135

          k =-0.0506 0.0560 0.0000 ( 34596 PWs)   bands (ev):

   -57.6980 -57.6805 -57.3183 -57.2999 -57.2413 -57.1097 -57.0899 -57.0726
   -57.0628 -57.0550 -56.9908 -56.9731 -56.7324 -56.7130 -56.1484 -56.1307
   -34.0484 -33.9816 -33.9673 -33.8827 -33.8531 -33.8367 -33.7827 -33.6054
   -33.5846 -33.5816 -33.5448 -33.5308 -33.5246 -33.5195 -33.4872 -33.4819
   -33.4631 -33.4368 -33.4134 -33.3619 -33.3280 -33.3263 -33.3095 -33.3072
   -33.2948 -33.2850 -33.2760 -33.2710 -33.2628 -33.2621 -33.2560 -33.2480
   -33.2199 -33.2101 -33.1802 -33.1745 -33.1362 -32.9986 -32.9886 -32.9727
   -32.9368 -32.9136 -32.5047 -32.4893 -32.4783 -32.3565 -32.3106 -32.2806
   -20.2964 -17.7154 -17.5084 -17.3004 -17.2485 -17.2071 -17.1816 -17.1707
   -17.0992 -17.0449 -17.0146 -16.9220 -16.8653 -16.8576 -16.8535 -16.8156
   -16.7846 -16.7322 -16.6718 -16.6325 -16.6227 -16.5591 -16.5208 -16.4093
   -16.3529 -16.2714 -16.2351 -16.2022 -16.1643 -16.1246 -16.0482 -14.7673
   -14.7317 -11.3725  -7.2070  -5.4596  -5.2440  -5.0308  -4.6669  -4.6254
    -4.5245  -4.5081  -4.4928  -4.4652  -4.4419  -4.3764  -4.3331  -4.3100
    -4.2343  -4.2141  -4.1541  -4.1405  -4.0916  -4.0766  -4.0550  -4.0460
    -4.0244  -4.0058  -3.9777  -3.9239  -3.9035  -3.8967  -3.8307  -3.7968
    -3.7389  -3.6673  -3.6381  -3.5305  -3.4911  -3.3635  -3.3360  -3.2711
    -3.2621  -3.2520  -3.1294  -3.0148  -2.9392  -2.9136  -2.8590  -2.8366
    -2.7649  -2.7349  -2.6927  -2.6185  -2.5998  -2.5763  -2.5363  -2.4982
    -2.4369  -2.4139  -2.3742  -2.3382  -2.3250  -2.3083  -2.2640  -2.1869
    -2.1613  -2.1294  -2.1227  -2.0858  -2.0566  -2.0121  -1.9947  -1.9103
    -1.9004  -1.8609  -1.8419  -1.7325  -1.6462  -1.6149  -1.5818  -1.4869
    -1.4147  -1.3839  -1.3164  -1.2465  -1.2139  -1.1146  -1.0775  -1.0241
    -1.0079  -0.9447  -0.8586  -0.8286  -0.7794  -0.7658  -0.7012  -0.6653
    -0.6596  -0.5262  -0.3332   0.0708   0.1049   0.1229   0.1865   1.8591
     2.0691   2.1563   2.1899   2.2128   2.2359   2.2898   2.3386   2.3842
     2.3958   2.5295   2.5614   2.5707   2.5994   2.6193   2.6746   2.7462
     2.7741   2.7956   2.8300   2.8718   2.9547   2.9947   3.0197   3.0526
     3.0881   3.1272   3.1588   3.2476   3.3265   3.3585   3.3879   3.4316
     3.4695   3.4906   3.5125   3.5333   3.6066   3.6380   3.7021   3.7357
     3.7699   3.8410   3.8709   3.9118   3.9176   3.9445   4.1043   4.1674
     4.2820   4.4641   4.7172   4.7992   4.8074   4.8881   4.9322   5.0834
     5.1563   5.2234   5.2643   5.3163   5.3633   5.4254   5.4874   5.6172
     5.7724   5.8193   5.8728   5.9444   6.0341   6.1159   6.2092   6.2528
     6.2791   6.3444   6.4073   6.4411   6.4945   6.5722   6.6445   6.7087
     6.7240   6.8183   6.8552   6.9773   7.0480   7.4054   7.4464   7.5783
     7.7493   7.9436   8.0815   8.3870   8.5716   8.6237   8.7699   9.0112
     9.2195   9.3188   9.4509

     the Fermi energy is     0.9895 ev

!    total energy              =   -3021.41817915 Ry
     Harris-Foulkes estimate   =   -3021.41817691 Ry
     estimated scf accuracy    <       0.00000036 Ry

     The total energy is the sum of the following terms:

     one-electron contribution =  -41241.30907267 Ry
     hartree contribution      =   20694.79060882 Ry
     xc contribution           =    -553.68120396 Ry
     ewald contribution        =   18078.78170025 Ry
     smearing contrib. (-TS)   =      -0.00021159 Ry

     total magnetization       =     0.00 Bohr mag/cell
     absolute magnetization    =     0.00 Bohr mag/cell

     convergence has been achieved in  10 iterations

     Forces acting on atoms (Ry/au):


     negative rho (up, down):  1.208E-02 1.208E-02
     atom    1 type  1   force =     0.00005101   -0.00036848   -0.13385019
     atom    2 type  2   force =     0.00000972    0.00002073    0.07218145
     atom    3 type  1   force =    -0.00139020    0.00030119   -0.06101823
     atom    4 type  2   force =     0.00284142    0.00049218    0.00636336
     atom    5 type  1   force =     0.00028029    0.00190259    0.00347800
     atom    6 type  2   force =     0.00003237    0.00003940   -0.00289774
     atom    7 type  1   force =    -0.00167065   -0.00076133    0.00402241
     atom    8 type  2   force =     0.00065959   -0.00061830   -0.00128195
     atom    9 type  1   force =    -0.00001296    0.00002514   -0.13360072
     atom   10 type  2   force =    -0.00007715    0.00004951    0.07134851
     atom   11 type  1   force =    -0.00137010   -0.00025154   -0.05596133
     atom   12 type  2   force =     0.00292724   -0.00008671    0.00609514
     atom   13 type  1   force =     0.00028518   -0.00152821    0.00341627
     atom   14 type  2   force =    -0.00122152   -0.00038659   -0.00288448
     atom   15 type  1   force =    -0.00112076    0.00019275    0.00447831
     atom   16 type  2   force =     0.00030281    0.00020336   -0.00054206
     atom   17 type  2   force =    -0.00011879   -0.00007584    0.07937517
     atom   18 type  1   force =     0.00011159   -0.00016543    0.11908478
     atom   19 type  2   force =    -0.00013485   -0.00017614   -0.06663767
     atom   20 type  2   force =    -0.06318754    0.00013296   -0.03223126
     atom   21 type  2   force =     0.06318770    0.00000652   -0.03249724
     atom   22 type  1   force =     0.00073430    0.00107774    0.05970142
     atom   23 type  2   force =    -0.00019251    0.00004539   -0.00173256
     atom   24 type  2   force =    -0.00137338   -0.00000936   -0.02320774
     atom   25 type  2   force =    -0.00314892    0.00058148    0.00790383
     atom   26 type  1   force =     0.00062262    0.00031116    0.00448728
     atom   27 type  2   force =     0.00044634    0.00057051   -0.00374925
     atom   28 type  2   force =     0.00015790   -0.00009634   -0.00119499
     atom   29 type  2   force =     0.00023164   -0.00036032   -0.00049055
     atom   30 type  1   force =     0.00089982   -0.00089601    0.00387860
     atom   31 type  2   force =    -0.00060859    0.00007641   -0.00232117
     atom   32 type  2   force =    -0.00007947    0.00043503   -0.00047508
     atom   33 type  2   force =    -0.00007203    0.00003672    0.07902330
     atom   34 type  1   force =     0.00005446   -0.00021233    0.11893261
     atom   35 type  2   force =    -0.00031994   -0.00007664   -0.06634688
     atom   36 type  2   force =    -0.06316458   -0.00006419   -0.03233903
     atom   37 type  2   force =     0.06331080   -0.00020471   -0.03252319
     atom   38 type  1   force =     0.00066188   -0.00098151    0.05991057
     atom   39 type  2   force =    -0.00050055    0.00010722   -0.00246953
     atom   40 type  2   force =    -0.00119166    0.00030145   -0.02210270
     atom   41 type  2   force =    -0.00317878   -0.00014228    0.00792937
     atom   42 type  1   force =     0.00052994    0.00004929    0.00366243
     atom   43 type  2   force =     0.00064175    0.00024261   -0.00288024
     atom   44 type  2   force =     0.00023584    0.00011525   -0.00112936
     atom   45 type  2   force =     0.00019951    0.00032692   -0.00057263
     atom   46 type  1   force =     0.00089822    0.00048391    0.00397690
     atom   47 type  2   force =    -0.00001891   -0.00016015   -0.00152663
     atom   48 type  2   force =     0.00001566   -0.00044731   -0.00021160
     atom   49 type  3   force =    -0.01583274   -0.00075984    0.01114391
     atom   50 type  2   force =     0.06720453   -0.00036144   -0.00450497
     atom   51 type  4   force =    -0.00268541    0.00001027    0.00450577
     atom   52 type  4   force =    -0.04536272    0.00071029   -0.01211079
     atom   53 type  4   force =     0.00014442    0.00044761    0.00010490
     atom   54 type  4   force =     0.00035617   -0.00010459    0.00028745

     Total force =     0.372288     Total SCF correction =     0.001750
 !ASE

     Writing output data file calc.save
 
     init_run     :     56.76s CPU     69.65s WALL (       1 calls)
     electrons    :   2173.66s CPU   2737.98s WALL (       1 calls)
     forces       :     39.57s CPU     41.59s WALL (       1 calls)

     Called by init_run:
     wfcinit      :     47.75s CPU     60.02s WALL (       1 calls)
     potinit      :      1.43s CPU      1.70s WALL (       1 calls)

     Called by electrons:
     c_bands      :   1895.79s CPU   2392.18s WALL (      10 calls)
     sum_band     :    233.90s CPU    295.42s WALL (      10 calls)
     v_of_rho     :     10.71s CPU     13.46s WALL (      11 calls)
     newd         :     37.53s CPU     41.24s WALL (      11 calls)
     mix_rho      :      0.36s CPU      0.54s WALL (      10 calls)
     vdW_energy   :      1.96s CPU      2.46s WALL (      12 calls)
     vdW_ffts     :      2.87s CPU      3.89s WALL (      24 calls)
     vdW_v        :      1.17s CPU      1.33s WALL (      12 calls)

     Called by c_bands:
     init_us_2    :      5.99s CPU      6.52s WALL (     880 calls)
     cegterg      :   1859.32s CPU   2353.63s WALL (     400 calls)

     Called by *egterg:
     h_psi        :    706.80s CPU   1116.47s WALL (    2407 calls)
     s_psi        :     93.61s CPU     98.91s WALL (    2407 calls)
     g_psi        :      4.97s CPU      5.10s WALL (    1967 calls)
     cdiaghg      :    708.89s CPU    725.71s WALL (    2367 calls)

     Called by h_psi:
     add_vuspsi   :     94.25s CPU     99.21s WALL (    2407 calls)

     General routines
     calbec       :    140.73s CPU    144.15s WALL (    2847 calls)
     fft          :      6.27s CPU      8.19s WALL (     948 calls)
     ffts         :      0.06s CPU      0.09s WALL (      42 calls)
     fftw         :    460.79s CPU    899.24s WALL (  730806 calls)
     interpolate  :      0.35s CPU      0.57s WALL (      42 calls)
     davcio       :      0.01s CPU      1.13s WALL (      40 calls)
 
     Parallel routines
     fft_scatter  :    247.17s CPU    468.56s WALL (  731796 calls)
 
     PWSCF        : 37m52.30s CPU    47m33.48s WALL

 
   This run was terminated on:  14: 7:27  12Feb2018            

=------------------------------------------------------------------------------=
   JOB DONE.
=------------------------------------------------------------------------------=
