  python dir          : /home/vossj/suncat/lib/python2.7/site-packages/espresso
  espresso dir        : /home/vossj/suncat/esdld/espresso-dynpy-beef/bin
  pseudo dir          : /home/alatimer/bin/psp/esp_psp_w_gbrvRu/
  ase-espresso py git : ffa2778-git



     Program PWSCF v.5.1rc2 (svn rev. ) starts on 10Feb2018 at 19:50:38 

     This program is part of the open-source Quantum ESPRESSO suite
     for quantum simulation of materials; please cite
         "P. Giannozzi et al., J. Phys.:Condens. Matter 21 395502 (2009);
          URL http://www.quantum-espresso.org", 
     in publications or presentations arising from this work. More details at
     http://www.quantum-espresso.org/quote

     Parallel version (MPI), running on    16 processors
     R & G space division:  proc/nbgrp/npool/nimage =      16
     Reading input from pw.inp
     Message from routine read_cards :
     DEPRECATED: no units specified in CELL_PARAMETERS card

     Current dimensions of program PWSCF are:
     Max number of different atomic species (ntypx) = 10
     Max number of k-points (npk) =  40000
     Max angular momentum in pseudopotentials (lmaxx) =  3

     **************************************************************************
     Initializing libbeef V0.1.1 with the BEEF-vdW functional.
     Citation: Wellendorff et al., PRB 85, 235149 (2012).
     **************************************************************************


     IMPORTANT: XC functional enforced from input :
     Exchange-correlation      = BEEF ( 1  4 27 13 2)
     Any further DFT definition will be discarded
     Please, verify this is what you really want


     Subspace diagonalization in iterative solution of the eigenvalue problem:
     a serial algorithm will be used

 
     Parallelization info
     --------------------
     sticks:   dense  smooth     PW     G-vecs:    dense   smooth      PW
     Min         281     112     31                68535    17318    2565
     Max         282     113     32                68545    17369    2582
     Sum        4501    1795    503              1096637   277353   41113
 
     Generating pointlists ...
     new r_m :   0.4125 (alat units)  0.7795 (a.u.) for type    1
     new r_m :   0.4125 (alat units)  0.7795 (a.u.) for type    2


     bravais-lattice index     =            0
     lattice parameter (alat)  =       1.8897  a.u.
     unit-cell volume          =    7990.9933 (a.u.)^3
     number of atoms/cell      =           49
     number of atomic types    =            2
     number of electrons       =       390.00
     number of Kohn-Sham states=          295
     kinetic-energy cutoff     =      40.4243  Ry
     charge density cutoff     =     404.2426  Ry
     convergence threshold     =      7.3E-07
     mixing beta               =       0.1000
     number of iterations used =           10  plain     mixing
     Exchange-correlation      = BEEF ( 1  4 27 13 2)
     nstep                     =           50


     celldm(1)=   1.889726  celldm(2)=   0.000000  celldm(3)=   0.000000
     celldm(4)=   0.000000  celldm(5)=   0.000000  celldm(6)=   0.000000

     crystal axes: (cart. coord. in units of alat)
               a(1) = (   6.590708   0.000000   0.000000 )  
               a(2) = (   0.000000   5.950229   0.000000 )  
               a(3) = (   0.000000   0.000000  30.195235 )  

     reciprocal axes: (cart. coord. in units 2 pi/alat)
               b(1) = (  0.151729  0.000000  0.000000 )  
               b(2) = (  0.000000  0.168061  0.000000 )  
               b(3) = (  0.000000  0.000000  0.033118 )  


     PseudoPot. # 1 for Ti read from file:
     /home/alatimer/bin/psp/esp_psp_w_gbrvRu/Ti.UPF
     MD5 check sum: 8e4df49b7f0d34bbd5052bf3f5ea0213
     Pseudo is Ultrasoft, Zval = 12.0
     Generated by new atomic code, or converted to UPF format
     Using radial grid of  851 points,  6 beta functions with: 
                l(1) =   0
                l(2) =   0
                l(3) =   1
                l(4) =   1
                l(5) =   2
                l(6) =   2
     Q(r) pseudized with  8 coefficients,  rinner =    1.000   1.000   1.000
                                                       1.000   1.000

     PseudoPot. # 2 for  O read from file:
     /home/alatimer/bin/psp/esp_psp_w_gbrvRu/O.UPF
     MD5 check sum: e057bbcf3229fb5d8c36c0c92f9568b4
     Pseudo is Ultrasoft + core correction, Zval =  6.0
     Generated using "atomic" code by A. Dal Corso  v.5.0.2 svn rev. 9415
     Using radial grid of 1095 points,  4 beta functions with: 
                l(1) =   0
                l(2) =   0
                l(3) =   1
                l(4) =   1
     Q(r) pseudized with 0 coefficients 


     vdW kernel table read from file vdW_kernel_table
     MD5 check sum: 095c7af220d748ca6e76c0b4c6cfb241

     atomic species   valence    mass     pseudopotential
        Ti1           12.00    47.88000     Ti( 1.00)
        O1             6.00    15.99940      O( 1.00)

     Starting magnetic structure 
     atomic species   magnetization
        Ti1          0.250
        O1           0.500

     No symmetry found



   Cartesian axes

     site n.     atom                  positions (alat units)
         1           Ti1 tau(   1) = (   1.6476770   0.7437786   2.6545865  )
         2           O1  tau(   2) = (   1.6476770   2.2313359   3.9361215  )
         3           Ti1 tau(   3) = (   1.6476770   2.2313359   5.9499405  )
         4           O1  tau(   4) = (   0.3661420   0.7437786   5.9499405  )
         5           Ti1 tau(   5) = (   1.5277661   0.7316361   9.1979924  )
         6           O1  tau(   6) = (   1.6632133   2.1793878  10.6093433  )
         7           Ti1 tau(   7) = (   1.6165400   2.1742892  12.4450098  )
         8           O1  tau(   8) = (   0.4211133   0.7189415  12.7146628  )
         9           Ti1 tau(   9) = (   1.6476770   3.7188931   2.6545865  )
        10           O1  tau(  10) = (   1.6476770   5.2064503   3.9361215  )
        11           Ti1 tau(  11) = (   1.6476770   5.2064503   5.9499405  )
        12           O1  tau(  12) = (   0.3661420   3.7188931   5.9499405  )
        13           Ti1 tau(  13) = (   1.5318737   3.7073984   9.2114718  )
        14           O1  tau(  14) = (   1.6603548   5.2054729  10.6082275  )
        15           Ti1 tau(  15) = (   1.6160620   5.2125286  12.4458513  )
        16           O1  tau(  16) = (   0.3672395   3.6890226  12.4512313  )
        17           O1  tau(  17) = (   1.6476770   2.2313359   1.3730516  )
        18           Ti1 tau(  18) = (   4.9430310   2.2313359   2.6545865  )
        19           O1  tau(  19) = (   4.9430310   2.2313359   4.6684056  )
        20           O1  tau(  20) = (   6.2245660   0.7437786   2.6545865  )
        21           O1  tau(  21) = (   3.6614961   0.7437786   2.6545865  )
        22           Ti1 tau(  22) = (   4.9430310   0.7437786   5.9499405  )
        23           O1  tau(  23) = (   1.6494130   2.2266810   8.0229920  )
        24           O1  tau(  24) = (   4.9430310   2.2313359   7.2314755  )
        25           O1  tau(  25) = (   2.9292120   0.7437786   5.9499405  )
        26           Ti1 tau(  26) = (   4.8570045   2.2038353   9.3960648  )
        27           O1  tau(  27) = (   4.9365002   2.1563787  11.2526517  )
        28           O1  tau(  28) = (   6.2661622   0.7265345   9.2570196  )
        29           O1  tau(  29) = (   3.6607207   0.7252434   9.2585875  )
        30           Ti1 tau(  30) = (   4.8804456   0.7009689  12.7500804  )
        31           O1  tau(  31) = (   4.9885443   2.2055297  13.8060867  )
        32           O1  tau(  32) = (   2.8787315   0.7196740  12.7638696  )
        33           O1  tau(  33) = (   1.6476770   5.2064503   1.3730516  )
        34           Ti1 tau(  34) = (   4.9430310   5.2064503   2.6545865  )
        35           O1  tau(  35) = (   4.9430310   5.2064503   4.6684056  )
        36           O1  tau(  36) = (   6.2245660   3.7188931   2.6545865  )
        37           O1  tau(  37) = (   3.6614961   3.7188931   2.6545865  )
        38           Ti1 tau(  38) = (   4.9430310   3.7188931   5.9499405  )
        39           O1  tau(  39) = (   1.6492404   5.1840375   8.0235373  )
        40           O1  tau(  40) = (   4.9430310   5.2064503   7.2314755  )
        41           O1  tau(  41) = (   2.9292120   3.7188931   5.9499405  )
        42           Ti1 tau(  42) = (   4.8583452   5.1875290   9.3946917  )
        43           O1  tau(  43) = (   4.9366536   5.2195535  11.2514306  )
        44           O1  tau(  44) = (   6.2660656   3.7009687   9.2894568  )
        45           O1  tau(  45) = (   3.6605616   3.6984666   9.2954459  )
        46           Ti1 tau(  46) = (   5.1078939   3.6751672  12.7268755  )
        47           O1  tau(  47) = (   4.9880347   5.1576104  13.8055399  )
        48           O1  tau(  48) = (   3.0285069   3.6936269  12.4216869  )
        49           O1  tau(  49) = (   2.3858682   3.6694311  13.7464468  )

     number of k points=    40  Fermi-Dirac smearing, width (Ry)=  0.0073
                       cart. coord. in units 2pi/alat
        k(    1) = (   0.0000000   0.0000000   0.0000000), wk =   0.0277778
        k(    2) = (   0.0000000   0.0280101   0.0000000), wk =   0.0555556
        k(    3) = (   0.0000000   0.0560203   0.0000000), wk =   0.0555556
        k(    4) = (   0.0000000  -0.0840304   0.0000000), wk =   0.0277778
        k(    5) = (   0.0252881   0.0000000   0.0000000), wk =   0.0555556
        k(    6) = (   0.0252881   0.0280101   0.0000000), wk =   0.0555556
        k(    7) = (   0.0252881   0.0560203   0.0000000), wk =   0.0555556
        k(    8) = (   0.0252881  -0.0840304   0.0000000), wk =   0.0555556
        k(    9) = (   0.0505763   0.0000000   0.0000000), wk =   0.0555556
        k(   10) = (   0.0505763   0.0280101   0.0000000), wk =   0.0555556
        k(   11) = (   0.0505763   0.0560203   0.0000000), wk =   0.0555556
        k(   12) = (   0.0505763  -0.0840304   0.0000000), wk =   0.0555556
        k(   13) = (  -0.0758644   0.0000000   0.0000000), wk =   0.0277778
        k(   14) = (  -0.0758644   0.0280101   0.0000000), wk =   0.0555556
        k(   15) = (  -0.0758644   0.0560203   0.0000000), wk =   0.0555556
        k(   16) = (  -0.0758644  -0.0840304   0.0000000), wk =   0.0277778
        k(   17) = (  -0.0252881   0.0280101   0.0000000), wk =   0.0555556
        k(   18) = (  -0.0252881   0.0560203   0.0000000), wk =   0.0555556
        k(   19) = (  -0.0505763   0.0280101   0.0000000), wk =   0.0555556
        k(   20) = (  -0.0505763   0.0560203   0.0000000), wk =   0.0555556
        k(   21) = (   0.0000000   0.0000000   0.0000000), wk =   0.0277778
        k(   22) = (   0.0000000   0.0280101   0.0000000), wk =   0.0555556
        k(   23) = (   0.0000000   0.0560203   0.0000000), wk =   0.0555556
        k(   24) = (   0.0000000  -0.0840304   0.0000000), wk =   0.0277778
        k(   25) = (   0.0252881   0.0000000   0.0000000), wk =   0.0555556
        k(   26) = (   0.0252881   0.0280101   0.0000000), wk =   0.0555556
        k(   27) = (   0.0252881   0.0560203   0.0000000), wk =   0.0555556
        k(   28) = (   0.0252881  -0.0840304   0.0000000), wk =   0.0555556
        k(   29) = (   0.0505763   0.0000000   0.0000000), wk =   0.0555556
        k(   30) = (   0.0505763   0.0280101   0.0000000), wk =   0.0555556
        k(   31) = (   0.0505763   0.0560203   0.0000000), wk =   0.0555556
        k(   32) = (   0.0505763  -0.0840304   0.0000000), wk =   0.0555556
        k(   33) = (  -0.0758644   0.0000000   0.0000000), wk =   0.0277778
        k(   34) = (  -0.0758644   0.0280101   0.0000000), wk =   0.0555556
        k(   35) = (  -0.0758644   0.0560203   0.0000000), wk =   0.0555556
        k(   36) = (  -0.0758644  -0.0840304   0.0000000), wk =   0.0277778
        k(   37) = (  -0.0252881   0.0280101   0.0000000), wk =   0.0555556
        k(   38) = (  -0.0252881   0.0560203   0.0000000), wk =   0.0555556
        k(   39) = (  -0.0505763   0.0280101   0.0000000), wk =   0.0555556
        k(   40) = (  -0.0505763   0.0560203   0.0000000), wk =   0.0555556

     Dense  grid:  1096637 G-vectors     FFT dimensions: (  80,  72, 375)

     Smooth grid:   277353 G-vectors     FFT dimensions: (  54,  45, 240)

     Largest allocated arrays     est. size (Mb)     dimensions
        Kohn-Sham Wavefunctions         9.81 Mb     (    2180,  295)
        NL pseudopotentials            18.36 Mb     (    2180,  552)
        Each V/rho on FFT grid          4.22 Mb     (  138240,   2)
        Each G-vector array             0.52 Mb     (   68538)
        G-vector shells                 0.25 Mb     (   33046)
     Largest temporary arrays     est. size (Mb)     dimensions
        Auxiliary wavefunctions        39.25 Mb     (    2180, 1180)
        Each subspace H/S matrix       21.25 Mb     (    1180, 1180)
        Each <psi_i|beta_j> matrix      2.48 Mb     (     552,  295)
        Arrays for rho mixing          21.09 Mb     (  138240,   10)

     Check: negative/imaginary core charge=   -0.000049    0.000000

     The initial density is read from file :
     ./calc.save/charge-density.dat


     negative rho (up, down):  1.430E-02 1.430E-02


     ************************************************************************
     *
     * You are using vdW-DF for exchange-correlation in this calculation.
     * Please cite the following three references that made this development
     * possible:
     *
     *   M. Dion, H. Rydberg, E. Schroder, D. C. Langreth, and
     *   B. I. Lundqvist, Phys. Rev. Lett. 92, 246401 (2004).
     *
     *   T. Thonhauser, V. R. Cooper, S. Li, A. Puzder, P. Hyldgaard, and
     *   D. C. Langreth, Phys. Rev. B 76, 125112 (2007).
     *
     *   G. Roman-Perez and J. M. Soler, Phys. Rev. Lett. 103, 096102 (2009).
     *
     *
     * If you are using vdW-DF2, please also cite:
     *
     *   K. Lee, E. D. Murray, L. Kong, B. I. Lundqvist, and
     *   D. C. Langreth, Phys. Rev. B 82, 081101(R) (2010).
     *
     *
     * If you are calculating the stress with vdW-DF, please also cite:
     *
     *   R. Sabatini, E. Kucukbenli, B. Kolb, T. Thonhauser, and
     *   S. de Gironcoli, J. Phys.: Condens. Matter 24, 424209 (2012).
     *
     ************************************************************************

     Carrying out vdW-DF run using the following parameters:

     Nqs =      20    Nr_points =    1024   r_max =   100.000
     q_mesh =
               0.00001000     0.04494208     0.09755937     0.15916263
               0.23128650     0.31572767     0.41458969     0.53033537
               0.66584808     0.82450364     1.01025438     1.22772762
               1.48234092     1.78043706     2.12944203     2.53805004
               3.01644009     3.57652955     4.23227104     5.00000000

     Gradients computed in reciprocal space

     ************************************************************************


     Starting wfc are  292 randomized atomic wfcs +    3 random wfc

     total cpu time spent up to now is       69.2 secs

     Self-consistent Calculation

     iteration #  1     ecut=    40.42 Ry     beta=0.10
     Davidson diagonalization with overlap
     ethr =  1.00E-05,  avg # of iterations = 17.2

     negative rho (up, down):  1.430E-02 1.430E-02
 
     Magnetic moment per site:
     atom:    1    charge:    3.1251    magn:   -0.0002    constr:    0.0000
     atom:    2    charge:    2.0895    magn:    0.0000    constr:    0.0000
     atom:    3    charge:    3.1196    magn:   -0.0000    constr:    0.0000
     atom:    4    charge:    2.0871    magn:   -0.0001    constr:    0.0000
     atom:    5    charge:    3.1167    magn:    0.0000    constr:    0.0000
     atom:    6    charge:    2.0884    magn:   -0.0001    constr:    0.0000
     atom:    7    charge:    3.1250    magn:    0.0001    constr:    0.0000
     atom:    8    charge:    2.0873    magn:   -0.0001    constr:    0.0000
     atom:    9    charge:    3.1251    magn:   -0.0002    constr:    0.0000
     atom:   10    charge:    2.0895    magn:    0.0000    constr:    0.0000
     atom:   11    charge:    3.1196    magn:   -0.0000    constr:    0.0000
     atom:   12    charge:    2.0871    magn:   -0.0001    constr:    0.0000
     atom:   13    charge:    3.1147    magn:    0.0000    constr:    0.0000
     atom:   14    charge:    2.0881    magn:   -0.0001    constr:    0.0000
     atom:   15    charge:    3.1148    magn:    0.0001    constr:    0.0000
     atom:   16    charge:    2.1004    magn:   -0.0002    constr:    0.0000
     atom:   17    charge:    2.0622    magn:    0.0006    constr:    0.0000
     atom:   18    charge:    3.1239    magn:   -0.0001    constr:    0.0000
     atom:   19    charge:    2.0877    magn:   -0.0000    constr:    0.0000
     atom:   20    charge:    2.0846    magn:    0.0001    constr:    0.0000
     atom:   21    charge:    2.0846    magn:    0.0001    constr:    0.0000
     atom:   22    charge:    3.1196    magn:    0.0000    constr:    0.0000
     atom:   23    charge:    2.0903    magn:   -0.0001    constr:    0.0000
     atom:   24    charge:    2.0789    magn:   -0.0000    constr:    0.0000
     atom:   25    charge:    2.0869    magn:   -0.0001    constr:    0.0000
     atom:   26    charge:    3.1149    magn:    0.0000    constr:    0.0000
     atom:   27    charge:    2.0821    magn:   -0.0001    constr:    0.0000
     atom:   28    charge:    2.0885    magn:   -0.0001    constr:    0.0000
     atom:   29    charge:    2.0876    magn:   -0.0001    constr:    0.0000
     atom:   30    charge:    3.1182    magn:    0.0000    constr:    0.0000
     atom:   31    charge:    2.0840    magn:   -0.0001    constr:    0.0000
     atom:   32    charge:    2.0861    magn:   -0.0001    constr:    0.0000
     atom:   33    charge:    2.0622    magn:    0.0006    constr:    0.0000
     atom:   34    charge:    3.1239    magn:   -0.0001    constr:    0.0000
     atom:   35    charge:    2.0878    magn:   -0.0000    constr:    0.0000
     atom:   36    charge:    2.0846    magn:    0.0001    constr:    0.0000
     atom:   37    charge:    2.0846    magn:    0.0001    constr:    0.0000
     atom:   38    charge:    3.1196    magn:    0.0000    constr:    0.0000
     atom:   39    charge:    2.0909    magn:   -0.0001    constr:    0.0000
     atom:   40    charge:    2.0790    magn:   -0.0000    constr:    0.0000
     atom:   41    charge:    2.0869    magn:   -0.0001    constr:    0.0000
     atom:   42    charge:    3.1146    magn:    0.0000    constr:    0.0000
     atom:   43    charge:    2.0814    magn:   -0.0001    constr:    0.0000
     atom:   44    charge:    2.0857    magn:   -0.0001    constr:    0.0000
     atom:   45    charge:    2.0874    magn:   -0.0001    constr:    0.0000
     atom:   46    charge:    3.1240    magn:    0.0001    constr:    0.0000
     atom:   47    charge:    2.0833    magn:   -0.0001    constr:    0.0000
     atom:   48    charge:    2.0690    magn:   -0.0001    constr:    0.0000
     atom:   49    charge:    2.0398    magn:   -0.0001    constr:    0.0000

     total cpu time spent up to now is      843.1 secs

     total energy              =   -3004.20031921 Ry
     Harris-Foulkes estimate   =   -3004.21719366 Ry
     estimated scf accuracy    <       0.10812776 Ry

     total magnetization       =     0.00 Bohr mag/cell
     absolute magnetization    =     0.01 Bohr mag/cell

     iteration #  2     ecut=    40.42 Ry     beta=0.10
     Davidson diagonalization with overlap
     ethr =  2.77E-05,  avg # of iterations =  1.0

     negative rho (up, down):  1.430E-02 1.430E-02
 
     Magnetic moment per site:
     atom:    1    charge:    3.1251    magn:   -0.0002    constr:    0.0000
     atom:    2    charge:    2.0894    magn:    0.0000    constr:    0.0000
     atom:    3    charge:    3.1196    magn:   -0.0000    constr:    0.0000
     atom:    4    charge:    2.0870    magn:   -0.0001    constr:    0.0000
     atom:    5    charge:    3.1167    magn:    0.0000    constr:    0.0000
     atom:    6    charge:    2.0887    magn:   -0.0001    constr:    0.0000
     atom:    7    charge:    3.1262    magn:    0.0001    constr:    0.0000
     atom:    8    charge:    2.0874    magn:   -0.0001    constr:    0.0000
     atom:    9    charge:    3.1251    magn:   -0.0002    constr:    0.0000
     atom:   10    charge:    2.0894    magn:    0.0000    constr:    0.0000
     atom:   11    charge:    3.1196    magn:   -0.0000    constr:    0.0000
     atom:   12    charge:    2.0870    magn:   -0.0001    constr:    0.0000
     atom:   13    charge:    3.1147    magn:    0.0000    constr:    0.0000
     atom:   14    charge:    2.0880    magn:   -0.0001    constr:    0.0000
     atom:   15    charge:    3.1133    magn:    0.0001    constr:    0.0000
     atom:   16    charge:    2.1004    magn:   -0.0001    constr:    0.0000
     atom:   17    charge:    2.0622    magn:    0.0005    constr:    0.0000
     atom:   18    charge:    3.1239    magn:   -0.0001    constr:    0.0000
     atom:   19    charge:    2.0877    magn:   -0.0000    constr:    0.0000
     atom:   20    charge:    2.0846    magn:    0.0001    constr:    0.0000
     atom:   21    charge:    2.0846    magn:    0.0001    constr:    0.0000
     atom:   22    charge:    3.1196    magn:    0.0000    constr:    0.0000
     atom:   23    charge:    2.0903    magn:   -0.0001    constr:    0.0000
     atom:   24    charge:    2.0789    magn:   -0.0000    constr:    0.0000
     atom:   25    charge:    2.0869    magn:   -0.0000    constr:    0.0000
     atom:   26    charge:    3.1149    magn:    0.0000    constr:    0.0000
     atom:   27    charge:    2.0820    magn:   -0.0001    constr:    0.0000
     atom:   28    charge:    2.0885    magn:   -0.0001    constr:    0.0000
     atom:   29    charge:    2.0876    magn:   -0.0001    constr:    0.0000
     atom:   30    charge:    3.1182    magn:    0.0000    constr:    0.0000
     atom:   31    charge:    2.0841    magn:   -0.0001    constr:    0.0000
     atom:   32    charge:    2.0862    magn:   -0.0001    constr:    0.0000
     atom:   33    charge:    2.0622    magn:    0.0005    constr:    0.0000
     atom:   34    charge:    3.1239    magn:   -0.0001    constr:    0.0000
     atom:   35    charge:    2.0877    magn:   -0.0000    constr:    0.0000
     atom:   36    charge:    2.0846    magn:    0.0001    constr:    0.0000
     atom:   37    charge:    2.0846    magn:    0.0001    constr:    0.0000
     atom:   38    charge:    3.1196    magn:    0.0000    constr:    0.0000
     atom:   39    charge:    2.0909    magn:   -0.0001    constr:    0.0000
     atom:   40    charge:    2.0790    magn:   -0.0000    constr:    0.0000
     atom:   41    charge:    2.0869    magn:   -0.0000    constr:    0.0000
     atom:   42    charge:    3.1146    magn:    0.0000    constr:    0.0000
     atom:   43    charge:    2.0815    magn:   -0.0001    constr:    0.0000
     atom:   44    charge:    2.0857    magn:   -0.0001    constr:    0.0000
     atom:   45    charge:    2.0874    magn:   -0.0001    constr:    0.0000
     atom:   46    charge:    3.1241    magn:    0.0000    constr:    0.0000
     atom:   47    charge:    2.0832    magn:   -0.0001    constr:    0.0000
     atom:   48    charge:    2.0688    magn:   -0.0001    constr:    0.0000
     atom:   49    charge:    2.0419    magn:   -0.0001    constr:    0.0000

     total cpu time spent up to now is     1018.4 secs

     total energy              =   -3004.18347210 Ry
     Harris-Foulkes estimate   =   -3004.20222516 Ry
     estimated scf accuracy    <       0.05850287 Ry

     total magnetization       =     0.00 Bohr mag/cell
     absolute magnetization    =     0.01 Bohr mag/cell

     iteration #  3     ecut=    40.42 Ry     beta=0.10
     Davidson diagonalization with overlap
     ethr =  1.50E-05,  avg # of iterations =  2.1

     negative rho (up, down):  1.432E-02 1.432E-02
 
     Magnetic moment per site:
     atom:    1    charge:    3.1251    magn:   -0.0001    constr:    0.0000
     atom:    2    charge:    2.0895    magn:    0.0000    constr:    0.0000
     atom:    3    charge:    3.1196    magn:   -0.0000    constr:    0.0000
     atom:    4    charge:    2.0871    magn:   -0.0000    constr:    0.0000
     atom:    5    charge:    3.1167    magn:    0.0000    constr:    0.0000
     atom:    6    charge:    2.0901    magn:   -0.0001    constr:    0.0000
     atom:    7    charge:    3.1205    magn:    0.0001    constr:    0.0000
     atom:    8    charge:    2.0873    magn:   -0.0001    constr:    0.0000
     atom:    9    charge:    3.1251    magn:   -0.0001    constr:    0.0000
     atom:   10    charge:    2.0894    magn:    0.0000    constr:    0.0000
     atom:   11    charge:    3.1196    magn:   -0.0000    constr:    0.0000
     atom:   12    charge:    2.0870    magn:   -0.0000    constr:    0.0000
     atom:   13    charge:    3.1147    magn:    0.0000    constr:    0.0000
     atom:   14    charge:    2.0865    magn:   -0.0001    constr:    0.0000
     atom:   15    charge:    3.1190    magn:    0.0001    constr:    0.0000
     atom:   16    charge:    2.1004    magn:   -0.0001    constr:    0.0000
     atom:   17    charge:    2.0622    magn:    0.0004    constr:    0.0000
     atom:   18    charge:    3.1239    magn:   -0.0001    constr:    0.0000
     atom:   19    charge:    2.0877    magn:   -0.0000    constr:    0.0000
     atom:   20    charge:    2.0846    magn:    0.0001    constr:    0.0000
     atom:   21    charge:    2.0846    magn:    0.0001    constr:    0.0000
     atom:   22    charge:    3.1196    magn:    0.0000    constr:    0.0000
     atom:   23    charge:    2.0902    magn:   -0.0001    constr:    0.0000
     atom:   24    charge:    2.0789    magn:   -0.0000    constr:    0.0000
     atom:   25    charge:    2.0869    magn:   -0.0000    constr:    0.0000
     atom:   26    charge:    3.1149    magn:    0.0000    constr:    0.0000
     atom:   27    charge:    2.0813    magn:   -0.0000    constr:    0.0000
     atom:   28    charge:    2.0885    magn:   -0.0001    constr:    0.0000
     atom:   29    charge:    2.0876    magn:   -0.0001    constr:    0.0000
     atom:   30    charge:    3.1182    magn:    0.0000    constr:    0.0000
     atom:   31    charge:    2.0823    magn:   -0.0000    constr:    0.0000
     atom:   32    charge:    2.0861    magn:   -0.0001    constr:    0.0000
     atom:   33    charge:    2.0622    magn:    0.0004    constr:    0.0000
     atom:   34    charge:    3.1239    magn:   -0.0001    constr:    0.0000
     atom:   35    charge:    2.0878    magn:   -0.0000    constr:    0.0000
     atom:   36    charge:    2.0846    magn:    0.0001    constr:    0.0000
     atom:   37    charge:    2.0846    magn:    0.0001    constr:    0.0000
     atom:   38    charge:    3.1196    magn:    0.0000    constr:    0.0000
     atom:   39    charge:    2.0910    magn:   -0.0001    constr:    0.0000
     atom:   40    charge:    2.0790    magn:   -0.0000    constr:    0.0000
     atom:   41    charge:    2.0869    magn:   -0.0000    constr:    0.0000
     atom:   42    charge:    3.1146    magn:    0.0000    constr:    0.0000
     atom:   43    charge:    2.0823    magn:   -0.0000    constr:    0.0000
     atom:   44    charge:    2.0857    magn:   -0.0000    constr:    0.0000
     atom:   45    charge:    2.0874    magn:   -0.0001    constr:    0.0000
     atom:   46    charge:    3.1241    magn:    0.0000    constr:    0.0000
     atom:   47    charge:    2.0850    magn:   -0.0000    constr:    0.0000
     atom:   48    charge:    2.0693    magn:   -0.0001    constr:    0.0000
     atom:   49    charge:    2.0442    magn:   -0.0001    constr:    0.0000

     total cpu time spent up to now is     1210.0 secs

     total energy              =   -3004.17343602 Ry
     Harris-Foulkes estimate   =   -3004.18631274 Ry
     estimated scf accuracy    <       0.02186428 Ry

     total magnetization       =     0.00 Bohr mag/cell
     absolute magnetization    =     0.01 Bohr mag/cell

     iteration #  4     ecut=    40.42 Ry     beta=0.10
     Davidson diagonalization with overlap
     ethr =  5.61E-06,  avg # of iterations =  4.2

     negative rho (up, down):  1.432E-02 1.432E-02
 
     Magnetic moment per site:
     atom:    1    charge:    3.1251    magn:   -0.0001    constr:    0.0000
     atom:    2    charge:    2.0895    magn:    0.0000    constr:    0.0000
     atom:    3    charge:    3.1196    magn:   -0.0000    constr:    0.0000
     atom:    4    charge:    2.0871    magn:   -0.0000    constr:    0.0000
     atom:    5    charge:    3.1167    magn:    0.0000    constr:    0.0000
     atom:    6    charge:    2.0897    magn:   -0.0001    constr:    0.0000
     atom:    7    charge:    3.1202    magn:    0.0001    constr:    0.0000
     atom:    8    charge:    2.0874    magn:   -0.0001    constr:    0.0000
     atom:    9    charge:    3.1251    magn:   -0.0001    constr:    0.0000
     atom:   10    charge:    2.0894    magn:    0.0000    constr:    0.0000
     atom:   11    charge:    3.1196    magn:   -0.0000    constr:    0.0000
     atom:   12    charge:    2.0871    magn:   -0.0000    constr:    0.0000
     atom:   13    charge:    3.1147    magn:    0.0000    constr:    0.0000
     atom:   14    charge:    2.0869    magn:   -0.0001    constr:    0.0000
     atom:   15    charge:    3.1194    magn:    0.0001    constr:    0.0000
     atom:   16    charge:    2.1004    magn:   -0.0001    constr:    0.0000
     atom:   17    charge:    2.0622    magn:    0.0003    constr:    0.0000
     atom:   18    charge:    3.1239    magn:   -0.0001    constr:    0.0000
     atom:   19    charge:    2.0877    magn:   -0.0000    constr:    0.0000
     atom:   20    charge:    2.0846    magn:    0.0000    constr:    0.0000
     atom:   21    charge:    2.0846    magn:    0.0000    constr:    0.0000
     atom:   22    charge:    3.1196    magn:    0.0000    constr:    0.0000
     atom:   23    charge:    2.0902    magn:   -0.0000    constr:    0.0000
     atom:   24    charge:    2.0789    magn:   -0.0000    constr:    0.0000
     atom:   25    charge:    2.0869    magn:   -0.0000    constr:    0.0000
     atom:   26    charge:    3.1149    magn:    0.0000    constr:    0.0000
     atom:   27    charge:    2.0815    magn:   -0.0000    constr:    0.0000
     atom:   28    charge:    2.0885    magn:   -0.0000    constr:    0.0000
     atom:   29    charge:    2.0876    magn:   -0.0001    constr:    0.0000
     atom:   30    charge:    3.1182    magn:    0.0000    constr:    0.0000
     atom:   31    charge:    2.0824    magn:   -0.0000    constr:    0.0000
     atom:   32    charge:    2.0862    magn:   -0.0001    constr:    0.0000
     atom:   33    charge:    2.0622    magn:    0.0003    constr:    0.0000
     atom:   34    charge:    3.1239    magn:   -0.0001    constr:    0.0000
     atom:   35    charge:    2.0878    magn:   -0.0000    constr:    0.0000
     atom:   36    charge:    2.0846    magn:    0.0000    constr:    0.0000
     atom:   37    charge:    2.0846    magn:    0.0000    constr:    0.0000
     atom:   38    charge:    3.1196    magn:    0.0000    constr:    0.0000
     atom:   39    charge:    2.0910    magn:   -0.0000    constr:    0.0000
     atom:   40    charge:    2.0790    magn:   -0.0000    constr:    0.0000
     atom:   41    charge:    2.0869    magn:   -0.0000    constr:    0.0000
     atom:   42    charge:    3.1146    magn:    0.0000    constr:    0.0000
     atom:   43    charge:    2.0821    magn:   -0.0000    constr:    0.0000
     atom:   44    charge:    2.0857    magn:   -0.0000    constr:    0.0000
     atom:   45    charge:    2.0874    magn:   -0.0000    constr:    0.0000
     atom:   46    charge:    3.1241    magn:    0.0000    constr:    0.0000
     atom:   47    charge:    2.0850    magn:   -0.0000    constr:    0.0000
     atom:   48    charge:    2.0694    magn:   -0.0001    constr:    0.0000
     atom:   49    charge:    2.0443    magn:   -0.0001    constr:    0.0000

     total cpu time spent up to now is     1441.4 secs

     total energy              =   -3004.17614287 Ry
     Harris-Foulkes estimate   =   -3004.17640048 Ry
     estimated scf accuracy    <       0.00089093 Ry

     total magnetization       =     0.00 Bohr mag/cell
     absolute magnetization    =     0.00 Bohr mag/cell

     iteration #  5     ecut=    40.42 Ry     beta=0.10
     Davidson diagonalization with overlap
     ethr =  2.28E-07,  avg # of iterations =  4.2

     negative rho (up, down):  1.432E-02 1.432E-02
 
     Magnetic moment per site:
     atom:    1    charge:    3.1251    magn:   -0.0001    constr:    0.0000
     atom:    2    charge:    2.0895    magn:    0.0000    constr:    0.0000
     atom:    3    charge:    3.1196    magn:   -0.0000    constr:    0.0000
     atom:    4    charge:    2.0871    magn:   -0.0000    constr:    0.0000
     atom:    5    charge:    3.1167    magn:    0.0000    constr:    0.0000
     atom:    6    charge:    2.0889    magn:   -0.0000    constr:    0.0000
     atom:    7    charge:    3.1208    magn:    0.0000    constr:    0.0000
     atom:    8    charge:    2.0874    magn:   -0.0001    constr:    0.0000
     atom:    9    charge:    3.1251    magn:   -0.0001    constr:    0.0000
     atom:   10    charge:    2.0895    magn:    0.0000    constr:    0.0000
     atom:   11    charge:    3.1196    magn:   -0.0000    constr:    0.0000
     atom:   12    charge:    2.0871    magn:   -0.0000    constr:    0.0000
     atom:   13    charge:    3.1147    magn:    0.0000    constr:    0.0000
     atom:   14    charge:    2.0877    magn:   -0.0000    constr:    0.0000
     atom:   15    charge:    3.1187    magn:    0.0000    constr:    0.0000
     atom:   16    charge:    2.1004    magn:   -0.0001    constr:    0.0000
     atom:   17    charge:    2.0622    magn:    0.0003    constr:    0.0000
     atom:   18    charge:    3.1239    magn:   -0.0001    constr:    0.0000
     atom:   19    charge:    2.0877    magn:   -0.0000    constr:    0.0000
     atom:   20    charge:    2.0846    magn:    0.0000    constr:    0.0000
     atom:   21    charge:    2.0846    magn:    0.0000    constr:    0.0000
     atom:   22    charge:    3.1196    magn:    0.0000    constr:    0.0000
     atom:   23    charge:    2.0903    magn:   -0.0000    constr:    0.0000
     atom:   24    charge:    2.0789    magn:   -0.0000    constr:    0.0000
     atom:   25    charge:    2.0869    magn:   -0.0000    constr:    0.0000
     atom:   26    charge:    3.1149    magn:    0.0000    constr:    0.0000
     atom:   27    charge:    2.0819    magn:   -0.0000    constr:    0.0000
     atom:   28    charge:    2.0885    magn:   -0.0000    constr:    0.0000
     atom:   29    charge:    2.0876    magn:   -0.0000    constr:    0.0000
     atom:   30    charge:    3.1182    magn:    0.0000    constr:    0.0000
     atom:   31    charge:    2.0830    magn:   -0.0000    constr:    0.0000
     atom:   32    charge:    2.0862    magn:   -0.0001    constr:    0.0000
     atom:   33    charge:    2.0622    magn:    0.0003    constr:    0.0000
     atom:   34    charge:    3.1239    magn:   -0.0001    constr:    0.0000
     atom:   35    charge:    2.0878    magn:   -0.0000    constr:    0.0000
     atom:   36    charge:    2.0846    magn:    0.0000    constr:    0.0000
     atom:   37    charge:    2.0846    magn:    0.0000    constr:    0.0000
     atom:   38    charge:    3.1196    magn:    0.0000    constr:    0.0000
     atom:   39    charge:    2.0910    magn:   -0.0000    constr:    0.0000
     atom:   40    charge:    2.0790    magn:   -0.0000    constr:    0.0000
     atom:   41    charge:    2.0869    magn:   -0.0000    constr:    0.0000
     atom:   42    charge:    3.1146    magn:    0.0000    constr:    0.0000
     atom:   43    charge:    2.0816    magn:   -0.0000    constr:    0.0000
     atom:   44    charge:    2.0857    magn:   -0.0000    constr:    0.0000
     atom:   45    charge:    2.0874    magn:   -0.0000    constr:    0.0000
     atom:   46    charge:    3.1240    magn:    0.0000    constr:    0.0000
     atom:   47    charge:    2.0845    magn:   -0.0000    constr:    0.0000
     atom:   48    charge:    2.0694    magn:   -0.0001    constr:    0.0000
     atom:   49    charge:    2.0442    magn:   -0.0001    constr:    0.0000

     total cpu time spent up to now is     1666.2 secs

     total energy              =   -3004.17607635 Ry
     Harris-Foulkes estimate   =   -3004.17619623 Ry
     estimated scf accuracy    <       0.00037322 Ry

     total magnetization       =     0.00 Bohr mag/cell
     absolute magnetization    =     0.00 Bohr mag/cell

     iteration #  6     ecut=    40.42 Ry     beta=0.10
     Davidson diagonalization with overlap
     ethr =  9.57E-08,  avg # of iterations =  2.0

     negative rho (up, down):  1.432E-02 1.432E-02
 
     Magnetic moment per site:
     atom:    1    charge:    3.1251    magn:   -0.0001    constr:    0.0000
     atom:    2    charge:    2.0895    magn:    0.0000    constr:    0.0000
     atom:    3    charge:    3.1196    magn:   -0.0000    constr:    0.0000
     atom:    4    charge:    2.0871    magn:   -0.0000    constr:    0.0000
     atom:    5    charge:    3.1167    magn:    0.0000    constr:    0.0000
     atom:    6    charge:    2.0890    magn:   -0.0000    constr:    0.0000
     atom:    7    charge:    3.1216    magn:    0.0000    constr:    0.0000
     atom:    8    charge:    2.0874    magn:   -0.0000    constr:    0.0000
     atom:    9    charge:    3.1251    magn:   -0.0001    constr:    0.0000
     atom:   10    charge:    2.0894    magn:    0.0000    constr:    0.0000
     atom:   11    charge:    3.1196    magn:   -0.0000    constr:    0.0000
     atom:   12    charge:    2.0871    magn:   -0.0000    constr:    0.0000
     atom:   13    charge:    3.1147    magn:    0.0000    constr:    0.0000
     atom:   14    charge:    2.0875    magn:   -0.0000    constr:    0.0000
     atom:   15    charge:    3.1179    magn:    0.0000    constr:    0.0000
     atom:   16    charge:    2.1004    magn:   -0.0000    constr:    0.0000
     atom:   17    charge:    2.0622    magn:    0.0002    constr:    0.0000
     atom:   18    charge:    3.1239    magn:   -0.0000    constr:    0.0000
     atom:   19    charge:    2.0877    magn:   -0.0000    constr:    0.0000
     atom:   20    charge:    2.0846    magn:    0.0000    constr:    0.0000
     atom:   21    charge:    2.0846    magn:    0.0000    constr:    0.0000
     atom:   22    charge:    3.1196    magn:    0.0000    constr:    0.0000
     atom:   23    charge:    2.0903    magn:   -0.0000    constr:    0.0000
     atom:   24    charge:    2.0789    magn:   -0.0000    constr:    0.0000
     atom:   25    charge:    2.0869    magn:   -0.0000    constr:    0.0000
     atom:   26    charge:    3.1149    magn:    0.0000    constr:    0.0000
     atom:   27    charge:    2.0818    magn:   -0.0000    constr:    0.0000
     atom:   28    charge:    2.0885    magn:   -0.0000    constr:    0.0000
     atom:   29    charge:    2.0876    magn:   -0.0000    constr:    0.0000
     atom:   30    charge:    3.1182    magn:    0.0000    constr:    0.0000
     atom:   31    charge:    2.0831    magn:   -0.0000    constr:    0.0000
     atom:   32    charge:    2.0862    magn:   -0.0000    constr:    0.0000
     atom:   33    charge:    2.0622    magn:    0.0002    constr:    0.0000
     atom:   34    charge:    3.1239    magn:   -0.0000    constr:    0.0000
     atom:   35    charge:    2.0878    magn:   -0.0000    constr:    0.0000
     atom:   36    charge:    2.0846    magn:    0.0000    constr:    0.0000
     atom:   37    charge:    2.0846    magn:    0.0000    constr:    0.0000
     atom:   38    charge:    3.1196    magn:    0.0000    constr:    0.0000
     atom:   39    charge:    2.0909    magn:   -0.0000    constr:    0.0000
     atom:   40    charge:    2.0790    magn:   -0.0000    constr:    0.0000
     atom:   41    charge:    2.0869    magn:   -0.0000    constr:    0.0000
     atom:   42    charge:    3.1145    magn:    0.0000    constr:    0.0000
     atom:   43    charge:    2.0817    magn:   -0.0000    constr:    0.0000
     atom:   44    charge:    2.0857    magn:   -0.0000    constr:    0.0000
     atom:   45    charge:    2.0874    magn:   -0.0000    constr:    0.0000
     atom:   46    charge:    3.1241    magn:    0.0000    constr:    0.0000
     atom:   47    charge:    2.0843    magn:   -0.0000    constr:    0.0000
     atom:   48    charge:    2.0693    magn:   -0.0000    constr:    0.0000
     atom:   49    charge:    2.0446    magn:   -0.0000    constr:    0.0000

     total cpu time spent up to now is     1857.8 secs

     total energy              =   -3004.17607000 Ry
     Harris-Foulkes estimate   =   -3004.17610473 Ry
     estimated scf accuracy    <       0.00010232 Ry

     total magnetization       =     0.00 Bohr mag/cell
     absolute magnetization    =     0.00 Bohr mag/cell

     iteration #  7     ecut=    40.42 Ry     beta=0.10
     Davidson diagonalization with overlap
     ethr =  2.62E-08,  avg # of iterations =  2.5

     negative rho (up, down):  1.431E-02 1.431E-02
 
     Magnetic moment per site:
     atom:    1    charge:    3.1251    magn:   -0.0001    constr:    0.0000
     atom:    2    charge:    2.0895    magn:    0.0000    constr:    0.0000
     atom:    3    charge:    3.1196    magn:   -0.0000    constr:    0.0000
     atom:    4    charge:    2.0871    magn:   -0.0000    constr:    0.0000
     atom:    5    charge:    3.1167    magn:    0.0000    constr:    0.0000
     atom:    6    charge:    2.0890    magn:   -0.0000    constr:    0.0000
     atom:    7    charge:    3.1219    magn:    0.0000    constr:    0.0000
     atom:    8    charge:    2.0874    magn:   -0.0000    constr:    0.0000
     atom:    9    charge:    3.1251    magn:   -0.0001    constr:    0.0000
     atom:   10    charge:    2.0894    magn:    0.0000    constr:    0.0000
     atom:   11    charge:    3.1196    magn:   -0.0000    constr:    0.0000
     atom:   12    charge:    2.0871    magn:   -0.0000    constr:    0.0000
     atom:   13    charge:    3.1147    magn:    0.0000    constr:    0.0000
     atom:   14    charge:    2.0876    magn:   -0.0000    constr:    0.0000
     atom:   15    charge:    3.1176    magn:    0.0000    constr:    0.0000
     atom:   16    charge:    2.1004    magn:   -0.0000    constr:    0.0000
     atom:   17    charge:    2.0622    magn:    0.0002    constr:    0.0000
     atom:   18    charge:    3.1239    magn:   -0.0000    constr:    0.0000
     atom:   19    charge:    2.0877    magn:   -0.0000    constr:    0.0000
     atom:   20    charge:    2.0846    magn:    0.0000    constr:    0.0000
     atom:   21    charge:    2.0846    magn:    0.0000    constr:    0.0000
     atom:   22    charge:    3.1196    magn:    0.0000    constr:    0.0000
     atom:   23    charge:    2.0903    magn:   -0.0000    constr:    0.0000
     atom:   24    charge:    2.0789    magn:   -0.0000    constr:    0.0000
     atom:   25    charge:    2.0869    magn:   -0.0000    constr:    0.0000
     atom:   26    charge:    3.1149    magn:    0.0000    constr:    0.0000
     atom:   27    charge:    2.0819    magn:   -0.0000    constr:    0.0000
     atom:   28    charge:    2.0885    magn:   -0.0000    constr:    0.0000
     atom:   29    charge:    2.0876    magn:   -0.0000    constr:    0.0000
     atom:   30    charge:    3.1182    magn:    0.0000    constr:    0.0000
     atom:   31    charge:    2.0832    magn:   -0.0000    constr:    0.0000
     atom:   32    charge:    2.0862    magn:   -0.0000    constr:    0.0000
     atom:   33    charge:    2.0622    magn:    0.0002    constr:    0.0000
     atom:   34    charge:    3.1239    magn:   -0.0000    constr:    0.0000
     atom:   35    charge:    2.0878    magn:   -0.0000    constr:    0.0000
     atom:   36    charge:    2.0846    magn:    0.0000    constr:    0.0000
     atom:   37    charge:    2.0846    magn:    0.0000    constr:    0.0000
     atom:   38    charge:    3.1196    magn:    0.0000    constr:    0.0000
     atom:   39    charge:    2.0909    magn:   -0.0000    constr:    0.0000
     atom:   40    charge:    2.0790    magn:   -0.0000    constr:    0.0000
     atom:   41    charge:    2.0869    magn:   -0.0000    constr:    0.0000
     atom:   42    charge:    3.1146    magn:    0.0000    constr:    0.0000
     atom:   43    charge:    2.0817    magn:   -0.0000    constr:    0.0000
     atom:   44    charge:    2.0857    magn:   -0.0000    constr:    0.0000
     atom:   45    charge:    2.0874    magn:   -0.0000    constr:    0.0000
     atom:   46    charge:    3.1241    magn:    0.0000    constr:    0.0000
     atom:   47    charge:    2.0842    magn:   -0.0000    constr:    0.0000
     atom:   48    charge:    2.0693    magn:   -0.0000    constr:    0.0000
     atom:   49    charge:    2.0446    magn:   -0.0000    constr:    0.0000

     total cpu time spent up to now is     2060.5 secs

     total energy              =   -3004.17608108 Ry
     Harris-Foulkes estimate   =   -3004.17608136 Ry
     estimated scf accuracy    <       0.00001289 Ry

     total magnetization       =     0.00 Bohr mag/cell
     absolute magnetization    =     0.00 Bohr mag/cell

     iteration #  8     ecut=    40.42 Ry     beta=0.10
     Davidson diagonalization with overlap
     ethr =  3.30E-09,  avg # of iterations =  2.0

     negative rho (up, down):  1.431E-02 1.431E-02
 
     Magnetic moment per site:
     atom:    1    charge:    3.1251    magn:   -0.0001    constr:    0.0000
     atom:    2    charge:    2.0895    magn:    0.0000    constr:    0.0000
     atom:    3    charge:    3.1196    magn:   -0.0000    constr:    0.0000
     atom:    4    charge:    2.0871    magn:   -0.0000    constr:    0.0000
     atom:    5    charge:    3.1167    magn:    0.0000    constr:    0.0000
     atom:    6    charge:    2.0891    magn:   -0.0000    constr:    0.0000
     atom:    7    charge:    3.1219    magn:    0.0000    constr:    0.0000
     atom:    8    charge:    2.0874    magn:   -0.0000    constr:    0.0000
     atom:    9    charge:    3.1251    magn:   -0.0001    constr:    0.0000
     atom:   10    charge:    2.0894    magn:    0.0000    constr:    0.0000
     atom:   11    charge:    3.1196    magn:   -0.0000    constr:    0.0000
     atom:   12    charge:    2.0871    magn:   -0.0000    constr:    0.0000
     atom:   13    charge:    3.1147    magn:    0.0000    constr:    0.0000
     atom:   14    charge:    2.0875    magn:   -0.0000    constr:    0.0000
     atom:   15    charge:    3.1176    magn:    0.0000    constr:    0.0000
     atom:   16    charge:    2.1004    magn:   -0.0000    constr:    0.0000
     atom:   17    charge:    2.0622    magn:    0.0002    constr:    0.0000
     atom:   18    charge:    3.1239    magn:   -0.0000    constr:    0.0000
     atom:   19    charge:    2.0877    magn:   -0.0000    constr:    0.0000
     atom:   20    charge:    2.0846    magn:    0.0000    constr:    0.0000
     atom:   21    charge:    2.0846    magn:    0.0000    constr:    0.0000
     atom:   22    charge:    3.1196    magn:    0.0000    constr:    0.0000
     atom:   23    charge:    2.0903    magn:   -0.0000    constr:    0.0000
     atom:   24    charge:    2.0789    magn:   -0.0000    constr:    0.0000
     atom:   25    charge:    2.0869    magn:   -0.0000    constr:    0.0000
     atom:   26    charge:    3.1149    magn:    0.0000    constr:    0.0000
     atom:   27    charge:    2.0818    magn:   -0.0000    constr:    0.0000
     atom:   28    charge:    2.0885    magn:   -0.0000    constr:    0.0000
     atom:   29    charge:    2.0876    magn:   -0.0000    constr:    0.0000
     atom:   30    charge:    3.1182    magn:    0.0000    constr:    0.0000
     atom:   31    charge:    2.0832    magn:   -0.0000    constr:    0.0000
     atom:   32    charge:    2.0862    magn:   -0.0000    constr:    0.0000
     atom:   33    charge:    2.0622    magn:    0.0002    constr:    0.0000
     atom:   34    charge:    3.1239    magn:   -0.0000    constr:    0.0000
     atom:   35    charge:    2.0878    magn:   -0.0000    constr:    0.0000
     atom:   36    charge:    2.0846    magn:    0.0000    constr:    0.0000
     atom:   37    charge:    2.0846    magn:    0.0000    constr:    0.0000
     atom:   38    charge:    3.1196    magn:    0.0000    constr:    0.0000
     atom:   39    charge:    2.0910    magn:   -0.0000    constr:    0.0000
     atom:   40    charge:    2.0790    magn:   -0.0000    constr:    0.0000
     atom:   41    charge:    2.0869    magn:   -0.0000    constr:    0.0000
     atom:   42    charge:    3.1146    magn:    0.0000    constr:    0.0000
     atom:   43    charge:    2.0817    magn:   -0.0000    constr:    0.0000
     atom:   44    charge:    2.0857    magn:   -0.0000    constr:    0.0000
     atom:   45    charge:    2.0874    magn:   -0.0000    constr:    0.0000
     atom:   46    charge:    3.1241    magn:    0.0000    constr:    0.0000
     atom:   47    charge:    2.0842    magn:   -0.0000    constr:    0.0000
     atom:   48    charge:    2.0693    magn:   -0.0000    constr:    0.0000
     atom:   49    charge:    2.0446    magn:   -0.0000    constr:    0.0000

     total cpu time spent up to now is     2251.1 secs

     total energy              =   -3004.17608234 Ry
     Harris-Foulkes estimate   =   -3004.17608204 Ry
     estimated scf accuracy    <       0.00000553 Ry

     total magnetization       =     0.00 Bohr mag/cell
     absolute magnetization    =     0.00 Bohr mag/cell

     iteration #  9     ecut=    40.42 Ry     beta=0.10
     Davidson diagonalization with overlap
     ethr =  1.42E-09,  avg # of iterations =  1.2

     negative rho (up, down):  1.431E-02 1.431E-02
 
     Magnetic moment per site:
     atom:    1    charge:    3.1251    magn:   -0.0000    constr:    0.0000
     atom:    2    charge:    2.0895    magn:    0.0000    constr:    0.0000
     atom:    3    charge:    3.1196    magn:   -0.0000    constr:    0.0000
     atom:    4    charge:    2.0871    magn:   -0.0000    constr:    0.0000
     atom:    5    charge:    3.1167    magn:    0.0000    constr:    0.0000
     atom:    6    charge:    2.0891    magn:   -0.0000    constr:    0.0000
     atom:    7    charge:    3.1220    magn:    0.0000    constr:    0.0000
     atom:    8    charge:    2.0874    magn:   -0.0000    constr:    0.0000
     atom:    9    charge:    3.1251    magn:   -0.0000    constr:    0.0000
     atom:   10    charge:    2.0894    magn:    0.0000    constr:    0.0000
     atom:   11    charge:    3.1196    magn:   -0.0000    constr:    0.0000
     atom:   12    charge:    2.0871    magn:   -0.0000    constr:    0.0000
     atom:   13    charge:    3.1147    magn:    0.0000    constr:    0.0000
     atom:   14    charge:    2.0875    magn:   -0.0000    constr:    0.0000
     atom:   15    charge:    3.1175    magn:    0.0000    constr:    0.0000
     atom:   16    charge:    2.1004    magn:   -0.0000    constr:    0.0000
     atom:   17    charge:    2.0622    magn:    0.0001    constr:    0.0000
     atom:   18    charge:    3.1239    magn:   -0.0000    constr:    0.0000
     atom:   19    charge:    2.0877    magn:   -0.0000    constr:    0.0000
     atom:   20    charge:    2.0846    magn:    0.0000    constr:    0.0000
     atom:   21    charge:    2.0846    magn:    0.0000    constr:    0.0000
     atom:   22    charge:    3.1196    magn:    0.0000    constr:    0.0000
     atom:   23    charge:    2.0903    magn:   -0.0000    constr:    0.0000
     atom:   24    charge:    2.0789    magn:   -0.0000    constr:    0.0000
     atom:   25    charge:    2.0869    magn:   -0.0000    constr:    0.0000
     atom:   26    charge:    3.1149    magn:    0.0000    constr:    0.0000
     atom:   27    charge:    2.0818    magn:   -0.0000    constr:    0.0000
     atom:   28    charge:    2.0885    magn:   -0.0000    constr:    0.0000
     atom:   29    charge:    2.0876    magn:   -0.0000    constr:    0.0000
     atom:   30    charge:    3.1182    magn:    0.0000    constr:    0.0000
     atom:   31    charge:    2.0832    magn:   -0.0000    constr:    0.0000
     atom:   32    charge:    2.0862    magn:   -0.0000    constr:    0.0000
     atom:   33    charge:    2.0622    magn:    0.0001    constr:    0.0000
     atom:   34    charge:    3.1239    magn:   -0.0000    constr:    0.0000
     atom:   35    charge:    2.0878    magn:   -0.0000    constr:    0.0000
     atom:   36    charge:    2.0846    magn:    0.0000    constr:    0.0000
     atom:   37    charge:    2.0846    magn:    0.0000    constr:    0.0000
     atom:   38    charge:    3.1196    magn:    0.0000    constr:    0.0000
     atom:   39    charge:    2.0910    magn:   -0.0000    constr:    0.0000
     atom:   40    charge:    2.0790    magn:   -0.0000    constr:    0.0000
     atom:   41    charge:    2.0869    magn:   -0.0000    constr:    0.0000
     atom:   42    charge:    3.1146    magn:    0.0000    constr:    0.0000
     atom:   43    charge:    2.0818    magn:   -0.0000    constr:    0.0000
     atom:   44    charge:    2.0857    magn:   -0.0000    constr:    0.0000
     atom:   45    charge:    2.0874    magn:   -0.0000    constr:    0.0000
     atom:   46    charge:    3.1241    magn:    0.0000    constr:    0.0000
     atom:   47    charge:    2.0842    magn:   -0.0000    constr:    0.0000
     atom:   48    charge:    2.0693    magn:   -0.0000    constr:    0.0000
     atom:   49    charge:    2.0447    magn:   -0.0000    constr:    0.0000

     total cpu time spent up to now is     2428.0 secs

     total energy              =   -3004.17608295 Ry
     Harris-Foulkes estimate   =   -3004.17608258 Ry
     estimated scf accuracy    <       0.00000231 Ry

     total magnetization       =     0.00 Bohr mag/cell
     absolute magnetization    =     0.00 Bohr mag/cell

     iteration # 10     ecut=    40.42 Ry     beta=0.10
     Davidson diagonalization with overlap
     ethr =  5.92E-10,  avg # of iterations =  2.0

     negative rho (up, down):  1.430E-02 1.430E-02
 
     Magnetic moment per site:
     atom:    1    charge:    3.1251    magn:   -0.0000    constr:    0.0000
     atom:    2    charge:    2.0895    magn:    0.0000    constr:    0.0000
     atom:    3    charge:    3.1196    magn:   -0.0000    constr:    0.0000
     atom:    4    charge:    2.0871    magn:   -0.0000    constr:    0.0000
     atom:    5    charge:    3.1167    magn:    0.0000    constr:    0.0000
     atom:    6    charge:    2.0890    magn:   -0.0000    constr:    0.0000
     atom:    7    charge:    3.1219    magn:    0.0000    constr:    0.0000
     atom:    8    charge:    2.0874    magn:   -0.0000    constr:    0.0000
     atom:    9    charge:    3.1251    magn:   -0.0000    constr:    0.0000
     atom:   10    charge:    2.0894    magn:    0.0000    constr:    0.0000
     atom:   11    charge:    3.1197    magn:   -0.0000    constr:    0.0000
     atom:   12    charge:    2.0871    magn:   -0.0000    constr:    0.0000
     atom:   13    charge:    3.1147    magn:    0.0000    constr:    0.0000
     atom:   14    charge:    2.0876    magn:   -0.0000    constr:    0.0000
     atom:   15    charge:    3.1176    magn:    0.0000    constr:    0.0000
     atom:   16    charge:    2.1004    magn:   -0.0000    constr:    0.0000
     atom:   17    charge:    2.0622    magn:    0.0001    constr:    0.0000
     atom:   18    charge:    3.1239    magn:   -0.0000    constr:    0.0000
     atom:   19    charge:    2.0877    magn:    0.0000    constr:    0.0000
     atom:   20    charge:    2.0846    magn:    0.0000    constr:    0.0000
     atom:   21    charge:    2.0846    magn:    0.0000    constr:    0.0000
     atom:   22    charge:    3.1196    magn:    0.0000    constr:    0.0000
     atom:   23    charge:    2.0903    magn:   -0.0000    constr:    0.0000
     atom:   24    charge:    2.0789    magn:   -0.0000    constr:    0.0000
     atom:   25    charge:    2.0869    magn:   -0.0000    constr:    0.0000
     atom:   26    charge:    3.1149    magn:    0.0000    constr:    0.0000
     atom:   27    charge:    2.0818    magn:   -0.0000    constr:    0.0000
     atom:   28    charge:    2.0885    magn:   -0.0000    constr:    0.0000
     atom:   29    charge:    2.0876    magn:   -0.0000    constr:    0.0000
     atom:   30    charge:    3.1182    magn:    0.0000    constr:    0.0000
     atom:   31    charge:    2.0832    magn:   -0.0000    constr:    0.0000
     atom:   32    charge:    2.0862    magn:   -0.0000    constr:    0.0000
     atom:   33    charge:    2.0622    magn:    0.0001    constr:    0.0000
     atom:   34    charge:    3.1239    magn:   -0.0000    constr:    0.0000
     atom:   35    charge:    2.0878    magn:    0.0000    constr:    0.0000
     atom:   36    charge:    2.0846    magn:    0.0000    constr:    0.0000
     atom:   37    charge:    2.0846    magn:    0.0000    constr:    0.0000
     atom:   38    charge:    3.1196    magn:    0.0000    constr:    0.0000
     atom:   39    charge:    2.0909    magn:   -0.0000    constr:    0.0000
     atom:   40    charge:    2.0790    magn:   -0.0000    constr:    0.0000
     atom:   41    charge:    2.0869    magn:   -0.0000    constr:    0.0000
     atom:   42    charge:    3.1146    magn:    0.0000    constr:    0.0000
     atom:   43    charge:    2.0817    magn:   -0.0000    constr:    0.0000
     atom:   44    charge:    2.0857    magn:   -0.0000    constr:    0.0000
     atom:   45    charge:    2.0874    magn:   -0.0000    constr:    0.0000
     atom:   46    charge:    3.1241    magn:    0.0000    constr:    0.0000
     atom:   47    charge:    2.0842    magn:   -0.0000    constr:    0.0000
     atom:   48    charge:    2.0693    magn:   -0.0000    constr:    0.0000
     atom:   49    charge:    2.0447    magn:   -0.0000    constr:    0.0000

     total cpu time spent up to now is     2622.1 secs

     End of self-consistent calculation

 ------ SPIN UP ------------


          k = 0.0000 0.0000 0.0000 ( 34665 PWs)   bands (ev):

   -58.2567 -58.2217 -58.1051 -58.0451 -57.9294 -57.8807 -57.7088 -57.6734
   -57.6527 -57.6174 -57.5777 -57.5414 -57.3929 -57.2318 -56.7034 -56.6681
   -34.6920 -34.6646 -34.5389 -34.5105 -34.4754 -34.4574 -34.4071 -34.3659
   -34.3632 -34.3061 -34.3023 -34.2865 -34.2168 -34.2042 -34.1974 -34.1460
   -34.1455 -34.1099 -34.1017 -34.0888 -34.0657 -33.9942 -33.9041 -33.8869
   -33.8707 -33.8608 -33.8583 -33.8405 -33.8255 -33.8216 -33.8110 -33.8089
   -33.7754 -33.7659 -33.7535 -33.7356 -33.7080 -33.6970 -33.6329 -33.6116
   -33.4625 -33.3932 -33.1218 -33.0556 -33.0295 -32.9261 -32.8343 -32.7257
   -22.5371 -18.6047 -18.4163 -18.3120 -18.0868 -17.9416 -17.8948 -17.8281
   -17.6576 -17.6199 -17.5491 -17.5251 -17.5101 -17.4636 -17.4379 -17.4035
   -17.3697 -17.3014 -17.2626 -17.1649 -17.1301 -17.0113 -17.0105 -16.9744
   -16.8616 -16.7733 -16.7502 -16.7295 -16.5964 -16.5686 -15.7213 -15.2827
   -15.1975  -6.9469  -6.5282  -6.2825  -5.9757  -5.9323  -5.7920  -5.7288
    -5.4657  -5.4179  -5.3753  -5.0912  -5.0424  -4.9999  -4.9765  -4.8916
    -4.8616  -4.7925  -4.7272  -4.6629  -4.6568  -4.6388  -4.5824  -4.5733
    -4.5300  -4.5152  -4.4999  -4.4338  -4.3466  -4.2993  -4.2475  -4.1957
    -4.1693  -4.1052  -4.0942  -4.0655  -4.0402  -3.9657  -3.9620  -3.9398
    -3.8474  -3.6498  -3.6024  -3.5480  -3.4699  -3.4434  -3.4331  -3.2912
    -3.1974  -3.1835  -3.1656  -3.1476  -3.0057  -2.9756  -2.9406  -2.9261
    -2.8645  -2.8267  -2.7928  -2.7699  -2.7622  -2.6921  -2.6769  -2.6069
    -2.5380  -2.4867  -2.4055  -2.3363  -2.2130  -2.1409  -2.1393  -2.0735
    -2.0555  -1.9977  -1.9297  -1.9009  -1.8876  -1.8818  -1.8281  -1.7785
    -1.7526  -1.7129  -1.6570  -1.6323  -1.6151  -1.5579  -1.5264  -1.3735
    -1.2501  -1.1989  -1.1598  -1.1402  -1.0424  -0.7826  -0.6520  -0.6383
    -0.4267  -0.3005  -0.2867   1.0858   1.1120   1.1900   1.3910   1.4453
     1.4520   1.5352   1.6216   1.6630   1.7816   1.8733   1.8874   1.9430
     1.9605   1.9750   2.0032   2.0644   2.0927   2.1024   2.1512   2.1537
     2.2441   2.2612   2.2989   2.3128   2.5042   2.5123   2.5507   2.5623
     2.5627   2.6170   2.6283   2.6398   2.6717   2.7072   2.7623   2.8406
     2.8454   2.8772   2.9086   2.9720   3.0528   3.0554   3.1548   3.3963
     3.5156   3.5303   3.6245   3.6615   3.6792   3.8324   3.8863   4.0372
     4.0871   4.2148   4.4980   4.5108   4.6171   4.6592   4.7744   4.9171
     4.9358   5.0167   5.1343   5.1867   5.2026   5.2452   5.2674   5.2734
     5.3214   5.3940   5.4922   5.5485   5.5900   5.6416   5.6793   5.7823
     5.9013   5.9848   6.0294   6.3623   6.4107   6.4642   6.5610   6.7456
     7.1843   7.8092   7.9759   8.3157   8.5676   8.5938   8.8162   8.8612
     8.9293   9.1857   9.2301   9.3152   9.3472   9.5736   9.6696

          k = 0.0000 0.0280 0.0000 ( 34717 PWs)   bands (ev):

   -58.2543 -58.2241 -58.1037 -58.0466 -57.9276 -57.8825 -57.7065 -57.6758
   -57.6503 -57.6198 -57.5754 -57.5437 -57.3924 -57.2323 -56.7010 -56.6705
   -34.6667 -34.6376 -34.5369 -34.5123 -34.4513 -34.4506 -34.4008 -34.3697
   -34.3627 -34.3293 -34.3097 -34.2953 -34.2428 -34.1944 -34.1784 -34.1428
   -34.1206 -34.1121 -34.0968 -34.0919 -34.0739 -33.9872 -33.8982 -33.8847
   -33.8824 -33.8626 -33.8382 -33.8366 -33.8334 -33.8227 -33.8200 -33.8153
   -33.7824 -33.7714 -33.7708 -33.7380 -33.7334 -33.6967 -33.6315 -33.6116
   -33.4658 -33.4196 -33.0961 -33.0539 -33.0314 -32.9200 -32.8406 -32.7532
   -22.5315 -18.5461 -18.3616 -18.2702 -18.0342 -17.8945 -17.8873 -17.8301
   -17.6344 -17.6269 -17.5896 -17.5611 -17.5461 -17.4751 -17.4482 -17.3573
   -17.3487 -17.3001 -17.2718 -17.1956 -17.1891 -17.0340 -16.9933 -16.9446
   -16.8912 -16.7913 -16.7596 -16.7321 -16.6222 -16.6145 -15.7219 -15.2925
   -15.2207  -6.9104  -6.5134  -6.2621  -5.8879  -5.8485  -5.7175  -5.6528
    -5.4297  -5.3528  -5.3397  -5.0711  -5.0536  -4.9760  -4.9475  -4.8856
    -4.8415  -4.8072  -4.7223  -4.7170  -4.7001  -4.6585  -4.6439  -4.6148
    -4.5922  -4.5409  -4.5058  -4.4845  -4.4271  -4.3801  -4.2950  -4.2537
    -4.1991  -4.1829  -4.1573  -4.0606  -4.0137  -3.9345  -3.9164  -3.8261
    -3.7682  -3.6028  -3.5572  -3.5099  -3.4460  -3.3624  -3.3241  -3.1872
    -3.1832  -3.1109  -3.0851  -3.0624  -3.0231  -3.0011  -2.9862  -2.8952
    -2.8604  -2.8520  -2.8318  -2.8162  -2.7281  -2.6945  -2.6108  -2.5768
    -2.4937  -2.4420  -2.3848  -2.3686  -2.3247  -2.2473  -2.1482  -2.1140
    -2.1109  -2.0613  -2.0426  -2.0057  -1.9486  -1.8690  -1.8551  -1.8497
    -1.7749  -1.7525  -1.7357  -1.6593  -1.6202  -1.5821  -1.4875  -1.3918
    -1.3497  -1.3116  -1.2612  -1.1869  -1.0718  -0.8285  -0.6994  -0.6375
    -0.4125  -0.3468  -0.3204   1.1675   1.2179   1.2350   1.4234   1.4472
     1.5369   1.5611   1.6488   1.7017   1.7710   1.8389   1.8678   1.9031
     1.9430   1.9952   1.9996   2.0482   2.0664   2.1044   2.1226   2.1770
     2.2556   2.2964   2.3715   2.4225   2.4319   2.4709   2.4983   2.5298
     2.5560   2.5694   2.6303   2.6622   2.7308   2.7589   2.8028   2.8449
     2.8725   2.9801   2.9931   3.0282   3.0809   3.0958   3.1293   3.3435
     3.4448   3.5596   3.6124   3.6266   3.7149   3.7638   3.9227   3.9803
     4.1423   4.3091   4.4930   4.5586   4.6911   4.6968   4.7790   4.9232
     4.9540   5.0761   5.0973   5.1316   5.1878   5.2096   5.2345   5.2540
     5.3002   5.3920   5.4877   5.5176   5.5756   5.5946   5.6141   5.6794
     5.9466   6.0177   6.0550   6.1919   6.3937   6.4060   6.6270   6.6837
     7.3016   7.6100   7.9724   8.0877   8.2344   8.7023   8.7321   8.8409
     8.9439   9.0275   9.2968   9.3392   9.4470   9.4984   9.7535

          k = 0.0000 0.0560 0.0000 ( 34721 PWs)   bands (ev):

   -58.2480 -58.2305 -58.1005 -58.0498 -57.9238 -57.8864 -57.7000 -57.6823
   -57.6440 -57.6262 -57.5693 -57.5498 -57.3913 -57.2334 -56.6946 -56.6769
   -34.5969 -34.5646 -34.5316 -34.5173 -34.4342 -34.4022 -34.3919 -34.3871
   -34.3804 -34.3561 -34.3371 -34.3179 -34.2864 -34.1959 -34.1527 -34.1359
   -34.1279 -34.1044 -34.1015 -34.0507 -34.0064 -33.9676 -33.9114 -33.9087
   -33.8839 -33.8771 -33.8673 -33.8550 -33.8330 -33.8328 -33.8197 -33.8167
   -33.7989 -33.7838 -33.7741 -33.7648 -33.7360 -33.6959 -33.6301 -33.6109
   -33.4955 -33.4632 -33.0491 -33.0361 -33.0253 -32.9034 -32.8575 -32.8274
   -22.5204 -18.3864 -18.2201 -18.1519 -17.9386 -17.8897 -17.8395 -17.7708
   -17.7601 -17.7240 -17.6164 -17.5965 -17.5068 -17.4890 -17.4605 -17.4243
   -17.3058 -17.2793 -17.2753 -17.2240 -17.1916 -17.0983 -16.9779 -16.9720
   -16.8798 -16.8232 -16.7839 -16.7486 -16.7351 -16.6691 -15.7232 -15.3098
   -15.2709  -6.8348  -6.4801  -6.2317  -5.6452  -5.6163  -5.5314  -5.5042
    -5.4378  -5.1483  -5.1403  -5.0832  -5.0339  -4.9793  -4.9552  -4.9452
    -4.9359  -4.8931  -4.8665  -4.8262  -4.7783  -4.7717  -4.7676  -4.6728
    -4.6397  -4.6173  -4.5097  -4.4935  -4.4569  -4.4045  -4.3685  -4.3063
    -4.1660  -4.1559  -4.0749  -3.9913  -3.9515  -3.8600  -3.8272  -3.7455
    -3.6696  -3.6083  -3.4966  -3.4474  -3.4283  -3.3891  -3.3447  -3.2499
    -3.1846  -3.1025  -3.0759  -3.0515  -2.9379  -2.9002  -2.8829  -2.8601
    -2.7824  -2.7702  -2.7463  -2.7161  -2.7041  -2.6651  -2.6192  -2.5907
    -2.4997  -2.4923  -2.4759  -2.4104  -2.3984  -2.3511  -2.2919  -2.2015
    -2.1822  -2.1284  -2.1116  -2.0712  -2.0094  -1.9892  -1.9422  -1.9265
    -1.8678  -1.8250  -1.7947  -1.7118  -1.7065  -1.6444  -1.6110  -1.5428
    -1.4530  -1.3575  -1.3038  -1.2183  -1.1880  -1.1358  -0.8764  -0.4571
    -0.4082  -0.3707  -0.3695   1.3046   1.3270   1.4678   1.5038   1.5315
     1.5517   1.6380   1.6849   1.7374   1.7633   1.8020   1.8190   1.8400
     1.8996   1.9439   1.9479   2.0372   2.1316   2.1931   2.2214   2.2296
     2.2461   2.2698   2.3424   2.3717   2.3829   2.4128   2.4818   2.5112
     2.5717   2.6235   2.6488   2.6777   2.7722   2.7778   2.8698   2.9241
     2.9737   3.0001   3.0307   3.1578   3.2001   3.2196   3.2657   3.3071
     3.3198   3.4798   3.5716   3.5802   3.6215   3.8128   3.8158   3.9773
     4.2742   4.4162   4.5706   4.6093   4.7727   4.8221   4.8497   4.9063
     4.9155   4.9774   5.0199   5.1681   5.1702   5.1830   5.1936   5.2725
     5.2912   5.3197   5.3666   5.3973   5.4585   5.5796   5.6034   5.7187
     5.8809   6.0019   6.0158   6.2323   6.2598   6.4133   6.5651   6.8972
     6.9544   7.2947   7.6647   7.8128   8.3029   8.4006   8.5818   8.9633
     9.0266   9.1084   9.2985   9.3813   9.6941   9.7616   9.8241

          k = 0.0000-0.0840 0.0000 ( 34678 PWs)   bands (ev):

   -58.2393 -58.2392 -58.0988 -58.0516 -57.9215 -57.8887 -57.6917 -57.6906
   -57.6364 -57.6337 -57.5638 -57.5554 -57.3908 -57.2340 -56.6858 -56.6858
   -34.5245 -34.5244 -34.5003 -34.5003 -34.4924 -34.4155 -34.4107 -34.4107
   -34.3756 -34.3491 -34.3347 -34.3080 -34.2799 -34.2599 -34.1632 -34.1343
   -34.1311 -34.1064 -34.0102 -34.0092 -33.9548 -33.9525 -33.9400 -33.9389
   -33.9169 -33.9058 -33.8749 -33.8736 -33.8572 -33.8550 -33.8183 -33.8157
   -33.8044 -33.7973 -33.7624 -33.7545 -33.7016 -33.6984 -33.6344 -33.6095
   -33.5433 -33.4684 -33.0426 -33.0426 -32.9273 -32.9272 -32.8804 -32.8804
   -22.5149 -18.2226 -18.1186 -18.0562 -17.9784 -17.9537 -17.9131 -17.7542
   -17.7344 -17.6369 -17.6219 -17.6187 -17.5881 -17.5806 -17.3933 -17.3932
   -17.3846 -17.3807 -17.1895 -17.1851 -17.0849 -17.0791 -17.0722 -17.0424
   -16.8598 -16.8565 -16.7831 -16.7813 -16.7400 -16.7276 -15.7240 -15.3078
   -15.3077  -6.7966  -6.4598  -6.2223  -5.5646  -5.3248  -5.3065  -5.2868
    -5.2862  -5.2402  -5.2316  -5.1902  -5.1860  -5.0762  -4.9706  -4.9557
    -4.9469  -4.9205  -4.8899  -4.8806  -4.8595  -4.8486  -4.7784  -4.6590
    -4.6331  -4.5972  -4.5448  -4.4912  -4.4724  -4.4012  -4.3813  -4.2861
    -4.1263  -4.0917  -4.0857  -3.9209  -3.9192  -3.8594  -3.7756  -3.6325
    -3.5764  -3.5583  -3.4341  -3.4130  -3.3960  -3.3149  -3.2995  -3.2867
    -3.2395  -3.1892  -3.1664  -3.1496  -3.0891  -3.0664  -3.0110  -2.9717
    -2.8978  -2.8056  -2.7349  -2.6923  -2.6181  -2.5488  -2.5315  -2.4514
    -2.4154  -2.3935  -2.3691  -2.3582  -2.3332  -2.3031  -2.2947  -2.2622
    -2.2534  -2.2084  -2.1318  -2.0692  -2.0680  -2.0012  -1.9984  -1.9920
    -1.9840  -1.8920  -1.8501  -1.7899  -1.6951  -1.6509  -1.6363  -1.5983
    -1.5493  -1.5308  -1.4460  -1.2138  -1.1987  -1.0573  -1.0526  -0.4074
    -0.4071  -0.3637  -0.3634   1.4223   1.4469   1.4674   1.5085   1.5599
     1.6373   1.6636   1.6638   1.7402   1.7479   1.7904   1.7905   1.8288
     1.9060   1.9814   1.9868   2.0357   2.0605   2.1498   2.1571   2.1964
     2.2808   2.2952   2.3561   2.3755   2.4234   2.4450   2.4576   2.5085
     2.5552   2.5823   2.6418   2.7715   2.8159   2.8714   2.8745   2.8772
     2.8922   3.0819   3.1134   3.1944   3.2152   3.2632   3.3061   3.3497
     3.3570   3.4931   3.5050   3.5650   3.5656   3.6339   3.8678   3.9950
     4.3563   4.4005   4.6219   4.6747   4.7771   4.8185   4.8732   4.9078
     4.9524   4.9524   5.0369   5.0644   5.0760   5.1808   5.2157   5.2673
     5.2680   5.2936   5.3857   5.4519   5.4773   5.4940   5.5958   5.6101
     5.9017   6.0034   6.0621   6.1001   6.4614   6.5157   6.5161   6.6751
     6.9749   7.0577   7.4848   7.5914   8.1789   8.2894   8.9395   9.0411
     9.2293   9.3174   9.4833   9.5503   9.5507   9.7420   9.7693

          k = 0.0253 0.0000 0.0000 ( 34707 PWs)   bands (ev):

   -58.2567 -58.2217 -58.1051 -58.0451 -57.9293 -57.8807 -57.7088 -57.6734
   -57.6527 -57.6174 -57.5777 -57.5414 -57.3929 -57.2318 -56.7034 -56.6681
   -34.6923 -34.6652 -34.5389 -34.5105 -34.4755 -34.4567 -34.4059 -34.3656
   -34.3633 -34.3061 -34.3023 -34.2866 -34.2168 -34.2057 -34.1975 -34.1462
   -34.1438 -34.1224 -34.1054 -34.0709 -34.0657 -33.9877 -33.9039 -33.8872
   -33.8704 -33.8608 -33.8581 -33.8444 -33.8294 -33.8227 -33.8109 -33.8089
   -33.7754 -33.7658 -33.7538 -33.7357 -33.7081 -33.6979 -33.6330 -33.6116
   -33.4625 -33.3933 -33.1217 -33.0567 -33.0290 -32.9261 -32.8344 -32.7258
   -22.5346 -18.5767 -18.3785 -18.2901 -18.0479 -17.9447 -17.8946 -17.8397
   -17.6979 -17.6770 -17.5794 -17.5480 -17.5097 -17.4670 -17.4641 -17.3993
   -17.3589 -17.3471 -17.2490 -17.1550 -17.0541 -17.0474 -17.0121 -16.9447
   -16.9049 -16.7622 -16.7496 -16.7311 -16.5953 -16.5686 -15.7140 -15.2816
   -15.1974  -6.8698  -6.5105  -6.3179  -5.9238  -5.8223  -5.6820  -5.6320
    -5.4542  -5.4114  -5.3204  -5.2245  -5.0747  -5.0393  -4.9959  -4.9651
    -4.8861  -4.8076  -4.7574  -4.6536  -4.6312  -4.6067  -4.5652  -4.5091
    -4.4994  -4.4705  -4.4155  -4.3927  -4.3061  -4.2913  -4.2744  -4.1749
    -4.1523  -4.1414  -4.0929  -4.0756  -4.0067  -3.9210  -3.9111  -3.8390
    -3.7302  -3.6468  -3.6321  -3.6084  -3.5310  -3.4523  -3.4291  -3.3710
    -3.2754  -3.2113  -3.1468  -3.1291  -3.0947  -3.0601  -2.9617  -2.9235
    -2.9207  -2.8335  -2.8153  -2.7642  -2.7444  -2.7299  -2.6497  -2.6330
    -2.5575  -2.4685  -2.3586  -2.2710  -2.2372  -2.1954  -2.1785  -2.1179
    -2.0994  -2.0517  -1.9963  -1.9381  -1.9319  -1.8817  -1.8754  -1.8048
    -1.7503  -1.7250  -1.6988  -1.6514  -1.5932  -1.5835  -1.4814  -1.4169
    -1.3940  -1.3016  -1.2220  -1.1179  -1.0573  -0.7772  -0.7169  -0.6290
    -0.4407  -0.3429  -0.3422   1.0997   1.1676   1.2926   1.4444   1.4564
     1.5284   1.5590   1.6770   1.7551   1.7936   1.8137   1.8567   1.9043
     1.9247   1.9693   1.9854   2.0231   2.0683   2.0784   2.1077   2.1762
     2.1992   2.2662   2.2942   2.3378   2.5170   2.5593   2.5641   2.5711
     2.6122   2.6192   2.6383   2.7157   2.7288   2.7849   2.8289   2.8600
     2.8931   2.9359   2.9801   3.0139   3.0376   3.0874   3.1609   3.3411
     3.4338   3.5642   3.6186   3.6364   3.7404   3.8177   3.8544   3.9878
     4.1746   4.2397   4.2994   4.3776   4.5094   4.5214   4.5624   4.7341
     5.0637   5.0904   5.1571   5.2504   5.2652   5.2777   5.3090   5.4031
     5.4831   5.5512   5.5833   5.5905   5.6289   5.6651   5.7121   5.8929
     5.9339   6.0259   6.0443   6.3593   6.3678   6.4682   6.6162   6.7455
     7.2465   7.7836   7.8401   8.0548   8.1172   8.3661   8.4199   8.9079
     8.9315   9.0851   9.1838   9.2904   9.5171   9.7836  10.0322

          k = 0.0253 0.0280 0.0000 ( 34687 PWs)   bands (ev):

   -58.2543 -58.2241 -58.1037 -58.0466 -57.9276 -57.8825 -57.7064 -57.6758
   -57.6504 -57.6198 -57.5754 -57.5437 -57.3924 -57.2323 -56.7010 -56.6705
   -34.6670 -34.6382 -34.5370 -34.5123 -34.4507 -34.4506 -34.3997 -34.3696
   -34.3626 -34.3293 -34.3097 -34.2951 -34.2429 -34.1944 -34.1799 -34.1409
   -34.1209 -34.1148 -34.1073 -34.0919 -34.0589 -33.9809 -33.8979 -33.8850
   -33.8806 -33.8626 -33.8412 -33.8399 -33.8332 -33.8254 -33.8205 -33.8153
   -33.7825 -33.7715 -33.7708 -33.7379 -33.7334 -33.6973 -33.6315 -33.6116
   -33.4658 -33.4196 -33.0960 -33.0548 -33.0308 -32.9200 -32.8406 -32.7532
   -22.5292 -18.5195 -18.3252 -18.2471 -17.9966 -17.8991 -17.8862 -17.8371
   -17.6820 -17.6546 -17.6340 -17.5852 -17.5324 -17.4757 -17.4334 -17.3891
   -17.3642 -17.3267 -17.2680 -17.2021 -17.1000 -17.0763 -16.9892 -16.9453
   -16.9119 -16.7810 -16.7600 -16.7320 -16.6224 -16.6134 -15.7149 -15.2914
   -15.2207  -6.8370  -6.4935  -6.2856  -5.8408  -5.7377  -5.6072  -5.5538
    -5.3733  -5.3365  -5.3350  -5.1698  -5.0804  -5.0027  -4.9668  -4.9116
    -4.8321  -4.7891  -4.7607  -4.7136  -4.6886  -4.6545  -4.6386  -4.5844
    -4.5440  -4.5336  -4.4642  -4.4151  -4.4013  -4.3739  -4.2934  -4.2380
    -4.1913  -4.1291  -4.1205  -4.0914  -3.9690  -3.9268  -3.8598  -3.8072
    -3.7482  -3.6373  -3.5580  -3.5302  -3.4884  -3.4111  -3.3370  -3.2369
    -3.2188  -3.1647  -3.1220  -3.0723  -3.0310  -3.0146  -3.0092  -2.9450
    -2.9215  -2.8680  -2.8289  -2.7819  -2.7508  -2.7222  -2.6482  -2.5715
    -2.5274  -2.4407  -2.4362  -2.3634  -2.3167  -2.2575  -2.1930  -2.1643
    -2.1566  -2.1253  -2.0820  -2.0301  -1.9701  -1.9439  -1.9242  -1.8601
    -1.8391  -1.7309  -1.6938  -1.6679  -1.6450  -1.5838  -1.4655  -1.4429
    -1.3572  -1.3250  -1.3161  -1.2429  -1.0672  -0.8413  -0.7456  -0.6317
    -0.4091  -0.3703  -0.3602   1.1606   1.2877   1.3190   1.4582   1.4828
     1.5351   1.6878   1.6965   1.7718   1.8015   1.8173   1.8593   1.8839
     1.9109   1.9497   1.9755   2.0129   2.0659   2.1044   2.1425   2.1672
     2.1911   2.2933   2.3906   2.4375   2.4514   2.4579   2.5135   2.5487
     2.5645   2.6406   2.6711   2.7384   2.7988   2.8082   2.8476   2.8872
     2.8989   2.9710   3.0086   3.0828   3.1019   3.1088   3.1696   3.2943
     3.3858   3.5704   3.6122   3.6201   3.7472   3.7519   3.8945   3.9378
     4.2115   4.2985   4.3580   4.4353   4.5149   4.5659   4.5875   4.7670
     4.9645   5.0948   5.1360   5.1928   5.2360   5.2572   5.3254   5.3309
     5.4766   5.5136   5.5402   5.5504   5.6063   5.6141   5.6662   5.8731
     5.9592   6.0374   6.1064   6.2016   6.3856   6.3989   6.6394   6.7226
     7.3593   7.6413   7.8763   7.9831   8.1877   8.2406   8.3697   8.5672
     8.9153   9.0435   9.2233   9.3374   9.4056   9.7821   9.8168

          k = 0.0253 0.0560 0.0000 ( 34699 PWs)   bands (ev):

   -58.2480 -58.2305 -58.1005 -58.0498 -57.9238 -57.8864 -57.7000 -57.6822
   -57.6440 -57.6262 -57.5694 -57.5498 -57.3913 -57.2334 -56.6946 -56.6769
   -34.5972 -34.5651 -34.5316 -34.5174 -34.4337 -34.4023 -34.3916 -34.3869
   -34.3801 -34.3561 -34.3368 -34.3177 -34.2864 -34.1958 -34.1528 -34.1348
   -34.1281 -34.1063 -34.1038 -34.0511 -34.0017 -33.9626 -33.9123 -33.9048
   -33.8835 -33.8775 -33.8673 -33.8552 -33.8350 -33.8331 -33.8235 -33.8186
   -33.7990 -33.7845 -33.7740 -33.7648 -33.7361 -33.6964 -33.6302 -33.6111
   -33.4954 -33.4632 -33.0498 -33.0359 -33.0252 -32.9034 -32.8575 -32.8273
   -22.5183 -18.3637 -18.1896 -18.1235 -17.9405 -17.8600 -17.8356 -17.7765
   -17.7585 -17.7257 -17.6430 -17.6068 -17.5590 -17.4665 -17.4416 -17.4311
   -17.3372 -17.3285 -17.2654 -17.2154 -17.1733 -17.1342 -17.0167 -16.9697
   -16.8634 -16.8177 -16.7834 -16.7483 -16.7351 -16.6685 -15.7168 -15.3092
   -15.2711  -6.7733  -6.4544  -6.2336  -5.6139  -5.5039  -5.4407  -5.3978
    -5.3405  -5.1459  -5.1378  -5.0944  -5.0365  -4.9919  -4.9563  -4.9275
    -4.8908  -4.8486  -4.8324  -4.7815  -4.7755  -4.7277  -4.7107  -4.6474
    -4.6402  -4.5995  -4.5142  -4.5006  -4.4511  -4.3842  -4.3728  -4.3040
    -4.1932  -4.1734  -4.0567  -4.0178  -3.9159  -3.8875  -3.8414  -3.7658
    -3.6792  -3.6303  -3.5480  -3.4661  -3.4242  -3.4068  -3.3524  -3.2570
    -3.2177  -3.1448  -3.1015  -3.0759  -2.9958  -2.9843  -2.9256  -2.9123
    -2.8983  -2.8598  -2.7912  -2.7309  -2.7109  -2.7069  -2.6641  -2.6078
    -2.5444  -2.5153  -2.4837  -2.4578  -2.3917  -2.3845  -2.3005  -2.2740
    -2.2074  -2.1969  -2.1696  -2.1338  -2.0400  -2.0093  -1.9648  -1.9319
    -1.8593  -1.8184  -1.7767  -1.6995  -1.6881  -1.6206  -1.5991  -1.5322
    -1.4202  -1.3747  -1.3150  -1.2390  -1.2018  -1.0972  -0.8730  -0.4564
    -0.4211  -0.3933  -0.3663   1.3009   1.3804   1.4912   1.5298   1.5685
     1.6172   1.6552   1.7200   1.7414   1.8066   1.8278   1.8560   1.9003
     1.9494   1.9622   1.9791   2.0756   2.1061   2.1634   2.2072   2.2199
     2.2401   2.2615   2.3443   2.3646   2.3886   2.4380   2.4618   2.5136
     2.6408   2.6611   2.7111   2.7601   2.7839   2.8133   2.8712   2.9228
     2.9682   3.0129   3.0416   3.1659   3.2009   3.2235   3.2861   3.3110
     3.3335   3.4458   3.5548   3.5881   3.6547   3.7852   3.8366   3.9555
     4.3105   4.3833   4.4397   4.5739   4.5986   4.6485   4.6813   4.7695
     4.8270   4.9165   5.0039   5.0915   5.1620   5.2422   5.2655   5.3010
     5.3539   5.4355   5.4761   5.4985   5.5722   5.6204   5.7499   5.8285
     5.9203   6.0326   6.0462   6.2442   6.2761   6.4518   6.5760   6.9182
     7.0198   7.3625   7.7185   7.8932   8.2232   8.3674   8.4266   8.5964
     8.7345   8.9165   9.0454   9.3743   9.5231   9.5845   9.7536

          k = 0.0253-0.0840 0.0000 ( 34722 PWs)   bands (ev):

   -58.2393 -58.2392 -58.0988 -58.0516 -57.9215 -57.8887 -57.6917 -57.6906
   -57.6365 -57.6337 -57.5638 -57.5554 -57.3908 -57.2340 -56.6858 -56.6858
   -34.5245 -34.5244 -34.5006 -34.5005 -34.4928 -34.4160 -34.4104 -34.4104
   -34.3753 -34.3488 -34.3343 -34.3077 -34.2800 -34.2600 -34.1632 -34.1343
   -34.1309 -34.1062 -34.0123 -34.0114 -33.9563 -33.9542 -33.9330 -33.9321
   -33.9154 -33.9046 -33.8748 -33.8735 -33.8573 -33.8551 -33.8216 -33.8189
   -33.8060 -33.7989 -33.7624 -33.7545 -33.7017 -33.6989 -33.6344 -33.6097
   -33.5432 -33.4684 -33.0428 -33.0428 -32.9273 -32.9272 -32.8804 -32.8804
   -22.5128 -18.1973 -18.1074 -18.0361 -17.9626 -17.9280 -17.9064 -17.7465
   -17.7265 -17.6727 -17.6215 -17.6188 -17.5694 -17.5650 -17.4412 -17.4400
   -17.3656 -17.3624 -17.2265 -17.2238 -17.1183 -17.1127 -17.0605 -17.0321
   -16.8530 -16.8496 -16.7803 -16.7788 -16.7406 -16.7279 -15.7178 -15.3077
   -15.3076  -6.7433  -6.4308  -6.2151  -5.4602  -5.3208  -5.3004  -5.1904
    -5.1902  -5.1434  -5.1342  -5.1224  -5.1177  -5.0687  -4.9541  -4.9333
    -4.9219  -4.8842  -4.8707  -4.8555  -4.8161  -4.7970  -4.7725  -4.6580
    -4.6277  -4.5839  -4.5511  -4.5124  -4.4805  -4.3982  -4.3805  -4.2988
    -4.2159  -4.0413  -3.9844  -3.9504  -3.9331  -3.8972  -3.6885  -3.6593
    -3.6552  -3.6000  -3.5506  -3.5027  -3.4325  -3.4223  -3.4000  -3.3964
    -3.2467  -3.2164  -3.1925  -3.1750  -3.1328  -3.0889  -2.9792  -2.9698
    -2.8882  -2.8693  -2.7909  -2.6973  -2.6517  -2.6158  -2.5893  -2.5046
    -2.4936  -2.4597  -2.4582  -2.4353  -2.4251  -2.3884  -2.3831  -2.3331
    -2.3050  -2.2253  -2.2018  -2.0949  -2.0746  -1.9967  -1.9954  -1.8940
    -1.8590  -1.8568  -1.7824  -1.7723  -1.6979  -1.6492  -1.6404  -1.6191
[...]
    -4.7304  -4.7155  -4.7116  -4.6636  -4.6542  -4.5858  -4.5854  -4.5838
    -4.5425  -4.5258  -4.4987  -4.4794  -4.4492  -4.4393  -4.4277  -4.3489
    -4.2636  -4.1869  -4.0670  -4.0520  -4.0382  -3.9800  -3.9550  -3.9418
    -3.9029  -3.9020  -3.6789  -3.6669  -3.5970  -3.5303  -3.4302  -3.4190
    -3.3756  -3.3487  -3.3092  -3.2236  -3.1847  -3.1179  -3.0990  -3.0688
    -3.0359  -2.9635  -2.9506  -2.9327  -2.9290  -2.9116  -2.8727  -2.8370
    -2.8034  -2.7008  -2.6978  -2.6006  -2.5927  -2.5752  -2.4934  -2.4751
    -2.3935  -2.2973  -2.2170  -2.0812  -2.0708  -1.9032  -1.8995  -1.8158
    -1.7632  -1.7465  -1.7415  -1.6826  -1.6143  -1.5818  -1.5643  -1.5013
    -1.4913  -1.3613  -1.1800  -1.1764  -1.1709  -1.1273  -0.9915  -0.4812
    -0.4811  -0.3391  -0.3387   1.5028   1.5354   1.5651   1.6001   1.6072
     1.6444   1.6472   1.7240   1.8416   1.8743   1.9306   1.9438   2.0004
     2.0094   2.0501   2.0698   2.1169   2.1256   2.1314   2.2203   2.2761
     2.3745   2.3840   2.4068   2.4444   2.4472   2.6058   2.6323   2.7013
     2.7036   2.8061   2.8116   2.8520   2.8603   2.9092   2.9220   2.9415
     2.9467   3.0652   3.0806   3.2132   3.2455   3.3333   3.3987   3.3992
     3.3993   3.5183   3.5292   3.5512   3.5514   3.7576   3.8452   3.9344
     4.0835   4.1582   4.2308   4.2309   4.2816   4.3194   4.3369   4.3399
     4.6623   4.6720   4.7893   4.8223   5.1986   5.2182   5.3591   5.3611
     5.4565   5.5880   5.7403   5.7424   5.7678   5.7863   6.0152   6.0771
     6.1163   6.1165   6.2899   6.2907   6.3907   6.3925   6.7669   7.2619
     7.4998   7.5740   7.6908   7.7240   7.8816   7.9031   7.9936   8.0872
     8.4236   8.4500   8.5688   8.6954   9.1802   9.2183   9.3236

          k =-0.0253 0.0280 0.0000 ( 34687 PWs)   bands (ev):

   -58.2544 -58.2242 -58.1036 -58.0466 -57.9276 -57.8824 -57.7064 -57.6758
   -57.6503 -57.6198 -57.5754 -57.5437 -57.3923 -57.2323 -56.7012 -56.6707
   -34.6670 -34.6381 -34.5371 -34.5124 -34.4507 -34.4506 -34.3996 -34.3697
   -34.3624 -34.3294 -34.3096 -34.2952 -34.2427 -34.1943 -34.1799 -34.1409
   -34.1209 -34.1148 -34.1073 -34.0919 -34.0589 -33.9809 -33.8979 -33.8850
   -33.8806 -33.8626 -33.8412 -33.8398 -33.8332 -33.8254 -33.8205 -33.8153
   -33.7825 -33.7714 -33.7708 -33.7379 -33.7333 -33.6973 -33.6315 -33.6116
   -33.4658 -33.4195 -33.0962 -33.0550 -33.0310 -32.9202 -32.8408 -32.7534
   -22.5292 -18.5195 -18.3252 -18.2471 -17.9967 -17.8981 -17.8876 -17.8369
   -17.6819 -17.6514 -17.6394 -17.5837 -17.5324 -17.4758 -17.4336 -17.3890
   -17.3643 -17.3265 -17.2680 -17.2015 -17.1000 -17.0765 -16.9894 -16.9453
   -16.9119 -16.7810 -16.7601 -16.7319 -16.6223 -16.6136 -15.7150 -15.2910
   -15.2203  -6.8378  -6.4938  -6.2857  -5.8406  -5.7377  -5.6072  -5.5538
    -5.3697  -5.3376  -5.3353  -5.1691  -5.0794  -5.0007  -4.9664  -4.9117
    -4.8316  -4.7875  -4.7628  -4.7177  -4.6890  -4.6541  -4.6412  -4.5853
    -4.5446  -4.5336  -4.4632  -4.4152  -4.4017  -4.3752  -4.2935  -4.2375
    -4.1913  -4.1296  -4.1206  -4.0926  -3.9680  -3.9259  -3.8598  -3.8015
    -3.7459  -3.6394  -3.5629  -3.5329  -3.4854  -3.4127  -3.3331  -3.2366
    -3.2193  -3.1643  -3.1227  -3.0723  -3.0306  -3.0137  -3.0067  -2.9461
    -2.9194  -2.8677  -2.8319  -2.7798  -2.7523  -2.7220  -2.6475  -2.5730
    -2.5279  -2.4442  -2.4377  -2.3627  -2.3178  -2.2565  -2.1977  -2.1650
    -2.1577  -2.1232  -2.0826  -2.0298  -1.9674  -1.9433  -1.9241  -1.8603
    -1.8378  -1.7293  -1.6947  -1.6694  -1.6434  -1.5842  -1.4644  -1.4427
    -1.3565  -1.3238  -1.3166  -1.2426  -1.0683  -0.8413  -0.7456  -0.6315
    -0.4089  -0.3700  -0.3598   1.1605   1.2876   1.3193   1.4581   1.4841
     1.5333   1.6886   1.6998   1.7742   1.7943   1.8181   1.8615   1.8893
     1.9172   1.9507   1.9754   2.0135   2.0605   2.1069   2.1411   2.1620
     2.1936   2.2922   2.3888   2.4333   2.4463   2.4565   2.5140   2.5496
     2.5654   2.6398   2.6696   2.7368   2.7998   2.8096   2.8483   2.8885
     2.8987   2.9715   3.0097   3.0817   3.1016   3.1084   3.1702   3.2955
     3.3951   3.5699   3.6016   3.6210   3.7472   3.7531   3.8970   3.9376
     4.2105   4.2970   4.3570   4.4376   4.5136   4.5633   4.5878   4.7670
     4.9720   5.0826   5.1419   5.1927   5.2350   5.2506   5.3272   5.3369
     5.4775   5.5162   5.5357   5.5521   5.6069   5.6138   5.6666   5.8731
     5.9584   6.0385   6.1056   6.2020   6.3856   6.3988   6.6393   6.7226
     7.3595   7.6412   7.8770   7.9831   8.1875   8.2384   8.3706   8.5674
     8.9153   9.0430   9.2232   9.3341   9.4105   9.7814   9.8171

          k =-0.0253 0.0560 0.0000 ( 34699 PWs)   bands (ev):

   -58.2481 -58.2306 -58.1004 -58.0498 -57.9237 -57.8864 -57.7000 -57.6823
   -57.6440 -57.6262 -57.5693 -57.5498 -57.3913 -57.2334 -56.6948 -56.6771
   -34.5972 -34.5651 -34.5317 -34.5175 -34.4338 -34.4024 -34.3917 -34.3870
   -34.3796 -34.3558 -34.3373 -34.3176 -34.2862 -34.1958 -34.1528 -34.1348
   -34.1280 -34.1062 -34.1037 -34.0511 -34.0016 -33.9626 -33.9123 -33.9048
   -33.8835 -33.8775 -33.8673 -33.8552 -33.8349 -33.8330 -33.8235 -33.8186
   -33.7990 -33.7845 -33.7740 -33.7647 -33.7361 -33.6963 -33.6302 -33.6111
   -33.4954 -33.4631 -33.0500 -33.0361 -33.0254 -32.9036 -32.8577 -32.8275
   -22.5183 -18.3635 -18.1895 -18.1236 -17.9412 -17.8592 -17.8355 -17.7775
   -17.7580 -17.7257 -17.6445 -17.6055 -17.5590 -17.4666 -17.4415 -17.4322
   -17.3371 -17.3284 -17.2642 -17.2153 -17.1733 -17.1346 -17.0167 -16.9699
   -16.8634 -16.8177 -16.7834 -16.7484 -16.7351 -16.6684 -15.7168 -15.3088
   -15.2707  -6.7741  -6.4549  -6.2335  -5.6136  -5.5039  -5.4370  -5.3973
    -5.3405  -5.1447  -5.1383  -5.0944  -5.0413  -4.9867  -4.9571  -4.9281
    -4.8912  -4.8505  -4.8343  -4.7818  -4.7766  -4.7271  -4.7109  -4.6472
    -4.6393  -4.5993  -4.5133  -4.5000  -4.4515  -4.3851  -4.3727  -4.3045
    -4.1921  -4.1719  -4.0581  -4.0200  -3.9158  -3.8831  -3.8446  -3.7657
    -3.6797  -3.6282  -3.5539  -3.4654  -3.4228  -3.4061  -3.3518  -3.2549
    -3.2155  -3.1440  -3.1018  -3.0713  -2.9968  -2.9841  -2.9264  -2.9145
    -2.8986  -2.8617  -2.7920  -2.7320  -2.7108  -2.7052  -2.6617  -2.6104
    -2.5442  -2.5218  -2.4833  -2.4568  -2.3910  -2.3835  -2.3007  -2.2729
    -2.2130  -2.2014  -2.1715  -2.1271  -2.0402  -2.0094  -1.9670  -1.9284
    -1.8594  -1.8155  -1.7798  -1.6979  -1.6865  -1.6205  -1.5975  -1.5282
    -1.4203  -1.3756  -1.3177  -1.2391  -1.2008  -1.0986  -0.8729  -0.4562
    -0.4207  -0.3929  -0.3661   1.3007   1.3803   1.4910   1.5247   1.5740
     1.6186   1.6596   1.7179   1.7402   1.8125   1.8278   1.8554   1.9017
     1.9484   1.9624   1.9787   2.0769   2.1097   2.1558   2.2061   2.2207
     2.2450   2.2593   2.3451   2.3610   2.3848   2.4377   2.4623   2.5078
     2.6426   2.6593   2.7133   2.7557   2.7843   2.8162   2.8718   2.9171
     2.9730   3.0131   3.0413   3.1684   3.2026   3.2218   3.2884   3.3121
     3.3334   3.4482   3.5548   3.5871   3.6519   3.7848   3.8376   3.9557
     4.3124   4.3760   4.4374   4.5779   4.5999   4.6448   4.6834   4.7748
     4.8195   4.9199   5.0038   5.0916   5.1570   5.2445   5.2654   5.3029
     5.3529   5.4361   5.4784   5.4988   5.5727   5.6191   5.7501   5.8284
     5.9203   6.0326   6.0463   6.2442   6.2759   6.4518   6.5759   6.9182
     7.0199   7.3629   7.7182   7.8930   8.2237   8.3655   8.4274   8.5963
     8.7348   8.9163   9.0462   9.3731   9.5232   9.5841   9.7564

          k =-0.0506 0.0280 0.0000 ( 34685 PWs)   bands (ev):

   -58.2544 -58.2242 -58.1036 -58.0466 -57.9276 -57.8824 -57.7063 -57.6758
   -57.6504 -57.6198 -57.5754 -57.5437 -57.3923 -57.2323 -56.7012 -56.6707
   -34.6677 -34.6394 -34.5370 -34.5124 -34.4509 -34.4493 -34.3974 -34.3697
   -34.3619 -34.3294 -34.3096 -34.2952 -34.2429 -34.1943 -34.1831 -34.1409
   -34.1218 -34.1215 -34.1099 -34.0918 -34.0419 -33.9662 -33.8973 -33.8856
   -33.8773 -33.8626 -33.8524 -33.8472 -33.8329 -33.8287 -33.8199 -33.8153
   -33.7827 -33.7714 -33.7710 -33.7379 -33.7332 -33.6989 -33.6316 -33.6116
   -33.4658 -33.4195 -33.0961 -33.0568 -33.0301 -32.9202 -32.8408 -32.7534
   -22.5244 -18.4601 -18.2417 -18.1907 -17.9388 -17.8977 -17.8710 -17.8442
   -17.7683 -17.7117 -17.6704 -17.6256 -17.5382 -17.4989 -17.4779 -17.4458
   -17.4092 -17.2996 -17.2877 -17.1666 -17.1273 -17.0280 -17.0088 -16.9767
   -16.8862 -16.7700 -16.7613 -16.7310 -16.6227 -16.6121 -15.7011 -15.2891
   -15.2203  -6.7006  -6.4246  -6.3284  -5.8117  -5.4492  -5.4094  -5.3420
    -5.2908  -5.2696  -5.2346  -5.2113  -5.1317  -5.0735  -5.0050  -4.9499
    -4.9046  -4.7723  -4.7222  -4.6721  -4.6267  -4.5986  -4.5775  -4.5639
    -4.5450  -4.4959  -4.4382  -4.3946  -4.3502  -4.3208  -4.2734  -4.2593
    -4.1898  -4.1705  -4.0412  -3.9917  -3.9262  -3.8566  -3.8334  -3.7932
    -3.7425  -3.6862  -3.5853  -3.5553  -3.5040  -3.4532  -3.3728  -3.3215
    -3.3090  -3.2553  -3.2332  -3.1625  -3.0990  -3.0862  -3.0372  -2.9879
    -2.9599  -2.9273  -2.9037  -2.8570  -2.8148  -2.7747  -2.6837  -2.6078
    -2.5662  -2.5427  -2.4919  -2.4335  -2.3924  -2.3646  -2.3226  -2.2910
    -2.2012  -2.1486  -2.1037  -2.0763  -2.0531  -1.9963  -1.9677  -1.9011
    -1.8411  -1.8105  -1.7042  -1.6686  -1.6372  -1.5441  -1.4694  -1.4377
    -1.3813  -1.3307  -1.2769  -1.2485  -1.0781  -0.8841  -0.8351  -0.6187
    -0.4395  -0.4090  -0.3955   1.1446   1.3471   1.3952   1.4998   1.5077
     1.5356   1.6014   1.6611   1.7433   1.7733   1.8273   1.9075   1.9338
     1.9705   1.9963   2.0214   2.0387   2.0726   2.1260   2.1832   2.2202
     2.2970   2.3449   2.3866   2.4663   2.4743   2.5408   2.5515   2.5755
     2.6144   2.6805   2.7339   2.7773   2.8215   2.8798   2.8998   2.9279
     2.9746   3.0584   3.0726   3.1082   3.1180   3.1844   3.2542   3.2818
     3.3274   3.4854   3.6095   3.6854   3.7253   3.7729   3.8624   3.8718
     4.0499   4.1162   4.2041   4.2288   4.3964   4.4650   4.5661   4.8101
     4.9130   5.0216   5.0555   5.1967   5.2561   5.2682   5.3007   5.4467
     5.4901   5.5449   5.5775   5.6816   5.8590   5.8977   5.9421   5.9810
     6.0826   6.1206   6.2618   6.2726   6.4086   6.4489   6.6114   6.8830
     7.1629   7.3395   7.6806   7.7035   7.7579   8.3148   8.4041   8.5669
     8.6591   9.0938   9.1764   9.4092   9.5103   9.6295   9.7646

          k =-0.0506 0.0560 0.0000 ( 34596 PWs)   bands (ev):

   -58.2481 -58.2306 -58.1004 -58.0498 -57.9237 -57.8863 -57.6999 -57.6822
   -57.6440 -57.6262 -57.5693 -57.5498 -57.3913 -57.2334 -56.6948 -56.6771
   -34.5978 -34.5661 -34.5317 -34.5174 -34.4326 -34.4026 -34.3914 -34.3866
   -34.3784 -34.3556 -34.3373 -34.3171 -34.2860 -34.1957 -34.1528 -34.1336
   -34.1282 -34.1095 -34.1068 -34.0519 -33.9930 -33.9501 -33.9159 -33.8966
   -33.8822 -33.8787 -33.8672 -33.8551 -33.8392 -33.8331 -33.8322 -33.8224
   -33.7992 -33.7860 -33.7739 -33.7647 -33.7361 -33.6972 -33.6303 -33.6113
   -33.4952 -33.4631 -33.0511 -33.0356 -33.0253 -32.9036 -32.8577 -32.8274
   -22.5139 -18.3125 -18.1218 -18.0513 -17.9435 -17.8287 -17.8176 -17.7820
   -17.7428 -17.7293 -17.6970 -17.6175 -17.6050 -17.5030 -17.4469 -17.4192
   -17.4177 -17.3573 -17.2639 -17.2359 -17.1784 -17.1445 -17.1030 -16.9547
   -16.8410 -16.8114 -16.7823 -16.7477 -16.7350 -16.6675 -15.7041 -15.3076
   -15.2711  -6.6656  -6.3673  -6.2341  -5.5950  -5.2607  -5.2179  -5.1854
    -5.1335  -5.1096  -5.0881  -5.0511  -5.0310  -4.9644  -4.8985  -4.8712
    -4.8634  -4.7874  -4.7700  -4.7142  -4.7066  -4.6698  -4.6518  -4.6232
    -4.5988  -4.5892  -4.5312  -4.4810  -4.4634  -4.4122  -4.3407  -4.2704
    -4.2176  -4.1865  -4.0992  -4.0131  -3.9524  -3.9138  -3.8468  -3.8143
    -3.6819  -3.6236  -3.5643  -3.5064  -3.4867  -3.4481  -3.3817  -3.3586
    -3.2983  -3.2649  -3.2311  -3.1909  -3.1163  -3.0910  -3.0502  -3.0015
    -2.9452  -2.9190  -2.8986  -2.8656  -2.8435  -2.7858  -2.7473  -2.7380
    -2.6962  -2.6775  -2.5720  -2.5347  -2.5140  -2.4715  -2.4411  -2.3768
    -2.3155  -2.2502  -2.1835  -2.1072  -2.0400  -1.9956  -1.9581  -1.8921
    -1.8786  -1.8209  -1.7414  -1.6643  -1.6267  -1.5590  -1.5300  -1.4698
    -1.3776  -1.3509  -1.2882  -1.2369  -1.2233  -1.0579  -0.9110  -0.4708
    -0.4348  -0.4183  -0.3607   1.3025   1.4299   1.5196   1.5218   1.6311
     1.6563   1.6918   1.7016   1.7572   1.8315   1.8513   1.9421   1.9794
     1.9957   2.0265   2.0413   2.0716   2.1391   2.1635   2.2128   2.2450
     2.2653   2.3460   2.4059   2.4368   2.4447   2.4783   2.5452   2.5621
     2.6986   2.7234   2.7696   2.7809   2.8485   2.8621   2.8983   2.9286
     2.9905   3.0607   3.0828   3.1801   3.2097   3.2669   3.3188   3.3519
     3.3669   3.3856   3.5522   3.5989   3.7142   3.7336   3.8317   3.9187
     4.1087   4.2416   4.2534   4.3059   4.4535   4.4787   4.5727   4.6772
     4.7146   4.7716   4.8749   5.0100   5.1476   5.2186   5.2790   5.3545
     5.4829   5.5272   5.6283   5.7591   5.7877   5.7955   5.8486   5.9951
     6.0737   6.0955   6.1716   6.2695   6.3458   6.4332   6.7612   6.9561
     7.1744   7.4498   7.6211   7.7313   8.0431   8.1042   8.1879   8.5309
     8.7109   8.7915   8.9089   9.0763   9.0937   9.4028   9.4763

     the Fermi energy is     0.4340 ev

!    total energy              =   -3004.17608705 Ry
     Harris-Foulkes estimate   =   -3004.17608313 Ry
     estimated scf accuracy    <       0.00000025 Ry

     The total energy is the sum of the following terms:

     one-electron contribution =  -42058.97199700 Ry
     hartree contribution      =   21091.86760928 Ry
     xc contribution           =    -546.24201515 Ry
     ewald contribution        =   18509.17055508 Ry
     smearing contrib. (-TS)   =      -0.00023926 Ry

     total magnetization       =     0.00 Bohr mag/cell
     absolute magnetization    =     0.00 Bohr mag/cell

     convergence has been achieved in  10 iterations

     Forces acting on atoms (Ry/au):


     negative rho (up, down):  1.430E-02 1.430E-02
     atom    1 type  1   force =    -0.00015105    0.00030643   -0.13694968
     atom    2 type  2   force =     0.00008103   -0.00013260    0.07533620
     atom    3 type  1   force =     0.00071860    0.00085433   -0.05923301
     atom    4 type  2   force =     0.00466091   -0.00035284    0.00933587
     atom    5 type  1   force =     0.00005270    0.00106716    0.00014714
     atom    6 type  2   force =    -0.00004794    0.00059782   -0.00359027
     atom    7 type  1   force =     0.00078109   -0.00163434    0.00120124
     atom    8 type  2   force =    -0.00055308   -0.00129575   -0.00020267
     atom    9 type  1   force =    -0.00004600    0.00037865   -0.13695990
     atom   10 type  2   force =     0.00013318   -0.00019610    0.07540289
     atom   11 type  1   force =     0.00079243   -0.00086563   -0.05940190
     atom   12 type  2   force =     0.00430777   -0.00009144    0.00813772
     atom   13 type  1   force =    -0.00052982   -0.00153176    0.00009583
     atom   14 type  2   force =    -0.00016170    0.00011219    0.00163333
     atom   15 type  1   force =    -0.00026050   -0.00088542   -0.00020022
     atom   16 type  2   force =    -0.00009878    0.00216862   -0.00050664
     atom   17 type  2   force =     0.00022358   -0.00004659    0.08097974
     atom   18 type  1   force =    -0.00014438    0.00031697    0.11717381
     atom   19 type  2   force =     0.00029483    0.00018005   -0.06544697
     atom   20 type  2   force =    -0.06318056   -0.00002331   -0.03166156
     atom   21 type  2   force =     0.06295301    0.00017906   -0.03158156
     atom   22 type  1   force =    -0.00066111    0.00003287    0.05925343
     atom   23 type  2   force =    -0.00014722    0.00032191   -0.00034090
     atom   24 type  2   force =     0.00061596   -0.00010367   -0.02272247
     atom   25 type  2   force =    -0.00453091   -0.00028685    0.00822331
     atom   26 type  1   force =    -0.00003652    0.00048281    0.00021074
     atom   27 type  2   force =     0.00023504   -0.00014850   -0.00055239
     atom   28 type  2   force =    -0.00121926   -0.00013203   -0.00021934
     atom   29 type  2   force =     0.00032613   -0.00022771   -0.00006553
     atom   30 type  1   force =     0.00002206    0.00109653    0.00112348
     atom   31 type  2   force =     0.00027621   -0.00040319   -0.00041350
     atom   32 type  2   force =     0.00009056   -0.00168386   -0.00025625
     atom   33 type  2   force =     0.00021850    0.00003882    0.08091479
     atom   34 type  1   force =    -0.00023013    0.00029181    0.11710678
     atom   35 type  2   force =     0.00031736    0.00017519   -0.06548866
     atom   36 type  2   force =    -0.06309190    0.00014592   -0.03191878
     atom   37 type  2   force =     0.06314238    0.00017362   -0.03155795
     atom   38 type  1   force =    -0.00046678   -0.00018978    0.05893157
     atom   39 type  2   force =     0.00013984   -0.00046069   -0.00067891
     atom   40 type  2   force =     0.00044355   -0.00230954   -0.02228516
     atom   41 type  2   force =    -0.00416869   -0.00027979    0.00761070
     atom   42 type  1   force =    -0.00022608   -0.00043004    0.00002288
     atom   43 type  2   force =    -0.00007962    0.00000377   -0.00023738
     atom   44 type  2   force =     0.00026328    0.00023386   -0.00007710
     atom   45 type  2   force =    -0.00015430   -0.00001254   -0.00018124
     atom   46 type  1   force =    -0.00139518    0.00006050    0.00069583
     atom   47 type  2   force =    -0.00058538    0.00035778   -0.00023317
     atom   48 type  2   force =     0.00091297    0.00135977    0.00036809
     atom   49 type  2   force =     0.00016392    0.00278753   -0.00094227

     Total force =     0.365226     Total SCF correction =     0.001311
 !ASE

     Writing output data file calc.save
 
     init_run     :     53.71s CPU     68.88s WALL (       1 calls)
     electrons    :   2096.44s CPU   2553.20s WALL (       1 calls)
     forces       :     40.12s CPU     41.37s WALL (       1 calls)

     Called by init_run:
     wfcinit      :     46.59s CPU     60.94s WALL (       1 calls)
     potinit      :      1.26s CPU      1.62s WALL (       1 calls)

     Called by electrons:
     c_bands      :   1812.42s CPU   2196.03s WALL (      10 calls)
     sum_band     :    239.19s CPU    306.03s WALL (      10 calls)
     v_of_rho     :     11.23s CPU     14.33s WALL (      11 calls)
     newd         :     37.02s CPU     40.51s WALL (      11 calls)
     mix_rho      :      0.37s CPU      0.54s WALL (      10 calls)
     vdW_energy   :      2.08s CPU      2.52s WALL (      12 calls)
     vdW_ffts     :      2.88s CPU      3.95s WALL (      24 calls)
     vdW_v        :      1.19s CPU      1.45s WALL (      12 calls)

     Called by c_bands:
     init_us_2    :      5.66s CPU      6.20s WALL (     880 calls)
     cegterg      :   1774.55s CPU   2155.93s WALL (     400 calls)

     Called by *egterg:
     h_psi        :    749.10s CPU   1050.07s WALL (    1981 calls)
     s_psi        :     90.48s CPU     94.76s WALL (    1981 calls)
     g_psi        :      5.11s CPU      5.26s WALL (    1541 calls)
     cdiaghg      :    589.72s CPU    604.62s WALL (    1941 calls)

     Called by h_psi:
     add_vuspsi   :     90.96s CPU     95.59s WALL (    1981 calls)

     General routines
     calbec       :    140.25s CPU    144.11s WALL (    2421 calls)
     fft          :      8.35s CPU     10.61s WALL (     948 calls)
     ffts         :      0.08s CPU      0.10s WALL (      42 calls)
     fftw         :    498.77s CPU    846.88s WALL (  711700 calls)
     interpolate  :      0.38s CPU      0.59s WALL (      42 calls)
     davcio       :      0.04s CPU      1.83s WALL (      40 calls)
 
     Parallel routines
     fft_scatter  :    276.99s CPU    469.62s WALL (  712690 calls)
 
     PWSCF        : 36m31.17s CPU    44m27.09s WALL

 
   This run was terminated on:  20:35: 5  10Feb2018            

=------------------------------------------------------------------------------=
   JOB DONE.
=------------------------------------------------------------------------------=
