  python dir          : /home/vossj/suncat/lib/python2.7/site-packages/espresso
  espresso dir        : /home/vossj/suncat/esdld/espresso-dynpy-beef/bin
  pseudo dir          : /home/alatimer/bin/psp/esp_psp_w_gbrvRu/
  ase-espresso py git : ffa2778-git



     Program PWSCF v.5.1rc2 (svn rev. ) starts on 26Feb2018 at  3:17:54 

     This program is part of the open-source Quantum ESPRESSO suite
     for quantum simulation of materials; please cite
         "P. Giannozzi et al., J. Phys.:Condens. Matter 21 395502 (2009);
          URL http://www.quantum-espresso.org", 
     in publications or presentations arising from this work. More details at
     http://www.quantum-espresso.org/quote

     Parallel version (MPI), running on    16 processors
     R & G space division:  proc/nbgrp/npool/nimage =      16
     Reading input from pw.inp
     Message from routine read_cards :
     DEPRECATED: no units specified in CELL_PARAMETERS card

     Current dimensions of program PWSCF are:
     Max number of different atomic species (ntypx) = 10
     Max number of k-points (npk) =  40000
     Max angular momentum in pseudopotentials (lmaxx) =  3

     **************************************************************************
     Initializing libbeef V0.1.1 with the BEEF-vdW functional.
     Citation: Wellendorff et al., PRB 85, 235149 (2012).
     **************************************************************************


     IMPORTANT: XC functional enforced from input :
     Exchange-correlation      = BEEF ( 1  4 27 13 2)
     Any further DFT definition will be discarded
     Please, verify this is what you really want


     Subspace diagonalization in iterative solution of the eigenvalue problem:
     a serial algorithm will be used

 
     Parallelization info
     --------------------
     sticks:   dense  smooth     PW     G-vecs:    dense   smooth      PW
     Min         281     112     31                68535    17318    2565
     Max         282     113     32                68545    17369    2582
     Sum        4501    1795    503              1096637   277353   41113
 
     Generating pointlists ...
     new r_m :   0.4125 (alat units)  0.7795 (a.u.) for type    1
     new r_m :   0.4125 (alat units)  0.7795 (a.u.) for type    2
     new r_m :   0.4125 (alat units)  0.7795 (a.u.) for type    3
     new r_m :   0.4125 (alat units)  0.7795 (a.u.) for type    4


     bravais-lattice index     =            0
     lattice parameter (alat)  =       1.8897  a.u.
     unit-cell volume          =    7990.9933 (a.u.)^3
     number of atoms/cell      =           54
     number of atomic types    =            4
     number of electrons       =       398.00
     number of Kohn-Sham states=          299
     kinetic-energy cutoff     =      40.4243  Ry
     charge density cutoff     =     404.2426  Ry
     convergence threshold     =      7.3E-07
     mixing beta               =       0.1000
     number of iterations used =           10  plain     mixing
     Exchange-correlation      = BEEF ( 1  4 27 13 2)
     nstep                     =           50


     celldm(1)=   1.889726  celldm(2)=   0.000000  celldm(3)=   0.000000
     celldm(4)=   0.000000  celldm(5)=   0.000000  celldm(6)=   0.000000

     crystal axes: (cart. coord. in units of alat)
               a(1) = (   6.590708   0.000000   0.000000 )  
               a(2) = (   0.000000   5.950229   0.000000 )  
               a(3) = (   0.000000   0.000000  30.195235 )  

     reciprocal axes: (cart. coord. in units 2 pi/alat)
               b(1) = (  0.151729  0.000000  0.000000 )  
               b(2) = (  0.000000  0.168061  0.000000 )  
               b(3) = (  0.000000  0.000000  0.033118 )  


     PseudoPot. # 1 for Ti read from file:
     /home/alatimer/bin/psp/esp_psp_w_gbrvRu/Ti.UPF
     MD5 check sum: 8e4df49b7f0d34bbd5052bf3f5ea0213
     Pseudo is Ultrasoft, Zval = 12.0
     Generated by new atomic code, or converted to UPF format
     Using radial grid of  851 points,  6 beta functions with: 
                l(1) =   0
                l(2) =   0
                l(3) =   1
                l(4) =   1
                l(5) =   2
                l(6) =   2
     Q(r) pseudized with  8 coefficients,  rinner =    1.000   1.000   1.000
                                                       1.000   1.000

     PseudoPot. # 2 for  O read from file:
     /home/alatimer/bin/psp/esp_psp_w_gbrvRu/O.UPF
     MD5 check sum: e057bbcf3229fb5d8c36c0c92f9568b4
     Pseudo is Ultrasoft + core correction, Zval =  6.0
     Generated using "atomic" code by A. Dal Corso  v.5.0.2 svn rev. 9415
     Using radial grid of 1095 points,  4 beta functions with: 
                l(1) =   0
                l(2) =   0
                l(3) =   1
                l(4) =   1
     Q(r) pseudized with 0 coefficients 


     PseudoPot. # 3 for  C read from file:
     /home/alatimer/bin/psp/esp_psp_w_gbrvRu/C.UPF
     MD5 check sum: ab446d787031eba755f1d5ee46644bb0
     Pseudo is Ultrasoft + core correction, Zval =  4.0
     Generated using "atomic" code by A. Dal Corso  v.5.0.2 svn rev. 9415
     Using radial grid of 1073 points,  4 beta functions with: 
                l(1) =   0
                l(2) =   0
                l(3) =   1
                l(4) =   1
     Q(r) pseudized with 0 coefficients 


     PseudoPot. # 4 for  H read from file:
     /home/alatimer/bin/psp/esp_psp_w_gbrvRu/H.UPF
     MD5 check sum: bd57da0722753ddfd9833a65b40bb853
     Pseudo is Ultrasoft, Zval =  1.0
     Generated using "atomic" code by A. Dal Corso  v.5.0.2 svn rev. 9415
     Using radial grid of  929 points,  2 beta functions with: 
                l(1) =   0
                l(2) =   0
     Q(r) pseudized with 0 coefficients 


     vdW kernel table read from file vdW_kernel_table
     MD5 check sum: 095c7af220d748ca6e76c0b4c6cfb241

     atomic species   valence    mass     pseudopotential
        Ti1           12.00    47.88000     Ti( 1.00)
        O1             6.00    15.99940      O( 1.00)
        C1             4.00    12.01100      C( 1.00)
        H1             1.00     1.00794      H( 1.00)

     Starting magnetic structure 
     atomic species   magnetization
        Ti1          0.250
        O1           0.500
        C1           0.750
        H1           0.000

     No symmetry found



   Cartesian axes

     site n.     atom                  positions (alat units)
         1           Ti1 tau(   1) = (   1.6476770   0.7437786   2.6545865  )
         2           O1  tau(   2) = (   1.6476770   2.2313359   3.9361215  )
         3           Ti1 tau(   3) = (   1.6476770   2.2313359   5.9499405  )
         4           O1  tau(   4) = (   0.3661420   0.7437786   5.9499405  )
         5           Ti1 tau(   5) = (   1.6407309   0.9134410   9.3139491  )
         6           O1  tau(   6) = (   1.6648823   2.2608486  10.4895904  )
         7           Ti1 tau(   7) = (   1.7578240   2.2899216  13.0472362  )
         8           O1  tau(   8) = (   0.4801583   0.7600008  12.7739736  )
         9           Ti1 tau(   9) = (   1.6476770   3.7188931   2.6545865  )
        10           O1  tau(  10) = (   1.6476770   5.2064503   3.9361215  )
        11           Ti1 tau(  11) = (   1.6476770   5.2064503   5.9499405  )
        12           O1  tau(  12) = (   0.3661420   3.7188931   5.9499405  )
        13           Ti1 tau(  13) = (   1.6336050   3.7786827   9.1566831  )
        14           O1  tau(  14) = (   1.6678212   5.2513959  10.5409436  )
        15           Ti1 tau(  15) = (   1.7144009   5.2558216  12.3462911  )
        16           O1  tau(  16) = (   0.4635505   3.7986228  12.7318280  )
        17           O1  tau(  17) = (   1.6476770   2.2313359   1.3730516  )
        18           Ti1 tau(  18) = (   4.9430310   2.2313359   2.6545865  )
        19           O1  tau(  19) = (   4.9430310   2.2313359   4.6684056  )
        20           O1  tau(  20) = (   6.2245660   0.7437786   2.6545865  )
        21           O1  tau(  21) = (   3.6614961   0.7437786   2.6545865  )
        22           Ti1 tau(  22) = (   4.9430310   0.7437786   5.9499405  )
        23           O1  tau(  23) = (   1.6683653   2.2752577   7.9427336  )
        24           O1  tau(  24) = (   4.9430310   2.2313359   7.2314755  )
        25           O1  tau(  25) = (   2.9292120   0.7437786   5.9499405  )
        26           Ti1 tau(  26) = (   4.9404121   2.2664794   9.4552217  )
        27           O1  tau(  27) = (   5.0099888   2.2616732  11.2946145  )
        28           O1  tau(  28) = (   6.2612001   0.7714827   9.2659748  )
        29           O1  tau(  29) = (   3.6791272   0.7744986   9.2965846  )
        30           Ti1 tau(  30) = (   5.0117873   0.7976728  12.8161605  )
        31           O1  tau(  31) = (   4.9963122   2.2836652  13.8750618  )
        32           O1  tau(  32) = (   2.9819382   0.7448324  12.7109220  )
        33           O1  tau(  33) = (   1.6476770   5.2064503   1.3730516  )
        34           Ti1 tau(  34) = (   4.9430310   5.2064503   2.6545865  )
        35           O1  tau(  35) = (   4.9430310   5.2064503   4.6684056  )
        36           O1  tau(  36) = (   6.2245660   3.7188931   2.6545865  )
        37           O1  tau(  37) = (   3.6614961   3.7188931   2.6545865  )
        38           Ti1 tau(  38) = (   4.9430310   3.7188931   5.9499405  )
        39           O1  tau(  39) = (   1.6664207   5.2035600   7.9365221  )
        40           O1  tau(  40) = (   4.9430310   5.2064503   7.2314755  )
        41           O1  tau(  41) = (   2.9292120   3.7188931   5.9499405  )
        42           Ti1 tau(  42) = (   4.9524353   5.2460635   9.4426343  )
        43           O1  tau(  43) = (   5.0107556   5.2394944  11.2927493  )
        44           O1  tau(  44) = (   6.2663940   3.7551737   9.2646230  )
        45           O1  tau(  45) = (   3.6780957   3.7542261   9.2971476  )
        46           Ti1 tau(  46) = (   5.0587989   3.7766986  12.8010349  )
        47           O1  tau(  47) = (   5.0196089   5.2502198  13.8813978  )
        48           O1  tau(  48) = (   2.9624133   3.7943242  12.7299881  )
        49           O1  tau(  49) = (   1.7427453   2.2533568  14.8370015  )
        50           C1  tau(  50) = (   2.7196098   4.3126273  16.2318421  )
        51           H1  tau(  51) = (   3.3037454   4.9255546  15.5827400  )
        52           H1  tau(  52) = (   3.3286606   3.7870117  16.9822022  )
        53           H1  tau(  53) = (   2.3125587   3.4026405  15.5729816  )
        54           H1  tau(  54) = (   1.8391288   4.7650601  16.6448379  )

     number of k points=    40  Fermi-Dirac smearing, width (Ry)=  0.0073
                       cart. coord. in units 2pi/alat
        k(    1) = (   0.0000000   0.0000000   0.0000000), wk =   0.0277778
        k(    2) = (   0.0000000   0.0280101   0.0000000), wk =   0.0555556
        k(    3) = (   0.0000000   0.0560203   0.0000000), wk =   0.0555556
        k(    4) = (   0.0000000  -0.0840304   0.0000000), wk =   0.0277778
        k(    5) = (   0.0252881   0.0000000   0.0000000), wk =   0.0555556
        k(    6) = (   0.0252881   0.0280101   0.0000000), wk =   0.0555556
        k(    7) = (   0.0252881   0.0560203   0.0000000), wk =   0.0555556
        k(    8) = (   0.0252881  -0.0840304   0.0000000), wk =   0.0555556
        k(    9) = (   0.0505763   0.0000000   0.0000000), wk =   0.0555556
        k(   10) = (   0.0505763   0.0280101   0.0000000), wk =   0.0555556
        k(   11) = (   0.0505763   0.0560203   0.0000000), wk =   0.0555556
        k(   12) = (   0.0505763  -0.0840304   0.0000000), wk =   0.0555556
        k(   13) = (  -0.0758644   0.0000000   0.0000000), wk =   0.0277778
        k(   14) = (  -0.0758644   0.0280101   0.0000000), wk =   0.0555556
        k(   15) = (  -0.0758644   0.0560203   0.0000000), wk =   0.0555556
        k(   16) = (  -0.0758644  -0.0840304   0.0000000), wk =   0.0277778
        k(   17) = (  -0.0252881   0.0280101   0.0000000), wk =   0.0555556
        k(   18) = (  -0.0252881   0.0560203   0.0000000), wk =   0.0555556
        k(   19) = (  -0.0505763   0.0280101   0.0000000), wk =   0.0555556
        k(   20) = (  -0.0505763   0.0560203   0.0000000), wk =   0.0555556
        k(   21) = (   0.0000000   0.0000000   0.0000000), wk =   0.0277778
        k(   22) = (   0.0000000   0.0280101   0.0000000), wk =   0.0555556
        k(   23) = (   0.0000000   0.0560203   0.0000000), wk =   0.0555556
        k(   24) = (   0.0000000  -0.0840304   0.0000000), wk =   0.0277778
        k(   25) = (   0.0252881   0.0000000   0.0000000), wk =   0.0555556
        k(   26) = (   0.0252881   0.0280101   0.0000000), wk =   0.0555556
        k(   27) = (   0.0252881   0.0560203   0.0000000), wk =   0.0555556
        k(   28) = (   0.0252881  -0.0840304   0.0000000), wk =   0.0555556
        k(   29) = (   0.0505763   0.0000000   0.0000000), wk =   0.0555556
        k(   30) = (   0.0505763   0.0280101   0.0000000), wk =   0.0555556
        k(   31) = (   0.0505763   0.0560203   0.0000000), wk =   0.0555556
        k(   32) = (   0.0505763  -0.0840304   0.0000000), wk =   0.0555556
        k(   33) = (  -0.0758644   0.0000000   0.0000000), wk =   0.0277778
        k(   34) = (  -0.0758644   0.0280101   0.0000000), wk =   0.0555556
        k(   35) = (  -0.0758644   0.0560203   0.0000000), wk =   0.0555556
        k(   36) = (  -0.0758644  -0.0840304   0.0000000), wk =   0.0277778
        k(   37) = (  -0.0252881   0.0280101   0.0000000), wk =   0.0555556
        k(   38) = (  -0.0252881   0.0560203   0.0000000), wk =   0.0555556
        k(   39) = (  -0.0505763   0.0280101   0.0000000), wk =   0.0555556
        k(   40) = (  -0.0505763   0.0560203   0.0000000), wk =   0.0555556

     Dense  grid:  1096637 G-vectors     FFT dimensions: (  80,  72, 375)

     Smooth grid:   277353 G-vectors     FFT dimensions: (  54,  45, 240)

     Largest allocated arrays     est. size (Mb)     dimensions
        Kohn-Sham Wavefunctions         9.95 Mb     (    2180,  299)
        NL pseudopotentials            18.89 Mb     (    2180,  568)
        Each V/rho on FFT grid          4.22 Mb     (  138240,   2)
        Each G-vector array             0.52 Mb     (   68538)
        G-vector shells                 0.25 Mb     (   33046)
     Largest temporary arrays     est. size (Mb)     dimensions
        Auxiliary wavefunctions        39.78 Mb     (    2180, 1196)
        Each subspace H/S matrix       21.83 Mb     (    1196, 1196)
        Each <psi_i|beta_j> matrix      2.59 Mb     (     568,  299)
        Arrays for rho mixing          21.09 Mb     (  138240,   10)

     Check: negative/imaginary core charge=   -0.000049    0.000000

     The initial density is read from file :
     ./calc.save/charge-density.dat


     negative rho (up, down):  1.189E-02 1.196E-02


     ************************************************************************
     *
     * You are using vdW-DF for exchange-correlation in this calculation.
     * Please cite the following three references that made this development
     * possible:
     *
     *   M. Dion, H. Rydberg, E. Schroder, D. C. Langreth, and
     *   B. I. Lundqvist, Phys. Rev. Lett. 92, 246401 (2004).
     *
     *   T. Thonhauser, V. R. Cooper, S. Li, A. Puzder, P. Hyldgaard, and
     *   D. C. Langreth, Phys. Rev. B 76, 125112 (2007).
     *
     *   G. Roman-Perez and J. M. Soler, Phys. Rev. Lett. 103, 096102 (2009).
     *
     *
     * If you are using vdW-DF2, please also cite:
     *
     *   K. Lee, E. D. Murray, L. Kong, B. I. Lundqvist, and
     *   D. C. Langreth, Phys. Rev. B 82, 081101(R) (2010).
     *
     *
     * If you are calculating the stress with vdW-DF, please also cite:
     *
     *   R. Sabatini, E. Kucukbenli, B. Kolb, T. Thonhauser, and
     *   S. de Gironcoli, J. Phys.: Condens. Matter 24, 424209 (2012).
     *
     ************************************************************************

     Carrying out vdW-DF run using the following parameters:

     Nqs =      20    Nr_points =    1024   r_max =   100.000
     q_mesh =
               0.00001000     0.04494208     0.09755937     0.15916263
               0.23128650     0.31572767     0.41458969     0.53033537
               0.66584808     0.82450364     1.01025438     1.22772762
               1.48234092     1.78043706     2.12944203     2.53805004
               3.01644009     3.57652955     4.23227104     5.00000000

     Gradients computed in reciprocal space

     ************************************************************************


     Starting wfc are  300 randomized atomic wfcs

     total cpu time spent up to now is       76.9 secs

     Self-consistent Calculation

     iteration #  1     ecut=    40.42 Ry     beta=0.10
     Davidson diagonalization with overlap
     ethr =  1.00E-05,  avg # of iterations = 15.0

     negative rho (up, down):  1.189E-02 1.196E-02
 
     Magnetic moment per site:
     atom:    1    charge:    3.1244    magn:   -0.0003    constr:    0.0000
     atom:    2    charge:    2.0897    magn:    0.0003    constr:    0.0000
     atom:    3    charge:    3.1198    magn:   -0.0000    constr:    0.0000
     atom:    4    charge:    2.0867    magn:   -0.0001    constr:    0.0000
     atom:    5    charge:    3.1161    magn:   -0.0002    constr:    0.0000
     atom:    6    charge:    2.0795    magn:    0.0020    constr:    0.0000
     atom:    7    charge:    3.1168    magn:   -0.0052    constr:    0.0000
     atom:    8    charge:    2.0796    magn:    0.0246    constr:    0.0000
     atom:    9    charge:    3.1244    magn:   -0.0003    constr:    0.0000
     atom:   10    charge:    2.0898    magn:    0.0003    constr:    0.0000
     atom:   11    charge:    3.1198    magn:   -0.0000    constr:    0.0000
     atom:   12    charge:    2.0871    magn:   -0.0000    constr:    0.0000
     atom:   13    charge:    3.1150    magn:   -0.0002    constr:    0.0000
     atom:   14    charge:    2.0939    magn:    0.0022    constr:    0.0000
     atom:   15    charge:    3.1185    magn:   -0.0008    constr:    0.0000
     atom:   16    charge:    2.0828    magn:    0.0047    constr:    0.0000
     atom:   17    charge:    2.0625    magn:    0.0018    constr:    0.0000
     atom:   18    charge:    3.1239    magn:   -0.0001    constr:    0.0000
     atom:   19    charge:    2.0876    magn:    0.0001    constr:    0.0000
     atom:   20    charge:    2.0847    magn:    0.0002    constr:    0.0000
     atom:   21    charge:    2.0847    magn:    0.0002    constr:    0.0000
     atom:   22    charge:    3.1199    magn:    0.0000    constr:    0.0000
     atom:   23    charge:    2.0908    magn:    0.0002    constr:    0.0000
     atom:   24    charge:    2.0754    magn:   -0.0002    constr:    0.0000
     atom:   25    charge:    2.0868    magn:    0.0000    constr:    0.0000
     atom:   26    charge:    3.1127    magn:   -0.0002    constr:    0.0000
     atom:   27    charge:    2.0803    magn:    0.0025    constr:    0.0000
     atom:   28    charge:    2.0839    magn:    0.0006    constr:    0.0000
     atom:   29    charge:    2.0861    magn:    0.0008    constr:    0.0000
     atom:   30    charge:    3.1172    magn:   -0.0008    constr:    0.0000
     atom:   31    charge:    2.0823    magn:    0.0006    constr:    0.0000
     atom:   32    charge:    2.0830    magn:    0.0065    constr:    0.0000
     atom:   33    charge:    2.0625    magn:    0.0018    constr:    0.0000
     atom:   34    charge:    3.1239    magn:   -0.0001    constr:    0.0000
     atom:   35    charge:    2.0876    magn:    0.0001    constr:    0.0000
     atom:   36    charge:    2.0847    magn:    0.0002    constr:    0.0000
     atom:   37    charge:    2.0847    magn:    0.0002    constr:    0.0000
     atom:   38    charge:    3.1200    magn:    0.0000    constr:    0.0000
     atom:   39    charge:    2.0839    magn:    0.0002    constr:    0.0000
     atom:   40    charge:    2.0757    magn:   -0.0003    constr:    0.0000
     atom:   41    charge:    2.0870    magn:   -0.0000    constr:    0.0000
     atom:   42    charge:    3.1151    magn:   -0.0002    constr:    0.0000
     atom:   43    charge:    2.0804    magn:    0.0030    constr:    0.0000
     atom:   44    charge:    2.0851    magn:    0.0008    constr:    0.0000
     atom:   45    charge:    2.0859    magn:    0.0004    constr:    0.0000
     atom:   46    charge:    3.1147    magn:   -0.0007    constr:    0.0000
     atom:   47    charge:    2.0809    magn:    0.0046    constr:    0.0000
     atom:   48    charge:    2.0839    magn:    0.0134    constr:    0.0000
     atom:   49    charge:    2.0513    magn:    0.2391    constr:    0.0000
     atom:   50    charge:    0.6710    magn:    0.0536    constr:    0.0000
     atom:   51    charge:    0.4239    magn:    0.0009    constr:    0.0000
     atom:   52    charge:    0.4211    magn:    0.0007    constr:    0.0000
     atom:   53    charge:    0.3650    magn:    0.0235    constr:    0.0000
     atom:   54    charge:    0.4244    magn:    0.0006    constr:    0.0000

     total cpu time spent up to now is     1048.3 secs

     total energy              =   -3021.15409202 Ry
     Harris-Foulkes estimate   =   -3021.15724876 Ry
     estimated scf accuracy    <       0.02151939 Ry

     total magnetization       =     1.07 Bohr mag/cell
     absolute magnetization    =     1.24 Bohr mag/cell

     iteration #  2     ecut=    40.42 Ry     beta=0.10
     Davidson diagonalization with overlap
     ethr =  5.41E-06,  avg # of iterations =  1.6

     negative rho (up, down):  1.189E-02 1.196E-02
 
     Magnetic moment per site:
     atom:    1    charge:    3.1244    magn:   -0.0003    constr:    0.0000
     atom:    2    charge:    2.0897    magn:    0.0003    constr:    0.0000
     atom:    3    charge:    3.1198    magn:   -0.0000    constr:    0.0000
     atom:    4    charge:    2.0867    magn:   -0.0001    constr:    0.0000
     atom:    5    charge:    3.1161    magn:   -0.0002    constr:    0.0000
     atom:    6    charge:    2.0795    magn:    0.0020    constr:    0.0000
     atom:    7    charge:    3.1167    magn:   -0.0050    constr:    0.0000
     atom:    8    charge:    2.0798    magn:    0.0242    constr:    0.0000
     atom:    9    charge:    3.1244    magn:   -0.0003    constr:    0.0000
     atom:   10    charge:    2.0899    magn:    0.0003    constr:    0.0000
     atom:   11    charge:    3.1198    magn:   -0.0000    constr:    0.0000
     atom:   12    charge:    2.0870    magn:   -0.0000    constr:    0.0000
     atom:   13    charge:    3.1150    magn:   -0.0002    constr:    0.0000
     atom:   14    charge:    2.0938    magn:    0.0022    constr:    0.0000
     atom:   15    charge:    3.1186    magn:   -0.0008    constr:    0.0000
     atom:   16    charge:    2.0830    magn:    0.0046    constr:    0.0000
     atom:   17    charge:    2.0628    magn:    0.0016    constr:    0.0000
     atom:   18    charge:    3.1240    magn:   -0.0001    constr:    0.0000
     atom:   19    charge:    2.0875    magn:    0.0001    constr:    0.0000
     atom:   20    charge:    2.0847    magn:    0.0002    constr:    0.0000
     atom:   21    charge:    2.0847    magn:    0.0002    constr:    0.0000
     atom:   22    charge:    3.1199    magn:    0.0000    constr:    0.0000
     atom:   23    charge:    2.0907    magn:    0.0002    constr:    0.0000
     atom:   24    charge:    2.0752    magn:   -0.0002    constr:    0.0000
     atom:   25    charge:    2.0867    magn:    0.0000    constr:    0.0000
     atom:   26    charge:    3.1126    magn:   -0.0002    constr:    0.0000
     atom:   27    charge:    2.0802    magn:    0.0025    constr:    0.0000
     atom:   28    charge:    2.0838    magn:    0.0006    constr:    0.0000
     atom:   29    charge:    2.0859    magn:    0.0008    constr:    0.0000
     atom:   30    charge:    3.1171    magn:   -0.0008    constr:    0.0000
     atom:   31    charge:    2.0826    magn:    0.0006    constr:    0.0000
     atom:   32    charge:    2.0832    magn:    0.0064    constr:    0.0000
     atom:   33    charge:    2.0628    magn:    0.0017    constr:    0.0000
     atom:   34    charge:    3.1240    magn:   -0.0001    constr:    0.0000
     atom:   35    charge:    2.0875    magn:    0.0001    constr:    0.0000
     atom:   36    charge:    2.0847    magn:    0.0002    constr:    0.0000
     atom:   37    charge:    2.0847    magn:    0.0002    constr:    0.0000
     atom:   38    charge:    3.1200    magn:    0.0000    constr:    0.0000
     atom:   39    charge:    2.0838    magn:    0.0002    constr:    0.0000
     atom:   40    charge:    2.0755    magn:   -0.0002    constr:    0.0000
     atom:   41    charge:    2.0870    magn:   -0.0000    constr:    0.0000
     atom:   42    charge:    3.1151    magn:   -0.0002    constr:    0.0000
     atom:   43    charge:    2.0803    magn:    0.0030    constr:    0.0000
     atom:   44    charge:    2.0850    magn:    0.0008    constr:    0.0000
     atom:   45    charge:    2.0857    magn:    0.0004    constr:    0.0000
     atom:   46    charge:    3.1147    magn:   -0.0007    constr:    0.0000
     atom:   47    charge:    2.0815    magn:    0.0045    constr:    0.0000
     atom:   48    charge:    2.0841    magn:    0.0130    constr:    0.0000
     atom:   49    charge:    2.0520    magn:    0.2376    constr:    0.0000
     atom:   50    charge:    0.6709    magn:    0.0548    constr:    0.0000
     atom:   51    charge:    0.4283    magn:    0.0008    constr:    0.0000
     atom:   52    charge:    0.4174    magn:    0.0006    constr:    0.0000
     atom:   53    charge:    0.3595    magn:    0.0239    constr:    0.0000
     atom:   54    charge:    0.4276    magn:    0.0006    constr:    0.0000

     total cpu time spent up to now is     1259.6 secs

     total energy              =   -3021.14925068 Ry
     Harris-Foulkes estimate   =   -3021.15431778 Ry
     estimated scf accuracy    <       0.01409797 Ry

     total magnetization       =     1.06 Bohr mag/cell
     absolute magnetization    =     1.23 Bohr mag/cell

     iteration #  3     ecut=    40.42 Ry     beta=0.10
     Davidson diagonalization with overlap
     ethr =  3.54E-06,  avg # of iterations =  4.0

     negative rho (up, down):  1.188E-02 1.196E-02
 
     Magnetic moment per site:
     atom:    1    charge:    3.1244    magn:   -0.0003    constr:    0.0000
     atom:    2    charge:    2.0896    magn:    0.0003    constr:    0.0000
     atom:    3    charge:    3.1198    magn:   -0.0000    constr:    0.0000
     atom:    4    charge:    2.0867    magn:   -0.0001    constr:    0.0000
     atom:    5    charge:    3.1161    magn:   -0.0002    constr:    0.0000
     atom:    6    charge:    2.0795    magn:    0.0021    constr:    0.0000
     atom:    7    charge:    3.1166    magn:   -0.0050    constr:    0.0000
     atom:    8    charge:    2.0797    magn:    0.0241    constr:    0.0000
     atom:    9    charge:    3.1244    magn:   -0.0003    constr:    0.0000
     atom:   10    charge:    2.0898    magn:    0.0003    constr:    0.0000
     atom:   11    charge:    3.1198    magn:   -0.0000    constr:    0.0000
     atom:   12    charge:    2.0870    magn:   -0.0000    constr:    0.0000
     atom:   13    charge:    3.1150    magn:   -0.0002    constr:    0.0000
     atom:   14    charge:    2.0939    magn:    0.0022    constr:    0.0000
     atom:   15    charge:    3.1185    magn:   -0.0008    constr:    0.0000
     atom:   16    charge:    2.0830    magn:    0.0046    constr:    0.0000
     atom:   17    charge:    2.0623    magn:    0.0016    constr:    0.0000
     atom:   18    charge:    3.1240    magn:   -0.0001    constr:    0.0000
     atom:   19    charge:    2.0875    magn:    0.0001    constr:    0.0000
     atom:   20    charge:    2.0847    magn:    0.0001    constr:    0.0000
     atom:   21    charge:    2.0847    magn:    0.0001    constr:    0.0000
     atom:   22    charge:    3.1199    magn:    0.0000    constr:    0.0000
     atom:   23    charge:    2.0908    magn:    0.0002    constr:    0.0000
     atom:   24    charge:    2.0754    magn:   -0.0001    constr:    0.0000
     atom:   25    charge:    2.0867    magn:    0.0000    constr:    0.0000
     atom:   26    charge:    3.1126    magn:   -0.0002    constr:    0.0000
     atom:   27    charge:    2.0803    magn:    0.0025    constr:    0.0000
     atom:   28    charge:    2.0839    magn:    0.0006    constr:    0.0000
     atom:   29    charge:    2.0860    magn:    0.0008    constr:    0.0000
     atom:   30    charge:    3.1171    magn:   -0.0008    constr:    0.0000
     atom:   31    charge:    2.0827    magn:    0.0006    constr:    0.0000
     atom:   32    charge:    2.0832    magn:    0.0064    constr:    0.0000
     atom:   33    charge:    2.0623    magn:    0.0016    constr:    0.0000
     atom:   34    charge:    3.1240    magn:   -0.0001    constr:    0.0000
     atom:   35    charge:    2.0875    magn:    0.0001    constr:    0.0000
     atom:   36    charge:    2.0847    magn:    0.0001    constr:    0.0000
     atom:   37    charge:    2.0847    magn:    0.0001    constr:    0.0000
     atom:   38    charge:    3.1200    magn:    0.0000    constr:    0.0000
     atom:   39    charge:    2.0839    magn:    0.0002    constr:    0.0000
     atom:   40    charge:    2.0756    magn:   -0.0002    constr:    0.0000
     atom:   41    charge:    2.0870    magn:   -0.0000    constr:    0.0000
     atom:   42    charge:    3.1151    magn:   -0.0002    constr:    0.0000
     atom:   43    charge:    2.0803    magn:    0.0030    constr:    0.0000
     atom:   44    charge:    2.0851    magn:    0.0009    constr:    0.0000
     atom:   45    charge:    2.0858    magn:    0.0004    constr:    0.0000
     atom:   46    charge:    3.1147    magn:   -0.0007    constr:    0.0000
     atom:   47    charge:    2.0814    magn:    0.0045    constr:    0.0000
     atom:   48    charge:    2.0842    magn:    0.0128    constr:    0.0000
     atom:   49    charge:    2.0523    magn:    0.2367    constr:    0.0000
     atom:   50    charge:    0.6711    magn:    0.0555    constr:    0.0000
     atom:   51    charge:    0.4305    magn:    0.0008    constr:    0.0000
     atom:   52    charge:    0.4155    magn:    0.0006    constr:    0.0000
     atom:   53    charge:    0.3569    magn:    0.0240    constr:    0.0000
     atom:   54    charge:    0.4292    magn:    0.0005    constr:    0.0000

     total cpu time spent up to now is     1521.4 secs

     total energy              =   -3021.14856607 Ry
     Harris-Foulkes estimate   =   -3021.15019387 Ry
     estimated scf accuracy    <       0.00636581 Ry

     total magnetization       =     1.06 Bohr mag/cell
     absolute magnetization    =     1.23 Bohr mag/cell

     iteration #  4     ecut=    40.42 Ry     beta=0.10
     Davidson diagonalization with overlap
     ethr =  1.60E-06,  avg # of iterations =  4.7

     negative rho (up, down):  1.188E-02 1.196E-02
 
     Magnetic moment per site:
     atom:    1    charge:    3.1244    magn:   -0.0003    constr:    0.0000
     atom:    2    charge:    2.0897    magn:    0.0003    constr:    0.0000
     atom:    3    charge:    3.1198    magn:   -0.0000    constr:    0.0000
     atom:    4    charge:    2.0868    magn:   -0.0001    constr:    0.0000
     atom:    5    charge:    3.1161    magn:   -0.0002    constr:    0.0000
     atom:    6    charge:    2.0794    magn:    0.0021    constr:    0.0000
     atom:    7    charge:    3.1166    magn:   -0.0050    constr:    0.0000
     atom:    8    charge:    2.0794    magn:    0.0240    constr:    0.0000
     atom:    9    charge:    3.1244    magn:   -0.0003    constr:    0.0000
     atom:   10    charge:    2.0899    magn:    0.0003    constr:    0.0000
     atom:   11    charge:    3.1198    magn:   -0.0000    constr:    0.0000
     atom:   12    charge:    2.0871    magn:   -0.0000    constr:    0.0000
     atom:   13    charge:    3.1150    magn:   -0.0002    constr:    0.0000
     atom:   14    charge:    2.0939    magn:    0.0022    constr:    0.0000
     atom:   15    charge:    3.1185    magn:   -0.0008    constr:    0.0000
     atom:   16    charge:    2.0829    magn:    0.0046    constr:    0.0000
     atom:   17    charge:    2.0625    magn:    0.0015    constr:    0.0000
     atom:   18    charge:    3.1240    magn:   -0.0001    constr:    0.0000
     atom:   19    charge:    2.0876    magn:    0.0001    constr:    0.0000
     atom:   20    charge:    2.0847    magn:    0.0001    constr:    0.0000
     atom:   21    charge:    2.0847    magn:    0.0001    constr:    0.0000
     atom:   22    charge:    3.1199    magn:    0.0000    constr:    0.0000
     atom:   23    charge:    2.0908    magn:    0.0002    constr:    0.0000
     atom:   24    charge:    2.0754    magn:   -0.0001    constr:    0.0000
     atom:   25    charge:    2.0868    magn:    0.0000    constr:    0.0000
     atom:   26    charge:    3.1127    magn:   -0.0002    constr:    0.0000
     atom:   27    charge:    2.0802    magn:    0.0025    constr:    0.0000
     atom:   28    charge:    2.0838    magn:    0.0006    constr:    0.0000
     atom:   29    charge:    2.0860    magn:    0.0008    constr:    0.0000
     atom:   30    charge:    3.1170    magn:   -0.0008    constr:    0.0000
     atom:   31    charge:    2.0828    magn:    0.0006    constr:    0.0000
     atom:   32    charge:    2.0830    magn:    0.0065    constr:    0.0000
     atom:   33    charge:    2.0624    magn:    0.0015    constr:    0.0000
     atom:   34    charge:    3.1240    magn:   -0.0001    constr:    0.0000
     atom:   35    charge:    2.0876    magn:    0.0001    constr:    0.0000
     atom:   36    charge:    2.0847    magn:    0.0001    constr:    0.0000
     atom:   37    charge:    2.0847    magn:    0.0001    constr:    0.0000
     atom:   38    charge:    3.1200    magn:    0.0000    constr:    0.0000
     atom:   39    charge:    2.0840    magn:    0.0002    constr:    0.0000
     atom:   40    charge:    2.0757    magn:   -0.0002    constr:    0.0000
     atom:   41    charge:    2.0871    magn:   -0.0000    constr:    0.0000
     atom:   42    charge:    3.1151    magn:   -0.0002    constr:    0.0000
     atom:   43    charge:    2.0801    magn:    0.0030    constr:    0.0000
     atom:   44    charge:    2.0851    magn:    0.0009    constr:    0.0000
     atom:   45    charge:    2.0858    magn:    0.0004    constr:    0.0000
     atom:   46    charge:    3.1147    magn:   -0.0007    constr:    0.0000
     atom:   47    charge:    2.0812    magn:    0.0045    constr:    0.0000
     atom:   48    charge:    2.0840    magn:    0.0128    constr:    0.0000
     atom:   49    charge:    2.0524    magn:    0.2364    constr:    0.0000
     atom:   50    charge:    0.6713    magn:    0.0558    constr:    0.0000
     atom:   51    charge:    0.4315    magn:    0.0008    constr:    0.0000
     atom:   52    charge:    0.4146    magn:    0.0005    constr:    0.0000
     atom:   53    charge:    0.3559    magn:    0.0239    constr:    0.0000
     atom:   54    charge:    0.4299    magn:    0.0005    constr:    0.0000

     total cpu time spent up to now is     1786.8 secs

     total energy              =   -3021.14852197 Ry
     Harris-Foulkes estimate   =   -3021.14919081 Ry
     estimated scf accuracy    <       0.00724551 Ry

     total magnetization       =     1.07 Bohr mag/cell
     absolute magnetization    =     1.24 Bohr mag/cell

     iteration #  5     ecut=    40.42 Ry     beta=0.10
     Davidson diagonalization with overlap
     ethr =  1.60E-06,  avg # of iterations =  1.8

     negative rho (up, down):  1.188E-02 1.196E-02
 
     Magnetic moment per site:
     atom:    1    charge:    3.1244    magn:   -0.0003    constr:    0.0000
     atom:    2    charge:    2.0897    magn:    0.0002    constr:    0.0000
     atom:    3    charge:    3.1198    magn:   -0.0000    constr:    0.0000
     atom:    4    charge:    2.0867    magn:   -0.0001    constr:    0.0000
     atom:    5    charge:    3.1161    magn:   -0.0002    constr:    0.0000
     atom:    6    charge:    2.0795    magn:    0.0021    constr:    0.0000
     atom:    7    charge:    3.1165    magn:   -0.0050    constr:    0.0000
     atom:    8    charge:    2.0791    magn:    0.0241    constr:    0.0000
     atom:    9    charge:    3.1244    magn:   -0.0003    constr:    0.0000
     atom:   10    charge:    2.0898    magn:    0.0003    constr:    0.0000
     atom:   11    charge:    3.1198    magn:   -0.0000    constr:    0.0000
     atom:   12    charge:    2.0871    magn:   -0.0000    constr:    0.0000
     atom:   13    charge:    3.1150    magn:   -0.0002    constr:    0.0000
     atom:   14    charge:    2.0939    magn:    0.0022    constr:    0.0000
     atom:   15    charge:    3.1184    magn:   -0.0008    constr:    0.0000
     atom:   16    charge:    2.0829    magn:    0.0046    constr:    0.0000
     atom:   17    charge:    2.0624    magn:    0.0014    constr:    0.0000
     atom:   18    charge:    3.1240    magn:   -0.0001    constr:    0.0000
     atom:   19    charge:    2.0875    magn:    0.0001    constr:    0.0000
     atom:   20    charge:    2.0847    magn:    0.0001    constr:    0.0000
     atom:   21    charge:    2.0847    magn:    0.0001    constr:    0.0000
     atom:   22    charge:    3.1199    magn:    0.0000    constr:    0.0000
     atom:   23    charge:    2.0908    magn:    0.0002    constr:    0.0000
     atom:   24    charge:    2.0754    magn:   -0.0001    constr:    0.0000
     atom:   25    charge:    2.0868    magn:    0.0000    constr:    0.0000
     atom:   26    charge:    3.1127    magn:   -0.0002    constr:    0.0000
     atom:   27    charge:    2.0802    magn:    0.0025    constr:    0.0000
     atom:   28    charge:    2.0839    magn:    0.0007    constr:    0.0000
     atom:   29    charge:    2.0860    magn:    0.0008    constr:    0.0000
     atom:   30    charge:    3.1170    magn:   -0.0008    constr:    0.0000
     atom:   31    charge:    2.0829    magn:    0.0006    constr:    0.0000
     atom:   32    charge:    2.0829    magn:    0.0064    constr:    0.0000
     atom:   33    charge:    2.0624    magn:    0.0015    constr:    0.0000
     atom:   34    charge:    3.1239    magn:   -0.0001    constr:    0.0000
     atom:   35    charge:    2.0876    magn:    0.0001    constr:    0.0000
     atom:   36    charge:    2.0847    magn:    0.0001    constr:    0.0000
     atom:   37    charge:    2.0847    magn:    0.0001    constr:    0.0000
     atom:   38    charge:    3.1200    magn:    0.0000    constr:    0.0000
     atom:   39    charge:    2.0839    magn:    0.0002    constr:    0.0000
     atom:   40    charge:    2.0757    magn:   -0.0002    constr:    0.0000
     atom:   41    charge:    2.0870    magn:   -0.0000    constr:    0.0000
     atom:   42    charge:    3.1151    magn:   -0.0002    constr:    0.0000
     atom:   43    charge:    2.0802    magn:    0.0030    constr:    0.0000
     atom:   44    charge:    2.0851    magn:    0.0009    constr:    0.0000
     atom:   45    charge:    2.0858    magn:    0.0005    constr:    0.0000
     atom:   46    charge:    3.1148    magn:   -0.0007    constr:    0.0000
     atom:   47    charge:    2.0808    magn:    0.0045    constr:    0.0000
     atom:   48    charge:    2.0838    magn:    0.0128    constr:    0.0000
     atom:   49    charge:    2.0525    magn:    0.2360    constr:    0.0000
     atom:   50    charge:    0.6718    magn:    0.0560    constr:    0.0000
     atom:   51    charge:    0.4323    magn:    0.0008    constr:    0.0000
     atom:   52    charge:    0.4140    magn:    0.0005    constr:    0.0000
     atom:   53    charge:    0.3554    magn:    0.0237    constr:    0.0000
     atom:   54    charge:    0.4305    magn:    0.0005    constr:    0.0000

     total cpu time spent up to now is     1999.4 secs

     total energy              =   -3021.14856663 Ry
     Harris-Foulkes estimate   =   -3021.14876601 Ry
     estimated scf accuracy    <       0.00071979 Ry

     total magnetization       =     1.06 Bohr mag/cell
     absolute magnetization    =     1.23 Bohr mag/cell

     iteration #  6     ecut=    40.42 Ry     beta=0.10
     Davidson diagonalization with overlap
     ethr =  1.81E-07,  avg # of iterations =  3.0

     negative rho (up, down):  1.188E-02 1.196E-02
 
     Magnetic moment per site:
     atom:    1    charge:    3.1244    magn:   -0.0002    constr:    0.0000
     atom:    2    charge:    2.0897    magn:    0.0002    constr:    0.0000
     atom:    3    charge:    3.1198    magn:   -0.0000    constr:    0.0000
     atom:    4    charge:    2.0867    magn:   -0.0001    constr:    0.0000
     atom:    5    charge:    3.1161    magn:   -0.0002    constr:    0.0000
     atom:    6    charge:    2.0795    magn:    0.0021    constr:    0.0000
     atom:    7    charge:    3.1166    magn:   -0.0050    constr:    0.0000
     atom:    8    charge:    2.0791    magn:    0.0242    constr:    0.0000
     atom:    9    charge:    3.1244    magn:   -0.0002    constr:    0.0000
     atom:   10    charge:    2.0898    magn:    0.0002    constr:    0.0000
     atom:   11    charge:    3.1198    magn:   -0.0000    constr:    0.0000
     atom:   12    charge:    2.0870    magn:   -0.0000    constr:    0.0000
     atom:   13    charge:    3.1150    magn:   -0.0002    constr:    0.0000
     atom:   14    charge:    2.0939    magn:    0.0022    constr:    0.0000
     atom:   15    charge:    3.1183    magn:   -0.0008    constr:    0.0000
     atom:   16    charge:    2.0828    magn:    0.0046    constr:    0.0000
     atom:   17    charge:    2.0624    magn:    0.0014    constr:    0.0000
     atom:   18    charge:    3.1239    magn:   -0.0001    constr:    0.0000
     atom:   19    charge:    2.0875    magn:    0.0001    constr:    0.0000
     atom:   20    charge:    2.0847    magn:    0.0001    constr:    0.0000
     atom:   21    charge:    2.0847    magn:    0.0001    constr:    0.0000
     atom:   22    charge:    3.1199    magn:    0.0000    constr:    0.0000
     atom:   23    charge:    2.0908    magn:    0.0002    constr:    0.0000
     atom:   24    charge:    2.0754    magn:   -0.0001    constr:    0.0000
     atom:   25    charge:    2.0867    magn:    0.0000    constr:    0.0000
     atom:   26    charge:    3.1127    magn:   -0.0002    constr:    0.0000
     atom:   27    charge:    2.0803    magn:    0.0026    constr:    0.0000
     atom:   28    charge:    2.0839    magn:    0.0007    constr:    0.0000
     atom:   29    charge:    2.0860    magn:    0.0008    constr:    0.0000
     atom:   30    charge:    3.1171    magn:   -0.0008    constr:    0.0000
     atom:   31    charge:    2.0827    magn:    0.0006    constr:    0.0000
     atom:   32    charge:    2.0828    magn:    0.0065    constr:    0.0000
     atom:   33    charge:    2.0624    magn:    0.0014    constr:    0.0000
     atom:   34    charge:    3.1239    magn:   -0.0001    constr:    0.0000
     atom:   35    charge:    2.0876    magn:    0.0001    constr:    0.0000
     atom:   36    charge:    2.0847    magn:    0.0001    constr:    0.0000
     atom:   37    charge:    2.0847    magn:    0.0001    constr:    0.0000
     atom:   38    charge:    3.1200    magn:    0.0000    constr:    0.0000
     atom:   39    charge:    2.0839    magn:    0.0002    constr:    0.0000
     atom:   40    charge:    2.0756    magn:   -0.0002    constr:    0.0000
     atom:   41    charge:    2.0870    magn:   -0.0000    constr:    0.0000
     atom:   42    charge:    3.1151    magn:   -0.0002    constr:    0.0000
     atom:   43    charge:    2.0803    magn:    0.0030    constr:    0.0000
     atom:   44    charge:    2.0851    magn:    0.0009    constr:    0.0000
     atom:   45    charge:    2.0858    magn:    0.0005    constr:    0.0000
     atom:   46    charge:    3.1148    magn:   -0.0007    constr:    0.0000
     atom:   47    charge:    2.0805    magn:    0.0045    constr:    0.0000
     atom:   48    charge:    2.0837    magn:    0.0128    constr:    0.0000
     atom:   49    charge:    2.0521    magn:    0.2359    constr:    0.0000
     atom:   50    charge:    0.6720    magn:    0.0561    constr:    0.0000
     atom:   51    charge:    0.4324    magn:    0.0007    constr:    0.0000
     atom:   52    charge:    0.4139    magn:    0.0005    constr:    0.0000
     atom:   53    charge:    0.3559    magn:    0.0234    constr:    0.0000
     atom:   54    charge:    0.4306    magn:    0.0005    constr:    0.0000

     total cpu time spent up to now is     2241.0 secs

     total energy              =   -3021.14858702 Ry
     Harris-Foulkes estimate   =   -3021.14862642 Ry
     estimated scf accuracy    <       0.00014909 Ry

     total magnetization       =     1.06 Bohr mag/cell
     absolute magnetization    =     1.23 Bohr mag/cell

     iteration #  7     ecut=    40.42 Ry     beta=0.10
     Davidson diagonalization with overlap
     ethr =  3.75E-08,  avg # of iterations =  3.0

     negative rho (up, down):  1.188E-02 1.196E-02
 
     Magnetic moment per site:
     atom:    1    charge:    3.1244    magn:   -0.0002    constr:    0.0000
     atom:    2    charge:    2.0897    magn:    0.0002    constr:    0.0000
     atom:    3    charge:    3.1198    magn:   -0.0000    constr:    0.0000
     atom:    4    charge:    2.0867    magn:   -0.0001    constr:    0.0000
     atom:    5    charge:    3.1161    magn:   -0.0002    constr:    0.0000
     atom:    6    charge:    2.0795    magn:    0.0021    constr:    0.0000
     atom:    7    charge:    3.1166    magn:   -0.0050    constr:    0.0000
     atom:    8    charge:    2.0792    magn:    0.0242    constr:    0.0000
     atom:    9    charge:    3.1244    magn:   -0.0002    constr:    0.0000
     atom:   10    charge:    2.0898    magn:    0.0002    constr:    0.0000
     atom:   11    charge:    3.1198    magn:   -0.0000    constr:    0.0000
     atom:   12    charge:    2.0870    magn:   -0.0000    constr:    0.0000
     atom:   13    charge:    3.1150    magn:   -0.0002    constr:    0.0000
     atom:   14    charge:    2.0939    magn:    0.0022    constr:    0.0000
     atom:   15    charge:    3.1183    magn:   -0.0008    constr:    0.0000
     atom:   16    charge:    2.0828    magn:    0.0046    constr:    0.0000
     atom:   17    charge:    2.0624    magn:    0.0013    constr:    0.0000
     atom:   18    charge:    3.1239    magn:   -0.0001    constr:    0.0000
     atom:   19    charge:    2.0876    magn:    0.0000    constr:    0.0000
     atom:   20    charge:    2.0847    magn:    0.0001    constr:    0.0000
     atom:   21    charge:    2.0847    magn:    0.0001    constr:    0.0000
     atom:   22    charge:    3.1199    magn:    0.0000    constr:    0.0000
     atom:   23    charge:    2.0908    magn:    0.0002    constr:    0.0000
     atom:   24    charge:    2.0754    magn:   -0.0001    constr:    0.0000
     atom:   25    charge:    2.0867    magn:    0.0000    constr:    0.0000
     atom:   26    charge:    3.1127    magn:   -0.0002    constr:    0.0000
     atom:   27    charge:    2.0803    magn:    0.0026    constr:    0.0000
     atom:   28    charge:    2.0839    magn:    0.0007    constr:    0.0000
     atom:   29    charge:    2.0860    magn:    0.0008    constr:    0.0000
     atom:   30    charge:    3.1171    magn:   -0.0008    constr:    0.0000
     atom:   31    charge:    2.0825    magn:    0.0006    constr:    0.0000
     atom:   32    charge:    2.0828    magn:    0.0065    constr:    0.0000
     atom:   33    charge:    2.0624    magn:    0.0013    constr:    0.0000
     atom:   34    charge:    3.1239    magn:   -0.0000    constr:    0.0000
     atom:   35    charge:    2.0876    magn:    0.0000    constr:    0.0000
     atom:   36    charge:    2.0847    magn:    0.0001    constr:    0.0000
     atom:   37    charge:    2.0847    magn:    0.0001    constr:    0.0000
     atom:   38    charge:    3.1200    magn:    0.0000    constr:    0.0000
     atom:   39    charge:    2.0839    magn:    0.0002    constr:    0.0000
     atom:   40    charge:    2.0756    magn:   -0.0002    constr:    0.0000
     atom:   41    charge:    2.0870    magn:   -0.0000    constr:    0.0000
     atom:   42    charge:    3.1151    magn:   -0.0002    constr:    0.0000
     atom:   43    charge:    2.0803    magn:    0.0030    constr:    0.0000
     atom:   44    charge:    2.0851    magn:    0.0009    constr:    0.0000
     atom:   45    charge:    2.0858    magn:    0.0005    constr:    0.0000
     atom:   46    charge:    3.1147    magn:   -0.0007    constr:    0.0000
     atom:   47    charge:    2.0806    magn:    0.0045    constr:    0.0000
     atom:   48    charge:    2.0837    magn:    0.0128    constr:    0.0000
     atom:   49    charge:    2.0518    magn:    0.2357    constr:    0.0000
     atom:   50    charge:    0.6721    magn:    0.0563    constr:    0.0000
     atom:   51    charge:    0.4323    magn:    0.0007    constr:    0.0000
     atom:   52    charge:    0.4141    magn:    0.0005    constr:    0.0000
     atom:   53    charge:    0.3564    magn:    0.0231    constr:    0.0000
     atom:   54    charge:    0.4306    magn:    0.0005    constr:    0.0000

     total cpu time spent up to now is     2478.1 secs

     total energy              =   -3021.14858799 Ry
     Harris-Foulkes estimate   =   -3021.14859671 Ry
     estimated scf accuracy    <       0.00004316 Ry

     total magnetization       =     1.06 Bohr mag/cell
     absolute magnetization    =     1.23 Bohr mag/cell

     iteration #  8     ecut=    40.42 Ry     beta=0.10
     Davidson diagonalization with overlap
     ethr =  1.08E-08,  avg # of iterations =  3.0

     negative rho (up, down):  1.188E-02 1.196E-02
 
     Magnetic moment per site:
     atom:    1    charge:    3.1244    magn:   -0.0002    constr:    0.0000
     atom:    2    charge:    2.0897    magn:    0.0002    constr:    0.0000
     atom:    3    charge:    3.1198    magn:   -0.0000    constr:    0.0000
     atom:    4    charge:    2.0867    magn:   -0.0001    constr:    0.0000
     atom:    5    charge:    3.1161    magn:   -0.0003    constr:    0.0000
     atom:    6    charge:    2.0795    magn:    0.0021    constr:    0.0000
     atom:    7    charge:    3.1166    magn:   -0.0050    constr:    0.0000
     atom:    8    charge:    2.0794    magn:    0.0242    constr:    0.0000
     atom:    9    charge:    3.1244    magn:   -0.0002    constr:    0.0000
     atom:   10    charge:    2.0898    magn:    0.0002    constr:    0.0000
     atom:   11    charge:    3.1198    magn:   -0.0000    constr:    0.0000
     atom:   12    charge:    2.0871    magn:   -0.0000    constr:    0.0000
     atom:   13    charge:    3.1150    magn:   -0.0002    constr:    0.0000
     atom:   14    charge:    2.0939    magn:    0.0022    constr:    0.0000
     atom:   15    charge:    3.1184    magn:   -0.0008    constr:    0.0000
     atom:   16    charge:    2.0828    magn:    0.0046    constr:    0.0000
     atom:   17    charge:    2.0624    magn:    0.0011    constr:    0.0000
     atom:   18    charge:    3.1239    magn:   -0.0000    constr:    0.0000
     atom:   19    charge:    2.0875    magn:    0.0000    constr:    0.0000
     atom:   20    charge:    2.0847    magn:    0.0001    constr:    0.0000
     atom:   21    charge:    2.0847    magn:    0.0001    constr:    0.0000
     atom:   22    charge:    3.1199    magn:    0.0000    constr:    0.0000
     atom:   23    charge:    2.0908    magn:    0.0002    constr:    0.0000
     atom:   24    charge:    2.0754    magn:   -0.0001    constr:    0.0000
     atom:   25    charge:    2.0867    magn:    0.0000    constr:    0.0000
     atom:   26    charge:    3.1127    magn:   -0.0003    constr:    0.0000
     atom:   27    charge:    2.0802    magn:    0.0026    constr:    0.0000
     atom:   28    charge:    2.0839    magn:    0.0007    constr:    0.0000
     atom:   29    charge:    2.0860    magn:    0.0009    constr:    0.0000
     atom:   30    charge:    3.1171    magn:   -0.0008    constr:    0.0000
     atom:   31    charge:    2.0825    magn:    0.0006    constr:    0.0000
     atom:   32    charge:    2.0829    magn:    0.0065    constr:    0.0000
     atom:   33    charge:    2.0624    magn:    0.0011    constr:    0.0000
     atom:   34    charge:    3.1239    magn:   -0.0000    constr:    0.0000
     atom:   35    charge:    2.0875    magn:    0.0000    constr:    0.0000
     atom:   36    charge:    2.0847    magn:    0.0001    constr:    0.0000
     atom:   37    charge:    2.0847    magn:    0.0001    constr:    0.0000
     atom:   38    charge:    3.1200    magn:    0.0000    constr:    0.0000
     atom:   39    charge:    2.0839    magn:    0.0002    constr:    0.0000
     atom:   40    charge:    2.0756    magn:   -0.0001    constr:    0.0000
     atom:   41    charge:    2.0870    magn:   -0.0000    constr:    0.0000
     atom:   42    charge:    3.1151    magn:   -0.0002    constr:    0.0000
     atom:   43    charge:    2.0803    magn:    0.0031    constr:    0.0000
     atom:   44    charge:    2.0851    magn:    0.0010    constr:    0.0000
     atom:   45    charge:    2.0858    magn:    0.0005    constr:    0.0000
     atom:   46    charge:    3.1147    magn:   -0.0007    constr:    0.0000
     atom:   47    charge:    2.0807    magn:    0.0045    constr:    0.0000
     atom:   48    charge:    2.0838    magn:    0.0127    constr:    0.0000
     atom:   49    charge:    2.0517    magn:    0.2354    constr:    0.0000
     atom:   50    charge:    0.6718    magn:    0.0564    constr:    0.0000
     atom:   51    charge:    0.4320    magn:    0.0007    constr:    0.0000
     atom:   52    charge:    0.4144    magn:    0.0006    constr:    0.0000
     atom:   53    charge:    0.3569    magn:    0.0230    constr:    0.0000
     atom:   54    charge:    0.4304    magn:    0.0005    constr:    0.0000

     total cpu time spent up to now is     2716.9 secs

     total energy              =   -3021.14858908 Ry
     Harris-Foulkes estimate   =   -3021.14859112 Ry
     estimated scf accuracy    <       0.00001474 Ry

     total magnetization       =     1.06 Bohr mag/cell
     absolute magnetization    =     1.23 Bohr mag/cell

     iteration #  9     ecut=    40.42 Ry     beta=0.10
     Davidson diagonalization with overlap
     ethr =  3.70E-09,  avg # of iterations =  3.0

     negative rho (up, down):  1.188E-02 1.196E-02
 
     Magnetic moment per site:
     atom:    1    charge:    3.1244    magn:   -0.0002    constr:    0.0000
     atom:    2    charge:    2.0897    magn:    0.0002    constr:    0.0000
     atom:    3    charge:    3.1198    magn:   -0.0000    constr:    0.0000
     atom:    4    charge:    2.0867    magn:   -0.0001    constr:    0.0000
     atom:    5    charge:    3.1161    magn:   -0.0003    constr:    0.0000
     atom:    6    charge:    2.0795    magn:    0.0021    constr:    0.0000
     atom:    7    charge:    3.1166    magn:   -0.0049    constr:    0.0000
     atom:    8    charge:    2.0793    magn:    0.0242    constr:    0.0000
     atom:    9    charge:    3.1244    magn:   -0.0002    constr:    0.0000
     atom:   10    charge:    2.0898    magn:    0.0002    constr:    0.0000
     atom:   11    charge:    3.1198    magn:   -0.0000    constr:    0.0000
     atom:   12    charge:    2.0870    magn:   -0.0000    constr:    0.0000
     atom:   13    charge:    3.1150    magn:   -0.0002    constr:    0.0000
     atom:   14    charge:    2.0939    magn:    0.0022    constr:    0.0000
     atom:   15    charge:    3.1184    magn:   -0.0008    constr:    0.0000
     atom:   16    charge:    2.0828    magn:    0.0046    constr:    0.0000
     atom:   17    charge:    2.0625    magn:    0.0011    constr:    0.0000
     atom:   18    charge:    3.1240    magn:   -0.0000    constr:    0.0000
     atom:   19    charge:    2.0875    magn:    0.0000    constr:    0.0000
     atom:   20    charge:    2.0847    magn:    0.0001    constr:    0.0000
     atom:   21    charge:    2.0847    magn:    0.0001    constr:    0.0000
     atom:   22    charge:    3.1199    magn:    0.0000    constr:    0.0000
     atom:   23    charge:    2.0908    magn:    0.0002    constr:    0.0000
     atom:   24    charge:    2.0754    magn:   -0.0000    constr:    0.0000
     atom:   25    charge:    2.0867    magn:    0.0000    constr:    0.0000
     atom:   26    charge:    3.1127    magn:   -0.0003    constr:    0.0000
     atom:   27    charge:    2.0802    magn:    0.0026    constr:    0.0000
     atom:   28    charge:    2.0839    magn:    0.0007    constr:    0.0000
     atom:   29    charge:    2.0860    magn:    0.0009    constr:    0.0000
     atom:   30    charge:    3.1171    magn:   -0.0008    constr:    0.0000
     atom:   31    charge:    2.0825    magn:    0.0006    constr:    0.0000
     atom:   32    charge:    2.0829    magn:    0.0065    constr:    0.0000
     atom:   33    charge:    2.0624    magn:    0.0011    constr:    0.0000
     atom:   34    charge:    3.1239    magn:   -0.0000    constr:    0.0000
     atom:   35    charge:    2.0875    magn:    0.0000    constr:    0.0000
     atom:   36    charge:    2.0847    magn:    0.0001    constr:    0.0000
     atom:   37    charge:    2.0847    magn:    0.0001    constr:    0.0000
     atom:   38    charge:    3.1200    magn:    0.0000    constr:    0.0000
     atom:   39    charge:    2.0839    magn:    0.0002    constr:    0.0000
     atom:   40    charge:    2.0756    magn:   -0.0001    constr:    0.0000
     atom:   41    charge:    2.0870    magn:   -0.0000    constr:    0.0000
     atom:   42    charge:    3.1151    magn:   -0.0002    constr:    0.0000
     atom:   43    charge:    2.0803    magn:    0.0031    constr:    0.0000
     atom:   44    charge:    2.0851    magn:    0.0010    constr:    0.0000
     atom:   45    charge:    2.0858    magn:    0.0005    constr:    0.0000
     atom:   46    charge:    3.1147    magn:   -0.0007    constr:    0.0000
     atom:   47    charge:    2.0807    magn:    0.0045    constr:    0.0000
     atom:   48    charge:    2.0838    magn:    0.0127    constr:    0.0000
     atom:   49    charge:    2.0517    magn:    0.2352    constr:    0.0000
     atom:   50    charge:    0.6718    magn:    0.0566    constr:    0.0000
     atom:   51    charge:    0.4320    magn:    0.0007    constr:    0.0000
     atom:   52    charge:    0.4145    magn:    0.0006    constr:    0.0000
     atom:   53    charge:    0.3571    magn:    0.0229    constr:    0.0000
     atom:   54    charge:    0.4304    magn:    0.0005    constr:    0.0000

     total cpu time spent up to now is     2958.3 secs

     total energy              =   -3021.14859046 Ry
     Harris-Foulkes estimate   =   -3021.14859031 Ry
     estimated scf accuracy    <       0.00000453 Ry

     total magnetization       =     1.06 Bohr mag/cell
     absolute magnetization    =     1.23 Bohr mag/cell

     iteration # 10     ecut=    40.42 Ry     beta=0.10
     Davidson diagonalization with overlap
     ethr =  1.14E-09,  avg # of iterations =  3.0

     negative rho (up, down):  1.188E-02 1.196E-02
 
     Magnetic moment per site:
     atom:    1    charge:    3.1244    magn:   -0.0002    constr:    0.0000
     atom:    2    charge:    2.0897    magn:    0.0001    constr:    0.0000
     atom:    3    charge:    3.1198    magn:   -0.0000    constr:    0.0000
     atom:    4    charge:    2.0867    magn:   -0.0001    constr:    0.0000
     atom:    5    charge:    3.1161    magn:   -0.0003    constr:    0.0000
     atom:    6    charge:    2.0795    magn:    0.0021    constr:    0.0000
     atom:    7    charge:    3.1167    magn:   -0.0049    constr:    0.0000
     atom:    8    charge:    2.0793    magn:    0.0241    constr:    0.0000
     atom:    9    charge:    3.1244    magn:   -0.0002    constr:    0.0000
     atom:   10    charge:    2.0898    magn:    0.0002    constr:    0.0000
     atom:   11    charge:    3.1198    magn:   -0.0000    constr:    0.0000
     atom:   12    charge:    2.0870    magn:   -0.0000    constr:    0.0000
     atom:   13    charge:    3.1150    magn:   -0.0002    constr:    0.0000
     atom:   14    charge:    2.0939    magn:    0.0022    constr:    0.0000
     atom:   15    charge:    3.1184    magn:   -0.0008    constr:    0.0000
     atom:   16    charge:    2.0828    magn:    0.0046    constr:    0.0000
     atom:   17    charge:    2.0624    magn:    0.0010    constr:    0.0000
     atom:   18    charge:    3.1240    magn:   -0.0000    constr:    0.0000
     atom:   19    charge:    2.0875    magn:    0.0000    constr:    0.0000
     atom:   20    charge:    2.0847    magn:    0.0001    constr:    0.0000
     atom:   21    charge:    2.0847    magn:    0.0001    constr:    0.0000
     atom:   22    charge:    3.1199    magn:    0.0000    constr:    0.0000
     atom:   23    charge:    2.0908    magn:    0.0003    constr:    0.0000
     atom:   24    charge:    2.0754    magn:   -0.0000    constr:    0.0000
     atom:   25    charge:    2.0867    magn:    0.0000    constr:    0.0000
     atom:   26    charge:    3.1127    magn:   -0.0003    constr:    0.0000
     atom:   27    charge:    2.0802    magn:    0.0026    constr:    0.0000
     atom:   28    charge:    2.0839    magn:    0.0008    constr:    0.0000
     atom:   29    charge:    2.0860    magn:    0.0009    constr:    0.0000
     atom:   30    charge:    3.1171    magn:   -0.0008    constr:    0.0000
     atom:   31    charge:    2.0826    magn:    0.0006    constr:    0.0000
     atom:   32    charge:    2.0829    magn:    0.0065    constr:    0.0000
     atom:   33    charge:    2.0624    magn:    0.0010    constr:    0.0000
     atom:   34    charge:    3.1239    magn:   -0.0000    constr:    0.0000
     atom:   35    charge:    2.0875    magn:    0.0000    constr:    0.0000
     atom:   36    charge:    2.0847    magn:    0.0001    constr:    0.0000
     atom:   37    charge:    2.0847    magn:    0.0001    constr:    0.0000
     atom:   38    charge:    3.1200    magn:    0.0000    constr:    0.0000
     atom:   39    charge:    2.0839    magn:    0.0002    constr:    0.0000
     atom:   40    charge:    2.0756    magn:   -0.0001    constr:    0.0000
     atom:   41    charge:    2.0870    magn:   -0.0000    constr:    0.0000
     atom:   42    charge:    3.1151    magn:   -0.0002    constr:    0.0000
     atom:   43    charge:    2.0803    magn:    0.0031    constr:    0.0000
     atom:   44    charge:    2.0851    magn:    0.0010    constr:    0.0000
     atom:   45    charge:    2.0858    magn:    0.0005    constr:    0.0000
     atom:   46    charge:    3.1147    magn:   -0.0007    constr:    0.0000
     atom:   47    charge:    2.0808    magn:    0.0045    constr:    0.0000
     atom:   48    charge:    2.0838    magn:    0.0127    constr:    0.0000
     atom:   49    charge:    2.0517    magn:    0.2351    constr:    0.0000
     atom:   50    charge:    0.6717    magn:    0.0567    constr:    0.0000
     atom:   51    charge:    0.4319    magn:    0.0007    constr:    0.0000
     atom:   52    charge:    0.4146    magn:    0.0006    constr:    0.0000
     atom:   53    charge:    0.3572    magn:    0.0229    constr:    0.0000
     atom:   54    charge:    0.4303    magn:    0.0005    constr:    0.0000

     total cpu time spent up to now is     3195.6 secs

     total energy              =   -3021.14859095 Ry
     Harris-Foulkes estimate   =   -3021.14859074 Ry
     estimated scf accuracy    <       0.00000115 Ry

     total magnetization       =     1.06 Bohr mag/cell
     absolute magnetization    =     1.23 Bohr mag/cell

     iteration # 11     ecut=    40.42 Ry     beta=0.10
     Davidson diagonalization with overlap
     ethr =  2.88E-10,  avg # of iterations =  3.0

     negative rho (up, down):  1.188E-02 1.196E-02
 
     Magnetic moment per site:
     atom:    1    charge:    3.1244    magn:   -0.0001    constr:    0.0000
     atom:    2    charge:    2.0897    magn:    0.0001    constr:    0.0000
     atom:    3    charge:    3.1198    magn:   -0.0000    constr:    0.0000
     atom:    4    charge:    2.0867    magn:   -0.0001    constr:    0.0000
     atom:    5    charge:    3.1161    magn:   -0.0003    constr:    0.0000
     atom:    6    charge:    2.0795    magn:    0.0021    constr:    0.0000
     atom:    7    charge:    3.1166    magn:   -0.0049    constr:    0.0000
     atom:    8    charge:    2.0793    magn:    0.0241    constr:    0.0000
     atom:    9    charge:    3.1244    magn:   -0.0001    constr:    0.0000
     atom:   10    charge:    2.0898    magn:    0.0001    constr:    0.0000
     atom:   11    charge:    3.1198    magn:   -0.0000    constr:    0.0000
     atom:   12    charge:    2.0870    magn:   -0.0000    constr:    0.0000
     atom:   13    charge:    3.1150    magn:   -0.0002    constr:    0.0000
     atom:   14    charge:    2.0939    magn:    0.0022    constr:    0.0000
     atom:   15    charge:    3.1184    magn:   -0.0008    constr:    0.0000
     atom:   16    charge:    2.0828    magn:    0.0046    constr:    0.0000
     atom:   17    charge:    2.0625    magn:    0.0007    constr:    0.0000
     atom:   18    charge:    3.1239    magn:   -0.0000    constr:    0.0000
     atom:   19    charge:    2.0875    magn:    0.0000    constr:    0.0000
     atom:   20    charge:    2.0847    magn:    0.0001    constr:    0.0000
     atom:   21    charge:    2.0847    magn:    0.0001    constr:    0.0000
     atom:   22    charge:    3.1199    magn:    0.0000    constr:    0.0000
     atom:   23    charge:    2.0908    magn:    0.0003    constr:    0.0000
     atom:   24    charge:    2.0754    magn:   -0.0000    constr:    0.0000
     atom:   25    charge:    2.0867    magn:    0.0000    constr:    0.0000
     atom:   26    charge:    3.1127    magn:   -0.0003    constr:    0.0000
     atom:   27    charge:    2.0802    magn:    0.0027    constr:    0.0000
     atom:   28    charge:    2.0839    magn:    0.0008    constr:    0.0000
     atom:   29    charge:    2.0860    magn:    0.0009    constr:    0.0000
     atom:   30    charge:    3.1171    magn:   -0.0008    constr:    0.0000
     atom:   31    charge:    2.0825    magn:    0.0006    constr:    0.0000
     atom:   32    charge:    2.0829    magn:    0.0065    constr:    0.0000
     atom:   33    charge:    2.0625    magn:    0.0007    constr:    0.0000
     atom:   34    charge:    3.1239    magn:   -0.0000    constr:    0.0000
     atom:   35    charge:    2.0876    magn:    0.0000    constr:    0.0000
     atom:   36    charge:    2.0847    magn:    0.0001    constr:    0.0000
     atom:   37    charge:    2.0847    magn:    0.0000    constr:    0.0000
     atom:   38    charge:    3.1200    magn:    0.0000    constr:    0.0000
     atom:   39    charge:    2.0839    magn:    0.0002    constr:    0.0000
     atom:   40    charge:    2.0756    magn:   -0.0001    constr:    0.0000
     atom:   41    charge:    2.0870    magn:   -0.0000    constr:    0.0000
     atom:   42    charge:    3.1151    magn:   -0.0003    constr:    0.0000
     atom:   43    charge:    2.0803    magn:    0.0031    constr:    0.0000
     atom:   44    charge:    2.0851    magn:    0.0010    constr:    0.0000
     atom:   45    charge:    2.0858    magn:    0.0006    constr:    0.0000
     atom:   46    charge:    3.1147    magn:   -0.0007    constr:    0.0000
     atom:   47    charge:    2.0807    magn:    0.0045    constr:    0.0000
     atom:   48    charge:    2.0837    magn:    0.0126    constr:    0.0000
     atom:   49    charge:    2.0516    magn:    0.2347    constr:    0.0000
     atom:   50    charge:    0.6719    magn:    0.0569    constr:    0.0000
     atom:   51    charge:    0.4318    magn:    0.0007    constr:    0.0000
     atom:   52    charge:    0.4147    magn:    0.0006    constr:    0.0000
     atom:   53    charge:    0.3572    magn:    0.0227    constr:    0.0000
     atom:   54    charge:    0.4302    magn:    0.0004    constr:    0.0000

     total cpu time spent up to now is     3435.1 secs

     End of self-consistent calculation

 ------ SPIN UP ------------


          k = 0.0000 0.0000 0.0000 ( 34665 PWs)   bands (ev):

   -58.2883 -58.2532 -57.3697 -57.3641 -57.3310 -57.2933 -57.2417 -57.0716
   -57.0464 -57.0413 -57.0030 -56.9042 -56.8778 -56.8689 -56.7870 -56.7486
   -34.7335 -34.5569 -34.5281 -34.4948 -34.3999 -34.3430 -33.8648 -33.8523
   -33.7341 -33.6613 -33.6194 -33.5764 -33.5446 -33.5373 -33.5313 -33.5249
   -33.5129 -33.4983 -33.4730 -33.4712 -33.4569 -33.4539 -33.4526 -33.4327
   -33.3236 -33.3220 -33.3139 -33.3109 -33.2970 -33.2699 -33.2653 -33.2450
   -33.2243 -33.2194 -33.2194 -33.2098 -33.1786 -33.1592 -33.1228 -33.1225
   -33.0834 -33.0650 -33.0329 -33.0137 -33.0009 -32.9759 -32.9311 -32.8685
   -18.4536 -18.0201 -17.7955 -17.6961 -17.5344 -17.5141 -17.4682 -17.3680
   -17.3408 -17.2416 -17.0285 -17.0082 -17.0001 -16.9600 -16.8967 -16.8382
   -16.8188 -16.7817 -16.7238 -16.6894 -16.6722 -16.6389 -16.5777 -16.5723
   -16.4498 -16.4017 -16.3838 -16.3432 -16.3090 -16.1336 -16.0737 -15.5836
   -15.5227 -11.2638  -6.0321  -5.4804  -5.2663  -5.1863  -5.0772  -4.9736
    -4.9654  -4.8790  -4.8628  -4.7154  -4.6339  -4.5838  -4.5695  -4.4939
    -4.4125  -4.3975  -4.3361  -4.3005  -4.2387  -4.2037  -4.1939  -4.1265
    -4.0148  -4.0115  -3.9728  -3.9022  -3.8858  -3.8740  -3.8694  -3.8648
    -3.7805  -3.7604  -3.7365  -3.6763  -3.6157  -3.5653  -3.5267  -3.5122
    -3.5111  -3.4056  -3.3922  -3.3438  -3.2566  -3.2176  -3.1709  -3.0714
    -2.9097  -2.8803  -2.8339  -2.7899  -2.7294  -2.6776  -2.6567  -2.6489
    -2.6167  -2.5207  -2.4671  -2.4222  -2.3615  -2.3147  -2.2291  -2.2131
    -2.2081  -2.1434  -2.0564  -2.0249  -1.9778  -1.9427  -1.9135  -1.8817
    -1.8356  -1.7205  -1.6749  -1.6500  -1.6235  -1.6138  -1.5679  -1.4846
    -1.4036  -1.3497  -1.3358  -1.3204  -1.2995  -1.2542  -1.2053  -1.1544
    -1.1436  -1.0946  -1.0909  -1.0701  -1.0434  -0.9623  -0.8566  -0.8101
    -0.7918  -0.6767  -0.6703  -0.6077  -0.5359  -0.4943  -0.4666  -0.1695
     1.0425   1.1393   1.4341   1.7129   1.8208   1.9387   1.9865   2.0328
     2.0628   2.1507   2.2277   2.2480   2.2945   2.4130   2.4881   2.5017
     2.5093   2.5364   2.6384   2.6836   2.6882   2.7036   2.7277   2.8443
     2.8594   2.9041   2.9186   2.9690   2.9861   3.0390   3.0488   3.0689
     3.1233   3.1772   3.2162   3.2176   3.2650   3.2732   3.4288   3.4597
     3.4947   3.5380   3.6153   3.6434   3.6883   3.7320   3.8457   3.9726
     4.1204   4.1516   4.3434   4.4893   4.6104   4.7238   4.8014   4.8501
     5.1012   5.1501   5.2190   5.3682   5.4089   5.4206   5.4277   5.4503
     5.4531   5.5403   5.5712   5.6784   5.7356   5.7453   5.9169   5.9239
     5.9721   6.0915   6.1118   6.1538   6.2302   6.3145   6.4384   6.5068
     6.5567   6.5649   6.7973   6.8281   7.2115   7.9181   8.1562   8.1908
     8.3223   8.4001   8.6075   8.7035   8.7650   8.9530   9.1373   9.2304
     9.2672   9.4379   9.6106

          k = 0.0000 0.0280 0.0000 ( 34717 PWs)   bands (ev):

   -58.2859 -58.2556 -57.3680 -57.3624 -57.3334 -57.2943 -57.2413 -57.0713
   -57.0464 -57.0397 -57.0051 -56.9018 -56.8780 -56.8713 -56.7845 -56.7511
   -34.7081 -34.5549 -34.5300 -34.4886 -34.4064 -34.3701 -33.8394 -33.8269
   -33.7132 -33.6550 -33.6132 -33.5738 -33.5511 -33.5337 -33.5256 -33.5178
   -33.5122 -33.5002 -33.4969 -33.4798 -33.4716 -33.4553 -33.4460 -33.4261
   -33.3173 -33.3118 -33.2986 -33.2965 -33.2938 -33.2865 -33.2629 -33.2433
   -33.2292 -33.2212 -33.2202 -33.2090 -33.1854 -33.1806 -33.1286 -33.1168
   -33.0953 -33.0615 -33.0390 -33.0137 -33.0005 -32.9807 -32.9586 -32.8972
   -18.3953 -17.9604 -17.7455 -17.6659 -17.5904 -17.4897 -17.4191 -17.3560
   -17.3096 -17.2723 -17.0794 -16.9856 -16.9790 -16.9479 -16.9036 -16.8573
   -16.7805 -16.7573 -16.7443 -16.7188 -16.6892 -16.6634 -16.6016 -16.5509
   -16.4639 -16.4270 -16.3906 -16.3665 -16.3412 -16.1526 -16.1154 -15.5976
   -15.5482 -11.2647  -5.9467  -5.3962  -5.1869  -5.1157  -5.0068  -4.9335
    -4.9081  -4.8618  -4.7916  -4.7134  -4.6524  -4.6374  -4.5106  -4.4991
    -4.4000  -4.3605  -4.3467  -4.3070  -4.2413  -4.2185  -4.1859  -4.1639
    -4.0833  -4.0570  -4.0207  -3.9939  -3.9621  -3.9553  -3.9087  -3.8881
    -3.8240  -3.7972  -3.7376  -3.7083  -3.6955  -3.6676  -3.5401  -3.4240
    -3.3876  -3.3097  -3.2967  -3.2842  -3.2520  -3.1082  -3.0878  -2.9290
    -2.8885  -2.8663  -2.7895  -2.7310  -2.7276  -2.7043  -2.6744  -2.6351
    -2.5805  -2.5013  -2.4415  -2.4253  -2.4002  -2.2618  -2.2387  -2.2053
    -2.1953  -2.1365  -2.1274  -2.0097  -1.9696  -1.9405  -1.9090  -1.8969
    -1.8548  -1.7508  -1.7406  -1.7010  -1.6618  -1.5923  -1.5656  -1.5549
    -1.4846  -1.4448  -1.3729  -1.3643  -1.3587  -1.3428  -1.2678  -1.2537
    -1.2176  -1.1582  -1.1162  -1.0540  -0.9768  -0.9365  -0.9068  -0.8802
    -0.8596  -0.8204  -0.7128  -0.5829  -0.5566  -0.5428  -0.5224  -0.2105
     1.1752   1.1803   1.4354   1.8490   1.8935   1.9106   1.9433   2.0196
     2.0785   2.0965   2.3180   2.3258   2.3589   2.4757   2.5116   2.5321
     2.5395   2.5614   2.5664   2.6145   2.7317   2.7486   2.8190   2.8313
     2.8529   2.9180   2.9538   2.9826   2.9988   3.0117   3.0324   3.0838
     3.1039   3.1397   3.1940   3.2524   3.2646   3.3447   3.4535   3.4945
     3.5297   3.5612   3.5802   3.6053   3.6608   3.6848   3.8041   3.9246
     4.0746   4.2191   4.2996   4.5429   4.7212   4.7251   4.8315   4.9253
     5.1282   5.1905   5.2696   5.3200   5.3905   5.4290   5.4522   5.4908
     5.5191   5.5248   5.5652   5.6783   5.7197   5.7304   5.8385   5.9005
     5.9580   6.0095   6.0365   6.0683   6.1992   6.2661   6.4055   6.4498
     6.4679   6.5587   6.7307   6.8303   7.3160   7.4666   7.9683   8.0559
     8.3475   8.5011   8.5133   8.6788   8.7656   8.9878   9.1018   9.3100
     9.3612   9.4445   9.5136

          k = 0.0000 0.0560 0.0000 ( 34721 PWs)   bands (ev):

   -58.2796 -58.2620 -57.3646 -57.3573 -57.3398 -57.2966 -57.2406 -57.0709
   -57.0468 -57.0352 -57.0100 -56.8954 -56.8785 -56.8778 -56.7778 -56.7579
   -34.6382 -34.5496 -34.5352 -34.4714 -34.4432 -34.4240 -33.7696 -33.7575
   -33.6626 -33.6380 -33.5965 -33.5743 -33.5735 -33.5675 -33.5529 -33.5496
   -33.5215 -33.5121 -33.4952 -33.4762 -33.4534 -33.4488 -33.4448 -33.3917
   -33.3518 -33.3076 -33.3048 -33.2888 -33.2642 -33.2543 -33.2391 -33.2386
   -33.2379 -33.2289 -33.2258 -33.2075 -33.2032 -33.1903 -33.1458 -33.1148
   -33.1006 -33.0587 -33.0557 -33.0325 -33.0134 -33.0003 -32.9926 -32.9676
   -18.2341 -17.7958 -17.7741 -17.6156 -17.5832 -17.3924 -17.3735 -17.3559
   -17.2875 -17.2471 -17.2128 -17.0250 -16.9589 -16.9017 -16.8994 -16.8805
   -16.8167 -16.7986 -16.7105 -16.6870 -16.6814 -16.6563 -16.6032 -16.5433
   -16.4963 -16.4912 -16.4335 -16.4225 -16.3971 -16.2197 -16.1952 -15.6261
   -15.6019 -11.2665  -5.7073  -5.1634  -5.0281  -4.9706  -4.9335  -4.8766
    -4.8308  -4.8137  -4.7975  -4.7503  -4.7152  -4.5356  -4.4897  -4.4474
    -4.3759  -4.3745  -4.3332  -4.3022  -4.2885  -4.2694  -4.2310  -4.1955
    -4.1908  -4.1776  -4.1173  -4.0614  -4.0196  -3.9860  -3.9491  -3.9140
    -3.8862  -3.8054  -3.7974  -3.7222  -3.6461  -3.5282  -3.3954  -3.3879
    -3.3476  -3.2707  -3.2305  -3.1252  -3.0731  -3.0552  -3.0231  -2.9937
    -2.9504  -2.9402  -2.8076  -2.7792  -2.7200  -2.6771  -2.6313  -2.5415
    -2.4654  -2.4577  -2.4241  -2.3362  -2.2838  -2.2785  -2.2013  -2.1695
    -2.1353  -2.1203  -2.1021  -2.0685  -2.0357  -1.9913  -1.9764  -1.9516
    -1.9147  -1.8731  -1.8620  -1.8427  -1.7920  -1.7325  -1.6363  -1.5903
    -1.5784  -1.5596  -1.4938  -1.4549  -1.4362  -1.4281  -1.4126  -1.3584
    -1.2727  -1.2514  -1.1959  -1.1664  -1.0711  -0.9781  -0.9568  -0.9259
    -0.8414  -0.8176  -0.7200  -0.6981  -0.6029  -0.5640  -0.5466  -0.3139
     1.3041   1.4458   1.5184   1.7398   1.8163   1.9094   1.9799   2.0784
     2.1589   2.2942   2.2992   2.3511   2.4352   2.5050   2.5243   2.5498
     2.5905   2.6305   2.6808   2.7265   2.7708   2.7885   2.8193   2.8673
     2.8832   2.9020   2.9121   2.9811   3.0280   3.0463   3.0552   3.0818
     3.1430   3.1762   3.1997   3.2786   3.3262   3.3575   3.4046   3.4526
     3.4897   3.5058   3.5814   3.6300   3.6920   3.7026   3.7412   3.8183
     3.9414   4.1768   4.3418   4.6705   4.7607   4.8611   4.9524   5.0897
     5.0966   5.1931   5.3001   5.3517   5.4201   5.4560   5.4896   5.5178
     5.5186   5.5790   5.5983   5.6651   5.6707   5.7703   5.7906   5.8126
     5.8412   5.8852   5.9059   5.9503   6.1352   6.1709   6.3075   6.3712
     6.4387   6.4564   6.7326   6.7624   6.9911   7.1785   7.6058   7.7370
     8.1953   8.3715   8.6960   8.8103   8.8345   8.8832   9.1723   9.3336
     9.4167   9.5981   9.7007

          k = 0.0000-0.0840 0.0000 ( 34678 PWs)   bands (ev):

   -58.2715 -58.2701 -57.3630 -57.3509 -57.3466 -57.2978 -57.2402 -57.0707
   -57.0471 -57.0319 -57.0134 -56.8869 -56.8863 -56.8787 -56.7709 -56.7647
   -34.5433 -34.5423 -34.5414 -34.5408 -34.4484 -34.4472 -33.6857 -33.6726
   -33.6690 -33.6300 -33.6287 -33.6230 -33.5914 -33.5753 -33.5713 -33.5604
   -33.5200 -33.5139 -33.4947 -33.4855 -33.4503 -33.4434 -33.3818 -33.3657
   -33.3627 -33.3468 -33.3086 -33.3044 -33.2856 -33.2564 -33.2432 -33.2345
   -33.2324 -33.2319 -33.2073 -33.2038 -33.1548 -33.1321 -33.1313 -33.1230
   -33.1130 -33.1105 -33.0785 -33.0779 -33.0140 -33.0062 -33.0033 -32.9970
   -18.0091 -18.0083 -17.5758 -17.5666 -17.4927 -17.4699 -17.4696 -17.3787
   -17.2417 -17.1983 -17.1094 -17.0863 -17.0559 -17.0194 -16.8595 -16.8284
   -16.7914 -16.7910 -16.7896 -16.6581 -16.5964 -16.5932 -16.5867 -16.5629
   -16.5287 -16.5063 -16.4909 -16.4593 -16.4500 -16.2621 -16.2370 -15.6354
   -15.6354 -11.2674  -5.3678  -5.3675  -4.8715  -4.8705  -4.8693  -4.8564
    -4.8350  -4.7536  -4.7422  -4.7024  -4.6419  -4.5876  -4.5495  -4.5435
    -4.4739  -4.4527  -4.4295  -4.3756  -4.3594  -4.2492  -4.2370  -4.2293
    -4.1421  -4.1044  -4.0550  -4.0479  -3.9871  -3.9567  -3.8799  -3.8678
    -3.7763  -3.7661  -3.7257  -3.6594  -3.6522  -3.6325  -3.6073  -3.3988
    -3.3445  -3.3334  -3.1333  -3.0608  -3.0550  -3.0221  -2.9170  -2.9104
    -2.9021  -2.8332  -2.8105  -2.7757  -2.7577  -2.6754  -2.6533  -2.6247
    -2.5067  -2.4873  -2.4036  -2.3877  -2.3792  -2.3571  -2.2929  -2.2298
    -2.2098  -2.1487  -2.1015  -2.0374  -1.9870  -1.9631  -1.9591  -1.9547
    -1.9501  -1.9258  -1.8162  -1.7812  -1.7613  -1.7112  -1.6752  -1.6381
    -1.6230  -1.5930  -1.5750  -1.4992  -1.4905  -1.4482  -1.4288  -1.4043
    -1.3663  -1.3149  -1.2568  -1.1618  -1.1214  -1.0992  -1.0723  -1.0280
    -0.8205  -0.7979  -0.6008  -0.5918  -0.5865  -0.5783  -0.5293  -0.4803
     1.5003   1.5030   1.6525   1.6532   1.7322   1.7331   2.1031   2.1039
     2.1676   2.2225   2.3929   2.4281   2.4646   2.5105   2.5581   2.5650
     2.6731   2.6851   2.6946   2.7080   2.7594   2.7709   2.8269   2.8308
     2.9303   2.9653   3.0092   3.0368   3.0417   3.0449   3.0510   3.0547
     3.0618   3.2429   3.2526   3.2838   3.3158   3.3577   3.3840   3.4142
     3.4518   3.4665   3.5211   3.6443   3.7111   3.7512   3.7662   3.8067
     3.8642   4.0533   4.3944   4.7750   4.8505   4.8839   4.8846   5.0705
     5.1619   5.2417   5.3323   5.3482   5.3834   5.4263   5.4866   5.5623
     5.5833   5.6146   5.6179   5.7045   5.7170   5.7363   5.7475   5.7615
     5.7840   5.8246   5.8591   5.9584   6.0388   6.1748   6.2684   6.3821
     6.4740   6.4893   6.5832   6.6081   6.9247   6.9724   7.4435   7.6051
     8.0279   8.2350   8.6967   8.9484   9.0996   9.1878   9.3584   9.3599
     9.4279   9.6300   9.7133

[...]
    -1.7123  -1.4891  -1.4502  -1.4385  -1.4172  -1.3801  -1.3011  -1.1373
    -1.1272  -1.0698  -1.0531  -1.0373  -0.9506  -0.8941  -0.8537  -0.7693
    -0.7161  -0.7091  -0.6786  -0.6526  -0.5773  -0.5560  -0.5421   0.3276
     1.6193   1.6227   1.6353   1.6407   1.9830   1.9839   2.1127   2.1137
     2.2969   2.3174   2.3307   2.4125   2.4353   2.5058   2.5904   2.6518
     2.6737   2.7181   2.8018   2.8348   2.8929   2.9443   2.9660   2.9939
     3.0089   3.0167   3.0575   3.1158   3.1308   3.2270   3.2523   3.2620
     3.2778   3.3008   3.3587   3.4049   3.4178   3.4238   3.4790   3.4910
     3.5009   3.5292   3.5434   3.5972   3.6544   3.6694   3.7944   3.8940
     3.9301   3.9403   4.1580   4.1585   4.6080   4.6381   4.6605   4.7458
     4.9008   4.9169   4.9502   5.1000   5.1783   5.1832   5.2031   5.4635
     5.6909   5.6997   5.7117   5.9440   5.9493   5.9834   6.0322   6.0348
     6.1098   6.1236   6.1898   6.2812   6.2884   6.2939   6.4011   6.4784
     6.5152   6.6225   7.0415   7.1914   7.3167   7.3753   7.5535   7.5868
     7.7069   7.7602   7.9162   8.1021   8.2887   8.3380   8.4391   8.8616
     9.0135   9.0615   9.2026

          k =-0.0253 0.0280 0.0000 ( 34687 PWs)   bands (ev):

   -58.2861 -58.2558 -57.3677 -57.3627 -57.3334 -57.2944 -57.2422 -57.0753
   -57.0475 -57.0411 -57.0063 -56.9026 -56.9006 -56.8721 -56.7880 -56.7546
   -34.7086 -34.5551 -34.5302 -34.4880 -34.4065 -34.3703 -33.8396 -33.8289
   -33.7142 -33.6474 -33.6131 -33.5741 -33.5482 -33.5342 -33.5307 -33.5220
   -33.5134 -33.5011 -33.4995 -33.4794 -33.4726 -33.4497 -33.4478 -33.4288
   -33.3183 -33.3094 -33.3020 -33.2993 -33.2950 -33.2876 -33.2644 -33.2450
   -33.2341 -33.2217 -33.2213 -33.2124 -33.1916 -33.1857 -33.1458 -33.1175
   -33.1126 -33.0648 -33.0398 -33.0235 -33.0049 -32.9839 -32.9593 -32.8999
   -18.3514 -17.9216 -17.7569 -17.7140 -17.5039 -17.4971 -17.3560 -17.3491
   -17.3258 -17.2957 -17.0919 -17.0490 -16.9645 -16.9195 -16.8534 -16.8120
   -16.7731 -16.7301 -16.7132 -16.6497 -16.6433 -16.5627 -16.5249 -16.4658
   -16.4416 -16.3868 -16.3457 -16.3280 -16.1405 -16.1071 -15.8636 -15.5931
   -15.5444 -10.8506  -5.8222  -5.2902  -5.1243  -5.1057  -4.9746  -4.9331
    -4.8945  -4.8048  -4.6794  -4.6582  -4.6170  -4.5168  -4.4790  -4.4222
    -4.3886  -4.2942  -4.2710  -4.2317  -4.1956  -4.1655  -4.1233  -4.1079
    -4.0741  -4.0263  -3.9881  -3.9717  -3.9418  -3.8950  -3.8742  -3.8090
    -3.7782  -3.7539  -3.7047  -3.6308  -3.6098  -3.5820  -3.4793  -3.3765
    -3.3310  -3.3015  -3.2869  -3.2451  -3.2058  -3.1631  -3.0929  -3.0775
    -2.9024  -2.8649  -2.8039  -2.7596  -2.7025  -2.6702  -2.6550  -2.5983
    -2.5693  -2.4905  -2.4809  -2.4240  -2.3924  -2.3394  -2.2690  -2.2465
    -2.1943  -2.1742  -2.0855  -2.0234  -1.9409  -1.9227  -1.8974  -1.8324
    -1.8205  -1.7719  -1.7269  -1.6659  -1.6162  -1.5759  -1.5431  -1.4926
    -1.4578  -1.4172  -1.3886  -1.3630  -1.3444  -1.3274  -1.2957  -1.2708
    -1.1864  -1.1080  -1.0447  -0.9919  -0.9677  -0.9347  -0.9106  -0.8664
    -0.8244  -0.8017  -0.6134  -0.5913  -0.5672  -0.5033  -0.2456   0.3513
     1.1711   1.2647   1.4487   1.8380   1.8774   1.9446   1.9812   2.0490
     2.0600   2.2091   2.3201   2.3658   2.4072   2.4509   2.4738   2.5233
     2.5435   2.5677   2.6084   2.6687   2.7164   2.7409   2.7957   2.8515
     2.8958   2.9335   2.9499   2.9938   3.0103   3.0341   3.0596   3.1131
     3.1896   3.2102   3.2528   3.2776   3.3137   3.3545   3.4492   3.4843
     3.5142   3.5750   3.6300   3.6606   3.6829   3.7632   3.8393   3.8839
     4.0306   4.2273   4.3032   4.4551   4.6436   4.7410   4.8630   4.8805
     5.0199   5.0439   5.1322   5.2166   5.2584   5.3711   5.4788   5.5666
     5.6489   5.7134   5.7259   5.8217   5.8681   5.9025   5.9281   5.9510
     5.9845   6.0083   6.0791   6.1266   6.1943   6.2986   6.4172   6.4669
     6.4804   6.5918   6.7600   6.8176   7.3731   7.4992   7.7706   7.8839
     8.0722   8.2222   8.4906   8.5332   8.7766   8.8866   9.0841   9.3059
     9.3742   9.5342   9.6060

          k =-0.0253 0.0560 0.0000 ( 34699 PWs)   bands (ev):

   -58.2797 -58.2622 -57.3644 -57.3574 -57.3398 -57.2967 -57.2414 -57.0748
   -57.0479 -57.0365 -57.0112 -56.9011 -56.8962 -56.8785 -56.7813 -56.7614
   -34.6386 -34.5498 -34.5354 -34.4710 -34.4434 -34.4239 -33.7698 -33.7597
   -33.6635 -33.6321 -33.5964 -33.5728 -33.5687 -33.5677 -33.5563 -33.5496
   -33.5232 -33.5130 -33.4999 -33.4775 -33.4651 -33.4468 -33.4371 -33.3945
   -33.3531 -33.3062 -33.3030 -33.2928 -33.2661 -33.2566 -33.2404 -33.2400
   -33.2393 -33.2296 -33.2262 -33.2128 -33.2058 -33.1936 -33.1607 -33.1421
   -33.1013 -33.0619 -33.0564 -33.0332 -33.0206 -33.0072 -32.9959 -32.9704
   -18.1937 -17.7837 -17.7613 -17.5925 -17.5820 -17.4376 -17.3750 -17.3511
   -17.2297 -17.2226 -17.1850 -17.0391 -16.9295 -16.9006 -16.8624 -16.8215
   -16.7786 -16.7250 -16.7145 -16.6992 -16.6658 -16.5785 -16.5294 -16.5127
   -16.4813 -16.4222 -16.3930 -16.3875 -16.2043 -16.1873 -15.8624 -15.6218
   -15.5982 -10.8526  -5.5870  -5.0629  -5.0058  -4.9373  -4.9047  -4.7989
    -4.7768  -4.7391  -4.6692  -4.6541  -4.5072  -4.4902  -4.4273  -4.3767
    -4.3589  -4.3505  -4.3031  -4.2582  -4.2317  -4.2212  -4.1854  -4.1543
    -4.1161  -4.1045  -4.0445  -4.0008  -3.9842  -3.9348  -3.9084  -3.8751
    -3.8582  -3.8015  -3.7496  -3.6281  -3.5861  -3.5148  -3.4405  -3.3659
    -3.3468  -3.2760  -3.1695  -3.1436  -3.1151  -3.0941  -3.0417  -3.0064
    -2.9655  -2.9091  -2.8257  -2.7752  -2.7437  -2.6855  -2.5913  -2.5711
    -2.5077  -2.4925  -2.4407  -2.3743  -2.3581  -2.2993  -2.2816  -2.2403
    -2.1685  -2.1177  -2.1028  -2.0709  -2.0300  -1.9882  -1.9668  -1.9299
    -1.9129  -1.8877  -1.8745  -1.8279  -1.7490  -1.6836  -1.6720  -1.5750
    -1.5541  -1.5257  -1.5005  -1.4663  -1.4290  -1.3939  -1.3646  -1.3051
    -1.2699  -1.2035  -1.1383  -1.0146  -0.9859  -0.9512  -0.9192  -0.8386
    -0.7445  -0.7190  -0.6865  -0.6217  -0.5905  -0.5371  -0.3429   0.3322
     1.3054   1.4873   1.5827   1.7767   1.7920   1.9304   1.9970   2.0772
     2.2837   2.2949   2.3611   2.3975   2.4341   2.5064   2.5411   2.5674
     2.5916   2.6151   2.6731   2.7240   2.7400   2.7832   2.8260   2.8763
     2.9012   2.9363   2.9809   3.0255   3.0518   3.0651   3.0750   3.1287
     3.1775   3.2176   3.2368   3.3081   3.3363   3.3651   3.3963   3.4767
     3.5278   3.5531   3.6308   3.6516   3.6855   3.7444   3.7637   3.8167
     3.9133   4.1174   4.4105   4.5196   4.7347   4.8778   4.9287   4.9794
     5.0143   5.1086   5.2060   5.2261   5.3531   5.4057   5.4528   5.5467
     5.5822   5.6174   5.6701   5.7282   5.7577   5.8224   5.8391   5.8787
     5.9426   5.9554   5.9849   6.1084   6.1511   6.2259   6.3434   6.4434
     6.4625   6.4884   6.7315   6.7839   7.0665   7.2648   7.6653   7.8230
     8.0705   8.2295   8.3148   8.4894   8.7753   8.8872   9.0155   9.1830
     9.3788   9.5462   9.6353

          k =-0.0506 0.0280 0.0000 ( 34685 PWs)   bands (ev):

   -58.2861 -58.2558 -57.3668 -57.3636 -57.3334 -57.2944 -57.2422 -57.0753
   -57.0471 -57.0415 -57.0063 -56.9026 -56.9006 -56.8721 -56.7880 -56.7546
   -34.7093 -34.5551 -34.5302 -34.4864 -34.4064 -34.3703 -33.8400 -33.8330
   -33.7144 -33.6278 -33.6129 -33.5742 -33.5534 -33.5361 -33.5347 -33.5272
   -33.5136 -33.5085 -33.4984 -33.4792 -33.4727 -33.4489 -33.4375 -33.4299
   -33.3184 -33.3039 -33.3015 -33.2991 -33.2893 -33.2872 -33.2646 -33.2469
   -33.2439 -33.2217 -33.2203 -33.2153 -33.1918 -33.1851 -33.1416 -33.1175
   -33.1130 -33.0649 -33.0398 -33.0306 -33.0032 -32.9839 -32.9593 -32.8999
   -18.2430 -17.8450 -17.8319 -17.6814 -17.5682 -17.4364 -17.4186 -17.3252
   -17.2978 -17.2309 -17.1606 -17.0665 -16.9772 -16.9321 -16.9033 -16.8771
   -16.7900 -16.7478 -16.7366 -16.6767 -16.6142 -16.5300 -16.5030 -16.4703
   -16.4415 -16.3877 -16.3696 -16.3330 -16.1370 -16.1076 -15.8644 -15.5912
   -15.5445 -10.8505  -5.5209  -5.1679  -5.1349  -5.1010  -4.9296  -4.8504
    -4.7481  -4.6902  -4.6631  -4.6333  -4.5820  -4.5678  -4.5136  -4.3880
    -4.3441  -4.3048  -4.2260  -4.1973  -4.1698  -4.1476  -4.1300  -4.0374
    -4.0051  -3.9893  -3.9550  -3.9069  -3.8928  -3.8395  -3.8178  -3.7870
    -3.7290  -3.6930  -3.6480  -3.6023  -3.5685  -3.5168  -3.4678  -3.4354
    -3.3639  -3.3520  -3.3005  -3.2460  -3.1855  -3.1337  -3.0986  -3.0386
    -2.9904  -2.9614  -2.8852  -2.8166  -2.7406  -2.6793  -2.6702  -2.6493
    -2.5978  -2.5757  -2.5631  -2.5064  -2.4982  -2.3744  -2.3214  -2.3142
    -2.2515  -2.1835  -2.1668  -2.1398  -2.0616  -1.9913  -1.9851  -1.9247
    -1.9047  -1.8749  -1.7923  -1.7030  -1.6906  -1.6658  -1.5965  -1.5661
    -1.5058  -1.4563  -1.4351  -1.3777  -1.3602  -1.3106  -1.2941  -1.2420
    -1.2257  -1.1018  -1.0391  -1.0160  -0.9918  -0.9386  -0.9055  -0.8584
    -0.8094  -0.7783  -0.7011  -0.6629  -0.6416  -0.5167  -0.3719   0.3365
     1.1581   1.3580   1.4831   1.5840   1.9520   1.9622   1.9844   2.0763
     2.1429   2.2178   2.2726   2.3484   2.4233   2.4581   2.5465   2.5643
     2.6110   2.6699   2.7058   2.7192   2.7731   2.8467   2.8694   2.9003
     2.9582   2.9648   2.9989   3.0030   3.0098   3.1202   3.1272   3.1560
     3.2036   3.2328   3.3055   3.3270   3.3737   3.4014   3.4249   3.4734
     3.4872   3.5644   3.6192   3.6845   3.7605   3.7968   3.8167   3.9173
     3.9754   4.0788   4.1274   4.4248   4.5288   4.6742   4.7663   4.8266
     4.8597   4.9320   4.9843   5.3053   5.3460   5.4272   5.5438   5.5765
     5.6572   5.7849   5.8049   5.8718   5.9106   5.9306   5.9550   6.0698
     6.1120   6.1809   6.2678   6.3488   6.3974   6.4070   6.4599   6.5072
     6.5589   6.5681   6.7245   6.9133   7.0476   7.2184   7.5650   7.6011
     7.7145   8.2022   8.4033   8.4769   8.8749   8.9334   9.0593   9.2270
     9.4177   9.5949   9.6817

          k =-0.0506 0.0560 0.0000 ( 34596 PWs)   bands (ev):

   -58.2797 -58.2622 -57.3640 -57.3578 -57.3398 -57.2967 -57.2414 -57.0748
   -57.0477 -57.0367 -57.0112 -56.9011 -56.8962 -56.8785 -56.7813 -56.7614
   -34.6392 -34.5498 -34.5354 -34.4697 -34.4436 -34.4235 -33.7701 -33.7643
   -33.6636 -33.6163 -33.5962 -33.5720 -33.5703 -33.5675 -33.5507 -33.5496
   -33.5265 -33.5133 -33.5119 -33.4777 -33.4744 -33.4470 -33.4254 -33.3961
   -33.3534 -33.3060 -33.2911 -33.2889 -33.2685 -33.2588 -33.2412 -33.2403
   -33.2388 -33.2294 -33.2258 -33.2229 -33.2063 -33.1940 -33.1601 -33.1378
   -33.1013 -33.0620 -33.0564 -33.0331 -33.0249 -33.0079 -32.9959 -32.9702
   -18.0905 -17.8015 -17.6833 -17.5958 -17.5798 -17.5395 -17.3624 -17.3512
   -17.2007 -17.1886 -17.0993 -17.0770 -16.9596 -16.8942 -16.8496 -16.8249
   -16.8057 -16.7895 -16.7443 -16.7178 -16.7030 -16.6091 -16.5788 -16.4887
   -16.4782 -16.4197 -16.4030 -16.3936 -16.2036 -16.1839 -15.8623 -15.6205
   -15.5986 -10.8524  -5.2844  -4.9741  -4.9234  -4.9152  -4.7656  -4.7580
    -4.6987  -4.6221  -4.5084  -4.4884  -4.4827  -4.3998  -4.3858  -4.3630
    -4.3435  -4.3097  -4.2923  -4.2299  -4.1824  -4.1583  -4.1480  -4.1025
    -4.0875  -4.0383  -4.0289  -3.9749  -3.9602  -3.8916  -3.8714  -3.8572
    -3.7906  -3.7624  -3.6769  -3.6275  -3.5910  -3.5495  -3.4816  -3.4154
    -3.3798  -3.3036  -3.2445  -3.2133  -3.1287  -3.1153  -3.0644  -3.0349
    -2.9792  -2.9602  -2.9406  -2.8876  -2.7825  -2.7463  -2.7315  -2.6889
    -2.6122  -2.5704  -2.5281  -2.4900  -2.4604  -2.3969  -2.3713  -2.3519
    -2.3331  -2.2718  -2.1774  -2.1550  -2.1298  -2.1105  -2.0847  -2.0302
    -1.9956  -1.9541  -1.9270  -1.8530  -1.8312  -1.7638  -1.7125  -1.6382
    -1.5483  -1.5315  -1.5220  -1.4796  -1.4288  -1.3677  -1.3350  -1.2879
    -1.2258  -1.1580  -1.0589  -1.0046  -0.9711  -0.8850  -0.8350  -0.8274
    -0.7749  -0.6887  -0.6746  -0.6530  -0.6381  -0.5351  -0.4567   0.3347
     1.3260   1.5156   1.6644   1.6861   1.8708   2.0219   2.0503   2.0861
     2.2616   2.2745   2.3781   2.3951   2.4514   2.4800   2.5666   2.6034
     2.6686   2.7136   2.7482   2.7629   2.8301   2.8615   2.8895   2.9218
     2.9530   2.9695   3.0252   3.0599   3.0907   3.1320   3.1634   3.2090
     3.2140   3.2677   3.3029   3.3429   3.3518   3.3953   3.4340   3.4853
     3.4985   3.5673   3.5960   3.6595   3.6854   3.7609   3.8212   3.8575
     3.9002   3.9771   4.1708   4.5213   4.6152   4.6343   4.7729   4.8407
     4.9069   4.9832   5.0280   5.2051   5.3199   5.3942   5.4295   5.4618
     5.6116   5.6318   5.6863   5.7347   5.8970   5.9149   6.0055   6.0234
     6.0846   6.1263   6.1829   6.2160   6.3128   6.3526   6.4205   6.4411
     6.5558   6.6273   6.7584   6.8224   7.1672   7.3376   7.4840   7.6118
     7.9280   8.0027   8.0982   8.3692   8.6012   8.7174   8.7926   9.0340
     9.1877   9.3337   9.4368

     the Fermi energy is    -0.2726 ev

!    total energy              =   -3021.14859116 Ry
     Harris-Foulkes estimate   =   -3021.14859104 Ry
     estimated scf accuracy    <       0.00000050 Ry

     The total energy is the sum of the following terms:

     one-electron contribution =  -40438.78701636 Ry
     hartree contribution      =   20290.97973237 Ry
     xc contribution           =    -553.20774202 Ry
     ewald contribution        =   17679.88620700 Ry
     smearing contrib. (-TS)   =      -0.01977215 Ry

     total magnetization       =     1.06 Bohr mag/cell
     absolute magnetization    =     1.23 Bohr mag/cell

     convergence has been achieved in  11 iterations

     Forces acting on atoms (Ry/au):


     negative rho (up, down):  1.188E-02 1.196E-02
     atom    1 type  1   force =     0.00018410   -0.00089695   -0.10466719
     atom    2 type  2   force =     0.00014448    0.00068409    0.04003866
     atom    3 type  1   force =     0.00074908   -0.00175214   -0.02052045
     atom    4 type  2   force =    -0.00327509    0.00312630   -0.00322520
     atom    5 type  1   force =     0.00034767    0.00006122    0.00037774
     atom    6 type  2   force =    -0.00012823   -0.00009055    0.00018220
     atom    7 type  1   force =    -0.00041112   -0.00012522    0.00080964
     atom    8 type  2   force =    -0.00035859   -0.00040853   -0.00042561
     atom    9 type  1   force =    -0.00003463    0.00056619   -0.10480104
     atom   10 type  2   force =     0.00034887   -0.00021247    0.03601193
     atom   11 type  1   force =     0.00068037    0.00183901    0.00263503
     atom   12 type  2   force =    -0.00520356   -0.00266810   -0.00519097
     atom   13 type  1   force =     0.00041424    0.00010746   -0.00020403
     atom   14 type  2   force =     0.00012891   -0.00007619   -0.00016696
     atom   15 type  1   force =    -0.00014784   -0.00006660   -0.00025830
     atom   16 type  2   force =    -0.00035156    0.00003838   -0.00033190
     atom   17 type  2   force =     0.00000815   -0.00001344    0.06650082
     atom   18 type  1   force =     0.00005690    0.00003019    0.13154777
     atom   19 type  2   force =     0.00017994   -0.00052617   -0.08521804
     atom   20 type  2   force =    -0.05793211    0.00014138   -0.03607301
     atom   21 type  2   force =     0.05782254   -0.00004760   -0.03603849
     atom   22 type  1   force =    -0.00043110    0.00075048    0.08018990
     atom   23 type  2   force =     0.00019743   -0.00005085    0.00003375
     atom   24 type  2   force =     0.00064110    0.00185859   -0.03466665
     atom   25 type  2   force =     0.00414528    0.00332919   -0.00509125
     atom   26 type  1   force =     0.00040442   -0.00004814    0.00001795
     atom   27 type  2   force =    -0.00010102   -0.00013198    0.00020741
     atom   28 type  2   force =     0.00001871   -0.00019358   -0.00001275
     atom   29 type  2   force =     0.00003825   -0.00007171    0.00008222
     atom   30 type  1   force =     0.00001926   -0.00003689   -0.00035970
     atom   31 type  2   force =     0.00007010   -0.00002123    0.00018551
     atom   32 type  2   force =     0.00003710   -0.00007144    0.00013749
     atom   33 type  2   force =    -0.00016520    0.00004957    0.06623341
     atom   34 type  1   force =     0.00007730   -0.00003174    0.13132800
     atom   35 type  2   force =     0.00018952   -0.00012893   -0.08482876
     atom   36 type  2   force =    -0.05782534    0.00006441   -0.03568482
     atom   37 type  2   force =     0.05799591   -0.00017346   -0.03608875
     atom   38 type  1   force =    -0.00037519   -0.00020367    0.07986316
     atom   39 type  2   force =     0.00007624   -0.00026326   -0.00008987
     atom   40 type  2   force =     0.00048945    0.00124694   -0.03527208
     atom   41 type  2   force =     0.00589426   -0.00243619   -0.00721768
     atom   42 type  1   force =     0.00024402   -0.00006785   -0.00001280
     atom   43 type  2   force =    -0.00018970   -0.00010253    0.00017984
     atom   44 type  2   force =    -0.00003289   -0.00016621   -0.00001393
     atom   45 type  2   force =     0.00004014   -0.00017375    0.00006897
     atom   46 type  1   force =    -0.00026806   -0.00019687   -0.00047089
     atom   47 type  2   force =    -0.00026078   -0.00028312    0.00059555
     atom   48 type  2   force =     0.00010816    0.00033872    0.00017417
     atom   49 type  2   force =     0.00192909    0.00415214    0.00220203
     atom   50 type  3   force =     0.00533856   -0.04792708    0.01273006
     atom   51 type  4   force =     0.00941377    0.01551410   -0.01277419
     atom   52 type  4   force =    -0.00879142    0.01011160   -0.01028735
     atom   53 type  4   force =     0.00050167    0.00527041    0.00311374
     atom   54 type  4   force =    -0.01265155    0.01038408    0.00454570

     Total force =     0.347562     Total SCF correction =     0.002274
 !ASE

     Writing output data file calc.save
 
     init_run     :     66.18s CPU     76.44s WALL (       1 calls)
     electrons    :   2933.61s CPU   3358.48s WALL (       1 calls)
     forces       :     49.19s CPU     50.65s WALL (       1 calls)

     Called by init_run:
     wfcinit      :     58.22s CPU     67.63s WALL (       1 calls)
     potinit      :      1.33s CPU      1.54s WALL (       1 calls)

     Called by electrons:
     c_bands      :   2586.55s CPU   2952.76s WALL (      11 calls)
     sum_band     :    297.58s CPU    350.83s WALL (      11 calls)
     v_of_rho     :     12.44s CPU     14.82s WALL (      12 calls)
     newd         :     40.52s CPU     43.77s WALL (      12 calls)
     mix_rho      :      0.45s CPU      0.59s WALL (      11 calls)
     vdW_energy   :      2.74s CPU      3.07s WALL (      13 calls)
     vdW_ffts     :      3.20s CPU      3.95s WALL (      26 calls)
     vdW_v        :      1.25s CPU      1.37s WALL (      13 calls)

     Called by c_bands:
     init_us_2    :      6.82s CPU      7.38s WALL (     960 calls)
     cegterg      :   2544.44s CPU   2908.42s WALL (     440 calls)

     Called by *egterg:
     h_psi        :    967.06s CPU   1249.74s WALL (    2283 calls)
     s_psi        :    165.99s CPU    171.02s WALL (    2283 calls)
     g_psi        :      4.85s CPU      4.90s WALL (    1803 calls)
     cdiaghg      :    850.07s CPU    867.04s WALL (    2243 calls)

     Called by h_psi:
     add_vuspsi   :    167.95s CPU    173.30s WALL (    2283 calls)

     General routines
     calbec       :    247.77s CPU    252.36s WALL (    2763 calls)
     fft          :      6.86s CPU      8.45s WALL (    1029 calls)
     ffts         :      0.04s CPU      0.06s WALL (      46 calls)
     fftw         :    536.29s CPU    855.71s WALL (  783792 calls)
     interpolate  :      0.35s CPU      0.53s WALL (      46 calls)
     davcio       :      0.08s CPU      1.90s WALL (      40 calls)
 
     Parallel routines
     fft_scatter  :    270.36s CPU    444.64s WALL (  784867 calls)
 
     PWSCF        : 50m50.20s CPU    58m 9.21s WALL

 
   This run was terminated on:   4:16: 3  26Feb2018            

=------------------------------------------------------------------------------=
   JOB DONE.
=------------------------------------------------------------------------------=
