  python dir          : /home/vossj/suncat/lib/python2.7/site-packages/espresso
  espresso dir        : /home/vossj/suncat/esdld/espresso-dynpy-beef/bin
  pseudo dir          : /home/alatimer/bin/psp/esp_psp_w_gbrvRu/
  ase-espresso py git : ffa2778-git



     Program PWSCF v.5.1rc2 (svn rev. ) starts on 26Feb2018 at  7:22:35 

     This program is part of the open-source Quantum ESPRESSO suite
     for quantum simulation of materials; please cite
         "P. Giannozzi et al., J. Phys.:Condens. Matter 21 395502 (2009);
          URL http://www.quantum-espresso.org", 
     in publications or presentations arising from this work. More details at
     http://www.quantum-espresso.org/quote

     Parallel version (MPI), running on    16 processors
     R & G space division:  proc/nbgrp/npool/nimage =      16
     Reading input from pw.inp
     Message from routine read_cards :
     DEPRECATED: no units specified in CELL_PARAMETERS card

     Current dimensions of program PWSCF are:
     Max number of different atomic species (ntypx) = 10
     Max number of k-points (npk) =  40000
     Max angular momentum in pseudopotentials (lmaxx) =  3

     **************************************************************************
     Initializing libbeef V0.1.1 with the BEEF-vdW functional.
     Citation: Wellendorff et al., PRB 85, 235149 (2012).
     **************************************************************************


     IMPORTANT: XC functional enforced from input :
     Exchange-correlation      = BEEF ( 1  4 27 13 2)
     Any further DFT definition will be discarded
     Please, verify this is what you really want


     Subspace diagonalization in iterative solution of the eigenvalue problem:
     a serial algorithm will be used

 
     Parallelization info
     --------------------
     sticks:   dense  smooth     PW     G-vecs:    dense   smooth      PW
     Min         281     112     31                68535    17318    2565
     Max         282     113     32                68545    17369    2582
     Sum        4501    1795    503              1096637   277353   41113
 
     Generating pointlists ...
     new r_m :   0.4125 (alat units)  0.7795 (a.u.) for type    1
     new r_m :   0.4125 (alat units)  0.7795 (a.u.) for type    2
     new r_m :   0.4125 (alat units)  0.7795 (a.u.) for type    3
     new r_m :   0.4125 (alat units)  0.7795 (a.u.) for type    4


     bravais-lattice index     =            0
     lattice parameter (alat)  =       1.8897  a.u.
     unit-cell volume          =    7990.9933 (a.u.)^3
     number of atoms/cell      =           54
     number of atomic types    =            4
     number of electrons       =       398.00
     number of Kohn-Sham states=          299
     kinetic-energy cutoff     =      40.4243  Ry
     charge density cutoff     =     404.2426  Ry
     convergence threshold     =      7.3E-07
     mixing beta               =       0.1000
     number of iterations used =           10  plain     mixing
     Exchange-correlation      = BEEF ( 1  4 27 13 2)
     nstep                     =           50


     celldm(1)=   1.889726  celldm(2)=   0.000000  celldm(3)=   0.000000
     celldm(4)=   0.000000  celldm(5)=   0.000000  celldm(6)=   0.000000

     crystal axes: (cart. coord. in units of alat)
               a(1) = (   6.590708   0.000000   0.000000 )  
               a(2) = (   0.000000   5.950229   0.000000 )  
               a(3) = (   0.000000   0.000000  30.195235 )  

     reciprocal axes: (cart. coord. in units 2 pi/alat)
               b(1) = (  0.151729  0.000000  0.000000 )  
               b(2) = (  0.000000  0.168061  0.000000 )  
               b(3) = (  0.000000  0.000000  0.033118 )  


     PseudoPot. # 1 for Ti read from file:
     /home/alatimer/bin/psp/esp_psp_w_gbrvRu/Ti.UPF
     MD5 check sum: 8e4df49b7f0d34bbd5052bf3f5ea0213
     Pseudo is Ultrasoft, Zval = 12.0
     Generated by new atomic code, or converted to UPF format
     Using radial grid of  851 points,  6 beta functions with: 
                l(1) =   0
                l(2) =   0
                l(3) =   1
                l(4) =   1
                l(5) =   2
                l(6) =   2
     Q(r) pseudized with  8 coefficients,  rinner =    1.000   1.000   1.000
                                                       1.000   1.000

     PseudoPot. # 2 for  O read from file:
     /home/alatimer/bin/psp/esp_psp_w_gbrvRu/O.UPF
     MD5 check sum: e057bbcf3229fb5d8c36c0c92f9568b4
     Pseudo is Ultrasoft + core correction, Zval =  6.0
     Generated using "atomic" code by A. Dal Corso  v.5.0.2 svn rev. 9415
     Using radial grid of 1095 points,  4 beta functions with: 
                l(1) =   0
                l(2) =   0
                l(3) =   1
                l(4) =   1
     Q(r) pseudized with 0 coefficients 


     PseudoPot. # 3 for  C read from file:
     /home/alatimer/bin/psp/esp_psp_w_gbrvRu/C.UPF
     MD5 check sum: ab446d787031eba755f1d5ee46644bb0
     Pseudo is Ultrasoft + core correction, Zval =  4.0
     Generated using "atomic" code by A. Dal Corso  v.5.0.2 svn rev. 9415
     Using radial grid of 1073 points,  4 beta functions with: 
                l(1) =   0
                l(2) =   0
                l(3) =   1
                l(4) =   1
     Q(r) pseudized with 0 coefficients 


     PseudoPot. # 4 for  H read from file:
     /home/alatimer/bin/psp/esp_psp_w_gbrvRu/H.UPF
     MD5 check sum: bd57da0722753ddfd9833a65b40bb853
     Pseudo is Ultrasoft, Zval =  1.0
     Generated using "atomic" code by A. Dal Corso  v.5.0.2 svn rev. 9415
     Using radial grid of  929 points,  2 beta functions with: 
                l(1) =   0
                l(2) =   0
     Q(r) pseudized with 0 coefficients 


     vdW kernel table read from file vdW_kernel_table
     MD5 check sum: 095c7af220d748ca6e76c0b4c6cfb241

     atomic species   valence    mass     pseudopotential
        Ti1           12.00    47.88000     Ti( 1.00)
        O1             6.00    15.99940      O( 1.00)
        C1             4.00    12.01100      C( 1.00)
        H1             1.00     1.00794      H( 1.00)

     Starting magnetic structure 
     atomic species   magnetization
        Ti1          0.250
        O1           0.500
        C1           0.750
        H1           0.000

     No symmetry found



   Cartesian axes

     site n.     atom                  positions (alat units)
         1           Ti1 tau(   1) = (   1.6476770   0.7437786   2.6545865  )
         2           O1  tau(   2) = (   1.6476770   2.2313359   3.9361215  )
         3           Ti1 tau(   3) = (   1.6476770   2.2313359   5.9499405  )
         4           O1  tau(   4) = (   0.3661420   0.7437786   5.9499405  )
         5           Ti1 tau(   5) = (   1.6407309   0.9134410   9.3139491  )
         6           O1  tau(   6) = (   1.6648823   2.2608486  10.4895904  )
         7           Ti1 tau(   7) = (   1.7578240   2.2899216  13.0472362  )
         8           O1  tau(   8) = (   0.4801583   0.7600008  12.7739736  )
         9           Ti1 tau(   9) = (   1.6476770   3.7188931   2.6545865  )
        10           O1  tau(  10) = (   1.6476770   5.2064503   3.9361215  )
        11           Ti1 tau(  11) = (   1.6476770   5.2064503   5.9499405  )
        12           O1  tau(  12) = (   0.3661420   3.7188931   5.9499405  )
        13           Ti1 tau(  13) = (   1.6336050   3.7786827   9.1566831  )
        14           O1  tau(  14) = (   1.6678212   5.2513959  10.5409436  )
        15           Ti1 tau(  15) = (   1.7144009   5.2558216  12.3462911  )
        16           O1  tau(  16) = (   0.4635505   3.7986228  12.7318280  )
        17           O1  tau(  17) = (   1.6476770   2.2313359   1.3730516  )
        18           Ti1 tau(  18) = (   4.9430310   2.2313359   2.6545865  )
        19           O1  tau(  19) = (   4.9430310   2.2313359   4.6684056  )
        20           O1  tau(  20) = (   6.2245660   0.7437786   2.6545865  )
        21           O1  tau(  21) = (   3.6614961   0.7437786   2.6545865  )
        22           Ti1 tau(  22) = (   4.9430310   0.7437786   5.9499405  )
        23           O1  tau(  23) = (   1.6683653   2.2752577   7.9427336  )
        24           O1  tau(  24) = (   4.9430310   2.2313359   7.2314755  )
        25           O1  tau(  25) = (   2.9292120   0.7437786   5.9499405  )
        26           Ti1 tau(  26) = (   4.9404121   2.2664794   9.4552217  )
        27           O1  tau(  27) = (   5.0099888   2.2616732  11.2946145  )
        28           O1  tau(  28) = (   6.2612001   0.7714827   9.2659748  )
        29           O1  tau(  29) = (   3.6791272   0.7744986   9.2965846  )
        30           Ti1 tau(  30) = (   5.0117873   0.7976728  12.8161605  )
        31           O1  tau(  31) = (   4.9963122   2.2836652  13.8750618  )
        32           O1  tau(  32) = (   2.9819382   0.7448324  12.7109220  )
        33           O1  tau(  33) = (   1.6476770   5.2064503   1.3730516  )
        34           Ti1 tau(  34) = (   4.9430310   5.2064503   2.6545865  )
        35           O1  tau(  35) = (   4.9430310   5.2064503   4.6684056  )
        36           O1  tau(  36) = (   6.2245660   3.7188931   2.6545865  )
        37           O1  tau(  37) = (   3.6614961   3.7188931   2.6545865  )
        38           Ti1 tau(  38) = (   4.9430310   3.7188931   5.9499405  )
        39           O1  tau(  39) = (   1.6664207   5.2035600   7.9365221  )
        40           O1  tau(  40) = (   4.9430310   5.2064503   7.2314755  )
        41           O1  tau(  41) = (   2.9292120   3.7188931   5.9499405  )
        42           Ti1 tau(  42) = (   4.9524353   5.2460635   9.4426343  )
        43           O1  tau(  43) = (   5.0107556   5.2394944  11.2927493  )
        44           O1  tau(  44) = (   6.2663940   3.7551737   9.2646230  )
        45           O1  tau(  45) = (   3.6780957   3.7542261   9.2971476  )
        46           Ti1 tau(  46) = (   5.0587989   3.7766986  12.8010349  )
        47           O1  tau(  47) = (   5.0196089   5.2502198  13.8813978  )
        48           O1  tau(  48) = (   2.9624133   3.7943242  12.7299881  )
        49           O1  tau(  49) = (   1.7427453   2.2533568  14.8370015  )
        50           C1  tau(  50) = (   2.7196098   4.2826273  16.2318421  )
        51           H1  tau(  51) = (   3.3337454   4.9255546  15.5827400  )
        52           H1  tau(  52) = (   3.3286606   3.7870117  16.9822022  )
        53           H1  tau(  53) = (   2.3125587   3.4026405  15.5729816  )
        54           H1  tau(  54) = (   1.8391288   4.7650601  16.6448379  )

     number of k points=    40  Fermi-Dirac smearing, width (Ry)=  0.0073
                       cart. coord. in units 2pi/alat
        k(    1) = (   0.0000000   0.0000000   0.0000000), wk =   0.0277778
        k(    2) = (   0.0000000   0.0280101   0.0000000), wk =   0.0555556
        k(    3) = (   0.0000000   0.0560203   0.0000000), wk =   0.0555556
        k(    4) = (   0.0000000  -0.0840304   0.0000000), wk =   0.0277778
        k(    5) = (   0.0252881   0.0000000   0.0000000), wk =   0.0555556
        k(    6) = (   0.0252881   0.0280101   0.0000000), wk =   0.0555556
        k(    7) = (   0.0252881   0.0560203   0.0000000), wk =   0.0555556
        k(    8) = (   0.0252881  -0.0840304   0.0000000), wk =   0.0555556
        k(    9) = (   0.0505763   0.0000000   0.0000000), wk =   0.0555556
        k(   10) = (   0.0505763   0.0280101   0.0000000), wk =   0.0555556
        k(   11) = (   0.0505763   0.0560203   0.0000000), wk =   0.0555556
        k(   12) = (   0.0505763  -0.0840304   0.0000000), wk =   0.0555556
        k(   13) = (  -0.0758644   0.0000000   0.0000000), wk =   0.0277778
        k(   14) = (  -0.0758644   0.0280101   0.0000000), wk =   0.0555556
        k(   15) = (  -0.0758644   0.0560203   0.0000000), wk =   0.0555556
        k(   16) = (  -0.0758644  -0.0840304   0.0000000), wk =   0.0277778
        k(   17) = (  -0.0252881   0.0280101   0.0000000), wk =   0.0555556
        k(   18) = (  -0.0252881   0.0560203   0.0000000), wk =   0.0555556
        k(   19) = (  -0.0505763   0.0280101   0.0000000), wk =   0.0555556
        k(   20) = (  -0.0505763   0.0560203   0.0000000), wk =   0.0555556
        k(   21) = (   0.0000000   0.0000000   0.0000000), wk =   0.0277778
        k(   22) = (   0.0000000   0.0280101   0.0000000), wk =   0.0555556
        k(   23) = (   0.0000000   0.0560203   0.0000000), wk =   0.0555556
        k(   24) = (   0.0000000  -0.0840304   0.0000000), wk =   0.0277778
        k(   25) = (   0.0252881   0.0000000   0.0000000), wk =   0.0555556
        k(   26) = (   0.0252881   0.0280101   0.0000000), wk =   0.0555556
        k(   27) = (   0.0252881   0.0560203   0.0000000), wk =   0.0555556
        k(   28) = (   0.0252881  -0.0840304   0.0000000), wk =   0.0555556
        k(   29) = (   0.0505763   0.0000000   0.0000000), wk =   0.0555556
        k(   30) = (   0.0505763   0.0280101   0.0000000), wk =   0.0555556
        k(   31) = (   0.0505763   0.0560203   0.0000000), wk =   0.0555556
        k(   32) = (   0.0505763  -0.0840304   0.0000000), wk =   0.0555556
        k(   33) = (  -0.0758644   0.0000000   0.0000000), wk =   0.0277778
        k(   34) = (  -0.0758644   0.0280101   0.0000000), wk =   0.0555556
        k(   35) = (  -0.0758644   0.0560203   0.0000000), wk =   0.0555556
        k(   36) = (  -0.0758644  -0.0840304   0.0000000), wk =   0.0277778
        k(   37) = (  -0.0252881   0.0280101   0.0000000), wk =   0.0555556
        k(   38) = (  -0.0252881   0.0560203   0.0000000), wk =   0.0555556
        k(   39) = (  -0.0505763   0.0280101   0.0000000), wk =   0.0555556
        k(   40) = (  -0.0505763   0.0560203   0.0000000), wk =   0.0555556

     Dense  grid:  1096637 G-vectors     FFT dimensions: (  80,  72, 375)

     Smooth grid:   277353 G-vectors     FFT dimensions: (  54,  45, 240)

     Largest allocated arrays     est. size (Mb)     dimensions
        Kohn-Sham Wavefunctions         9.95 Mb     (    2180,  299)
        NL pseudopotentials            18.89 Mb     (    2180,  568)
        Each V/rho on FFT grid          4.22 Mb     (  138240,   2)
        Each G-vector array             0.52 Mb     (   68538)
        G-vector shells                 0.25 Mb     (   33046)
     Largest temporary arrays     est. size (Mb)     dimensions
        Auxiliary wavefunctions        39.78 Mb     (    2180, 1196)
        Each subspace H/S matrix       21.83 Mb     (    1196, 1196)
        Each <psi_i|beta_j> matrix      2.59 Mb     (     568,  299)
        Arrays for rho mixing          21.09 Mb     (  138240,   10)

     Check: negative/imaginary core charge=   -0.000049    0.000000

     The initial density is read from file :
     ./calc.save/charge-density.dat


     negative rho (up, down):  1.189E-02 1.196E-02


     ************************************************************************
     *
     * You are using vdW-DF for exchange-correlation in this calculation.
     * Please cite the following three references that made this development
     * possible:
     *
     *   M. Dion, H. Rydberg, E. Schroder, D. C. Langreth, and
     *   B. I. Lundqvist, Phys. Rev. Lett. 92, 246401 (2004).
     *
     *   T. Thonhauser, V. R. Cooper, S. Li, A. Puzder, P. Hyldgaard, and
     *   D. C. Langreth, Phys. Rev. B 76, 125112 (2007).
     *
     *   G. Roman-Perez and J. M. Soler, Phys. Rev. Lett. 103, 096102 (2009).
     *
     *
     * If you are using vdW-DF2, please also cite:
     *
     *   K. Lee, E. D. Murray, L. Kong, B. I. Lundqvist, and
     *   D. C. Langreth, Phys. Rev. B 82, 081101(R) (2010).
     *
     *
     * If you are calculating the stress with vdW-DF, please also cite:
     *
     *   R. Sabatini, E. Kucukbenli, B. Kolb, T. Thonhauser, and
     *   S. de Gironcoli, J. Phys.: Condens. Matter 24, 424209 (2012).
     *
     ************************************************************************

     Carrying out vdW-DF run using the following parameters:

     Nqs =      20    Nr_points =    1024   r_max =   100.000
     q_mesh =
               0.00001000     0.04494208     0.09755937     0.15916263
               0.23128650     0.31572767     0.41458969     0.53033537
               0.66584808     0.82450364     1.01025438     1.22772762
               1.48234092     1.78043706     2.12944203     2.53805004
               3.01644009     3.57652955     4.23227104     5.00000000

     Gradients computed in reciprocal space

     ************************************************************************


     Starting wfc are  300 randomized atomic wfcs

     total cpu time spent up to now is       77.8 secs

     Self-consistent Calculation

     iteration #  1     ecut=    40.42 Ry     beta=0.10
     Davidson diagonalization with overlap
     ethr =  1.00E-05,  avg # of iterations = 15.0

     Threshold (ethr) on eigenvalues was too large:
     Diagonalizing with lowered threshold

     Davidson diagonalization with overlap
     ethr =  4.92E-07,  avg # of iterations =  1.0

     negative rho (up, down):  1.189E-02 1.196E-02
 
     Magnetic moment per site:
     atom:    1    charge:    3.1244    magn:   -0.0003    constr:    0.0000
     atom:    2    charge:    2.0897    magn:    0.0003    constr:    0.0000
     atom:    3    charge:    3.1198    magn:   -0.0000    constr:    0.0000
     atom:    4    charge:    2.0867    magn:   -0.0001    constr:    0.0000
     atom:    5    charge:    3.1161    magn:   -0.0002    constr:    0.0000
     atom:    6    charge:    2.0795    magn:    0.0020    constr:    0.0000
     atom:    7    charge:    3.1167    magn:   -0.0053    constr:    0.0000
     atom:    8    charge:    2.0794    magn:    0.0248    constr:    0.0000
     atom:    9    charge:    3.1244    magn:   -0.0003    constr:    0.0000
     atom:   10    charge:    2.0898    magn:    0.0003    constr:    0.0000
     atom:   11    charge:    3.1198    magn:   -0.0000    constr:    0.0000
     atom:   12    charge:    2.0870    magn:   -0.0000    constr:    0.0000
     atom:   13    charge:    3.1150    magn:   -0.0002    constr:    0.0000
     atom:   14    charge:    2.0939    magn:    0.0022    constr:    0.0000
     atom:   15    charge:    3.1183    magn:   -0.0008    constr:    0.0000
     atom:   16    charge:    2.0828    magn:    0.0046    constr:    0.0000
     atom:   17    charge:    2.0624    magn:    0.0018    constr:    0.0000
     atom:   18    charge:    3.1239    magn:   -0.0001    constr:    0.0000
     atom:   19    charge:    2.0875    magn:    0.0001    constr:    0.0000
     atom:   20    charge:    2.0847    magn:    0.0002    constr:    0.0000
     atom:   21    charge:    2.0847    magn:    0.0002    constr:    0.0000
     atom:   22    charge:    3.1199    magn:    0.0000    constr:    0.0000
     atom:   23    charge:    2.0908    magn:    0.0002    constr:    0.0000
     atom:   24    charge:    2.0754    magn:   -0.0002    constr:    0.0000
     atom:   25    charge:    2.0867    magn:    0.0000    constr:    0.0000
     atom:   26    charge:    3.1126    magn:   -0.0002    constr:    0.0000
     atom:   27    charge:    2.0803    magn:    0.0025    constr:    0.0000
     atom:   28    charge:    2.0839    magn:    0.0006    constr:    0.0000
     atom:   29    charge:    2.0860    magn:    0.0008    constr:    0.0000
     atom:   30    charge:    3.1171    magn:   -0.0008    constr:    0.0000
     atom:   31    charge:    2.0826    magn:    0.0006    constr:    0.0000
     atom:   32    charge:    2.0829    magn:    0.0064    constr:    0.0000
     atom:   33    charge:    2.0624    magn:    0.0018    constr:    0.0000
     atom:   34    charge:    3.1239    magn:   -0.0001    constr:    0.0000
     atom:   35    charge:    2.0876    magn:    0.0001    constr:    0.0000
     atom:   36    charge:    2.0847    magn:    0.0002    constr:    0.0000
     atom:   37    charge:    2.0847    magn:    0.0002    constr:    0.0000
     atom:   38    charge:    3.1200    magn:    0.0000    constr:    0.0000
     atom:   39    charge:    2.0839    magn:    0.0002    constr:    0.0000
     atom:   40    charge:    2.0756    magn:   -0.0003    constr:    0.0000
     atom:   41    charge:    2.0870    magn:   -0.0000    constr:    0.0000
     atom:   42    charge:    3.1151    magn:   -0.0002    constr:    0.0000
     atom:   43    charge:    2.0803    magn:    0.0030    constr:    0.0000
     atom:   44    charge:    2.0851    magn:    0.0008    constr:    0.0000
     atom:   45    charge:    2.0858    magn:    0.0004    constr:    0.0000
     atom:   46    charge:    3.1147    magn:   -0.0007    constr:    0.0000
     atom:   47    charge:    2.0810    magn:    0.0046    constr:    0.0000
     atom:   48    charge:    2.0838    magn:    0.0136    constr:    0.0000
     atom:   49    charge:    2.0517    magn:    0.2396    constr:    0.0000
     atom:   50    charge:    0.6704    magn:    0.0548    constr:    0.0000
     atom:   51    charge:    0.4130    magn:    0.0009    constr:    0.0000
     atom:   52    charge:    0.4229    magn:    0.0008    constr:    0.0000
     atom:   53    charge:    0.3674    magn:    0.0234    constr:    0.0000
     atom:   54    charge:    0.4230    magn:    0.0006    constr:    0.0000

     total cpu time spent up to now is     1284.1 secs

     total energy              =   -3021.14969540 Ry
     Harris-Foulkes estimate   =   -3021.14989953 Ry
     estimated scf accuracy    <       0.00195430 Ry

     total magnetization       =     1.06 Bohr mag/cell
     absolute magnetization    =     1.23 Bohr mag/cell

     iteration #  2     ecut=    40.42 Ry     beta=0.10
     Davidson diagonalization with overlap
     ethr =  4.91E-07,  avg # of iterations =  1.4

     negative rho (up, down):  1.189E-02 1.196E-02
 
     Magnetic moment per site:
     atom:    1    charge:    3.1244    magn:   -0.0003    constr:    0.0000
     atom:    2    charge:    2.0897    magn:    0.0003    constr:    0.0000
     atom:    3    charge:    3.1198    magn:   -0.0000    constr:    0.0000
     atom:    4    charge:    2.0867    magn:   -0.0001    constr:    0.0000
     atom:    5    charge:    3.1161    magn:   -0.0002    constr:    0.0000
     atom:    6    charge:    2.0795    magn:    0.0021    constr:    0.0000
     atom:    7    charge:    3.1167    magn:   -0.0052    constr:    0.0000
     atom:    8    charge:    2.0793    magn:    0.0248    constr:    0.0000
     atom:    9    charge:    3.1244    magn:   -0.0003    constr:    0.0000
     atom:   10    charge:    2.0899    magn:    0.0003    constr:    0.0000
     atom:   11    charge:    3.1198    magn:   -0.0000    constr:    0.0000
     atom:   12    charge:    2.0871    magn:   -0.0000    constr:    0.0000
     atom:   13    charge:    3.1150    magn:   -0.0002    constr:    0.0000
     atom:   14    charge:    2.0939    magn:    0.0022    constr:    0.0000
     atom:   15    charge:    3.1183    magn:   -0.0008    constr:    0.0000
     atom:   16    charge:    2.0828    magn:    0.0046    constr:    0.0000
     atom:   17    charge:    2.0625    magn:    0.0017    constr:    0.0000
     atom:   18    charge:    3.1239    magn:   -0.0001    constr:    0.0000
     atom:   19    charge:    2.0875    magn:    0.0001    constr:    0.0000
     atom:   20    charge:    2.0847    magn:    0.0002    constr:    0.0000
     atom:   21    charge:    2.0847    magn:    0.0002    constr:    0.0000
     atom:   22    charge:    3.1199    magn:    0.0000    constr:    0.0000
     atom:   23    charge:    2.0908    magn:    0.0002    constr:    0.0000
     atom:   24    charge:    2.0754    magn:   -0.0002    constr:    0.0000
     atom:   25    charge:    2.0867    magn:    0.0000    constr:    0.0000
     atom:   26    charge:    3.1127    magn:   -0.0002    constr:    0.0000
     atom:   27    charge:    2.0802    magn:    0.0025    constr:    0.0000
     atom:   28    charge:    2.0839    magn:    0.0006    constr:    0.0000
     atom:   29    charge:    2.0860    magn:    0.0008    constr:    0.0000
     atom:   30    charge:    3.1171    magn:   -0.0008    constr:    0.0000
     atom:   31    charge:    2.0826    magn:    0.0006    constr:    0.0000
     atom:   32    charge:    2.0829    magn:    0.0065    constr:    0.0000
     atom:   33    charge:    2.0625    magn:    0.0018    constr:    0.0000
     atom:   34    charge:    3.1239    magn:   -0.0001    constr:    0.0000
     atom:   35    charge:    2.0876    magn:    0.0001    constr:    0.0000
     atom:   36    charge:    2.0847    magn:    0.0002    constr:    0.0000
     atom:   37    charge:    2.0847    magn:    0.0002    constr:    0.0000
     atom:   38    charge:    3.1200    magn:    0.0000    constr:    0.0000
     atom:   39    charge:    2.0839    magn:    0.0002    constr:    0.0000
     atom:   40    charge:    2.0756    magn:   -0.0003    constr:    0.0000
     atom:   41    charge:    2.0870    magn:   -0.0000    constr:    0.0000
     atom:   42    charge:    3.1151    magn:   -0.0002    constr:    0.0000
     atom:   43    charge:    2.0803    magn:    0.0030    constr:    0.0000
     atom:   44    charge:    2.0851    magn:    0.0008    constr:    0.0000
     atom:   45    charge:    2.0858    magn:    0.0004    constr:    0.0000
     atom:   46    charge:    3.1147    magn:   -0.0007    constr:    0.0000
     atom:   47    charge:    2.0811    magn:    0.0046    constr:    0.0000
     atom:   48    charge:    2.0837    magn:    0.0136    constr:    0.0000
     atom:   49    charge:    2.0517    magn:    0.2396    constr:    0.0000
     atom:   50    charge:    0.6700    magn:    0.0548    constr:    0.0000
     atom:   51    charge:    0.4131    magn:    0.0009    constr:    0.0000
     atom:   52    charge:    0.4230    magn:    0.0008    constr:    0.0000
     atom:   53    charge:    0.3674    magn:    0.0234    constr:    0.0000
     atom:   54    charge:    0.4230    magn:    0.0007    constr:    0.0000

     total cpu time spent up to now is     1506.1 secs

     total energy              =   -3021.14961304 Ry
     Harris-Foulkes estimate   =   -3021.14973834 Ry
     estimated scf accuracy    <       0.00170565 Ry

     total magnetization       =     1.07 Bohr mag/cell
     absolute magnetization    =     1.23 Bohr mag/cell

     iteration #  3     ecut=    40.42 Ry     beta=0.10
     Davidson diagonalization with overlap
     ethr =  4.29E-07,  avg # of iterations =  1.1

     negative rho (up, down):  1.189E-02 1.195E-02
 
     Magnetic moment per site:
     atom:    1    charge:    3.1244    magn:   -0.0003    constr:    0.0000
     atom:    2    charge:    2.0897    magn:    0.0003    constr:    0.0000
     atom:    3    charge:    3.1198    magn:   -0.0000    constr:    0.0000
     atom:    4    charge:    2.0867    magn:   -0.0001    constr:    0.0000
     atom:    5    charge:    3.1161    magn:   -0.0002    constr:    0.0000
     atom:    6    charge:    2.0795    magn:    0.0021    constr:    0.0000
     atom:    7    charge:    3.1167    magn:   -0.0052    constr:    0.0000
     atom:    8    charge:    2.0793    magn:    0.0247    constr:    0.0000
     atom:    9    charge:    3.1244    magn:   -0.0003    constr:    0.0000
     atom:   10    charge:    2.0898    magn:    0.0003    constr:    0.0000
     atom:   11    charge:    3.1198    magn:   -0.0000    constr:    0.0000
     atom:   12    charge:    2.0871    magn:   -0.0000    constr:    0.0000
     atom:   13    charge:    3.1150    magn:   -0.0002    constr:    0.0000
     atom:   14    charge:    2.0939    magn:    0.0022    constr:    0.0000
     atom:   15    charge:    3.1183    magn:   -0.0008    constr:    0.0000
     atom:   16    charge:    2.0828    magn:    0.0047    constr:    0.0000
     atom:   17    charge:    2.0624    magn:    0.0016    constr:    0.0000
     atom:   18    charge:    3.1240    magn:   -0.0001    constr:    0.0000
     atom:   19    charge:    2.0875    magn:    0.0001    constr:    0.0000
     atom:   20    charge:    2.0847    magn:    0.0001    constr:    0.0000
     atom:   21    charge:    2.0847    magn:    0.0001    constr:    0.0000
     atom:   22    charge:    3.1199    magn:    0.0000    constr:    0.0000
     atom:   23    charge:    2.0908    magn:    0.0002    constr:    0.0000
     atom:   24    charge:    2.0754    magn:   -0.0001    constr:    0.0000
     atom:   25    charge:    2.0867    magn:    0.0000    constr:    0.0000
     atom:   26    charge:    3.1126    magn:   -0.0002    constr:    0.0000
     atom:   27    charge:    2.0802    magn:    0.0025    constr:    0.0000
     atom:   28    charge:    2.0839    magn:    0.0006    constr:    0.0000
     atom:   29    charge:    2.0860    magn:    0.0008    constr:    0.0000
     atom:   30    charge:    3.1171    magn:   -0.0008    constr:    0.0000
     atom:   31    charge:    2.0826    magn:    0.0006    constr:    0.0000
     atom:   32    charge:    2.0829    magn:    0.0065    constr:    0.0000
     atom:   33    charge:    2.0624    magn:    0.0016    constr:    0.0000
     atom:   34    charge:    3.1239    magn:   -0.0001    constr:    0.0000
     atom:   35    charge:    2.0875    magn:    0.0001    constr:    0.0000
     atom:   36    charge:    2.0847    magn:    0.0001    constr:    0.0000
     atom:   37    charge:    2.0847    magn:    0.0001    constr:    0.0000
     atom:   38    charge:    3.1200    magn:    0.0000    constr:    0.0000
     atom:   39    charge:    2.0839    magn:    0.0002    constr:    0.0000
     atom:   40    charge:    2.0756    magn:   -0.0002    constr:    0.0000
     atom:   41    charge:    2.0870    magn:   -0.0000    constr:    0.0000
     atom:   42    charge:    3.1151    magn:   -0.0002    constr:    0.0000
     atom:   43    charge:    2.0803    magn:    0.0030    constr:    0.0000
     atom:   44    charge:    2.0851    magn:    0.0009    constr:    0.0000
     atom:   45    charge:    2.0858    magn:    0.0004    constr:    0.0000
     atom:   46    charge:    3.1147    magn:   -0.0007    constr:    0.0000
     atom:   47    charge:    2.0813    magn:    0.0046    constr:    0.0000
     atom:   48    charge:    2.0838    magn:    0.0135    constr:    0.0000
     atom:   49    charge:    2.0517    magn:    0.2395    constr:    0.0000
     atom:   50    charge:    0.6680    magn:    0.0548    constr:    0.0000
     atom:   51    charge:    0.4133    magn:    0.0009    constr:    0.0000
     atom:   52    charge:    0.4235    magn:    0.0008    constr:    0.0000
     atom:   53    charge:    0.3674    magn:    0.0236    constr:    0.0000
     atom:   54    charge:    0.4229    magn:    0.0007    constr:    0.0000

     total cpu time spent up to now is     1724.5 secs

     total energy              =   -3021.14939513 Ry
     Harris-Foulkes estimate   =   -3021.14968458 Ry
     estimated scf accuracy    <       0.00173182 Ry

     total magnetization       =     1.06 Bohr mag/cell
     absolute magnetization    =     1.23 Bohr mag/cell

     iteration #  4     ecut=    40.42 Ry     beta=0.10
     Davidson diagonalization with overlap
     ethr =  4.29E-07,  avg # of iterations =  3.0

     negative rho (up, down):  1.189E-02 1.195E-02
 
     Magnetic moment per site:
     atom:    1    charge:    3.1244    magn:   -0.0003    constr:    0.0000
     atom:    2    charge:    2.0897    magn:    0.0003    constr:    0.0000
     atom:    3    charge:    3.1198    magn:   -0.0000    constr:    0.0000
     atom:    4    charge:    2.0867    magn:   -0.0001    constr:    0.0000
     atom:    5    charge:    3.1161    magn:   -0.0002    constr:    0.0000
     atom:    6    charge:    2.0795    magn:    0.0021    constr:    0.0000
     atom:    7    charge:    3.1167    magn:   -0.0052    constr:    0.0000
     atom:    8    charge:    2.0792    magn:    0.0248    constr:    0.0000
     atom:    9    charge:    3.1244    magn:   -0.0003    constr:    0.0000
     atom:   10    charge:    2.0898    magn:    0.0003    constr:    0.0000
     atom:   11    charge:    3.1198    magn:   -0.0000    constr:    0.0000
     atom:   12    charge:    2.0870    magn:   -0.0000    constr:    0.0000
     atom:   13    charge:    3.1150    magn:   -0.0002    constr:    0.0000
     atom:   14    charge:    2.0939    magn:    0.0022    constr:    0.0000
     atom:   15    charge:    3.1184    magn:   -0.0008    constr:    0.0000
     atom:   16    charge:    2.0828    magn:    0.0047    constr:    0.0000
     atom:   17    charge:    2.0624    magn:    0.0015    constr:    0.0000
     atom:   18    charge:    3.1240    magn:   -0.0001    constr:    0.0000
     atom:   19    charge:    2.0875    magn:    0.0001    constr:    0.0000
     atom:   20    charge:    2.0847    magn:    0.0001    constr:    0.0000
     atom:   21    charge:    2.0847    magn:    0.0001    constr:    0.0000
     atom:   22    charge:    3.1199    magn:    0.0000    constr:    0.0000
     atom:   23    charge:    2.0908    magn:    0.0002    constr:    0.0000
     atom:   24    charge:    2.0754    magn:   -0.0001    constr:    0.0000
     atom:   25    charge:    2.0867    magn:    0.0000    constr:    0.0000
     atom:   26    charge:    3.1127    magn:   -0.0002    constr:    0.0000
     atom:   27    charge:    2.0803    magn:    0.0025    constr:    0.0000
     atom:   28    charge:    2.0839    magn:    0.0006    constr:    0.0000
     atom:   29    charge:    2.0860    magn:    0.0008    constr:    0.0000
     atom:   30    charge:    3.1172    magn:   -0.0008    constr:    0.0000
     atom:   31    charge:    2.0826    magn:    0.0006    constr:    0.0000
     atom:   32    charge:    2.0829    magn:    0.0065    constr:    0.0000
     atom:   33    charge:    2.0624    magn:    0.0015    constr:    0.0000
     atom:   34    charge:    3.1239    magn:   -0.0001    constr:    0.0000
     atom:   35    charge:    2.0876    magn:    0.0001    constr:    0.0000
     atom:   36    charge:    2.0847    magn:    0.0001    constr:    0.0000
     atom:   37    charge:    2.0847    magn:    0.0001    constr:    0.0000
     atom:   38    charge:    3.1200    magn:    0.0000    constr:    0.0000
     atom:   39    charge:    2.0839    magn:    0.0002    constr:    0.0000
     atom:   40    charge:    2.0756    magn:   -0.0002    constr:    0.0000
     atom:   41    charge:    2.0870    magn:   -0.0000    constr:    0.0000
     atom:   42    charge:    3.1151    magn:   -0.0002    constr:    0.0000
     atom:   43    charge:    2.0803    magn:    0.0030    constr:    0.0000
     atom:   44    charge:    2.0851    magn:    0.0009    constr:    0.0000
     atom:   45    charge:    2.0858    magn:    0.0004    constr:    0.0000
     atom:   46    charge:    3.1148    magn:   -0.0007    constr:    0.0000
     atom:   47    charge:    2.0807    magn:    0.0046    constr:    0.0000
     atom:   48    charge:    2.0836    magn:    0.0135    constr:    0.0000
     atom:   49    charge:    2.0517    magn:    0.2396    constr:    0.0000
     atom:   50    charge:    0.6683    magn:    0.0547    constr:    0.0000
     atom:   51    charge:    0.4132    magn:    0.0009    constr:    0.0000
     atom:   52    charge:    0.4234    magn:    0.0008    constr:    0.0000
     atom:   53    charge:    0.3675    magn:    0.0234    constr:    0.0000
     atom:   54    charge:    0.4228    magn:    0.0007    constr:    0.0000

     total cpu time spent up to now is     1978.8 secs

     total energy              =   -3021.14948163 Ry
     Harris-Foulkes estimate   =   -3021.14951026 Ry
     estimated scf accuracy    <       0.00025183 Ry

     total magnetization       =     1.06 Bohr mag/cell
     absolute magnetization    =     1.23 Bohr mag/cell

     iteration #  5     ecut=    40.42 Ry     beta=0.10
     Davidson diagonalization with overlap
     ethr =  6.33E-08,  avg # of iterations =  2.8

     negative rho (up, down):  1.189E-02 1.195E-02
 
     Magnetic moment per site:
     atom:    1    charge:    3.1244    magn:   -0.0002    constr:    0.0000
     atom:    2    charge:    2.0897    magn:    0.0002    constr:    0.0000
     atom:    3    charge:    3.1198    magn:   -0.0000    constr:    0.0000
     atom:    4    charge:    2.0867    magn:   -0.0001    constr:    0.0000
     atom:    5    charge:    3.1161    magn:   -0.0002    constr:    0.0000
     atom:    6    charge:    2.0795    magn:    0.0021    constr:    0.0000
     atom:    7    charge:    3.1167    magn:   -0.0052    constr:    0.0000
     atom:    8    charge:    2.0792    magn:    0.0248    constr:    0.0000
     atom:    9    charge:    3.1244    magn:   -0.0002    constr:    0.0000
     atom:   10    charge:    2.0898    magn:    0.0002    constr:    0.0000
     atom:   11    charge:    3.1198    magn:   -0.0000    constr:    0.0000
     atom:   12    charge:    2.0871    magn:   -0.0000    constr:    0.0000
     atom:   13    charge:    3.1150    magn:   -0.0002    constr:    0.0000
     atom:   14    charge:    2.0939    magn:    0.0022    constr:    0.0000
     atom:   15    charge:    3.1184    magn:   -0.0008    constr:    0.0000
     atom:   16    charge:    2.0828    magn:    0.0047    constr:    0.0000
     atom:   17    charge:    2.0624    magn:    0.0013    constr:    0.0000
     atom:   18    charge:    3.1239    magn:   -0.0001    constr:    0.0000
     atom:   19    charge:    2.0876    magn:    0.0001    constr:    0.0000
     atom:   20    charge:    2.0847    magn:    0.0001    constr:    0.0000
     atom:   21    charge:    2.0847    magn:    0.0001    constr:    0.0000
     atom:   22    charge:    3.1199    magn:    0.0000    constr:    0.0000
     atom:   23    charge:    2.0908    magn:    0.0002    constr:    0.0000
     atom:   24    charge:    2.0754    magn:   -0.0001    constr:    0.0000
     atom:   25    charge:    2.0867    magn:    0.0000    constr:    0.0000
     atom:   26    charge:    3.1127    magn:   -0.0002    constr:    0.0000
     atom:   27    charge:    2.0802    magn:    0.0026    constr:    0.0000
     atom:   28    charge:    2.0839    magn:    0.0007    constr:    0.0000
     atom:   29    charge:    2.0860    magn:    0.0008    constr:    0.0000
     atom:   30    charge:    3.1171    magn:   -0.0008    constr:    0.0000
     atom:   31    charge:    2.0825    magn:    0.0006    constr:    0.0000
     atom:   32    charge:    2.0829    magn:    0.0065    constr:    0.0000
     atom:   33    charge:    2.0624    magn:    0.0013    constr:    0.0000
     atom:   34    charge:    3.1239    magn:   -0.0001    constr:    0.0000
     atom:   35    charge:    2.0876    magn:    0.0000    constr:    0.0000
     atom:   36    charge:    2.0847    magn:    0.0001    constr:    0.0000
     atom:   37    charge:    2.0847    magn:    0.0001    constr:    0.0000
     atom:   38    charge:    3.1200    magn:    0.0000    constr:    0.0000
     atom:   39    charge:    2.0839    magn:    0.0002    constr:    0.0000
     atom:   40    charge:    2.0756    magn:   -0.0002    constr:    0.0000
     atom:   41    charge:    2.0870    magn:   -0.0000    constr:    0.0000
     atom:   42    charge:    3.1151    magn:   -0.0002    constr:    0.0000
     atom:   43    charge:    2.0803    magn:    0.0031    constr:    0.0000
     atom:   44    charge:    2.0851    magn:    0.0009    constr:    0.0000
     atom:   45    charge:    2.0858    magn:    0.0005    constr:    0.0000
     atom:   46    charge:    3.1148    magn:   -0.0007    constr:    0.0000
     atom:   47    charge:    2.0805    magn:    0.0046    constr:    0.0000
     atom:   48    charge:    2.0836    magn:    0.0136    constr:    0.0000
     atom:   49    charge:    2.0516    magn:    0.2397    constr:    0.0000
     atom:   50    charge:    0.6683    magn:    0.0547    constr:    0.0000
     atom:   51    charge:    0.4132    magn:    0.0009    constr:    0.0000
     atom:   52    charge:    0.4234    magn:    0.0008    constr:    0.0000
     atom:   53    charge:    0.3676    magn:    0.0233    constr:    0.0000
     atom:   54    charge:    0.4227    magn:    0.0007    constr:    0.0000

     total cpu time spent up to now is     2227.1 secs

     total energy              =   -3021.14948320 Ry
     Harris-Foulkes estimate   =   -3021.14948994 Ry
     estimated scf accuracy    <       0.00010199 Ry

     total magnetization       =     1.06 Bohr mag/cell
     absolute magnetization    =     1.23 Bohr mag/cell

     iteration #  6     ecut=    40.42 Ry     beta=0.10
     Davidson diagonalization with overlap
     ethr =  2.56E-08,  avg # of iterations =  3.0

     negative rho (up, down):  1.189E-02 1.195E-02
 
     Magnetic moment per site:
     atom:    1    charge:    3.1244    magn:   -0.0002    constr:    0.0000
     atom:    2    charge:    2.0897    magn:    0.0002    constr:    0.0000
     atom:    3    charge:    3.1198    magn:   -0.0000    constr:    0.0000
     atom:    4    charge:    2.0867    magn:   -0.0001    constr:    0.0000
     atom:    5    charge:    3.1161    magn:   -0.0002    constr:    0.0000
     atom:    6    charge:    2.0795    magn:    0.0021    constr:    0.0000
     atom:    7    charge:    3.1167    magn:   -0.0053    constr:    0.0000
     atom:    8    charge:    2.0793    magn:    0.0249    constr:    0.0000
     atom:    9    charge:    3.1244    magn:   -0.0002    constr:    0.0000
     atom:   10    charge:    2.0898    magn:    0.0002    constr:    0.0000
     atom:   11    charge:    3.1198    magn:   -0.0000    constr:    0.0000
     atom:   12    charge:    2.0870    magn:   -0.0000    constr:    0.0000
     atom:   13    charge:    3.1150    magn:   -0.0002    constr:    0.0000
     atom:   14    charge:    2.0939    magn:    0.0022    constr:    0.0000
     atom:   15    charge:    3.1184    magn:   -0.0008    constr:    0.0000
     atom:   16    charge:    2.0828    magn:    0.0047    constr:    0.0000
     atom:   17    charge:    2.0624    magn:    0.0013    constr:    0.0000
     atom:   18    charge:    3.1239    magn:   -0.0001    constr:    0.0000
     atom:   19    charge:    2.0876    magn:    0.0000    constr:    0.0000
     atom:   20    charge:    2.0847    magn:    0.0001    constr:    0.0000
     atom:   21    charge:    2.0847    magn:    0.0001    constr:    0.0000
     atom:   22    charge:    3.1199    magn:    0.0000    constr:    0.0000
     atom:   23    charge:    2.0908    magn:    0.0002    constr:    0.0000
     atom:   24    charge:    2.0754    magn:   -0.0001    constr:    0.0000
     atom:   25    charge:    2.0867    magn:    0.0000    constr:    0.0000
     atom:   26    charge:    3.1127    magn:   -0.0002    constr:    0.0000
     atom:   27    charge:    2.0802    magn:    0.0026    constr:    0.0000
     atom:   28    charge:    2.0839    magn:    0.0007    constr:    0.0000
     atom:   29    charge:    2.0860    magn:    0.0008    constr:    0.0000
     atom:   30    charge:    3.1171    magn:   -0.0008    constr:    0.0000
     atom:   31    charge:    2.0824    magn:    0.0006    constr:    0.0000
     atom:   32    charge:    2.0829    magn:    0.0065    constr:    0.0000
     atom:   33    charge:    2.0624    magn:    0.0013    constr:    0.0000
     atom:   34    charge:    3.1239    magn:   -0.0001    constr:    0.0000
     atom:   35    charge:    2.0876    magn:    0.0000    constr:    0.0000
     atom:   36    charge:    2.0847    magn:    0.0001    constr:    0.0000
     atom:   37    charge:    2.0847    magn:    0.0001    constr:    0.0000
     atom:   38    charge:    3.1200    magn:    0.0000    constr:    0.0000
     atom:   39    charge:    2.0839    magn:    0.0002    constr:    0.0000
     atom:   40    charge:    2.0756    magn:   -0.0002    constr:    0.0000
     atom:   41    charge:    2.0870    magn:   -0.0000    constr:    0.0000
     atom:   42    charge:    3.1151    magn:   -0.0002    constr:    0.0000
     atom:   43    charge:    2.0803    magn:    0.0031    constr:    0.0000
     atom:   44    charge:    2.0851    magn:    0.0009    constr:    0.0000
     atom:   45    charge:    2.0858    magn:    0.0005    constr:    0.0000
     atom:   46    charge:    3.1147    magn:   -0.0007    constr:    0.0000
     atom:   47    charge:    2.0805    magn:    0.0046    constr:    0.0000
     atom:   48    charge:    2.0836    magn:    0.0136    constr:    0.0000
     atom:   49    charge:    2.0516    magn:    0.2398    constr:    0.0000
     atom:   50    charge:    0.6685    magn:    0.0546    constr:    0.0000
     atom:   51    charge:    0.4132    magn:    0.0009    constr:    0.0000
     atom:   52    charge:    0.4233    magn:    0.0007    constr:    0.0000
     atom:   53    charge:    0.3676    magn:    0.0232    constr:    0.0000
     atom:   54    charge:    0.4227    magn:    0.0008    constr:    0.0000

     total cpu time spent up to now is     2483.1 secs

     total energy              =   -3021.14948980 Ry
     Harris-Foulkes estimate   =   -3021.14948947 Ry
     estimated scf accuracy    <       0.00003291 Ry

     total magnetization       =     1.06 Bohr mag/cell
     absolute magnetization    =     1.23 Bohr mag/cell

     iteration #  7     ecut=    40.42 Ry     beta=0.10
     Davidson diagonalization with overlap
     ethr =  8.27E-09,  avg # of iterations =  3.0

     negative rho (up, down):  1.189E-02 1.195E-02
 
     Magnetic moment per site:
     atom:    1    charge:    3.1244    magn:   -0.0002    constr:    0.0000
     atom:    2    charge:    2.0897    magn:    0.0002    constr:    0.0000
     atom:    3    charge:    3.1198    magn:   -0.0000    constr:    0.0000
     atom:    4    charge:    2.0867    magn:   -0.0001    constr:    0.0000
     atom:    5    charge:    3.1161    magn:   -0.0003    constr:    0.0000
     atom:    6    charge:    2.0795    magn:    0.0021    constr:    0.0000
     atom:    7    charge:    3.1167    magn:   -0.0053    constr:    0.0000
     atom:    8    charge:    2.0793    magn:    0.0249    constr:    0.0000
     atom:    9    charge:    3.1244    magn:   -0.0002    constr:    0.0000
     atom:   10    charge:    2.0898    magn:    0.0002    constr:    0.0000
     atom:   11    charge:    3.1198    magn:   -0.0000    constr:    0.0000
     atom:   12    charge:    2.0870    magn:   -0.0000    constr:    0.0000
     atom:   13    charge:    3.1150    magn:   -0.0002    constr:    0.0000
     atom:   14    charge:    2.0939    magn:    0.0022    constr:    0.0000
     atom:   15    charge:    3.1184    magn:   -0.0008    constr:    0.0000
     atom:   16    charge:    2.0828    magn:    0.0047    constr:    0.0000
     atom:   17    charge:    2.0624    magn:    0.0012    constr:    0.0000
     atom:   18    charge:    3.1239    magn:   -0.0000    constr:    0.0000
     atom:   19    charge:    2.0875    magn:    0.0000    constr:    0.0000
     atom:   20    charge:    2.0847    magn:    0.0001    constr:    0.0000
     atom:   21    charge:    2.0847    magn:    0.0001    constr:    0.0000
     atom:   22    charge:    3.1199    magn:    0.0000    constr:    0.0000
     atom:   23    charge:    2.0908    magn:    0.0002    constr:    0.0000
     atom:   24    charge:    2.0754    magn:   -0.0001    constr:    0.0000
     atom:   25    charge:    2.0867    magn:    0.0000    constr:    0.0000
     atom:   26    charge:    3.1127    magn:   -0.0003    constr:    0.0000
     atom:   27    charge:    2.0802    magn:    0.0026    constr:    0.0000
     atom:   28    charge:    2.0839    magn:    0.0007    constr:    0.0000
     atom:   29    charge:    2.0860    magn:    0.0009    constr:    0.0000
     atom:   30    charge:    3.1171    magn:   -0.0008    constr:    0.0000
     atom:   31    charge:    2.0824    magn:    0.0006    constr:    0.0000
     atom:   32    charge:    2.0829    magn:    0.0065    constr:    0.0000
     atom:   33    charge:    2.0624    magn:    0.0012    constr:    0.0000
     atom:   34    charge:    3.1239    magn:   -0.0000    constr:    0.0000
     atom:   35    charge:    2.0876    magn:    0.0000    constr:    0.0000
     atom:   36    charge:    2.0847    magn:    0.0001    constr:    0.0000
     atom:   37    charge:    2.0847    magn:    0.0001    constr:    0.0000
     atom:   38    charge:    3.1200    magn:    0.0000    constr:    0.0000
     atom:   39    charge:    2.0839    magn:    0.0002    constr:    0.0000
     atom:   40    charge:    2.0756    magn:   -0.0001    constr:    0.0000
     atom:   41    charge:    2.0870    magn:   -0.0000    constr:    0.0000
     atom:   42    charge:    3.1151    magn:   -0.0002    constr:    0.0000
     atom:   43    charge:    2.0803    magn:    0.0031    constr:    0.0000
     atom:   44    charge:    2.0851    magn:    0.0009    constr:    0.0000
     atom:   45    charge:    2.0858    magn:    0.0005    constr:    0.0000
     atom:   46    charge:    3.1147    magn:   -0.0007    constr:    0.0000
     atom:   47    charge:    2.0805    magn:    0.0046    constr:    0.0000
     atom:   48    charge:    2.0837    magn:    0.0136    constr:    0.0000
     atom:   49    charge:    2.0516    magn:    0.2398    constr:    0.0000
     atom:   50    charge:    0.6689    magn:    0.0546    constr:    0.0000
     atom:   51    charge:    0.4131    magn:    0.0009    constr:    0.0000
     atom:   52    charge:    0.4231    magn:    0.0007    constr:    0.0000
     atom:   53    charge:    0.3676    magn:    0.0232    constr:    0.0000
     atom:   54    charge:    0.4227    magn:    0.0008    constr:    0.0000

     total cpu time spent up to now is     2733.8 secs

     total energy              =   -3021.14948736 Ry
     Harris-Foulkes estimate   =   -3021.14949070 Ry
     estimated scf accuracy    <       0.00001397 Ry

     total magnetization       =     1.06 Bohr mag/cell
     absolute magnetization    =     1.23 Bohr mag/cell

     iteration #  8     ecut=    40.42 Ry     beta=0.10
     Davidson diagonalization with overlap
     ethr =  3.51E-09,  avg # of iterations =  3.0

     negative rho (up, down):  1.189E-02 1.196E-02
 
     Magnetic moment per site:
     atom:    1    charge:    3.1244    magn:   -0.0002    constr:    0.0000
     atom:    2    charge:    2.0897    magn:    0.0002    constr:    0.0000
     atom:    3    charge:    3.1198    magn:   -0.0000    constr:    0.0000
     atom:    4    charge:    2.0867    magn:   -0.0001    constr:    0.0000
     atom:    5    charge:    3.1161    magn:   -0.0003    constr:    0.0000
     atom:    6    charge:    2.0795    magn:    0.0021    constr:    0.0000
     atom:    7    charge:    3.1167    magn:   -0.0053    constr:    0.0000
     atom:    8    charge:    2.0793    magn:    0.0249    constr:    0.0000
     atom:    9    charge:    3.1244    magn:   -0.0002    constr:    0.0000
     atom:   10    charge:    2.0898    magn:    0.0002    constr:    0.0000
     atom:   11    charge:    3.1198    magn:   -0.0000    constr:    0.0000
     atom:   12    charge:    2.0870    magn:   -0.0000    constr:    0.0000
     atom:   13    charge:    3.1150    magn:   -0.0002    constr:    0.0000
     atom:   14    charge:    2.0939    magn:    0.0022    constr:    0.0000
     atom:   15    charge:    3.1184    magn:   -0.0008    constr:    0.0000
     atom:   16    charge:    2.0828    magn:    0.0047    constr:    0.0000
     atom:   17    charge:    2.0624    magn:    0.0011    constr:    0.0000
     atom:   18    charge:    3.1239    magn:   -0.0000    constr:    0.0000
     atom:   19    charge:    2.0875    magn:    0.0000    constr:    0.0000
     atom:   20    charge:    2.0847    magn:    0.0001    constr:    0.0000
     atom:   21    charge:    2.0847    magn:    0.0001    constr:    0.0000
     atom:   22    charge:    3.1199    magn:    0.0000    constr:    0.0000
     atom:   23    charge:    2.0908    magn:    0.0003    constr:    0.0000
     atom:   24    charge:    2.0754    magn:   -0.0000    constr:    0.0000
     atom:   25    charge:    2.0867    magn:    0.0000    constr:    0.0000
     atom:   26    charge:    3.1127    magn:   -0.0003    constr:    0.0000
     atom:   27    charge:    2.0803    magn:    0.0027    constr:    0.0000
     atom:   28    charge:    2.0839    magn:    0.0007    constr:    0.0000
     atom:   29    charge:    2.0860    magn:    0.0009    constr:    0.0000
     atom:   30    charge:    3.1171    magn:   -0.0008    constr:    0.0000
     atom:   31    charge:    2.0825    magn:    0.0006    constr:    0.0000
     atom:   32    charge:    2.0829    magn:    0.0065    constr:    0.0000
     atom:   33    charge:    2.0624    magn:    0.0011    constr:    0.0000
     atom:   34    charge:    3.1239    magn:   -0.0000    constr:    0.0000
     atom:   35    charge:    2.0875    magn:    0.0000    constr:    0.0000
     atom:   36    charge:    2.0847    magn:    0.0001    constr:    0.0000
     atom:   37    charge:    2.0847    magn:    0.0001    constr:    0.0000
     atom:   38    charge:    3.1200    magn:    0.0000    constr:    0.0000
     atom:   39    charge:    2.0839    magn:    0.0002    constr:    0.0000
     atom:   40    charge:    2.0756    magn:   -0.0001    constr:    0.0000
     atom:   41    charge:    2.0870    magn:   -0.0000    constr:    0.0000
     atom:   42    charge:    3.1151    magn:   -0.0002    constr:    0.0000
     atom:   43    charge:    2.0803    magn:    0.0032    constr:    0.0000
     atom:   44    charge:    2.0851    magn:    0.0010    constr:    0.0000
     atom:   45    charge:    2.0858    magn:    0.0005    constr:    0.0000
     atom:   46    charge:    3.1148    magn:   -0.0007    constr:    0.0000
     atom:   47    charge:    2.0807    magn:    0.0046    constr:    0.0000
     atom:   48    charge:    2.0837    magn:    0.0136    constr:    0.0000
     atom:   49    charge:    2.0518    magn:    0.2398    constr:    0.0000
     atom:   50    charge:    0.6690    magn:    0.0546    constr:    0.0000
     atom:   51    charge:    0.4131    magn:    0.0009    constr:    0.0000
     atom:   52    charge:    0.4230    magn:    0.0007    constr:    0.0000
     atom:   53    charge:    0.3675    magn:    0.0232    constr:    0.0000
     atom:   54    charge:    0.4227    magn:    0.0008    constr:    0.0000

     total cpu time spent up to now is     2990.4 secs

     total energy              =   -3021.14948828 Ry
     Harris-Foulkes estimate   =   -3021.14948866 Ry
     estimated scf accuracy    <       0.00000428 Ry

     total magnetization       =     1.06 Bohr mag/cell
     absolute magnetization    =     1.23 Bohr mag/cell

     iteration #  9     ecut=    40.42 Ry     beta=0.10
     Davidson diagonalization with overlap
     ethr =  1.08E-09,  avg # of iterations =  3.0

     negative rho (up, down):  1.189E-02 1.196E-02
 
     Magnetic moment per site:
     atom:    1    charge:    3.1244    magn:   -0.0002    constr:    0.0000
     atom:    2    charge:    2.0897    magn:    0.0001    constr:    0.0000
     atom:    3    charge:    3.1198    magn:   -0.0000    constr:    0.0000
     atom:    4    charge:    2.0867    magn:   -0.0001    constr:    0.0000
     atom:    5    charge:    3.1161    magn:   -0.0003    constr:    0.0000
     atom:    6    charge:    2.0795    magn:    0.0022    constr:    0.0000
     atom:    7    charge:    3.1167    magn:   -0.0053    constr:    0.0000
     atom:    8    charge:    2.0793    magn:    0.0249    constr:    0.0000
     atom:    9    charge:    3.1244    magn:   -0.0002    constr:    0.0000
     atom:   10    charge:    2.0898    magn:    0.0002    constr:    0.0000
     atom:   11    charge:    3.1198    magn:   -0.0000    constr:    0.0000
     atom:   12    charge:    2.0870    magn:   -0.0000    constr:    0.0000
     atom:   13    charge:    3.1150    magn:   -0.0002    constr:    0.0000
     atom:   14    charge:    2.0939    magn:    0.0022    constr:    0.0000
     atom:   15    charge:    3.1184    magn:   -0.0008    constr:    0.0000
     atom:   16    charge:    2.0828    magn:    0.0047    constr:    0.0000
     atom:   17    charge:    2.0624    magn:    0.0010    constr:    0.0000
     atom:   18    charge:    3.1239    magn:   -0.0000    constr:    0.0000
     atom:   19    charge:    2.0875    magn:    0.0000    constr:    0.0000
     atom:   20    charge:    2.0847    magn:    0.0001    constr:    0.0000
     atom:   21    charge:    2.0847    magn:    0.0001    constr:    0.0000
     atom:   22    charge:    3.1199    magn:    0.0000    constr:    0.0000
     atom:   23    charge:    2.0908    magn:    0.0003    constr:    0.0000
     atom:   24    charge:    2.0754    magn:   -0.0000    constr:    0.0000
     atom:   25    charge:    2.0867    magn:    0.0000    constr:    0.0000
     atom:   26    charge:    3.1127    magn:   -0.0003    constr:    0.0000
     atom:   27    charge:    2.0802    magn:    0.0027    constr:    0.0000
     atom:   28    charge:    2.0839    magn:    0.0008    constr:    0.0000
     atom:   29    charge:    2.0860    magn:    0.0009    constr:    0.0000
     atom:   30    charge:    3.1171    magn:   -0.0008    constr:    0.0000
     atom:   31    charge:    2.0825    magn:    0.0006    constr:    0.0000
     atom:   32    charge:    2.0829    magn:    0.0065    constr:    0.0000
     atom:   33    charge:    2.0624    magn:    0.0010    constr:    0.0000
     atom:   34    charge:    3.1239    magn:   -0.0000    constr:    0.0000
     atom:   35    charge:    2.0875    magn:    0.0000    constr:    0.0000
     atom:   36    charge:    2.0847    magn:    0.0001    constr:    0.0000
     atom:   37    charge:    2.0847    magn:    0.0001    constr:    0.0000
     atom:   38    charge:    3.1200    magn:    0.0000    constr:    0.0000
     atom:   39    charge:    2.0839    magn:    0.0002    constr:    0.0000
     atom:   40    charge:    2.0756    magn:   -0.0001    constr:    0.0000
     atom:   41    charge:    2.0870    magn:   -0.0000    constr:    0.0000
     atom:   42    charge:    3.1151    magn:   -0.0002    constr:    0.0000
     atom:   43    charge:    2.0803    magn:    0.0032    constr:    0.0000
     atom:   44    charge:    2.0851    magn:    0.0010    constr:    0.0000
     atom:   45    charge:    2.0858    magn:    0.0005    constr:    0.0000
     atom:   46    charge:    3.1148    magn:   -0.0007    constr:    0.0000
     atom:   47    charge:    2.0807    magn:    0.0047    constr:    0.0000
     atom:   48    charge:    2.0837    magn:    0.0136    constr:    0.0000
     atom:   49    charge:    2.0518    magn:    0.2399    constr:    0.0000
     atom:   50    charge:    0.6691    magn:    0.0546    constr:    0.0000
     atom:   51    charge:    0.4131    magn:    0.0009    constr:    0.0000
     atom:   52    charge:    0.4230    magn:    0.0007    constr:    0.0000
     atom:   53    charge:    0.3675    magn:    0.0232    constr:    0.0000
     atom:   54    charge:    0.4228    magn:    0.0008    constr:    0.0000

     total cpu time spent up to now is     3247.4 secs

     total energy              =   -3021.14948865 Ry
     Harris-Foulkes estimate   =   -3021.14948859 Ry
     estimated scf accuracy    <       0.00000079 Ry

     total magnetization       =     1.06 Bohr mag/cell
     absolute magnetization    =     1.23 Bohr mag/cell

     iteration # 10     ecut=    40.42 Ry     beta=0.10
     Davidson diagonalization with overlap
     ethr =  1.99E-10,  avg # of iterations =  3.0

     negative rho (up, down):  1.189E-02 1.195E-02
 
     Magnetic moment per site:
     atom:    1    charge:    3.1244    magn:   -0.0001    constr:    0.0000
     atom:    2    charge:    2.0897    magn:    0.0001    constr:    0.0000
     atom:    3    charge:    3.1198    magn:   -0.0000    constr:    0.0000
     atom:    4    charge:    2.0867    magn:   -0.0001    constr:    0.0000
     atom:    5    charge:    3.1161    magn:   -0.0003    constr:    0.0000
     atom:    6    charge:    2.0795    magn:    0.0022    constr:    0.0000
     atom:    7    charge:    3.1167    magn:   -0.0053    constr:    0.0000
     atom:    8    charge:    2.0792    magn:    0.0250    constr:    0.0000
     atom:    9    charge:    3.1244    magn:   -0.0001    constr:    0.0000
     atom:   10    charge:    2.0898    magn:    0.0001    constr:    0.0000
     atom:   11    charge:    3.1198    magn:   -0.0000    constr:    0.0000
     atom:   12    charge:    2.0870    magn:   -0.0000    constr:    0.0000
     atom:   13    charge:    3.1150    magn:   -0.0002    constr:    0.0000
     atom:   14    charge:    2.0939    magn:    0.0023    constr:    0.0000
     atom:   15    charge:    3.1184    magn:   -0.0008    constr:    0.0000
     atom:   16    charge:    2.0828    magn:    0.0047    constr:    0.0000
     atom:   17    charge:    2.0624    magn:    0.0007    constr:    0.0000
     atom:   18    charge:    3.1239    magn:   -0.0000    constr:    0.0000
     atom:   19    charge:    2.0875    magn:    0.0000    constr:    0.0000
     atom:   20    charge:    2.0847    magn:    0.0001    constr:    0.0000
     atom:   21    charge:    2.0847    magn:    0.0001    constr:    0.0000
     atom:   22    charge:    3.1199    magn:    0.0000    constr:    0.0000
     atom:   23    charge:    2.0908    magn:    0.0003    constr:    0.0000
     atom:   24    charge:    2.0754    magn:   -0.0000    constr:    0.0000
     atom:   25    charge:    2.0867    magn:    0.0000    constr:    0.0000
     atom:   26    charge:    3.1127    magn:   -0.0003    constr:    0.0000
     atom:   27    charge:    2.0802    magn:    0.0027    constr:    0.0000
     atom:   28    charge:    2.0839    magn:    0.0008    constr:    0.0000
     atom:   29    charge:    2.0860    magn:    0.0009    constr:    0.0000
     atom:   30    charge:    3.1171    magn:   -0.0008    constr:    0.0000
     atom:   31    charge:    2.0825    magn:    0.0006    constr:    0.0000
     atom:   32    charge:    2.0829    magn:    0.0065    constr:    0.0000
     atom:   33    charge:    2.0624    magn:    0.0008    constr:    0.0000
     atom:   34    charge:    3.1239    magn:   -0.0000    constr:    0.0000
     atom:   35    charge:    2.0876    magn:    0.0000    constr:    0.0000
     atom:   36    charge:    2.0847    magn:    0.0001    constr:    0.0000
     atom:   37    charge:    2.0847    magn:    0.0001    constr:    0.0000
     atom:   38    charge:    3.1200    magn:    0.0000    constr:    0.0000
     atom:   39    charge:    2.0839    magn:    0.0002    constr:    0.0000
     atom:   40    charge:    2.0756    magn:   -0.0001    constr:    0.0000
     atom:   41    charge:    2.0870    magn:   -0.0000    constr:    0.0000
     atom:   42    charge:    3.1151    magn:   -0.0003    constr:    0.0000
     atom:   43    charge:    2.0803    magn:    0.0032    constr:    0.0000
     atom:   44    charge:    2.0851    magn:    0.0010    constr:    0.0000
     atom:   45    charge:    2.0858    magn:    0.0006    constr:    0.0000
     atom:   46    charge:    3.1148    magn:   -0.0007    constr:    0.0000
     atom:   47    charge:    2.0807    magn:    0.0047    constr:    0.0000
     atom:   48    charge:    2.0837    magn:    0.0137    constr:    0.0000
     atom:   49    charge:    2.0517    magn:    0.2399    constr:    0.0000
     atom:   50    charge:    0.6690    magn:    0.0546    constr:    0.0000
     atom:   51    charge:    0.4131    magn:    0.0009    constr:    0.0000
     atom:   52    charge:    0.4230    magn:    0.0007    constr:    0.0000
     atom:   53    charge:    0.3675    magn:    0.0232    constr:    0.0000
     atom:   54    charge:    0.4228    magn:    0.0008    constr:    0.0000

     total cpu time spent up to now is     3504.4 secs

     End of self-consistent calculation

 ------ SPIN UP ------------


          k = 0.0000 0.0000 0.0000 ( 34665 PWs)   bands (ev):

   -58.3060 -58.2710 -57.3880 -57.3823 -57.3493 -57.3115 -57.2602 -57.0910
   -57.0647 -57.0593 -57.0210 -56.9221 -56.8963 -56.8868 -56.8025 -56.7641
   -34.7512 -34.5746 -34.5458 -34.5126 -34.4176 -34.3608 -33.8830 -33.8706
   -33.7525 -33.6795 -33.6376 -33.5947 -33.5626 -33.5555 -33.5496 -33.5430
   -33.5313 -33.5166 -33.4912 -33.4896 -33.4753 -33.4730 -33.4709 -33.4516
   -33.3415 -33.3374 -33.3320 -33.3293 -33.3161 -33.2883 -33.2831 -33.2629
   -33.2426 -33.2373 -33.2372 -33.2278 -33.1977 -33.1772 -33.1414 -33.1407
   -33.1018 -33.0805 -33.0508 -33.0301 -33.0168 -32.9914 -32.9491 -32.8838
   -18.4713 -18.0385 -17.8141 -17.7138 -17.5532 -17.5318 -17.4876 -17.3861
   -17.3593 -17.2593 -17.0471 -17.0264 -17.0187 -16.9869 -16.9261 -16.8565
   -16.8379 -16.8000 -16.7420 -16.7096 -16.6910 -16.6584 -16.5952 -16.5906
   -16.4679 -16.4202 -16.4015 -16.3632 -16.3275 -16.1495 -16.0888 -15.6014
   -15.5406 -11.1531  -6.0499  -5.4986  -5.2846  -5.2046  -5.0957  -4.9933
    -4.9837  -4.9168  -4.8805  -4.7344  -4.6519  -4.6015  -4.5875  -4.5121
    -4.4308  -4.4157  -4.3543  -4.3182  -4.2348  -4.2208  -4.1982  -4.1442
    -4.0330  -4.0253  -3.9806  -3.9100  -3.8939  -3.8879  -3.8851  -3.8231
    -3.7785  -3.7532  -3.7207  -3.6357  -3.5948  -3.5773  -3.5425  -3.5298
    -3.5085  -3.4214  -3.4095  -3.3609  -3.2746  -3.2343  -3.1896  -3.0886
    -2.9218  -2.8985  -2.8525  -2.8033  -2.7476  -2.6955  -2.6738  -2.6631
    -2.6353  -2.5384  -2.4872  -2.4405  -2.3795  -2.3341  -2.2491  -2.2310
    -2.2266  -2.1617  -2.0709  -2.0428  -2.0005  -1.9610  -1.9312  -1.9001
    -1.8550  -1.7389  -1.6954  -1.6694  -1.6420  -1.6319  -1.5874  -1.5054
    -1.4223  -1.3685  -1.3542  -1.3394  -1.3167  -1.2700  -1.2254  -1.1719
    -1.1614  -1.1121  -1.1097  -1.0950  -1.0650  -0.9816  -0.8748  -0.8341
    -0.8099  -0.6947  -0.6885  -0.6256  -0.5537  -0.5125  -0.4848  -0.1881
     1.0248   1.1216   1.4164   1.6948   1.8030   1.9210   1.9683   2.0150
     2.0451   2.1325   2.2093   2.2298   2.2761   2.3948   2.4700   2.4838
     2.4910   2.5181   2.6208   2.6660   2.6707   2.6868   2.7097   2.8266
     2.8413   2.8859   2.9003   2.9524   2.9679   3.0208   3.0300   3.0509
     3.1050   3.1597   3.1983   3.1994   3.2470   3.2551   3.4109   3.4442
     3.4774   3.5200   3.5971   3.6256   3.6701   3.7139   3.8280   3.9553
     4.1031   4.1354   4.3257   4.4725   4.5933   4.7060   4.7838   4.8346
     5.0846   5.1322   5.2092   5.3533   5.3971   5.4028   5.4255   5.4324
     5.4467   5.5220   5.5538   5.6612   5.7178   5.7348   5.9056   5.9188
     5.9555   6.0746   6.0936   6.1357   6.2174   6.2955   6.4213   6.4891
     6.5421   6.5652   6.7817   6.8128   7.2150   7.9160   8.1529   8.1760
     8.3475   8.3894   8.6405   8.7129   8.7522   8.9680   9.1467   9.2491
     9.2987   9.4450   9.6205

          k = 0.0000 0.0280 0.0000 ( 34717 PWs)   bands (ev):

   -58.3037 -58.2733 -57.3863 -57.3806 -57.3516 -57.3126 -57.2598 -57.0907
   -57.0647 -57.0577 -57.0230 -56.9197 -56.8965 -56.8892 -56.8000 -56.7666
   -34.7258 -34.5726 -34.5478 -34.5064 -34.4242 -34.3878 -33.8576 -33.8452
   -33.7317 -33.6732 -33.6314 -33.5921 -33.5693 -33.5519 -33.5439 -33.5359
   -33.5306 -33.5184 -33.5152 -33.4980 -33.4901 -33.4737 -33.4649 -33.4451
   -33.3357 -33.3300 -33.3165 -33.3141 -33.3109 -33.3049 -33.2806 -33.2612
   -33.2474 -33.2391 -33.2379 -33.2270 -33.2034 -33.1996 -33.1475 -33.1347
   -33.1137 -33.0771 -33.0570 -33.0301 -33.0165 -32.9962 -32.9765 -32.9125
   -18.4130 -17.9788 -17.7642 -17.6836 -17.6081 -17.5085 -17.4386 -17.3740
   -17.3281 -17.2900 -17.0981 -17.0055 -16.9973 -16.9759 -16.9288 -16.8778
   -16.7985 -16.7756 -16.7629 -16.7376 -16.7091 -16.6832 -16.6199 -16.5687
   -16.4820 -16.4454 -16.4083 -16.3865 -16.3597 -16.1684 -16.1304 -15.6155
   -15.5661 -11.1540  -5.9644  -5.4145  -5.2052  -5.1340  -5.0256  -4.9563
    -4.9270  -4.8967  -4.8095  -4.7312  -4.6704  -4.6555  -4.5285  -4.5175
    -4.4184  -4.3787  -4.3648  -4.3249  -4.2596  -4.2145  -4.2010  -4.1797
    -4.1016  -4.0691  -4.0186  -4.0011  -3.9801  -3.9728  -3.9235  -3.8545
    -3.8164  -3.7648  -3.7556  -3.7163  -3.6804  -3.6062  -3.5505  -3.4376
    -3.4023  -3.3230  -3.3022  -3.3005  -3.2695  -3.1252  -3.1060  -2.9465
    -2.9056  -2.8841  -2.8025  -2.7501  -2.7459  -2.7226  -2.6886  -2.6533
    -2.5997  -2.5190  -2.4596  -2.4442  -2.4168  -2.2814  -2.2569  -2.2247
    -2.2140  -2.1546  -2.1461  -2.0300  -1.9854  -1.9593  -1.9272  -1.9143
    -1.8750  -1.7690  -1.7598  -1.7205  -1.6819  -1.6112  -1.5839  -1.5735
    -1.5031  -1.4619  -1.3925  -1.3803  -1.3767  -1.3594  -1.2863  -1.2730
    -1.2367  -1.1765  -1.1478  -1.0714  -0.9949  -0.9550  -0.9296  -0.8985
    -0.8779  -0.8408  -0.7310  -0.6010  -0.5744  -0.5607  -0.5408  -0.2292
     1.1574   1.1626   1.4177   1.8311   1.8754   1.8929   1.9255   2.0019
     2.0603   2.0783   2.2995   2.3076   2.3406   2.4575   2.4935   2.5140
     2.5218   2.5435   2.5484   2.5968   2.7140   2.7314   2.8016   2.8132
     2.8351   2.8998   2.9359   2.9644   2.9808   2.9937   3.0146   3.0657
     3.0859   3.1220   3.1758   3.2343   3.2466   3.3269   3.4356   3.4764
     3.5122   3.5430   3.5639   3.5878   3.6432   3.6668   3.7863   3.9073
     4.0573   4.2027   4.2820   4.5258   4.7040   4.7073   4.8139   4.9097
     5.1114   5.1728   5.2554   5.3023   5.3725   5.4116   5.4343   5.4784
     5.5065   5.5346   5.5487   5.6606   5.7041   5.7131   5.8224   5.8837
     5.9454   5.9913   6.0369   6.0505   6.1804   6.2510   6.3879   6.4330
     6.4507   6.5536   6.7253   6.8159   7.3210   7.4528   7.9968   8.0655
     8.3435   8.4979   8.5288   8.7021   8.7802   8.9870   9.1027   9.3058
     9.3682   9.4389   9.5162

          k = 0.0000 0.0560 0.0000 ( 34721 PWs)   bands (ev):

   -58.2973 -58.2798 -57.3828 -57.3755 -57.3580 -57.3149 -57.2591 -57.0903
   -57.0652 -57.0531 -57.0280 -56.9133 -56.8970 -56.8957 -56.7933 -56.7733
   -34.6559 -34.5674 -34.5529 -34.4892 -34.4609 -34.4417 -33.7878 -33.7757
   -33.6811 -33.6563 -33.6147 -33.5925 -33.5917 -33.5858 -33.5711 -33.5678
   -33.5398 -33.5306 -33.5134 -33.4948 -33.4717 -33.4670 -33.4634 -33.4110
   -33.3703 -33.3258 -33.3232 -33.3080 -33.2821 -33.2721 -33.2568 -33.2565
   -33.2557 -33.2468 -33.2437 -33.2257 -33.2191 -33.2091 -33.1647 -33.1332
   -33.1185 -33.0742 -33.0736 -33.0504 -33.0296 -33.0164 -33.0082 -32.9830
   -18.2519 -17.8141 -17.7918 -17.6343 -17.6008 -17.4108 -17.3917 -17.3736
   -17.3079 -17.2657 -17.2313 -17.0449 -16.9882 -16.9214 -16.9177 -16.9004
   -16.8416 -16.8170 -16.7287 -16.7053 -16.6997 -16.6744 -16.6232 -16.5613
   -16.5147 -16.5093 -16.4531 -16.4413 -16.4150 -16.2348 -16.2104 -15.6440
   -15.6197 -11.1557  -5.7250  -5.1816  -5.0459  -4.9891  -4.9530  -4.9149
    -4.8486  -4.8326  -4.8153  -4.7709  -4.7334  -4.5539  -4.5082  -4.4656
    -4.3939  -4.3928  -4.3512  -4.3202  -4.3057  -4.2877  -4.2496  -4.2135
    -4.2089  -4.1917  -4.1307  -4.0585  -4.0153  -3.9741  -3.9658  -3.9083
    -3.8727  -3.8150  -3.7477  -3.6785  -3.6227  -3.5371  -3.4113  -3.4035
    -3.3635  -3.2844  -3.2456  -3.1344  -3.0885  -3.0702  -3.0385  -3.0113
    -2.9678  -2.9574  -2.8262  -2.7970  -2.7396  -2.6951  -2.6500  -2.5554
    -2.4832  -2.4743  -2.4413  -2.3547  -2.3021  -2.2966  -2.2217  -2.1881
    -2.1534  -2.1391  -2.1189  -2.0861  -2.0538  -2.0102  -1.9953  -1.9694
    -1.9335  -1.8916  -1.8813  -1.8608  -1.8120  -1.7520  -1.6569  -1.6066
    -1.5952  -1.5779  -1.5123  -1.4736  -1.4519  -1.4463  -1.4313  -1.3767
    -1.2921  -1.2712  -1.2147  -1.1953  -1.0897  -1.0034  -0.9783  -0.9443
    -0.8597  -0.8361  -0.7379  -0.7158  -0.6207  -0.5823  -0.5644  -0.3325
     1.2864   1.4281   1.5007   1.7220   1.7987   1.8917   1.9623   2.0601
     2.1407   2.2763   2.2814   2.3331   2.4171   2.4866   2.5059   2.5318
     2.5726   2.6122   2.6626   2.7091   2.7529   2.7703   2.8014   2.8496
     2.8652   2.8841   2.8940   2.9634   3.0100   3.0282   3.0371   3.0639
     3.1250   3.1583   3.1818   3.2603   3.3082   3.3396   3.3866   3.4348
     3.4720   3.4879   3.5634   3.6117   3.6744   3.6857   3.7251   3.8015
     3.9241   4.1592   4.3254   4.6528   4.7430   4.8432   4.9349   5.0730
     5.0789   5.1762   5.2827   5.3340   5.4023   5.4378   5.4711   5.4999
     5.5004   5.5619   5.5818   5.6481   5.6532   5.7535   5.7724   5.8122
     5.8475   5.8677   5.8888   5.9315   6.1177   6.1579   6.2973   6.3701
     6.4234   6.4426   6.7202   6.7485   6.9977   7.2129   7.6143   7.7456
     8.2029   8.3784   8.7057   8.8212   8.8311   8.8800   9.1773   9.3344
     9.4046   9.6021   9.7071

          k = 0.0000-0.0840 0.0000 ( 34678 PWs)   bands (ev):

   -58.2892 -58.2879 -57.3812 -57.3691 -57.3648 -57.3160 -57.2587 -57.0901
   -57.0655 -57.0498 -57.0314 -56.9048 -56.9042 -56.8972 -56.7866 -56.7801
   -34.5610 -34.5601 -34.5591 -34.5585 -34.4661 -34.4649 -33.7039 -33.6908
   -33.6872 -33.6484 -33.6471 -33.6413 -33.6096 -33.5935 -33.5895 -33.5787
   -33.5382 -33.5325 -33.5129 -33.5040 -33.4687 -33.4621 -33.4003 -33.3851
   -33.3807 -33.3648 -33.3271 -33.3226 -33.3049 -33.2743 -33.2612 -33.2524
   -33.2503 -33.2498 -33.2255 -33.2222 -33.1738 -33.1500 -33.1492 -33.1411
   -33.1284 -33.1260 -33.0965 -33.0958 -33.0300 -33.0219 -33.0190 -33.0130
   -18.0268 -18.0260 -17.5942 -17.5850 -17.5112 -17.4876 -17.4873 -17.3969
   -17.2599 -17.2191 -17.1315 -17.1060 -17.0743 -17.0391 -16.8938 -16.8466
   -16.8096 -16.8092 -16.8078 -16.6765 -16.6147 -16.6114 -16.6050 -16.5812
   -16.5490 -16.5265 -16.5090 -16.4771 -16.4678 -16.2773 -16.2518 -15.6533
   -15.6532 -11.1566  -5.3855  -5.3852  -4.9108  -4.8892  -4.8883  -4.8755
    -4.8533  -4.7717  -4.7602  -4.7209  -4.6603  -4.6059  -4.5684  -4.5620
    -4.4930  -4.4709  -4.4477  -4.3934  -4.3776  -4.2675  -4.2553  -4.2475
    -4.1603  -4.1185  -4.0683  -4.0329  -3.9945  -3.9035  -3.8855  -3.8580
    -3.7806  -3.7214  -3.6995  -3.6737  -3.6506  -3.6346  -3.6214  -3.4098
    -3.3609  -3.3472  -3.1491  -3.0787  -3.0729  -3.0291  -2.9304  -2.9282
    -2.9192  -2.8513  -2.8284  -2.7931  -2.7744  -2.6943  -2.6711  -2.6443
    -2.5225  -2.5039  -2.4216  -2.4051  -2.3973  -2.3753  -2.3124  -2.2413
    -2.2282  -2.1668  -2.1205  -2.0580  -2.0068  -1.9812  -1.9771  -1.9717
    -1.9674  -1.9426  -1.8387  -1.7998  -1.7797  -1.7297  -1.6935  -1.6579
    -1.6421  -1.6113  -1.5925  -1.5187  -1.5089  -1.4666  -1.4471  -1.4243
    -1.3833  -1.3326  -1.2796  -1.1796  -1.1391  -1.1179  -1.0918  -1.0633
    -0.8393  -0.8160  -0.6185  -0.6095  -0.6045  -0.5964  -0.5475  -0.4989
     1.4826   1.4853   1.6348   1.6355   1.7145   1.7154   2.0855   2.0863
     2.1494   2.2044   2.3750   2.4098   2.4464   2.4924   2.5401   2.5475
     2.6548   2.6667   2.6762   2.6898   2.7416   2.7523   2.8094   2.8126
     2.9125   2.9475   2.9912   3.0188   3.0238   3.0268   3.0332   3.0367
     3.0439   3.2251   3.2347   3.2655   3.2978   3.3399   3.3661   3.3963
     3.4337   3.4485   3.5032   3.6256   3.6952   3.7344   3.7489   3.7908
     3.8459   4.0361   4.3779   4.7570   4.8325   4.8662   4.8669   5.0526
     5.1446   5.2242   5.3148   5.3307   5.3653   5.4082   5.4688   5.5439
     5.5650   5.5969   5.5997   5.6867   5.6994   5.7187   5.7293   5.7429
     5.7679   5.8087   5.8423   5.9427   6.0254   6.1581   6.2812   6.3855
     6.4604   6.4766   6.5893   6.6080   6.9326   6.9843   7.4525   7.6136
     8.0362   8.2400   8.7167   8.9187   9.1272   9.2114   9.3469   9.3484
     9.4440   9.6147   9.7028

          k = 0.0253 0.0000 0.0000 ( 34707 PWs)   bands (ev):

   -58.3060 -58.2710 -57.3876 -57.3827 -57.3492 -57.3116 -57.2602 -57.0910
   -57.0645 -57.0596 -57.0210 -56.9221 -56.8963 -56.8868 -56.8025 -56.7641
   -34.7516 -34.5746 -34.5459 -34.5118 -34.4177 -34.3608 -33.8832 -33.8726
   -33.7527 -33.6717 -33.6375 -33.5947 -33.5660 -33.5558 -33.5518 -33.5433
   -33.5314 -33.5199 -33.4908 -33.4897 -33.4740 -33.4714 -33.4693 -33.4518
   -33.3414 -33.3384 -33.3298 -33.3286 -33.3131 -33.2883 -33.2832 -33.2640
   -33.2479 -33.2372 -33.2367 -33.2276 -33.1977 -33.1773 -33.1407 -33.1398
   -33.1013 -33.0805 -33.0508 -33.0341 -33.0158 -32.9914 -32.9492 -32.8839
   -18.4267 -18.0006 -17.7924 -17.7863 -17.5629 -17.4586 -17.4509 -17.3854
   -17.3638 -17.3231 -17.1084 -17.0400 -17.0150 -16.9814 -16.9289 -16.8940
   -16.8598 -16.7960 -16.7663 -16.7442 -16.6403 -16.5984 -16.5886 -16.5809
   -16.4661 -16.4453 -16.4020 -16.3851 -16.3251 -16.1478 -16.0890 -15.6004
   -15.5404 -11.1530  -5.9250  -5.3922  -5.2164  -5.2010  -5.0758  -5.0261
    -4.9717  -4.9205  -4.8812  -4.7363  -4.6998  -4.5854  -4.5816  -4.5140
    -4.4863  -4.4106  -4.3293  -4.2651  -4.2598  -4.2004  -4.1948  -4.1068
    -4.0314  -3.9986  -3.9916  -3.9168  -3.9014  -3.8597  -3.8496  -3.7981
    -3.7365  -3.7147  -3.6281  -3.5979  -3.5560  -3.5526  -3.5248  -3.4955
    -3.4421  -3.4178  -3.3204  -3.3159  -3.2753  -3.2591  -3.2388  -3.1528
    -3.0138  -2.9028  -2.8397  -2.8195  -2.7714  -2.7447  -2.7022  -2.6716
    -2.6129  -2.5595  -2.5413  -2.4991  -2.4362  -2.3832  -2.3342  -2.2677
    -2.2492  -2.1999  -2.0918  -2.0470  -2.0062  -1.9575  -1.8842  -1.8520
    -1.8287  -1.7992  -1.7139  -1.6260  -1.5801  -1.5723  -1.5464  -1.5104
    -1.4789  -1.4342  -1.4301  -1.3942  -1.3354  -1.3051  -1.2933  -1.2229
    -1.1876  -1.1570  -1.1071  -1.0832  -1.0431  -1.0240  -0.9576  -0.9129
    -0.8357  -0.8282  -0.6719  -0.6450  -0.6081  -0.5902  -0.5588  -0.2476
     1.1073   1.1219   1.4155   1.7824   1.8186   1.9037   1.9301   2.0492
     2.0851   2.1170   2.2035   2.2443   2.3376   2.3833   2.4413   2.5052
     2.5275   2.5962   2.6283   2.6475   2.6778   2.7023   2.8117   2.8258
     2.8456   2.8493   2.8909   2.9000   2.9451   3.0271   3.0748   3.1337
     3.1902   3.2021   3.2153   3.2169   3.2416   3.3087   3.4066   3.4414
     3.4881   3.5438   3.5920   3.6341   3.6993   3.7640   3.7851   3.9086
     4.0515   4.1916   4.2638   4.4253   4.5813   4.6230   4.8093   4.8278
     4.9596   4.9837   5.0869   5.1706   5.3035   5.3164   5.4277   5.5288
     5.5576   5.7092   5.7415   5.9049   5.9130   5.9382   5.9619   5.9865
     6.0235   6.0328   6.0695   6.1694   6.2284   6.2608   6.4395   6.4957
     6.5428   6.6176   6.7402   6.8090   7.2608   7.6726   7.7587   8.0203
     8.2261   8.3008   8.3786   8.6887   8.7584   8.9676   9.1076   9.2143
     9.4006   9.4996   9.7713

          k = 0.0253 0.0280 0.0000 ( 34687 PWs)   bands (ev):

   -58.3037 -58.2733 -57.3859 -57.3810 -57.3516 -57.3126 -57.2598 -57.0907
   -57.0646 -57.0579 -57.0230 -56.9197 -56.8965 -56.8892 -56.8000 -56.7666
   -34.7262 -34.5727 -34.5478 -34.5056 -34.4241 -34.3879 -33.8578 -33.8472
   -33.7318 -33.6656 -33.6313 -33.5922 -33.5665 -33.5523 -33.5489 -33.5393
   -33.5311 -33.5194 -33.5177 -33.4976 -33.4902 -33.4676 -33.4653 -33.4458
   -33.3359 -33.3259 -33.3164 -33.3162 -33.3068 -33.3047 -33.2807 -33.2622
   -33.2516 -33.2385 -33.2379 -33.2286 -33.2030 -33.1996 -33.1456 -33.1347
   -33.1140 -33.0771 -33.0569 -33.0322 -33.0168 -32.9962 -32.9765 -32.9125
   -18.3694 -17.9422 -17.7748 -17.7387 -17.5223 -17.5200 -17.4120 -17.3672
   -17.3504 -17.3187 -17.1127 -17.0696 -16.9985 -16.9675 -16.9182 -16.8766
   -16.8300 -16.8041 -16.7949 -16.7326 -16.6697 -16.6659 -16.6127 -16.5495
   -16.4876 -16.4651 -16.4101 -16.4050 -16.3567 -16.1666 -16.1310 -15.6145
   -15.5661 -11.1539  -5.8400  -5.3087  -5.1433  -5.1273  -4.9926  -4.9555
    -4.9251  -4.9052  -4.8204  -4.6972  -4.6762  -4.6350  -4.5328  -4.4973
    -4.4386  -4.4007  -4.3125  -4.2934  -4.2432  -4.2070  -4.1825  -4.1546
    -4.1262  -4.0944  -4.0318  -3.9965  -3.9531  -3.9399  -3.8983  -3.8218
    -3.7882  -3.7495  -3.7237  -3.6696  -3.6269  -3.6001  -3.5181  -3.3984
    -3.3446  -3.3225  -3.3122  -3.2664  -3.2352  -3.1905  -3.1166  -3.0956
    -2.9295  -2.8931  -2.8395  -2.7787  -2.7496  -2.7095  -2.6776  -2.6386
    -2.6096  -2.5224  -2.4999  -2.4702  -2.4504  -2.3828  -2.3295  -2.3046
    -2.2282  -2.1884  -2.1286  -2.0643  -2.0142  -1.9537  -1.9368  -1.9090
[...]
    -1.7298  -1.5072  -1.4654  -1.4546  -1.4355  -1.3981  -1.3190  -1.1545
    -1.1445  -1.0877  -1.0703  -1.0538  -0.9710  -0.9111  -0.8718  -0.7874
    -0.7338  -0.7269  -0.6979  -0.6705  -0.5952  -0.5737  -0.5598   0.2966
     1.6015   1.6050   1.6176   1.6229   1.9654   1.9662   2.0951   2.0961
     2.2787   2.2994   2.3127   2.3944   2.4175   2.4875   2.5737   2.6336
     2.6555   2.7001   2.7836   2.8168   2.8741   2.9258   2.9478   2.9757
     2.9905   2.9988   3.0398   3.0978   3.1123   3.2092   3.2347   3.2439
     3.2596   3.2832   3.3408   3.3870   3.4004   3.4059   3.4620   3.4733
     3.4834   3.5113   3.5258   3.5800   3.6372   3.6534   3.7766   3.8772
     3.9139   3.9234   4.1403   4.1407   4.5916   4.6199   4.6423   4.7277
     4.8827   4.8989   4.9317   5.0818   5.1606   5.1655   5.1852   5.4465
     5.6734   5.6823   5.6938   5.9264   5.9317   5.9655   6.0157   6.0186
     6.0933   6.1058   6.1746   6.2665   6.2707   6.2787   6.3831   6.4603
     6.4991   6.6056   7.0677   7.2325   7.3408   7.3940   7.5555   7.5899
     7.7172   7.7699   7.9263   8.1122   8.2941   8.3434   8.4520   8.8704
     9.0009   9.0650   9.2139

          k =-0.0253 0.0280 0.0000 ( 34687 PWs)   bands (ev):

   -58.3039 -58.2735 -57.3859 -57.3810 -57.3516 -57.3127 -57.2607 -57.0948
   -57.0658 -57.0591 -57.0242 -56.9209 -56.9205 -56.8900 -56.8036 -56.7702
   -34.7263 -34.5729 -34.5480 -34.5058 -34.4242 -34.3880 -33.8578 -33.8472
   -33.7327 -33.6656 -33.6313 -33.5924 -33.5664 -33.5524 -33.5489 -33.5400
   -33.5319 -33.5194 -33.5177 -33.4977 -33.4911 -33.4682 -33.4669 -33.4481
   -33.3367 -33.3276 -33.3200 -33.3172 -33.3120 -33.3060 -33.2822 -33.2628
   -33.2523 -33.2394 -33.2392 -33.2304 -33.2126 -33.2037 -33.1658 -33.1355
   -33.1323 -33.0804 -33.0577 -33.0399 -33.0209 -32.9995 -32.9772 -32.9152
   -18.3691 -17.9399 -17.7746 -17.7324 -17.5216 -17.5151 -17.3738 -17.3671
   -17.3437 -17.3140 -17.1103 -17.0674 -16.9827 -16.9376 -16.8717 -16.8293
   -16.7909 -16.7484 -16.7313 -16.6679 -16.6614 -16.5809 -16.5426 -16.4839
   -16.4598 -16.4043 -16.3642 -16.3464 -16.1559 -16.1219 -15.8800 -15.6109
   -15.5622 -10.7535  -5.8399  -5.3085  -5.1424  -5.1241  -4.9924  -4.9514
    -4.9125  -4.8232  -4.6972  -4.6763  -4.6351  -4.5349  -4.4970  -4.4405
    -4.4069  -4.3123  -4.2888  -4.2486  -4.1995  -4.1807  -4.1401  -4.1257
    -4.0918  -4.0450  -4.0074  -3.9903  -3.9526  -3.9118  -3.8766  -3.7977
    -3.7827  -3.7229  -3.6872  -3.6210  -3.6042  -3.5547  -3.4821  -3.3880
    -3.3428  -3.3192  -3.2806  -3.2615  -3.2228  -3.1801  -3.1111  -3.0951
    -2.9191  -2.8807  -2.8212  -2.7766  -2.7205  -2.6835  -2.6733  -2.6163
    -2.5858  -2.5079  -2.4986  -2.4412  -2.4069  -2.3573  -2.2870  -2.2645
    -2.2122  -2.1915  -2.1032  -2.0415  -1.9587  -1.9397  -1.9153  -1.8494
    -1.8383  -1.7902  -1.7444  -1.6841  -1.6348  -1.5941  -1.5614  -1.5092
    -1.4756  -1.4349  -1.4058  -1.3797  -1.3610  -1.3450  -1.3136  -1.2896
    -1.2043  -1.1240  -1.0626  -1.0098  -0.9862  -0.9528  -0.9285  -0.8841
    -0.8421  -0.8195  -0.6308  -0.6090  -0.5847  -0.5213  -0.2643   0.3204
     1.1534   1.2470   1.4310   1.8203   1.8597   1.9269   1.9633   2.0308
     2.0418   2.1909   2.3018   2.3476   2.3890   2.4322   2.4555   2.5054
     2.5256   2.5498   2.5906   2.6510   2.6989   2.7233   2.7787   2.8333
     2.8780   2.9154   2.9319   2.9752   2.9922   3.0160   3.0419   3.0949
     3.1718   3.1924   3.2349   3.2600   3.2958   3.3380   3.4313   3.4664
     3.4964   3.5588   3.6128   3.6436   3.6651   3.7454   3.8231   3.8666
     4.0134   4.2102   4.2867   4.4373   4.6264   4.7238   4.8453   4.8625
     5.0030   5.0269   5.1140   5.1994   5.2425   5.3577   5.4619   5.5495
     5.6612   5.6963   5.7160   5.8043   5.8513   5.8845   5.9106   5.9329
     5.9679   5.9908   6.0661   6.1259   6.1764   6.2836   6.3996   6.4496
     6.4633   6.5820   6.7544   6.8089   7.3792   7.4853   7.7949   7.8910
     8.0936   8.2325   8.4890   8.5345   8.7850   8.8910   9.0782   9.3098
     9.3726   9.5206   9.6152

          k =-0.0253 0.0560 0.0000 ( 34699 PWs)   bands (ev):

   -58.2975 -58.2800 -57.3827 -57.3756 -57.3580 -57.3149 -57.2599 -57.0943
   -57.0663 -57.0545 -57.0292 -56.9214 -56.9141 -56.8965 -56.7969 -56.7770
   -34.6564 -34.5676 -34.5532 -34.4888 -34.4612 -34.4417 -33.7880 -33.7780
   -33.6820 -33.6503 -33.6146 -33.5910 -33.5870 -33.5860 -33.5746 -33.5678
   -33.5414 -33.5315 -33.5181 -33.4961 -33.4833 -33.4656 -33.4553 -33.4140
   -33.3716 -33.3247 -33.3212 -33.3122 -33.2840 -33.2745 -33.2580 -33.2579
   -33.2571 -33.2475 -33.2441 -33.2310 -33.2219 -33.2143 -33.1810 -33.1616
   -33.1192 -33.0775 -33.0743 -33.0511 -33.0368 -33.0233 -33.0116 -32.9857
   -18.2114 -17.8015 -17.7796 -17.6109 -17.5997 -17.4555 -17.3930 -17.3691
   -17.2480 -17.2408 -17.2031 -17.0574 -16.9477 -16.9189 -16.8806 -16.8396
   -16.7969 -16.7432 -16.7325 -16.7172 -16.6833 -16.5968 -16.5475 -16.5308
   -16.4995 -16.4407 -16.4107 -16.4058 -16.2187 -16.2025 -15.8788 -15.6396
   -15.6160 -10.7554  -5.6047  -5.0811  -5.0236  -4.9554  -4.9231  -4.8167
    -4.7947  -4.7574  -4.6872  -4.6724  -4.5254  -4.5086  -4.4455  -4.3949
    -4.3770  -4.3687  -4.3203  -4.2764  -4.2497  -4.2395  -4.2040  -4.1724
    -4.1308  -4.1210  -4.0539  -4.0190  -3.9904  -3.9540  -3.9271  -3.8895
    -3.8286  -3.7942  -3.6867  -3.5971  -3.5635  -3.5250  -3.4485  -3.3837
    -3.3613  -3.2873  -3.1870  -3.1589  -3.1176  -3.1097  -3.0578  -3.0237
    -2.9811  -2.9262  -2.8419  -2.7924  -2.7616  -2.7036  -2.6081  -2.5875
    -2.5235  -2.5096  -2.4553  -2.3905  -2.3753  -2.3173  -2.2995  -2.2580
    -2.1873  -2.1350  -2.1206  -2.0878  -2.0480  -2.0060  -1.9848  -1.9478
    -1.9305  -1.9053  -1.8925  -1.8453  -1.7672  -1.7018  -1.6892  -1.5928
    -1.5720  -1.5435  -1.5174  -1.4842  -1.4424  -1.4126  -1.3833  -1.3240
    -1.2888  -1.2216  -1.1547  -1.0333  -1.0037  -0.9694  -0.9370  -0.8567
    -0.7625  -0.7354  -0.7042  -0.6395  -0.6086  -0.5550  -0.3616   0.3015
     1.2877   1.4697   1.5650   1.7589   1.7743   1.9126   1.9794   2.0589
     2.2660   2.2767   2.3431   2.3794   2.4160   2.4882   2.5232   2.5490
     2.5736   2.5970   2.6547   2.7066   2.7219   2.7654   2.8080   2.8579
     2.8834   2.9184   2.9627   3.0077   3.0337   3.0471   3.0570   3.1106
     3.1599   3.1998   3.2189   3.2898   3.3185   3.3471   3.3787   3.4588
     3.5102   3.5355   3.6135   3.6351   3.6695   3.7274   3.7467   3.8001
     3.8962   4.1003   4.3943   4.5018   4.7170   4.8598   4.9110   4.9619
     4.9964   5.0908   5.1880   5.2088   5.3369   5.3888   5.4349   5.5294
     5.5650   5.6003   5.6529   5.7105   5.7399   5.8047   5.8211   5.8615
     5.9280   5.9437   5.9963   6.0909   6.1338   6.2124   6.3296   6.4324
     6.4588   6.4758   6.7195   6.7699   7.0753   7.2971   7.6734   7.8303
     8.0986   8.2342   8.3202   8.4928   8.7735   8.8990   9.0060   9.1722
     9.3753   9.5537   9.6433

          k =-0.0506 0.0280 0.0000 ( 34685 PWs)   bands (ev):

   -58.3039 -58.2735 -57.3850 -57.3818 -57.3516 -57.3127 -57.2606 -57.0948
   -57.0655 -57.0595 -57.0242 -56.9208 -56.9205 -56.8900 -56.8036 -56.7702
   -34.7271 -34.5729 -34.5480 -34.5042 -34.4242 -34.3881 -33.8582 -33.8513
   -33.7329 -33.6460 -33.6311 -33.5925 -33.5716 -33.5543 -33.5529 -33.5453
   -33.5321 -33.5268 -33.5165 -33.4975 -33.4912 -33.4681 -33.4559 -33.4492
   -33.3369 -33.3211 -33.3195 -33.3170 -33.3073 -33.3057 -33.2823 -33.2648
   -33.2622 -33.2394 -33.2382 -33.2333 -33.2128 -33.2031 -33.1617 -33.1354
   -33.1326 -33.0805 -33.0577 -33.0468 -33.0193 -32.9995 -32.9773 -32.9152
   -18.2608 -17.8627 -17.8502 -17.6996 -17.5863 -17.4542 -17.4366 -17.3430
   -17.3159 -17.2490 -17.1789 -17.0848 -16.9954 -16.9502 -16.9214 -16.8944
   -16.8085 -16.7660 -16.7548 -16.6949 -16.6321 -16.5482 -16.5210 -16.4882
   -16.4598 -16.4052 -16.3882 -16.3514 -16.1524 -16.1223 -15.8808 -15.6090
   -15.5623 -10.7533  -5.5386  -5.1859  -5.1527  -5.1194  -4.9479  -4.8683
    -4.7664  -4.7084  -4.6812  -4.6510  -4.6000  -4.5858  -4.5316  -4.4060
    -4.3616  -4.3214  -4.2404  -4.2144  -4.1792  -4.1641  -4.1472  -4.0550
    -4.0282  -4.0101  -3.9728  -3.9263  -3.8837  -3.8377  -3.8114  -3.7752
    -3.7200  -3.6699  -3.6417  -3.5908  -3.5571  -3.5236  -3.4821  -3.4527
    -3.3770  -3.3650  -3.2917  -3.2638  -3.2027  -3.1447  -3.1165  -3.0569
    -3.0083  -2.9791  -2.9013  -2.8339  -2.7558  -2.6974  -2.6880  -2.6643
    -2.6155  -2.5929  -2.5790  -2.5242  -2.5154  -2.3910  -2.3398  -2.3316
    -2.2687  -2.1998  -2.1846  -2.1580  -2.0797  -2.0095  -2.0031  -1.9422
    -1.9229  -1.8930  -1.8095  -1.7211  -1.7080  -1.6835  -1.6140  -1.5851
    -1.5225  -1.4750  -1.4530  -1.3932  -1.3780  -1.3267  -1.3109  -1.2596
    -1.2430  -1.1197  -1.0569  -1.0337  -1.0098  -0.9557  -0.9234  -0.8756
    -0.8272  -0.7959  -0.7196  -0.6806  -0.6593  -0.5351  -0.3904   0.3052
     1.1403   1.3403   1.4654   1.5662   1.9341   1.9442   1.9666   2.0585
     2.1246   2.1995   2.2543   2.3301   2.4059   2.4401   2.5288   2.5463
     2.5928   2.6513   2.6878   2.7015   2.7552   2.8287   2.8516   2.8822
     2.9405   2.9467   2.9804   2.9850   2.9916   3.1024   3.1093   3.1380
     3.1857   3.2148   3.2893   3.3102   3.3560   3.3832   3.4070   3.4554
     3.4699   3.5475   3.6020   3.6671   3.7430   3.7793   3.7991   3.9005
     3.9589   4.0617   4.1096   4.4083   4.5106   4.6563   4.7481   4.8092
     4.8422   4.9143   4.9666   5.2887   5.3297   5.4124   5.5275   5.5593
     5.6405   5.7670   5.7870   5.8540   5.8993   5.9135   5.9654   6.0563
     6.0942   6.1656   6.2504   6.3345   6.3870   6.4013   6.4433   6.4901
     6.5414   6.5519   6.7109   6.9185   7.0731   7.2214   7.5509   7.6108
     7.7269   8.2148   8.4138   8.4871   8.8680   8.9347   9.0651   9.2232
     9.4223   9.6040   9.6778

          k =-0.0506 0.0560 0.0000 ( 34596 PWs)   bands (ev):

   -58.2975 -58.2799 -57.3823 -57.3760 -57.3580 -57.3150 -57.2599 -57.0943
   -57.0661 -57.0546 -57.0292 -56.9214 -56.9141 -56.8965 -56.7969 -56.7770
   -34.6570 -34.5676 -34.5531 -34.4874 -34.4614 -34.4412 -33.7883 -33.7825
   -33.6821 -33.6345 -33.6144 -33.5902 -33.5886 -33.5858 -33.5690 -33.5678
   -33.5448 -33.5317 -33.5302 -33.4963 -33.4926 -33.4657 -33.4437 -33.4157
   -33.3719 -33.3245 -33.3099 -33.3075 -33.2865 -33.2767 -33.2591 -33.2579
   -33.2567 -33.2473 -33.2437 -33.2410 -33.2225 -33.2146 -33.1804 -33.1574
   -33.1192 -33.0776 -33.0743 -33.0510 -33.0411 -33.0239 -33.0115 -32.9856
   -18.1082 -17.8192 -17.7017 -17.6138 -17.5976 -17.5577 -17.3806 -17.3692
   -17.2190 -17.2067 -17.1174 -17.0952 -16.9778 -16.9124 -16.8678 -16.8427
   -16.8238 -16.8077 -16.7621 -16.7360 -16.7211 -16.6273 -16.5970 -16.5068
   -16.4964 -16.4382 -16.4210 -16.4113 -16.2180 -16.1990 -15.8787 -15.6383
   -15.6164 -10.7552  -5.3021  -4.9921  -4.9414  -4.9334  -4.7835  -4.7758
    -4.7168  -4.6399  -4.5267  -4.5067  -4.5010  -4.4181  -4.4036  -4.3811
    -4.3614  -4.3277  -4.3096  -4.2481  -4.2004  -4.1764  -4.1662  -4.1136
    -4.1026  -4.0566  -4.0437  -3.9931  -3.9796  -3.9035  -3.8846  -3.8267
    -3.7787  -3.7052  -3.6719  -3.6152  -3.5832  -3.5510  -3.4912  -3.4312
    -3.3918  -3.3187  -3.2602  -3.2312  -3.1341  -3.1275  -3.0796  -3.0506
    -2.9957  -2.9779  -2.9581  -2.9008  -2.7997  -2.7633  -2.7489  -2.7061
    -2.6296  -2.5871  -2.5452  -2.5020  -2.4785  -2.4145  -2.3893  -2.3695
    -2.3511  -2.2901  -2.1946  -2.1721  -2.1470  -2.1288  -2.1026  -2.0481
    -2.0133  -1.9717  -1.9441  -1.8707  -1.8486  -1.7819  -1.7311  -1.6568
    -1.5664  -1.5490  -1.5385  -1.4967  -1.4437  -1.3851  -1.3530  -1.3062
    -1.2441  -1.1751  -1.0771  -1.0218  -0.9883  -0.9032  -0.8526  -0.8453
    -0.7934  -0.7066  -0.6922  -0.6710  -0.6559  -0.5531  -0.4755   0.3038
     1.3083   1.4979   1.6467   1.6684   1.8531   2.0041   2.0327   2.0679
     2.2437   2.2565   2.3605   2.3769   2.4333   2.4619   2.5485   2.5855
     2.6508   2.6959   2.7300   2.7447   2.8119   2.8431   2.8714   2.9038
     2.9346   2.9515   3.0070   3.0421   3.0727   3.1139   3.1454   3.1911
     3.1961   3.2505   3.2850   3.3250   3.3342   3.3773   3.4165   3.4675
     3.4818   3.5495   3.5790   3.6416   3.6681   3.7446   3.8045   3.8403
     3.8835   3.9603   4.1530   4.5049   4.5970   4.6165   4.7549   4.8224
     4.8891   4.9654   5.0105   5.1871   5.3022   5.3763   5.4119   5.4445
     5.5946   5.6168   5.6684   5.7175   5.8798   5.8972   5.9878   6.0065
     6.0680   6.1090   6.1697   6.2067   6.3137   6.3370   6.4126   6.4237
     6.5408   6.6147   6.7627   6.8083   7.1861   7.3584   7.5079   7.6202
     7.9372   8.0146   8.1043   8.3779   8.6096   8.7171   8.8026   9.0396
     9.1867   9.3274   9.4332

     the Fermi energy is    -0.2908 ev

!    total energy              =   -3021.14948870 Ry
     Harris-Foulkes estimate   =   -3021.14948871 Ry
     estimated scf accuracy    <       0.00000028 Ry

     The total energy is the sum of the following terms:

     one-electron contribution =  -40438.36622974 Ry
     hartree contribution      =   20290.53941130 Ry
     xc contribution           =    -553.19728484 Ry
     ewald contribution        =   17679.89442047 Ry
     smearing contrib. (-TS)   =      -0.01980589 Ry

     total magnetization       =     1.06 Bohr mag/cell
     absolute magnetization    =     1.23 Bohr mag/cell

     convergence has been achieved in  10 iterations

     Forces acting on atoms (Ry/au):


     negative rho (up, down):  1.189E-02 1.195E-02
     atom    1 type  1   force =     0.00018583   -0.00090023   -0.10468732
     atom    2 type  2   force =     0.00014345    0.00068117    0.04003353
     atom    3 type  1   force =     0.00074939   -0.00175268   -0.02053830
     atom    4 type  2   force =    -0.00326711    0.00312330   -0.00323444
     atom    5 type  1   force =     0.00034907    0.00006725    0.00034351
     atom    6 type  2   force =    -0.00013313   -0.00010108    0.00022696
     atom    7 type  1   force =    -0.00021940   -0.00001847   -0.00028641
     atom    8 type  2   force =    -0.00019271   -0.00015097   -0.00020540
     atom    9 type  1   force =    -0.00003432    0.00056650   -0.10482169
     atom   10 type  2   force =     0.00034961   -0.00021392    0.03600456
     atom   11 type  1   force =     0.00067984    0.00183863    0.00261892
     atom   12 type  2   force =    -0.00519507   -0.00266849   -0.00519800
     atom   13 type  1   force =     0.00041756    0.00008958   -0.00023363
     atom   14 type  2   force =     0.00013087   -0.00008099   -0.00008510
     atom   15 type  1   force =    -0.00001199   -0.00006684    0.00020259
     atom   16 type  2   force =    -0.00026337    0.00001840   -0.00036383
     atom   17 type  2   force =     0.00000974   -0.00001467    0.06657471
     atom   18 type  1   force =     0.00005891    0.00003068    0.13147364
     atom   19 type  2   force =     0.00017806   -0.00052906   -0.08521150
     atom   20 type  2   force =    -0.05792586    0.00014130   -0.03607737
     atom   21 type  2   force =     0.05781737   -0.00004874   -0.03603566
     atom   22 type  1   force =    -0.00042887    0.00075054    0.08017331
     atom   23 type  2   force =     0.00019896   -0.00004935    0.00003528
     atom   24 type  2   force =     0.00064319    0.00185783   -0.03467054
     atom   25 type  2   force =     0.00414173    0.00332507   -0.00510582
     atom   26 type  1   force =     0.00040745   -0.00004813    0.00006574
     atom   27 type  2   force =    -0.00009304   -0.00012837    0.00008807
     atom   28 type  2   force =     0.00004669   -0.00019532   -0.00001740
     atom   29 type  2   force =     0.00001039   -0.00007509    0.00007755
     atom   30 type  1   force =    -0.00025377   -0.00006711   -0.00004319
     atom   31 type  2   force =     0.00012632   -0.00006923   -0.00003493
     atom   32 type  2   force =    -0.00006360   -0.00000322    0.00003368
     atom   33 type  2   force =    -0.00016515    0.00004868    0.06630951
     atom   34 type  1   force =     0.00007805   -0.00003428    0.13125524
     atom   35 type  2   force =     0.00018876   -0.00012933   -0.08482410
     atom   36 type  2   force =    -0.05781963    0.00006305   -0.03568832
     atom   37 type  2   force =     0.05799153   -0.00017673   -0.03608702
     atom   38 type  1   force =    -0.00037420   -0.00020485    0.07984493
     atom   39 type  2   force =     0.00007569   -0.00026319   -0.00008934
     atom   40 type  2   force =     0.00049147    0.00123993   -0.03527349
     atom   41 type  2   force =     0.00588875   -0.00243600   -0.00722971
     atom   42 type  1   force =     0.00024098   -0.00006789    0.00000814
     atom   43 type  2   force =    -0.00018867   -0.00009955    0.00010400
     atom   44 type  2   force =    -0.00000192   -0.00016294   -0.00002302
     atom   45 type  2   force =     0.00001193   -0.00016961    0.00005892
     atom   46 type  1   force =    -0.00015751   -0.00019859   -0.00014153
     atom   47 type  2   force =     0.00007365   -0.00012273    0.00006943
     atom   48 type  2   force =    -0.00010770   -0.00004399    0.00026377
     atom   49 type  2   force =    -0.00051913   -0.00055238   -0.00029650
     atom   50 type  3   force =     0.01357664    0.00878210   -0.00984180
     atom   51 type  4   force =    -0.01566270   -0.01080776    0.01035642
     atom   52 type  4   force =    -0.00191979   -0.00127742    0.00150829
     atom   53 type  4   force =    -0.00037104   -0.00007160   -0.00010450
     atom   54 type  4   force =     0.00010783    0.00137680   -0.00128085

     Total force =     0.343511     Total SCF correction =     0.000751
 !ASE

     Writing output data file calc.save
 
     init_run     :     64.80s CPU     77.33s WALL (       1 calls)
     electrons    :   2889.00s CPU   3426.89s WALL (       1 calls)
     forces       :     48.98s CPU     51.21s WALL (       1 calls)

     Called by init_run:
     wfcinit      :     56.89s CPU     68.59s WALL (       1 calls)
     potinit      :      1.46s CPU      1.72s WALL (       1 calls)

     Called by electrons:
     c_bands      :   2543.01s CPU   3021.74s WALL (      11 calls)
     sum_band     :    296.75s CPU    349.70s WALL (      11 calls)
     v_of_rho     :     13.65s CPU     16.72s WALL (      11 calls)
     newd         :     39.17s CPU     42.55s WALL (      11 calls)
     mix_rho      :      0.40s CPU      0.55s WALL (      11 calls)
     vdW_energy   :      2.53s CPU      2.96s WALL (      12 calls)
     vdW_ffts     :      4.83s CPU      5.85s WALL (      24 calls)
     vdW_v        :      1.40s CPU      1.63s WALL (      12 calls)

     Called by c_bands:
     init_us_2    :      6.76s CPU      7.39s WALL (     960 calls)
     cegterg      :   2503.45s CPU   2979.56s WALL (     440 calls)

     Called by *egterg:
     h_psi        :    984.68s CPU   1332.25s WALL (    2054 calls)
     s_psi        :    164.90s CPU    169.89s WALL (    2054 calls)
     g_psi        :      4.81s CPU      4.91s WALL (    1574 calls)
     cdiaghg      :    762.82s CPU    780.16s WALL (    1974 calls)

     Called by h_psi:
     add_vuspsi   :    166.91s CPU    172.21s WALL (    2054 calls)

     General routines
     calbec       :    243.61s CPU    249.15s WALL (    2534 calls)
     fft          :      8.27s CPU     10.16s WALL (     956 calls)
     ffts         :      0.05s CPU      0.07s WALL (      44 calls)
     fftw         :    558.42s CPU    940.03s WALL (  779708 calls)
     interpolate  :      0.34s CPU      0.51s WALL (      44 calls)
     davcio       :      0.09s CPU      2.31s WALL (      40 calls)
 
     Parallel routines
     fft_scatter  :    294.85s CPU    508.04s WALL (  780708 calls)
 
     PWSCF        : 50m 3.95s CPU    59m19.52s WALL

 
   This run was terminated on:   8:21:55  26Feb2018            

=------------------------------------------------------------------------------=
   JOB DONE.
=------------------------------------------------------------------------------=
