     Program PROJWFC v.5.1rc2 (svn rev. ) starts on  5Feb2018 at  2:16:32 
     This program is part of the open-source Quantum ESPRESSO suite
     for quantum simulation of materials; please cite
         "P. Giannozzi et al., J. Phys.:Condens. Matter 21 395502 (2009);
          URL http://www.quantum-espresso.org", 
     in publications or presentations arising from this work. More details at
     http://www.quantum-espresso.org/quote
     Parallel version (MPI), running on    16 processors
     R & G space division:  proc/nbgrp/npool/nimage =      16
   Info: using nr1, nr2, nr3 values from input
   Info: using nr1s, nr2s, nr3s values from input
     **************************************************************************
     Initializing libbeef V0.1.1 with the BEEF-vdW functional.
     Citation: Wellendorff et al., PRB 85, 235149 (2012).
     **************************************************************************
     IMPORTANT: XC functional enforced from input :
     Exchange-correlation      = BEEF ( 1  4 27 13 2)
     Any further DFT definition will be discarded
     Please, verify this is what you really want
     Parallelization info
     --------------------
     sticks:   dense  smooth     PW     G-vecs:    dense   smooth      PW
     Min         281     112     31                68535    17318    2565
     Max         282     113     32                68545    17369    2582
     Sum        4501    1795    503              1096637   277353   41113
     Generating pointlists ...
     new r_m :   0.4125 (alat units)  0.7795 (a.u.) for type    1
     new r_m :   0.4125 (alat units)  0.7795 (a.u.) for type    2
     Check: negative/imaginary core charge=   -0.000048    0.000000
     negative rho (up, down):  1.429E-02 1.429E-02
     ************************************************************************
     *
     * You are using vdW-DF for exchange-correlation in this calculation.
     * Please cite the following three references that made this development
     * possible:
     *
     *   M. Dion, H. Rydberg, E. Schroder, D. C. Langreth, and
     *   B. I. Lundqvist, Phys. Rev. Lett. 92, 246401 (2004).
     *
     *   T. Thonhauser, V. R. Cooper, S. Li, A. Puzder, P. Hyldgaard, and
     *   D. C. Langreth, Phys. Rev. B 76, 125112 (2007).
     *
     *   G. Roman-Perez and J. M. Soler, Phys. Rev. Lett. 103, 096102 (2009).
     *
     *
     * If you are using vdW-DF2, please also cite:
     *
     *   K. Lee, E. D. Murray, L. Kong, B. I. Lundqvist, and
     *   D. C. Langreth, Phys. Rev. B 82, 081101(R) (2010).
     *
     *
     * If you are calculating the stress with vdW-DF, please also cite:
     *
     *   R. Sabatini, E. Kucukbenli, B. Kolb, T. Thonhauser, and
     *   S. de Gironcoli, J. Phys.: Condens. Matter 24, 424209 (2012).
     *
     ************************************************************************
     Carrying out vdW-DF run using the following parameters:
     Nqs =      20    Nr_points =    1024   r_max =   100.000
     q_mesh =
               0.00001000     0.04494208     0.09755937     0.15916263
               0.23128650     0.31572767     0.41458969     0.53033537
               0.66584808     0.82450364     1.01025438     1.22772762
               1.48234092     1.78043706     2.12944203     2.53805004
               3.01644009     3.57652955     4.23227104     5.00000000
     Gradients computed in reciprocal space
     ************************************************************************
     Adding external electric field
     Computed dipole along edir(3) : 
        Dipole                0.1462 Ry au,          0.3717 Debye
        Dipole field          0.0002 Ry au
        Potential amp.       -0.0256 Ry
        Total length         55.6342 bohr
     Adding external electric field
     Computed dipole along edir(3) : 
        Dipole                0.1462 Ry au,          0.3717 Debye
        Dipole field          0.0002 Ry au
        Potential amp.       -0.0256 Ry
        Total length         55.6342 bohr
     Gaussian broadening (read from file): ngauss,degauss= -99    0.007350
     Calling projwave .... 
     Atomic states used for projection
     (read from pseudopotential files):
     state #   1: atom   1 (Ti1), wfc  1 (l=0 m= 1)
     state #   2: atom   1 (Ti1), wfc  2 (l=1 m= 1)
     state #   3: atom   1 (Ti1), wfc  2 (l=1 m= 2)
     state #   4: atom   1 (Ti1), wfc  2 (l=1 m= 3)
     state #   5: atom   1 (Ti1), wfc  3 (l=0 m= 1)
     state #   6: atom   1 (Ti1), wfc  4 (l=2 m= 1)
     state #   7: atom   1 (Ti1), wfc  4 (l=2 m= 2)
     state #   8: atom   1 (Ti1), wfc  4 (l=2 m= 3)
     state #   9: atom   1 (Ti1), wfc  4 (l=2 m= 4)
     state #  10: atom   1 (Ti1), wfc  4 (l=2 m= 5)
     state #  11: atom   2 (O1 ), wfc  1 (l=0 m= 1)
     state #  12: atom   2 (O1 ), wfc  2 (l=1 m= 1)
     state #  13: atom   2 (O1 ), wfc  2 (l=1 m= 2)
     state #  14: atom   2 (O1 ), wfc  2 (l=1 m= 3)
     state #  15: atom   3 (Ti1), wfc  1 (l=0 m= 1)
     state #  16: atom   3 (Ti1), wfc  2 (l=1 m= 1)
     state #  17: atom   3 (Ti1), wfc  2 (l=1 m= 2)
     state #  18: atom   3 (Ti1), wfc  2 (l=1 m= 3)
     state #  19: atom   3 (Ti1), wfc  3 (l=0 m= 1)
     state #  20: atom   3 (Ti1), wfc  4 (l=2 m= 1)
     state #  21: atom   3 (Ti1), wfc  4 (l=2 m= 2)
     state #  22: atom   3 (Ti1), wfc  4 (l=2 m= 3)
     state #  23: atom   3 (Ti1), wfc  4 (l=2 m= 4)
     state #  24: atom   3 (Ti1), wfc  4 (l=2 m= 5)
     state #  25: atom   4 (O1 ), wfc  1 (l=0 m= 1)
     state #  26: atom   4 (O1 ), wfc  2 (l=1 m= 1)
     state #  27: atom   4 (O1 ), wfc  2 (l=1 m= 2)
     state #  28: atom   4 (O1 ), wfc  2 (l=1 m= 3)
     state #  29: atom   5 (Ti1), wfc  1 (l=0 m= 1)
     state #  30: atom   5 (Ti1), wfc  2 (l=1 m= 1)
     state #  31: atom   5 (Ti1), wfc  2 (l=1 m= 2)
     state #  32: atom   5 (Ti1), wfc  2 (l=1 m= 3)
     state #  33: atom   5 (Ti1), wfc  3 (l=0 m= 1)
     state #  34: atom   5 (Ti1), wfc  4 (l=2 m= 1)
     state #  35: atom   5 (Ti1), wfc  4 (l=2 m= 2)
     state #  36: atom   5 (Ti1), wfc  4 (l=2 m= 3)
     state #  37: atom   5 (Ti1), wfc  4 (l=2 m= 4)
     state #  38: atom   5 (Ti1), wfc  4 (l=2 m= 5)
     state #  39: atom   6 (O1 ), wfc  1 (l=0 m= 1)
     state #  40: atom   6 (O1 ), wfc  2 (l=1 m= 1)
     state #  41: atom   6 (O1 ), wfc  2 (l=1 m= 2)
     state #  42: atom   6 (O1 ), wfc  2 (l=1 m= 3)
     state #  43: atom   7 (Ti1), wfc  1 (l=0 m= 1)
     state #  44: atom   7 (Ti1), wfc  2 (l=1 m= 1)
     state #  45: atom   7 (Ti1), wfc  2 (l=1 m= 2)
     state #  46: atom   7 (Ti1), wfc  2 (l=1 m= 3)
     state #  47: atom   7 (Ti1), wfc  3 (l=0 m= 1)
     state #  48: atom   7 (Ti1), wfc  4 (l=2 m= 1)
     state #  49: atom   7 (Ti1), wfc  4 (l=2 m= 2)
     state #  50: atom   7 (Ti1), wfc  4 (l=2 m= 3)
     state #  51: atom   7 (Ti1), wfc  4 (l=2 m= 4)
     state #  52: atom   7 (Ti1), wfc  4 (l=2 m= 5)
     state #  53: atom   8 (O1 ), wfc  1 (l=0 m= 1)
     state #  54: atom   8 (O1 ), wfc  2 (l=1 m= 1)
     state #  55: atom   8 (O1 ), wfc  2 (l=1 m= 2)
     state #  56: atom   8 (O1 ), wfc  2 (l=1 m= 3)
     state #  57: atom   9 (Ti1), wfc  1 (l=0 m= 1)
     state #  58: atom   9 (Ti1), wfc  2 (l=1 m= 1)
     state #  59: atom   9 (Ti1), wfc  2 (l=1 m= 2)
     state #  60: atom   9 (Ti1), wfc  2 (l=1 m= 3)
     state #  61: atom   9 (Ti1), wfc  3 (l=0 m= 1)
     state #  62: atom   9 (Ti1), wfc  4 (l=2 m= 1)
     state #  63: atom   9 (Ti1), wfc  4 (l=2 m= 2)
     state #  64: atom   9 (Ti1), wfc  4 (l=2 m= 3)
     state #  65: atom   9 (Ti1), wfc  4 (l=2 m= 4)
     state #  66: atom   9 (Ti1), wfc  4 (l=2 m= 5)
     state #  67: atom  10 (O1 ), wfc  1 (l=0 m= 1)
     state #  68: atom  10 (O1 ), wfc  2 (l=1 m= 1)
     state #  69: atom  10 (O1 ), wfc  2 (l=1 m= 2)
     state #  70: atom  10 (O1 ), wfc  2 (l=1 m= 3)
     state #  71: atom  11 (Ti1), wfc  1 (l=0 m= 1)
     state #  72: atom  11 (Ti1), wfc  2 (l=1 m= 1)
     state #  73: atom  11 (Ti1), wfc  2 (l=1 m= 2)
     state #  74: atom  11 (Ti1), wfc  2 (l=1 m= 3)
     state #  75: atom  11 (Ti1), wfc  3 (l=0 m= 1)
     state #  76: atom  11 (Ti1), wfc  4 (l=2 m= 1)
     state #  77: atom  11 (Ti1), wfc  4 (l=2 m= 2)
     state #  78: atom  11 (Ti1), wfc  4 (l=2 m= 3)
     state #  79: atom  11 (Ti1), wfc  4 (l=2 m= 4)
     state #  80: atom  11 (Ti1), wfc  4 (l=2 m= 5)
     state #  81: atom  12 (O1 ), wfc  1 (l=0 m= 1)
     state #  82: atom  12 (O1 ), wfc  2 (l=1 m= 1)
     state #  83: atom  12 (O1 ), wfc  2 (l=1 m= 2)
     state #  84: atom  12 (O1 ), wfc  2 (l=1 m= 3)
     state #  85: atom  13 (Ti1), wfc  1 (l=0 m= 1)
     state #  86: atom  13 (Ti1), wfc  2 (l=1 m= 1)
     state #  87: atom  13 (Ti1), wfc  2 (l=1 m= 2)
     state #  88: atom  13 (Ti1), wfc  2 (l=1 m= 3)
     state #  89: atom  13 (Ti1), wfc  3 (l=0 m= 1)
     state #  90: atom  13 (Ti1), wfc  4 (l=2 m= 1)
     state #  91: atom  13 (Ti1), wfc  4 (l=2 m= 2)
     state #  92: atom  13 (Ti1), wfc  4 (l=2 m= 3)
     state #  93: atom  13 (Ti1), wfc  4 (l=2 m= 4)
     state #  94: atom  13 (Ti1), wfc  4 (l=2 m= 5)
     state #  95: atom  14 (O1 ), wfc  1 (l=0 m= 1)
     state #  96: atom  14 (O1 ), wfc  2 (l=1 m= 1)
     state #  97: atom  14 (O1 ), wfc  2 (l=1 m= 2)
     state #  98: atom  14 (O1 ), wfc  2 (l=1 m= 3)
     state #  99: atom  15 (Ti1), wfc  1 (l=0 m= 1)
     state # 100: atom  15 (Ti1), wfc  2 (l=1 m= 1)
     state # 101: atom  15 (Ti1), wfc  2 (l=1 m= 2)
     state # 102: atom  15 (Ti1), wfc  2 (l=1 m= 3)
     state # 103: atom  15 (Ti1), wfc  3 (l=0 m= 1)
     state # 104: atom  15 (Ti1), wfc  4 (l=2 m= 1)
     state # 105: atom  15 (Ti1), wfc  4 (l=2 m= 2)
     state # 106: atom  15 (Ti1), wfc  4 (l=2 m= 3)
     state # 107: atom  15 (Ti1), wfc  4 (l=2 m= 4)
     state # 108: atom  15 (Ti1), wfc  4 (l=2 m= 5)
     state # 109: atom  16 (O1 ), wfc  1 (l=0 m= 1)
     state # 110: atom  16 (O1 ), wfc  2 (l=1 m= 1)
     state # 111: atom  16 (O1 ), wfc  2 (l=1 m= 2)
     state # 112: atom  16 (O1 ), wfc  2 (l=1 m= 3)
     state # 113: atom  17 (O1 ), wfc  1 (l=0 m= 1)
     state # 114: atom  17 (O1 ), wfc  2 (l=1 m= 1)
     state # 115: atom  17 (O1 ), wfc  2 (l=1 m= 2)
     state # 116: atom  17 (O1 ), wfc  2 (l=1 m= 3)
     state # 117: atom  18 (Ti1), wfc  1 (l=0 m= 1)
     state # 118: atom  18 (Ti1), wfc  2 (l=1 m= 1)
     state # 119: atom  18 (Ti1), wfc  2 (l=1 m= 2)
     state # 120: atom  18 (Ti1), wfc  2 (l=1 m= 3)
     state # 121: atom  18 (Ti1), wfc  3 (l=0 m= 1)
     state # 122: atom  18 (Ti1), wfc  4 (l=2 m= 1)
     state # 123: atom  18 (Ti1), wfc  4 (l=2 m= 2)
     state # 124: atom  18 (Ti1), wfc  4 (l=2 m= 3)
     state # 125: atom  18 (Ti1), wfc  4 (l=2 m= 4)
     state # 126: atom  18 (Ti1), wfc  4 (l=2 m= 5)
     state # 127: atom  19 (O1 ), wfc  1 (l=0 m= 1)
     state # 128: atom  19 (O1 ), wfc  2 (l=1 m= 1)
     state # 129: atom  19 (O1 ), wfc  2 (l=1 m= 2)
     state # 130: atom  19 (O1 ), wfc  2 (l=1 m= 3)
     state # 131: atom  20 (O1 ), wfc  1 (l=0 m= 1)
     state # 132: atom  20 (O1 ), wfc  2 (l=1 m= 1)
     state # 133: atom  20 (O1 ), wfc  2 (l=1 m= 2)
     state # 134: atom  20 (O1 ), wfc  2 (l=1 m= 3)
     state # 135: atom  21 (O1 ), wfc  1 (l=0 m= 1)
     state # 136: atom  21 (O1 ), wfc  2 (l=1 m= 1)
     state # 137: atom  21 (O1 ), wfc  2 (l=1 m= 2)
     state # 138: atom  21 (O1 ), wfc  2 (l=1 m= 3)
     state # 139: atom  22 (Ti1), wfc  1 (l=0 m= 1)
     state # 140: atom  22 (Ti1), wfc  2 (l=1 m= 1)
     state # 141: atom  22 (Ti1), wfc  2 (l=1 m= 2)
     state # 142: atom  22 (Ti1), wfc  2 (l=1 m= 3)
     state # 143: atom  22 (Ti1), wfc  3 (l=0 m= 1)
     state # 144: atom  22 (Ti1), wfc  4 (l=2 m= 1)
     state # 145: atom  22 (Ti1), wfc  4 (l=2 m= 2)
     state # 146: atom  22 (Ti1), wfc  4 (l=2 m= 3)
     state # 147: atom  22 (Ti1), wfc  4 (l=2 m= 4)
     state # 148: atom  22 (Ti1), wfc  4 (l=2 m= 5)
     state # 149: atom  23 (O1 ), wfc  1 (l=0 m= 1)
     state # 150: atom  23 (O1 ), wfc  2 (l=1 m= 1)
     state # 151: atom  23 (O1 ), wfc  2 (l=1 m= 2)
     state # 152: atom  23 (O1 ), wfc  2 (l=1 m= 3)
     state # 153: atom  24 (O1 ), wfc  1 (l=0 m= 1)
     state # 154: atom  24 (O1 ), wfc  2 (l=1 m= 1)
     state # 155: atom  24 (O1 ), wfc  2 (l=1 m= 2)
     state # 156: atom  24 (O1 ), wfc  2 (l=1 m= 3)
     state # 157: atom  25 (O1 ), wfc  1 (l=0 m= 1)
     state # 158: atom  25 (O1 ), wfc  2 (l=1 m= 1)
     state # 159: atom  25 (O1 ), wfc  2 (l=1 m= 2)
     state # 160: atom  25 (O1 ), wfc  2 (l=1 m= 3)
     state # 161: atom  26 (Ti1), wfc  1 (l=0 m= 1)
     state # 162: atom  26 (Ti1), wfc  2 (l=1 m= 1)
     state # 163: atom  26 (Ti1), wfc  2 (l=1 m= 2)
     state # 164: atom  26 (Ti1), wfc  2 (l=1 m= 3)
     state # 165: atom  26 (Ti1), wfc  3 (l=0 m= 1)
     state # 166: atom  26 (Ti1), wfc  4 (l=2 m= 1)
     state # 167: atom  26 (Ti1), wfc  4 (l=2 m= 2)
     state # 168: atom  26 (Ti1), wfc  4 (l=2 m= 3)
     state # 169: atom  26 (Ti1), wfc  4 (l=2 m= 4)
     state # 170: atom  26 (Ti1), wfc  4 (l=2 m= 5)
     state # 171: atom  27 (O1 ), wfc  1 (l=0 m= 1)
     state # 172: atom  27 (O1 ), wfc  2 (l=1 m= 1)
     state # 173: atom  27 (O1 ), wfc  2 (l=1 m= 2)
     state # 174: atom  27 (O1 ), wfc  2 (l=1 m= 3)
     state # 175: atom  28 (O1 ), wfc  1 (l=0 m= 1)
     state # 176: atom  28 (O1 ), wfc  2 (l=1 m= 1)
     state # 177: atom  28 (O1 ), wfc  2 (l=1 m= 2)
     state # 178: atom  28 (O1 ), wfc  2 (l=1 m= 3)
     state # 179: atom  29 (O1 ), wfc  1 (l=0 m= 1)
     state # 180: atom  29 (O1 ), wfc  2 (l=1 m= 1)
     state # 181: atom  29 (O1 ), wfc  2 (l=1 m= 2)
     state # 182: atom  29 (O1 ), wfc  2 (l=1 m= 3)
     state # 183: atom  30 (Ti1), wfc  1 (l=0 m= 1)
     state # 184: atom  30 (Ti1), wfc  2 (l=1 m= 1)
     state # 185: atom  30 (Ti1), wfc  2 (l=1 m= 2)
     state # 186: atom  30 (Ti1), wfc  2 (l=1 m= 3)
     state # 187: atom  30 (Ti1), wfc  3 (l=0 m= 1)
     state # 188: atom  30 (Ti1), wfc  4 (l=2 m= 1)
     state # 189: atom  30 (Ti1), wfc  4 (l=2 m= 2)
     state # 190: atom  30 (Ti1), wfc  4 (l=2 m= 3)
     state # 191: atom  30 (Ti1), wfc  4 (l=2 m= 4)
     state # 192: atom  30 (Ti1), wfc  4 (l=2 m= 5)
     state # 193: atom  31 (O1 ), wfc  1 (l=0 m= 1)
     state # 194: atom  31 (O1 ), wfc  2 (l=1 m= 1)
     state # 195: atom  31 (O1 ), wfc  2 (l=1 m= 2)
     state # 196: atom  31 (O1 ), wfc  2 (l=1 m= 3)
     state # 197: atom  32 (O1 ), wfc  1 (l=0 m= 1)
     state # 198: atom  32 (O1 ), wfc  2 (l=1 m= 1)
     state # 199: atom  32 (O1 ), wfc  2 (l=1 m= 2)
     state # 200: atom  32 (O1 ), wfc  2 (l=1 m= 3)
     state # 201: atom  33 (O1 ), wfc  1 (l=0 m= 1)
     state # 202: atom  33 (O1 ), wfc  2 (l=1 m= 1)
     state # 203: atom  33 (O1 ), wfc  2 (l=1 m= 2)
     state # 204: atom  33 (O1 ), wfc  2 (l=1 m= 3)
     state # 205: atom  34 (Ti1), wfc  1 (l=0 m= 1)
     state # 206: atom  34 (Ti1), wfc  2 (l=1 m= 1)
     state # 207: atom  34 (Ti1), wfc  2 (l=1 m= 2)
     state # 208: atom  34 (Ti1), wfc  2 (l=1 m= 3)
     state # 209: atom  34 (Ti1), wfc  3 (l=0 m= 1)
     state # 210: atom  34 (Ti1), wfc  4 (l=2 m= 1)
     state # 211: atom  34 (Ti1), wfc  4 (l=2 m= 2)
     state # 212: atom  34 (Ti1), wfc  4 (l=2 m= 3)
     state # 213: atom  34 (Ti1), wfc  4 (l=2 m= 4)
     state # 214: atom  34 (Ti1), wfc  4 (l=2 m= 5)
     state # 215: atom  35 (O1 ), wfc  1 (l=0 m= 1)
     state # 216: atom  35 (O1 ), wfc  2 (l=1 m= 1)
     state # 217: atom  35 (O1 ), wfc  2 (l=1 m= 2)
     state # 218: atom  35 (O1 ), wfc  2 (l=1 m= 3)
     state # 219: atom  36 (O1 ), wfc  1 (l=0 m= 1)
     state # 220: atom  36 (O1 ), wfc  2 (l=1 m= 1)
     state # 221: atom  36 (O1 ), wfc  2 (l=1 m= 2)
     state # 222: atom  36 (O1 ), wfc  2 (l=1 m= 3)
     state # 223: atom  37 (O1 ), wfc  1 (l=0 m= 1)
     state # 224: atom  37 (O1 ), wfc  2 (l=1 m= 1)
     state # 225: atom  37 (O1 ), wfc  2 (l=1 m= 2)
     state # 226: atom  37 (O1 ), wfc  2 (l=1 m= 3)
     state # 227: atom  38 (Ti1), wfc  1 (l=0 m= 1)
     state # 228: atom  38 (Ti1), wfc  2 (l=1 m= 1)
     state # 229: atom  38 (Ti1), wfc  2 (l=1 m= 2)
     state # 230: atom  38 (Ti1), wfc  2 (l=1 m= 3)
     state # 231: atom  38 (Ti1), wfc  3 (l=0 m= 1)
     state # 232: atom  38 (Ti1), wfc  4 (l=2 m= 1)
     state # 233: atom  38 (Ti1), wfc  4 (l=2 m= 2)
     state # 234: atom  38 (Ti1), wfc  4 (l=2 m= 3)
     state # 235: atom  38 (Ti1), wfc  4 (l=2 m= 4)
     state # 236: atom  38 (Ti1), wfc  4 (l=2 m= 5)
     state # 237: atom  39 (O1 ), wfc  1 (l=0 m= 1)
     state # 238: atom  39 (O1 ), wfc  2 (l=1 m= 1)
     state # 239: atom  39 (O1 ), wfc  2 (l=1 m= 2)
     state # 240: atom  39 (O1 ), wfc  2 (l=1 m= 3)
     state # 241: atom  40 (O1 ), wfc  1 (l=0 m= 1)
     state # 242: atom  40 (O1 ), wfc  2 (l=1 m= 1)
     state # 243: atom  40 (O1 ), wfc  2 (l=1 m= 2)
     state # 244: atom  40 (O1 ), wfc  2 (l=1 m= 3)
     state # 245: atom  41 (O1 ), wfc  1 (l=0 m= 1)
     state # 246: atom  41 (O1 ), wfc  2 (l=1 m= 1)
     state # 247: atom  41 (O1 ), wfc  2 (l=1 m= 2)
     state # 248: atom  41 (O1 ), wfc  2 (l=1 m= 3)
     state # 249: atom  42 (Ti1), wfc  1 (l=0 m= 1)
     state # 250: atom  42 (Ti1), wfc  2 (l=1 m= 1)
     state # 251: atom  42 (Ti1), wfc  2 (l=1 m= 2)
     state # 252: atom  42 (Ti1), wfc  2 (l=1 m= 3)
     state # 253: atom  42 (Ti1), wfc  3 (l=0 m= 1)
     state # 254: atom  42 (Ti1), wfc  4 (l=2 m= 1)
     state # 255: atom  42 (Ti1), wfc  4 (l=2 m= 2)
     state # 256: atom  42 (Ti1), wfc  4 (l=2 m= 3)
     state # 257: atom  42 (Ti1), wfc  4 (l=2 m= 4)
     state # 258: atom  42 (Ti1), wfc  4 (l=2 m= 5)
     state # 259: atom  43 (O1 ), wfc  1 (l=0 m= 1)
     state # 260: atom  43 (O1 ), wfc  2 (l=1 m= 1)
     state # 261: atom  43 (O1 ), wfc  2 (l=1 m= 2)
     state # 262: atom  43 (O1 ), wfc  2 (l=1 m= 3)
     state # 263: atom  44 (O1 ), wfc  1 (l=0 m= 1)
     state # 264: atom  44 (O1 ), wfc  2 (l=1 m= 1)
     state # 265: atom  44 (O1 ), wfc  2 (l=1 m= 2)
     state # 266: atom  44 (O1 ), wfc  2 (l=1 m= 3)
     state # 267: atom  45 (O1 ), wfc  1 (l=0 m= 1)
     state # 268: atom  45 (O1 ), wfc  2 (l=1 m= 1)
     state # 269: atom  45 (O1 ), wfc  2 (l=1 m= 2)
     state # 270: atom  45 (O1 ), wfc  2 (l=1 m= 3)
     state # 271: atom  46 (Ti1), wfc  1 (l=0 m= 1)
     state # 272: atom  46 (Ti1), wfc  2 (l=1 m= 1)
     state # 273: atom  46 (Ti1), wfc  2 (l=1 m= 2)
     state # 274: atom  46 (Ti1), wfc  2 (l=1 m= 3)
     state # 275: atom  46 (Ti1), wfc  3 (l=0 m= 1)
     state # 276: atom  46 (Ti1), wfc  4 (l=2 m= 1)
     state # 277: atom  46 (Ti1), wfc  4 (l=2 m= 2)
     state # 278: atom  46 (Ti1), wfc  4 (l=2 m= 3)
     state # 279: atom  46 (Ti1), wfc  4 (l=2 m= 4)
     state # 280: atom  46 (Ti1), wfc  4 (l=2 m= 5)
     state # 281: atom  47 (O1 ), wfc  1 (l=0 m= 1)
     state # 282: atom  47 (O1 ), wfc  2 (l=1 m= 1)
     state # 283: atom  47 (O1 ), wfc  2 (l=1 m= 2)
     state # 284: atom  47 (O1 ), wfc  2 (l=1 m= 3)
     state # 285: atom  48 (O1 ), wfc  1 (l=0 m= 1)
     state # 286: atom  48 (O1 ), wfc  2 (l=1 m= 1)
     state # 287: atom  48 (O1 ), wfc  2 (l=1 m= 2)
     state # 288: atom  48 (O1 ), wfc  2 (l=1 m= 3)
Lowdin Charges: 
     Atom #   1: total charge =  10.3841, s =  2.3832, p =  5.9932, d =  2.0076, 
                 spin up      =   5.1920, s =  1.1916, 
                 spin up      =   5.1920, p =  2.9966, pz=  0.9993, px=  0.9988, py=  0.9985, 
                 spin up      =   5.1920, d =  1.0038, dz2=  0.1693, dxz=  0.1427, dyz=  0.3004, dx2-y2=  0.2315, dxy=  0.1599, 
                 spin down    =   5.1920, s =  1.1916, 
                 spin down    =   5.1920, p =  2.9966, pz=  0.9993, px=  0.9988, py=  0.9985, 
                 spin down    =   5.1920, d =  1.0038, dz2=  0.1693, dxz=  0.1427, dyz=  0.3004, dx2-y2=  0.2315, dxy=  0.1599, 
                 polarization =   0.0000, s = -0.0000, p =  0.0000, d =  0.0000, 
     Atom #   2: total charge =   6.8183, s =  1.8205, p =  4.9977, d =  0.0000, 
                 spin up      =   3.4091, s =  0.9103, 
                 spin up      =   3.4091, p =  2.4989, pz=  0.8023, px=  0.8590, py=  0.8376, 
                 spin up      =   3.4091, d =  0.0000, dz2=  0.0000, dxz=  0.0000, dyz=  0.0000, dx2-y2=  0.0000, dxy=  0.0000, 
                 spin down    =   3.4091, s =  0.9103, 
                 spin down    =   3.4091, p =  2.4989, pz=  0.8023, px=  0.8590, py=  0.8376, 
                 spin down    =   3.4091, d =  0.0000, dz2=  0.0000, dxz=  0.0000, dyz=  0.0000, dx2-y2=  0.0000, dxy=  0.0000, 
                 polarization =  -0.0000, s = -0.0000, p = -0.0000, d =  0.0000, 
     Atom #   3: total charge =  10.3485, s =  2.3887, p =  5.9932, d =  1.9666, 
                 spin up      =   5.1743, s =  1.1943, 
                 spin up      =   5.1743, p =  2.9966, pz=  0.9989, px=  0.9993, py=  0.9985, 
                 spin up      =   5.1743, d =  0.9833, dz2=  0.2627, dxz=  0.1521, dyz=  0.1554, dx2-y2=  0.1261, dxy=  0.2870, 
                 spin down    =   5.1743, s =  1.1943, 
                 spin down    =   5.1743, p =  2.9966, pz=  0.9989, px=  0.9993, py=  0.9985, 
                 spin down    =   5.1743, d =  0.9833, dz2=  0.2627, dxz=  0.1521, dyz=  0.1554, dx2-y2=  0.1261, dxy=  0.2870, 
                 polarization =   0.0000, s = -0.0000, p = -0.0000, d =  0.0000, 
     Atom #   4: total charge =   6.7991, s =  1.8186, p =  4.9806, d =  0.0000, 
                 spin up      =   3.3996, s =  0.9093, 
                 spin up      =   3.3996, p =  2.4903, pz=  0.8588, px=  0.8024, py=  0.8291, 
                 spin up      =   3.3996, d =  0.0000, dz2=  0.0000, dxz=  0.0000, dyz=  0.0000, dx2-y2=  0.0000, dxy=  0.0000, 
                 spin down    =   3.3996, s =  0.9093, 
                 spin down    =   3.3996, p =  2.4903, pz=  0.8588, px=  0.8024, py=  0.8291, 
                 spin down    =   3.3996, d =  0.0000, dz2=  0.0000, dxz=  0.0000, dyz=  0.0000, dx2-y2=  0.0000, dxy=  0.0000, 
                 polarization =  -0.0000, s = -0.0000, p = -0.0000, d =  0.0000, 
     Atom #   5: total charge =  10.3522, s =  2.3861, p =  5.9916, d =  1.9745, 
                 spin up      =   5.1761, s =  1.1930, 
                 spin up      =   5.1761, p =  2.9958, pz=  0.9990, px=  0.9988, py=  0.9980, 
                 spin up      =   5.1761, d =  0.9873, dz2=  0.1536, dxz=  0.1669, dyz=  0.2717, dx2-y2=  0.2415, dxy=  0.1535, 
                 spin down    =   5.1761, s =  1.1930, 
                 spin down    =   5.1761, p =  2.9958, pz=  0.9990, px=  0.9988, py=  0.9980, 
                 spin down    =   5.1761, d =  0.9873, dz2=  0.1536, dxz=  0.1669, dyz=  0.2717, dx2-y2=  0.2415, dxy=  0.1535, 
                 polarization =   0.0000, s =  0.0000, p =  0.0000, d =  0.0000, 
     Atom #   6: total charge =   6.7596, s =  1.8037, p =  4.9560, d =  0.0000, 
                 spin up      =   3.3798, s =  0.9018, 
                 spin up      =   3.3798, p =  2.4780, pz=  0.7808, px=  0.8655, py=  0.8316, 
                 spin up      =   3.3798, d =  0.0000, dz2=  0.0000, dxz=  0.0000, dyz=  0.0000, dx2-y2=  0.0000, dxy=  0.0000, 
                 spin down    =   3.3798, s =  0.9018, 
                 spin down    =   3.3798, p =  2.4780, pz=  0.7808, px=  0.8655, py=  0.8316, 
                 spin down    =   3.3798, d =  0.0000, dz2=  0.0000, dxz=  0.0000, dyz=  0.0000, dx2-y2=  0.0000, dxy=  0.0000, 
                 polarization =  -0.0000, s = -0.0000, p = -0.0000, d =  0.0000, 
     Atom #   7: total charge =  10.3654, s =  2.3580, p =  5.9881, d =  2.0192, 
                 spin up      =   5.1827, s =  1.1790, 
                 spin up      =   5.1827, p =  2.9941, pz=  0.9965, px=  0.9992, py=  0.9984, 
                 spin up      =   5.1827, d =  1.0096, dz2=  0.2477, dxz=  0.1862, dyz=  0.1724, dx2-y2=  0.1187, dxy=  0.2846, 
                 spin down    =   5.1827, s =  1.1790, 
                 spin down    =   5.1827, p =  2.9941, pz=  0.9965, px=  0.9992, py=  0.9984, 
                 spin down    =   5.1827, d =  1.0096, dz2=  0.2477, dxz=  0.1862, dyz=  0.1724, dx2-y2=  0.1187, dxy=  0.2846, 
                 polarization =   0.0000, s =  0.0000, p = -0.0000, d =  0.0000, 
     Atom #   8: total charge =   6.8281, s =  1.8222, p =  5.0059, d =  0.0000, 
                 spin up      =   3.4140, s =  0.9111, 
                 spin up      =   3.4140, p =  2.5030, pz=  0.8712, px=  0.8066, py=  0.8252, 
                 spin up      =   3.4140, d =  0.0000, dz2=  0.0000, dxz=  0.0000, dyz=  0.0000, dx2-y2=  0.0000, dxy=  0.0000, 
                 spin down    =   3.4140, s =  0.9111, 
                 spin down    =   3.4140, p =  2.5030, pz=  0.8712, px=  0.8066, py=  0.8252, 
                 spin down    =   3.4140, d =  0.0000, dz2=  0.0000, dxz=  0.0000, dyz=  0.0000, dx2-y2=  0.0000, dxy=  0.0000, 
                 polarization =  -0.0000, s =  0.0000, p = -0.0000, d =  0.0000, 
     Atom #   9: total charge =  10.3841, s =  2.3832, p =  5.9932, d =  2.0076, 
                 spin up      =   5.1920, s =  1.1916, 
                 spin up      =   5.1920, p =  2.9966, pz=  0.9993, px=  0.9988, py=  0.9985, 
                 spin up      =   5.1920, d =  1.0038, dz2=  0.1693, dxz=  0.1427, dyz=  0.3004, dx2-y2=  0.2315, dxy=  0.1599, 
                 spin down    =   5.1920, s =  1.1916, 
                 spin down    =   5.1920, p =  2.9966, pz=  0.9993, px=  0.9988, py=  0.9985, 
                 spin down    =   5.1920, d =  1.0038, dz2=  0.1693, dxz=  0.1427, dyz=  0.3004, dx2-y2=  0.2315, dxy=  0.1599, 
                 polarization =   0.0000, s = -0.0000, p =  0.0000, d =  0.0000, 
     Atom #  10: total charge =   6.8183, s =  1.8205, p =  4.9977, d =  0.0000, 
                 spin up      =   3.4091, s =  0.9103, 
                 spin up      =   3.4091, p =  2.4989, pz=  0.8023, px=  0.8590, py=  0.8376, 
                 spin up      =   3.4091, d =  0.0000, dz2=  0.0000, dxz=  0.0000, dyz=  0.0000, dx2-y2=  0.0000, dxy=  0.0000, 
                 spin down    =   3.4091, s =  0.9103, 
                 spin down    =   3.4091, p =  2.4989, pz=  0.8023, px=  0.8590, py=  0.8376, 
                 spin down    =   3.4091, d =  0.0000, dz2=  0.0000, dxz=  0.0000, dyz=  0.0000, dx2-y2=  0.0000, dxy=  0.0000, 
                 polarization =  -0.0000, s = -0.0000, p = -0.0000, d =  0.0000, 
     Atom #  11: total charge =  10.3485, s =  2.3887, p =  5.9932, d =  1.9666, 
                 spin up      =   5.1743, s =  1.1943, 
                 spin up      =   5.1743, p =  2.9966, pz=  0.9989, px=  0.9993, py=  0.9985, 
                 spin up      =   5.1743, d =  0.9833, dz2=  0.2627, dxz=  0.1521, dyz=  0.1554, dx2-y2=  0.1261, dxy=  0.2870, 
                 spin down    =   5.1743, s =  1.1943, 
                 spin down    =   5.1743, p =  2.9966, pz=  0.9989, px=  0.9993, py=  0.9985, 
                 spin down    =   5.1743, d =  0.9833, dz2=  0.2627, dxz=  0.1521, dyz=  0.1554, dx2-y2=  0.1261, dxy=  0.2870, 
                 polarization =   0.0000, s = -0.0000, p = -0.0000, d =  0.0000, 
     Atom #  12: total charge =   6.7991, s =  1.8186, p =  4.9806, d =  0.0000, 
                 spin up      =   3.3996, s =  0.9093, 
                 spin up      =   3.3996, p =  2.4903, pz=  0.8588, px=  0.8024, py=  0.8291, 
                 spin up      =   3.3996, d =  0.0000, dz2=  0.0000, dxz=  0.0000, dyz=  0.0000, dx2-y2=  0.0000, dxy=  0.0000, 
                 spin down    =   3.3996, s =  0.9093, 
                 spin down    =   3.3996, p =  2.4903, pz=  0.8588, px=  0.8024, py=  0.8291, 
                 spin down    =   3.3996, d =  0.0000, dz2=  0.0000, dxz=  0.0000, dyz=  0.0000, dx2-y2=  0.0000, dxy=  0.0000, 
                 polarization =  -0.0000, s = -0.0000, p = -0.0000, d =  0.0000, 
     Atom #  13: total charge =  10.3522, s =  2.3861, p =  5.9916, d =  1.9745, 
                 spin up      =   5.1761, s =  1.1930, 
                 spin up      =   5.1761, p =  2.9958, pz=  0.9990, px=  0.9988, py=  0.9980, 
                 spin up      =   5.1761, d =  0.9873, dz2=  0.1536, dxz=  0.1669, dyz=  0.2717, dx2-y2=  0.2415, dxy=  0.1535, 
                 spin down    =   5.1761, s =  1.1930, 
                 spin down    =   5.1761, p =  2.9958, pz=  0.9990, px=  0.9988, py=  0.9980, 
                 spin down    =   5.1761, d =  0.9873, dz2=  0.1536, dxz=  0.1669, dyz=  0.2717, dx2-y2=  0.2415, dxy=  0.1535, 
                 polarization =   0.0000, s =  0.0000, p =  0.0000, d =  0.0000, 
     Atom #  14: total charge =   6.7596, s =  1.8037, p =  4.9560, d =  0.0000, 
                 spin up      =   3.3798, s =  0.9018, 
                 spin up      =   3.3798, p =  2.4780, pz=  0.7808, px=  0.8655, py=  0.8316, 
                 spin up      =   3.3798, d =  0.0000, dz2=  0.0000, dxz=  0.0000, dyz=  0.0000, dx2-y2=  0.0000, dxy=  0.0000, 
                 spin down    =   3.3798, s =  0.9018, 
                 spin down    =   3.3798, p =  2.4780, pz=  0.7808, px=  0.8655, py=  0.8316, 
                 spin down    =   3.3798, d =  0.0000, dz2=  0.0000, dxz=  0.0000, dyz=  0.0000, dx2-y2=  0.0000, dxy=  0.0000, 
                 polarization =  -0.0000, s = -0.0000, p = -0.0000, d =  0.0000, 
     Atom #  15: total charge =  10.3654, s =  2.3580, p =  5.9881, d =  2.0192, 
                 spin up      =   5.1827, s =  1.1790, 
                 spin up      =   5.1827, p =  2.9941, pz=  0.9965, px=  0.9992, py=  0.9984, 
                 spin up      =   5.1827, d =  1.0096, dz2=  0.2477, dxz=  0.1862, dyz=  0.1724, dx2-y2=  0.1187, dxy=  0.2846, 
                 spin down    =   5.1827, s =  1.1790, 
                 spin down    =   5.1827, p =  2.9941, pz=  0.9965, px=  0.9992, py=  0.9984, 
                 spin down    =   5.1827, d =  1.0096, dz2=  0.2477, dxz=  0.1862, dyz=  0.1724, dx2-y2=  0.1187, dxy=  0.2846, 
                 polarization =  -0.0000, s = -0.0000, p = -0.0000, d = -0.0000, 
     Atom #  16: total charge =   6.8281, s =  1.8222, p =  5.0059, d =  0.0000, 
                 spin up      =   3.4140, s =  0.9111, 
                 spin up      =   3.4140, p =  2.5030, pz=  0.8712, px=  0.8066, py=  0.8252, 
                 spin up      =   3.4140, d =  0.0000, dz2=  0.0000, dxz=  0.0000, dyz=  0.0000, dx2-y2=  0.0000, dxy=  0.0000, 
                 spin down    =   3.4140, s =  0.9111, 
                 spin down    =   3.4140, p =  2.5030, pz=  0.8712, px=  0.8066, py=  0.8252, 
                 spin down    =   3.4140, d =  0.0000, dz2=  0.0000, dxz=  0.0000, dyz=  0.0000, dx2-y2=  0.0000, dxy=  0.0000, 
                 polarization =   0.0000, s =  0.0000, p =  0.0000, d =  0.0000, 
     Atom #  17: total charge =   6.7497, s =  1.8777, p =  4.8720, d =  0.0000, 
                 spin up      =   3.3749, s =  0.9388, 
                 spin up      =   3.3749, p =  2.4360, pz=  0.8087, px=  0.8160, py=  0.8112, 
                 spin up      =   3.3749, d =  0.0000, dz2=  0.0000, dxz=  0.0000, dyz=  0.0000, dx2-y2=  0.0000, dxy=  0.0000, 
                 spin down    =   3.3749, s =  0.9388, 
                 spin down    =   3.3749, p =  2.4360, pz=  0.8087, px=  0.8160, py=  0.8112, 
                 spin down    =   3.3749, d =  0.0000, dz2=  0.0000, dxz=  0.0000, dyz=  0.0000, dx2-y2=  0.0000, dxy=  0.0000, 
                 polarization =   0.0000, s =  0.0000, p =  0.0000, d =  0.0000, 
     Atom #  18: total charge =  10.3388, s =  2.3543, p =  5.9922, d =  1.9923, 
                 spin up      =   5.1694, s =  1.1771, 
                 spin up      =   5.1694, p =  2.9961, pz=  0.9982, px=  0.9993, py=  0.9985, 
                 spin up      =   5.1694, d =  0.9962, dz2=  0.2357, dxz=  0.1591, dyz=  0.1701, dx2-y2=  0.1333, dxy=  0.2979, 
                 spin down    =   5.1694, s =  1.1771, 
                 spin down    =   5.1694, p =  2.9961, pz=  0.9982, px=  0.9993, py=  0.9985, 
                 spin down    =   5.1694, d =  0.9962, dz2=  0.2357, dxz=  0.1591, dyz=  0.1701, dx2-y2=  0.1333, dxy=  0.2979, 
                 polarization =   0.0000, s = -0.0000, p =  0.0000, d =  0.0000, 
     Atom #  19: total charge =   6.7641, s =  1.8162, p =  4.9480, d =  0.0000, 
                 spin up      =   3.3821, s =  0.9081, 
                 spin up      =   3.3821, p =  2.4740, pz=  0.7733, px=  0.8644, py=  0.8363, 
                 spin up      =   3.3821, d =  0.0000, dz2=  0.0000, dxz=  0.0000, dyz=  0.0000, dx2-y2=  0.0000, dxy=  0.0000, 
                 spin down    =   3.3821, s =  0.9081, 
                 spin down    =   3.3821, p =  2.4740, pz=  0.7733, px=  0.8644, py=  0.8363, 
                 spin down    =   3.3821, d =  0.0000, dz2=  0.0000, dxz=  0.0000, dyz=  0.0000, dx2-y2=  0.0000, dxy=  0.0000, 
                 polarization =   0.0000, s = -0.0000, p =  0.0000, d =  0.0000, 
     Atom #  20: total charge =   6.7927, s =  1.8225, p =  4.9702, d =  0.0000, 
                 spin up      =   3.3963, s =  0.9113, 
                 spin up      =   3.3963, p =  2.4851, pz=  0.8437, px=  0.8101, py=  0.8312, 
                 spin up      =   3.3963, d =  0.0000, dz2=  0.0000, dxz=  0.0000, dyz=  0.0000, dx2-y2=  0.0000, dxy=  0.0000, 
                 spin down    =   3.3963, s =  0.9113, 
                 spin down    =   3.3963, p =  2.4851, pz=  0.8437, px=  0.8101, py=  0.8312, 
                 spin down    =   3.3963, d =  0.0000, dz2=  0.0000, dxz=  0.0000, dyz=  0.0000, dx2-y2=  0.0000, dxy=  0.0000, 
                 polarization =  -0.0000, s = -0.0000, p = -0.0000, d =  0.0000, 
     Atom #  21: total charge =   6.7927, s =  1.8225, p =  4.9702, d =  0.0000, 
                 spin up      =   3.3963, s =  0.9113, 
                 spin up      =   3.3963, p =  2.4851, pz=  0.8437, px=  0.8101, py=  0.8312, 
                 spin up      =   3.3963, d =  0.0000, dz2=  0.0000, dxz=  0.0000, dyz=  0.0000, dx2-y2=  0.0000, dxy=  0.0000, 
                 spin down    =   3.3963, s =  0.9113, 
                 spin down    =   3.3963, p =  2.4851, pz=  0.8437, px=  0.8101, py=  0.8312, 
                 spin down    =   3.3963, d =  0.0000, dz2=  0.0000, dxz=  0.0000, dyz=  0.0000, dx2-y2=  0.0000, dxy=  0.0000, 
                 polarization =  -0.0000, s = -0.0000, p = -0.0000, d =  0.0000, 
     Atom #  22: total charge =  10.3484, s =  2.3890, p =  5.9930, d =  1.9664, 
                 spin up      =   5.1742, s =  1.1945, 
                 spin up      =   5.1742, p =  2.9965, pz=  0.9992, px=  0.9989, py=  0.9984, 
                 spin up      =   5.1742, d =  0.9832, dz2=  0.1566, dxz=  0.1532, dyz=  0.2869, dx2-y2=  0.2308, dxy=  0.1558, 
                 spin down    =   5.1742, s =  1.1945, 
                 spin down    =   5.1742, p =  2.9965, pz=  0.9992, px=  0.9989, py=  0.9984, 
                 spin down    =   5.1742, d =  0.9832, dz2=  0.1566, dxz=  0.1532, dyz=  0.2869, dx2-y2=  0.2308, dxy=  0.1558, 
                 polarization =  -0.0000, s = -0.0000, p = -0.0000, d = -0.0000, 
     Atom #  23: total charge =   6.7521, s =  1.8069, p =  4.9451, d =  0.0000, 
                 spin up      =   3.3760, s =  0.9035, 
                 spin up      =   3.3760, p =  2.4726, pz=  0.7969, px=  0.8582, py=  0.8176, 
                 spin up      =   3.3760, d =  0.0000, dz2=  0.0000, dxz=  0.0000, dyz=  0.0000, dx2-y2=  0.0000, dxy=  0.0000, 
                 spin down    =   3.3760, s =  0.9035, 
                 spin down    =   3.3760, p =  2.4726, pz=  0.7969, px=  0.8582, py=  0.8176, 
                 spin down    =   3.3760, d =  0.0000, dz2=  0.0000, dxz=  0.0000, dyz=  0.0000, dx2-y2=  0.0000, dxy=  0.0000, 
                 polarization =   0.0000, s = -0.0000, p =  0.0000, d =  0.0000, 
     Atom #  24: total charge =   6.8097, s =  1.8380, p =  4.9717, d =  0.0000, 
                 spin up      =   3.4048, s =  0.9190, 
                 spin up      =   3.4048, p =  2.4859, pz=  0.8058, px=  0.8560, py=  0.8241, 
                 spin up      =   3.4048, d =  0.0000, dz2=  0.0000, dxz=  0.0000, dyz=  0.0000, dx2-y2=  0.0000, dxy=  0.0000, 
                 spin down    =   3.4048, s =  0.9190, 
                 spin down    =   3.4048, p =  2.4859, pz=  0.8058, px=  0.8560, py=  0.8241, 
                 spin down    =   3.4048, d =  0.0000, dz2=  0.0000, dxz=  0.0000, dyz=  0.0000, dx2-y2=  0.0000, dxy=  0.0000, 
                 polarization =   0.0000, s = -0.0000, p =  0.0000, d =  0.0000, 
     Atom #  25: total charge =   6.7991, s =  1.8186, p =  4.9806, d =  0.0000, 
                 spin up      =   3.3996, s =  0.9093, 
                 spin up      =   3.3996, p =  2.4903, pz=  0.8588, px=  0.8024, py=  0.8291, 
                 spin up      =   3.3996, d =  0.0000, dz2=  0.0000, dxz=  0.0000, dyz=  0.0000, dx2-y2=  0.0000, dxy=  0.0000, 
                 spin down    =   3.3996, s =  0.9093, 
                 spin down    =   3.3996, p =  2.4903, pz=  0.8588, px=  0.8024, py=  0.8291, 
                 spin down    =   3.3996, d =  0.0000, dz2=  0.0000, dxz=  0.0000, dyz=  0.0000, dx2-y2=  0.0000, dxy=  0.0000, 
                 polarization =  -0.0000, s = -0.0000, p = -0.0000, d =  0.0000, 
     Atom #  26: total charge =  10.3517, s =  2.3867, p =  5.9919, d =  1.9732, 
                 spin up      =   5.1758, s =  1.1933, 
                 spin up      =   5.1758, p =  2.9959, pz=  0.9981, px=  0.9992, py=  0.9986, 
                 spin up      =   5.1758, d =  0.9866, dz2=  0.2718, dxz=  0.1694, dyz=  0.1584, dx2-y2=  0.1156, dxy=  0.2714, 
                 spin down    =   5.1758, s =  1.1933, 
                 spin down    =   5.1758, p =  2.9959, pz=  0.9981, px=  0.9992, py=  0.9986, 
                 spin down    =   5.1758, d =  0.9866, dz2=  0.2718, dxz=  0.1694, dyz=  0.1584, dx2-y2=  0.1156, dxy=  0.2714, 
                 polarization =   0.0000, s =  0.0000, p =  0.0000, d =  0.0000, 
     Atom #  27: total charge =   6.8162, s =  1.8281, p =  4.9881, d =  0.0000, 
                 spin up      =   3.4081, s =  0.9141, 
                 spin up      =   3.4081, p =  2.4940, pz=  0.7997, px=  0.8583, py=  0.8360, 
                 spin up      =   3.4081, d =  0.0000, dz2=  0.0000, dxz=  0.0000, dyz=  0.0000, dx2-y2=  0.0000, dxy=  0.0000, 
                 spin down    =   3.4081, s =  0.9141, 
                 spin down    =   3.4081, p =  2.4940, pz=  0.7997, px=  0.8583, py=  0.8360, 
                 spin down    =   3.4081, d =  0.0000, dz2=  0.0000, dxz=  0.0000, dyz=  0.0000, dx2-y2=  0.0000, dxy=  0.0000, 
                 polarization =   0.0000, s = -0.0000, p =  0.0000, d =  0.0000, 
     Atom #  28: total charge =   6.8054, s =  1.8194, p =  4.9860, d =  0.0000, 
                 spin up      =   3.4027, s =  0.9097, 
                 spin up      =   3.4027, p =  2.4930, pz=  0.8672, px=  0.7985, py=  0.8273, 
                 spin up      =   3.4027, d =  0.0000, dz2=  0.0000, dxz=  0.0000, dyz=  0.0000, dx2-y2=  0.0000, dxy=  0.0000, 
                 spin down    =   3.4027, s =  0.9097, 
                 spin down    =   3.4027, p =  2.4930, pz=  0.8672, px=  0.7985, py=  0.8273, 
                 spin down    =   3.4027, d =  0.0000, dz2=  0.0000, dxz=  0.0000, dyz=  0.0000, dx2-y2=  0.0000, dxy=  0.0000, 
                 polarization =  -0.0000, s = -0.0000, p = -0.0000, d =  0.0000, 
     Atom #  29: total charge =   6.8054, s =  1.8194, p =  4.9860, d =  0.0000, 
                 spin up      =   3.4027, s =  0.9097, 
                 spin up      =   3.4027, p =  2.4930, pz=  0.8672, px=  0.7985, py=  0.8273, 
                 spin up      =   3.4027, d =  0.0000, dz2=  0.0000, dxz=  0.0000, dyz=  0.0000, dx2-y2=  0.0000, dxy=  0.0000, 
                 spin down    =   3.4027, s =  0.9097, 
                 spin down    =   3.4027, p =  2.4930, pz=  0.8672, px=  0.7985, py=  0.8273, 
                 spin down    =   3.4027, d =  0.0000, dz2=  0.0000, dxz=  0.0000, dyz=  0.0000, dx2-y2=  0.0000, dxy=  0.0000, 
                 polarization =  -0.0000, s = -0.0000, p = -0.0000, d =  0.0000, 
     Atom #  30: total charge =  10.3764, s =  2.3788, p =  5.9900, d =  2.0076, 
                 spin up      =   5.1882, s =  1.1894, 
                 spin up      =   5.1882, p =  2.9950, pz=  0.9986, px=  0.9990, py=  0.9973, 
                 spin up      =   5.1882, d =  1.0038, dz2=  0.1778, dxz=  0.1346, dyz=  0.2834, dx2-y2=  0.2488, dxy=  0.1592, 
                 spin down    =   5.1882, s =  1.1894, 
                 spin down    =   5.1882, p =  2.9950, pz=  0.9986, px=  0.9990, py=  0.9973, 
                 spin down    =   5.1882, d =  1.0038, dz2=  0.1778, dxz=  0.1346, dyz=  0.2834, dx2-y2=  0.2488, dxy=  0.1592, 
                 polarization =  -0.0000, s =  0.0000, p =  0.0000, d = -0.0000, 
     Atom #  31: total charge =   6.6543, s =  1.8358, p =  4.8185, d =  0.0000, 
                 spin up      =   3.3271, s =  0.9179, 
                 spin up      =   3.3271, p =  2.4093, pz=  0.8012, px=  0.8173, py=  0.7907, 
                 spin up      =   3.3271, d =  0.0000, dz2=  0.0000, dxz=  0.0000, dyz=  0.0000, dx2-y2=  0.0000, dxy=  0.0000, 
                 spin down    =   3.3271, s =  0.9179, 
                 spin down    =   3.3271, p =  2.4093, pz=  0.8012, px=  0.8173, py=  0.7907, 
                 spin down    =   3.3271, d =  0.0000, dz2=  0.0000, dxz=  0.0000, dyz=  0.0000, dx2-y2=  0.0000, dxy=  0.0000, 
                 polarization =   0.0000, s =  0.0000, p =  0.0000, d =  0.0000, 
     Atom #  32: total charge =   6.8281, s =  1.8222, p =  5.0059, d =  0.0000, 
                 spin up      =   3.4140, s =  0.9111, 
                 spin up      =   3.4140, p =  2.5030, pz=  0.8712, px=  0.8066, py=  0.8252, 
                 spin up      =   3.4140, d =  0.0000, dz2=  0.0000, dxz=  0.0000, dyz=  0.0000, dx2-y2=  0.0000, dxy=  0.0000, 
                 spin down    =   3.4140, s =  0.9111, 
                 spin down    =   3.4140, p =  2.5030, pz=  0.8712, px=  0.8066, py=  0.8252, 
                 spin down    =   3.4140, d =  0.0000, dz2=  0.0000, dxz=  0.0000, dyz=  0.0000, dx2-y2=  0.0000, dxy=  0.0000, 
                 polarization =  -0.0000, s = -0.0000, p = -0.0000, d =  0.0000, 
     Atom #  33: total charge =   6.7497, s =  1.8777, p =  4.8720, d =  0.0000, 
                 spin up      =   3.3749, s =  0.9388, 
                 spin up      =   3.3749, p =  2.4360, pz=  0.8087, px=  0.8160, py=  0.8112, 
                 spin up      =   3.3749, d =  0.0000, dz2=  0.0000, dxz=  0.0000, dyz=  0.0000, dx2-y2=  0.0000, dxy=  0.0000, 
                 spin down    =   3.3749, s =  0.9388, 
                 spin down    =   3.3749, p =  2.4360, pz=  0.8087, px=  0.8160, py=  0.8112, 
                 spin down    =   3.3749, d =  0.0000, dz2=  0.0000, dxz=  0.0000, dyz=  0.0000, dx2-y2=  0.0000, dxy=  0.0000, 
                 polarization =   0.0000, s =  0.0000, p = -0.0000, d =  0.0000, 
     Atom #  34: total charge =  10.3388, s =  2.3543, p =  5.9922, d =  1.9923, 
                 spin up      =   5.1694, s =  1.1771, 
                 spin up      =   5.1694, p =  2.9961, pz=  0.9982, px=  0.9993, py=  0.9985, 
                 spin up      =   5.1694, d =  0.9962, dz2=  0.2357, dxz=  0.1591, dyz=  0.1701, dx2-y2=  0.1333, dxy=  0.2979, 
                 spin down    =   5.1694, s =  1.1771, 
                 spin down    =   5.1694, p =  2.9961, pz=  0.9982, px=  0.9993, py=  0.9985, 
                 spin down    =   5.1694, d =  0.9962, dz2=  0.2357, dxz=  0.1591, dyz=  0.1701, dx2-y2=  0.1333, dxy=  0.2979, 
                 polarization =  -0.0000, s = -0.0000, p =  0.0000, d =  0.0000, 
     Atom #  35: total charge =   6.7641, s =  1.8162, p =  4.9480, d =  0.0000, 
                 spin up      =   3.3821, s =  0.9081, 
                 spin up      =   3.3821, p =  2.4740, pz=  0.7733, px=  0.8644, py=  0.8363, 
                 spin up      =   3.3821, d =  0.0000, dz2=  0.0000, dxz=  0.0000, dyz=  0.0000, dx2-y2=  0.0000, dxy=  0.0000, 
                 spin down    =   3.3821, s =  0.9081, 
                 spin down    =   3.3821, p =  2.4740, pz=  0.7733, px=  0.8644, py=  0.8363, 
                 spin down    =   3.3821, d =  0.0000, dz2=  0.0000, dxz=  0.0000, dyz=  0.0000, dx2-y2=  0.0000, dxy=  0.0000, 
                 polarization =  -0.0000, s = -0.0000, p = -0.0000, d =  0.0000, 
     Atom #  36: total charge =   6.7927, s =  1.8225, p =  4.9702, d =  0.0000, 
                 spin up      =   3.3963, s =  0.9113, 
                 spin up      =   3.3963, p =  2.4851, pz=  0.8437, px=  0.8101, py=  0.8312, 
                 spin up      =   3.3963, d =  0.0000, dz2=  0.0000, dxz=  0.0000, dyz=  0.0000, dx2-y2=  0.0000, dxy=  0.0000, 
                 spin down    =   3.3963, s =  0.9113, 
                 spin down    =   3.3963, p =  2.4851, pz=  0.8437, px=  0.8101, py=  0.8312, 
                 spin down    =   3.3963, d =  0.0000, dz2=  0.0000, dxz=  0.0000, dyz=  0.0000, dx2-y2=  0.0000, dxy=  0.0000, 
                 polarization =  -0.0000, s = -0.0000, p = -0.0000, d =  0.0000, 
     Atom #  37: total charge =   6.7927, s =  1.8225, p =  4.9702, d =  0.0000, 
                 spin up      =   3.3963, s =  0.9113, 
                 spin up      =   3.3963, p =  2.4851, pz=  0.8437, px=  0.8101, py=  0.8312, 
                 spin up      =   3.3963, d =  0.0000, dz2=  0.0000, dxz=  0.0000, dyz=  0.0000, dx2-y2=  0.0000, dxy=  0.0000, 
                 spin down    =   3.3963, s =  0.9113, 
                 spin down    =   3.3963, p =  2.4851, pz=  0.8437, px=  0.8101, py=  0.8312, 
                 spin down    =   3.3963, d =  0.0000, dz2=  0.0000, dxz=  0.0000, dyz=  0.0000, dx2-y2=  0.0000, dxy=  0.0000, 
                 polarization =   0.0000, s = -0.0000, p =  0.0000, d =  0.0000, 
     Atom #  38: total charge =  10.3484, s =  2.3890, p =  5.9930, d =  1.9664, 
                 spin up      =   5.1742, s =  1.1945, 
                 spin up      =   5.1742, p =  2.9965, pz=  0.9992, px=  0.9989, py=  0.9984, 
                 spin up      =   5.1742, d =  0.9832, dz2=  0.1566, dxz=  0.1532, dyz=  0.2869, dx2-y2=  0.2308, dxy=  0.1558, 
                 spin down    =   5.1742, s =  1.1945, 
                 spin down    =   5.1742, p =  2.9965, pz=  0.9992, px=  0.9989, py=  0.9984, 
                 spin down    =   5.1742, d =  0.9832, dz2=  0.1566, dxz=  0.1532, dyz=  0.2869, dx2-y2=  0.2308, dxy=  0.1558, 
                 polarization =  -0.0000, s = -0.0000, p = -0.0000, d = -0.0000, 
     Atom #  39: total charge =   6.7521, s =  1.8069, p =  4.9451, d =  0.0000, 
                 spin up      =   3.3760, s =  0.9035, 
                 spin up      =   3.3760, p =  2.4726, pz=  0.7969, px=  0.8582, py=  0.8176, 
                 spin up      =   3.3760, d =  0.0000, dz2=  0.0000, dxz=  0.0000, dyz=  0.0000, dx2-y2=  0.0000, dxy=  0.0000, 
                 spin down    =   3.3760, s =  0.9035, 
                 spin down    =   3.3760, p =  2.4726, pz=  0.7969, px=  0.8582, py=  0.8176, 
                 spin down    =   3.3760, d =  0.0000, dz2=  0.0000, dxz=  0.0000, dyz=  0.0000, dx2-y2=  0.0000, dxy=  0.0000, 
                 polarization =   0.0000, s =  0.0000, p =  0.0000, d =  0.0000, 
     Atom #  40: total charge =   6.8097, s =  1.8380, p =  4.9717, d =  0.0000, 
                 spin up      =   3.4048, s =  0.9190, 
                 spin up      =   3.4048, p =  2.4859, pz=  0.8058, px=  0.8560, py=  0.8241, 
                 spin up      =   3.4048, d =  0.0000, dz2=  0.0000, dxz=  0.0000, dyz=  0.0000, dx2-y2=  0.0000, dxy=  0.0000, 
                 spin down    =   3.4048, s =  0.9190, 
                 spin down    =   3.4048, p =  2.4859, pz=  0.8058, px=  0.8560, py=  0.8241, 
                 spin down    =   3.4048, d =  0.0000, dz2=  0.0000, dxz=  0.0000, dyz=  0.0000, dx2-y2=  0.0000, dxy=  0.0000, 
                 polarization =   0.0000, s = -0.0000, p =  0.0000, d =  0.0000, 
     Atom #  41: total charge =   6.7991, s =  1.8186, p =  4.9806, d =  0.0000, 
                 spin up      =   3.3996, s =  0.9093, 
                 spin up      =   3.3996, p =  2.4903, pz=  0.8588, px=  0.8024, py=  0.8291, 
                 spin up      =   3.3996, d =  0.0000, dz2=  0.0000, dxz=  0.0000, dyz=  0.0000, dx2-y2=  0.0000, dxy=  0.0000, 
                 spin down    =   3.3996, s =  0.9093, 
                 spin down    =   3.3996, p =  2.4903, pz=  0.8588, px=  0.8024, py=  0.8291, 
                 spin down    =   3.3996, d =  0.0000, dz2=  0.0000, dxz=  0.0000, dyz=  0.0000, dx2-y2=  0.0000, dxy=  0.0000, 
                 polarization =  -0.0000, s =  0.0000, p = -0.0000, d =  0.0000, 
     Atom #  42: total charge =  10.3517, s =  2.3867, p =  5.9919, d =  1.9732, 
                 spin up      =   5.1758, s =  1.1933, 
                 spin up      =   5.1758, p =  2.9959, pz=  0.9981, px=  0.9992, py=  0.9986, 
                 spin up      =   5.1758, d =  0.9866, dz2=  0.2718, dxz=  0.1694, dyz=  0.1584, dx2-y2=  0.1156, dxy=  0.2714, 
                 spin down    =   5.1758, s =  1.1933, 
                 spin down    =   5.1758, p =  2.9959, pz=  0.9981, px=  0.9992, py=  0.9986, 
                 spin down    =   5.1758, d =  0.9866, dz2=  0.2718, dxz=  0.1694, dyz=  0.1584, dx2-y2=  0.1156, dxy=  0.2714, 
                 polarization =   0.0000, s =  0.0000, p =  0.0000, d =  0.0000, 
     Atom #  43: total charge =   6.8162, s =  1.8281, p =  4.9881, d =  0.0000, 
                 spin up      =   3.4081, s =  0.9141, 
                 spin up      =   3.4081, p =  2.4940, pz=  0.7997, px=  0.8583, py=  0.8360, 
                 spin up      =   3.4081, d =  0.0000, dz2=  0.0000, dxz=  0.0000, dyz=  0.0000, dx2-y2=  0.0000, dxy=  0.0000, 
                 spin down    =   3.4081, s =  0.9141, 
                 spin down    =   3.4081, p =  2.4940, pz=  0.7997, px=  0.8583, py=  0.8360, 
                 spin down    =   3.4081, d =  0.0000, dz2=  0.0000, dxz=  0.0000, dyz=  0.0000, dx2-y2=  0.0000, dxy=  0.0000, 
                 polarization =   0.0000, s =  0.0000, p =  0.0000, d =  0.0000, 
     Atom #  44: total charge =   6.8054, s =  1.8194, p =  4.9860, d =  0.0000, 
                 spin up      =   3.4027, s =  0.9097, 
                 spin up      =   3.4027, p =  2.4930, pz=  0.8672, px=  0.7985, py=  0.8273, 
                 spin up      =   3.4027, d =  0.0000, dz2=  0.0000, dxz=  0.0000, dyz=  0.0000, dx2-y2=  0.0000, dxy=  0.0000, 
                 spin down    =   3.4027, s =  0.9097, 
                 spin down    =   3.4027, p =  2.4930, pz=  0.8672, px=  0.7985, py=  0.8273, 
                 spin down    =   3.4027, d =  0.0000, dz2=  0.0000, dxz=  0.0000, dyz=  0.0000, dx2-y2=  0.0000, dxy=  0.0000, 
                 polarization =  -0.0000, s = -0.0000, p = -0.0000, d =  0.0000, 
     Atom #  45: total charge =   6.8054, s =  1.8194, p =  4.9860, d =  0.0000, 
                 spin up      =   3.4027, s =  0.9097, 
                 spin up      =   3.4027, p =  2.4930, pz=  0.8672, px=  0.7985, py=  0.8273, 
                 spin up      =   3.4027, d =  0.0000, dz2=  0.0000, dxz=  0.0000, dyz=  0.0000, dx2-y2=  0.0000, dxy=  0.0000, 
                 spin down    =   3.4027, s =  0.9097, 
                 spin down    =   3.4027, p =  2.4930, pz=  0.8672, px=  0.7985, py=  0.8273, 
                 spin down    =   3.4027, d =  0.0000, dz2=  0.0000, dxz=  0.0000, dyz=  0.0000, dx2-y2=  0.0000, dxy=  0.0000, 
                 polarization =  -0.0000, s = -0.0000, p = -0.0000, d =  0.0000, 
     Atom #  46: total charge =  10.3764, s =  2.3788, p =  5.9900, d =  2.0076, 
                 spin up      =   5.1882, s =  1.1894, 
                 spin up      =   5.1882, p =  2.9950, pz=  0.9986, px=  0.9990, py=  0.9973, 
                 spin up      =   5.1882, d =  1.0038, dz2=  0.1778, dxz=  0.1346, dyz=  0.2834, dx2-y2=  0.2488, dxy=  0.1592, 
                 spin down    =   5.1882, s =  1.1894, 
                 spin down    =   5.1882, p =  2.9950, pz=  0.9986, px=  0.9990, py=  0.9973, 
                 spin down    =   5.1882, d =  1.0038, dz2=  0.1778, dxz=  0.1346, dyz=  0.2834, dx2-y2=  0.2488, dxy=  0.1592, 
                 polarization =  -0.0000, s =  0.0000, p =  0.0000, d = -0.0000, 
     Atom #  47: total charge =   6.6543, s =  1.8358, p =  4.8185, d =  0.0000, 
                 spin up      =   3.3271, s =  0.9179, 
                 spin up      =   3.3271, p =  2.4093, pz=  0.8012, px=  0.8173, py=  0.7907, 
                 spin up      =   3.3271, d =  0.0000, dz2=  0.0000, dxz=  0.0000, dyz=  0.0000, dx2-y2=  0.0000, dxy=  0.0000, 
                 spin down    =   3.3271, s =  0.9179, 
                 spin down    =   3.3271, p =  2.4093, pz=  0.8012, px=  0.8173, py=  0.7907, 
                 spin down    =   3.3271, d =  0.0000, dz2=  0.0000, dxz=  0.0000, dyz=  0.0000, dx2-y2=  0.0000, dxy=  0.0000, 
                 polarization =   0.0000, s =  0.0000, p =  0.0000, d =  0.0000, 
     Atom #  48: total charge =   6.8281, s =  1.8222, p =  5.0059, d =  0.0000, 
                 spin up      =   3.4140, s =  0.9111, 
                 spin up      =   3.4140, p =  2.5030, pz=  0.8712, px=  0.8066, py=  0.8252, 
                 spin up      =   3.4140, d =  0.0000, dz2=  0.0000, dxz=  0.0000, dyz=  0.0000, dx2-y2=  0.0000, dxy=  0.0000, 
                 spin down    =   3.4140, s =  0.9111, 
                 spin down    =   3.4140, p =  2.5030, pz=  0.8712, px=  0.8066, py=  0.8252, 
                 spin down    =   3.4140, d =  0.0000, dz2=  0.0000, dxz=  0.0000, dyz=  0.0000, dx2-y2=  0.0000, dxy=  0.0000, 
                 polarization =  -0.0000, s = -0.0000, p = -0.0000, d =  0.0000, 
     Spilling Parameter:   0.0029
