  python dir          : /home/vossj/suncat/lib/python2.7/site-packages/espresso
  espresso dir        : /home/vossj/suncat/esdld/espresso-dynpy-beef/bin
  pseudo dir          : /home/alatimer/bin/psp/esp_psp_w_gbrvRu/
  ase-espresso py git : ffa2778-git



     Program PWSCF v.5.1rc2 (svn rev. ) starts on 13Feb2018 at  7:32:53 

     This program is part of the open-source Quantum ESPRESSO suite
     for quantum simulation of materials; please cite
         "P. Giannozzi et al., J. Phys.:Condens. Matter 21 395502 (2009);
          URL http://www.quantum-espresso.org", 
     in publications or presentations arising from this work. More details at
     http://www.quantum-espresso.org/quote

     Parallel version (MPI), running on    16 processors
     R & G space division:  proc/nbgrp/npool/nimage =      16
     Reading input from pw.inp
     Message from routine read_cards :
     DEPRECATED: no units specified in CELL_PARAMETERS card

     Current dimensions of program PWSCF are:
     Max number of different atomic species (ntypx) = 10
     Max number of k-points (npk) =  40000
     Max angular momentum in pseudopotentials (lmaxx) =  3

     **************************************************************************
     Initializing libbeef V0.1.1 with the BEEF-vdW functional.
     Citation: Wellendorff et al., PRB 85, 235149 (2012).
     **************************************************************************


     IMPORTANT: XC functional enforced from input :
     Exchange-correlation      = BEEF ( 1  4 27 13 2)
     Any further DFT definition will be discarded
     Please, verify this is what you really want


     Subspace diagonalization in iterative solution of the eigenvalue problem:
     a serial algorithm will be used

 
     Parallelization info
     --------------------
     sticks:   dense  smooth     PW     G-vecs:    dense   smooth      PW
     Min         281     112     31                68535    17318    2565
     Max         282     113     32                68545    17369    2582
     Sum        4501    1795    503              1096637   277353   41113
 
     Generating pointlists ...
     new r_m :   0.4125 (alat units)  0.7795 (a.u.) for type    1
     new r_m :   0.3995 (alat units)  0.7549 (a.u.) for type    2
     new r_m :   0.4125 (alat units)  0.7795 (a.u.) for type    3
     new r_m :   0.3995 (alat units)  0.7549 (a.u.) for type    4


     bravais-lattice index     =            0
     lattice parameter (alat)  =       1.8897  a.u.
     unit-cell volume          =    7990.9933 (a.u.)^3
     number of atoms/cell      =           54
     number of atomic types    =            4
     number of electrons       =       398.00
     number of Kohn-Sham states=          299
     kinetic-energy cutoff     =      40.4243  Ry
     charge density cutoff     =     404.2426  Ry
     convergence threshold     =      7.3E-07
     mixing beta               =       0.1000
     number of iterations used =           10  plain     mixing
     Exchange-correlation      = BEEF ( 1  4 27 13 2)
     nstep                     =           50


     celldm(1)=   1.889726  celldm(2)=   0.000000  celldm(3)=   0.000000
     celldm(4)=   0.000000  celldm(5)=   0.000000  celldm(6)=   0.000000

     crystal axes: (cart. coord. in units of alat)
               a(1) = (   6.590708   0.000000   0.000000 )  
               a(2) = (   0.000000   5.950229   0.000000 )  
               a(3) = (   0.000000   0.000000  30.195235 )  

     reciprocal axes: (cart. coord. in units 2 pi/alat)
               b(1) = (  0.151729  0.000000  0.000000 )  
               b(2) = (  0.000000  0.168061  0.000000 )  
               b(3) = (  0.000000  0.000000  0.033118 )  


     PseudoPot. # 1 for Ti read from file:
     /home/alatimer/bin/psp/esp_psp_w_gbrvRu/Ti.UPF
     MD5 check sum: 8e4df49b7f0d34bbd5052bf3f5ea0213
     Pseudo is Ultrasoft, Zval = 12.0
     Generated by new atomic code, or converted to UPF format
     Using radial grid of  851 points,  6 beta functions with: 
                l(1) =   0
                l(2) =   0
                l(3) =   1
                l(4) =   1
                l(5) =   2
                l(6) =   2
     Q(r) pseudized with  8 coefficients,  rinner =    1.000   1.000   1.000
                                                       1.000   1.000

     PseudoPot. # 2 for  O read from file:
     /home/alatimer/bin/psp/esp_psp_w_gbrvRu/O.UPF
     MD5 check sum: e057bbcf3229fb5d8c36c0c92f9568b4
     Pseudo is Ultrasoft + core correction, Zval =  6.0
     Generated using "atomic" code by A. Dal Corso  v.5.0.2 svn rev. 9415
     Using radial grid of 1095 points,  4 beta functions with: 
                l(1) =   0
                l(2) =   0
                l(3) =   1
                l(4) =   1
     Q(r) pseudized with 0 coefficients 


     PseudoPot. # 3 for  C read from file:
     /home/alatimer/bin/psp/esp_psp_w_gbrvRu/C.UPF
     MD5 check sum: ab446d787031eba755f1d5ee46644bb0
     Pseudo is Ultrasoft + core correction, Zval =  4.0
     Generated using "atomic" code by A. Dal Corso  v.5.0.2 svn rev. 9415
     Using radial grid of 1073 points,  4 beta functions with: 
                l(1) =   0
                l(2) =   0
                l(3) =   1
                l(4) =   1
     Q(r) pseudized with 0 coefficients 


     PseudoPot. # 4 for  H read from file:
     /home/alatimer/bin/psp/esp_psp_w_gbrvRu/H.UPF
     MD5 check sum: bd57da0722753ddfd9833a65b40bb853
     Pseudo is Ultrasoft, Zval =  1.0
     Generated using "atomic" code by A. Dal Corso  v.5.0.2 svn rev. 9415
     Using radial grid of  929 points,  2 beta functions with: 
                l(1) =   0
                l(2) =   0
     Q(r) pseudized with 0 coefficients 


     vdW kernel table read from file vdW_kernel_table
     MD5 check sum: 095c7af220d748ca6e76c0b4c6cfb241

     atomic species   valence    mass     pseudopotential
        Ti1           12.00    47.88000     Ti( 1.00)
        O1             6.00    15.99940      O( 1.00)
        C1             4.00    12.01100      C( 1.00)
        H1             1.00     1.00794      H( 1.00)

     Starting magnetic structure 
     atomic species   magnetization
        Ti1          0.250
        O1           0.500
        C1           0.750
        H1           0.000

     No symmetry found



   Cartesian axes

     site n.     atom                  positions (alat units)
         1           Ti1 tau(   1) = (   1.6476770   0.7437786   2.6545865  )
         2           O1  tau(   2) = (   1.6476770   2.2313359   3.9361215  )
         3           Ti1 tau(   3) = (   1.6476770   2.2313359   5.9499405  )
         4           O1  tau(   4) = (   0.3661420   0.7437786   5.9499405  )
         5           Ti1 tau(   5) = (   1.7592931   0.7557636   9.1813031  )
         6           O1  tau(   6) = (   1.6162490   2.2572048  10.5951269  )
         7           Ti1 tau(   7) = (   1.5595004   2.2680265  12.4668274  )
         8           O1  tau(   8) = (   0.3709531   0.7738127  12.6996540  )
         9           Ti1 tau(   9) = (   1.6476770   3.7188931   2.6545865  )
        10           O1  tau(  10) = (   1.6476770   5.2064503   3.9361215  )
        11           Ti1 tau(  11) = (   1.6476770   5.2064503   5.9499405  )
        12           O1  tau(  12) = (   0.3661420   3.7188931   5.9499405  )
        13           Ti1 tau(  13) = (   1.7607536   3.7112867   9.1949733  )
        14           O1  tau(  14) = (   1.6133076   5.2250699  10.5465640  )
        15           Ti1 tau(  15) = (   1.6492307   5.2431137  12.3448001  )
        16           O1  tau(  16) = (   0.3719744   3.7598389  12.7007434  )
        17           O1  tau(  17) = (   1.6476770   2.2313359   1.3730516  )
        18           Ti1 tau(  18) = (   4.9430310   2.2313359   2.6545865  )
        19           O1  tau(  19) = (   4.9430310   2.2313359   4.6684056  )
        20           O1  tau(  20) = (   6.2245660   0.7437786   2.6545865  )
        21           O1  tau(  21) = (   3.6614961   0.7437786   2.6545865  )
        22           Ti1 tau(  22) = (   4.9430310   0.7437786   5.9499405  )
        23           O1  tau(  23) = (   1.6387103   2.2391978   8.0037664  )
        24           O1  tau(  24) = (   4.9430310   2.2313359   7.2314755  )
        25           O1  tau(  25) = (   2.9292120   0.7437786   5.9499405  )
        26           Ti1 tau(  26) = (   5.0158092   2.2383949   9.3973727  )
        27           O1  tau(  27) = (   4.9391445   2.2276729  11.2675731  )
        28           O1  tau(  28) = (   6.2094020   0.7514556   9.2742047  )
        29           O1  tau(  29) = (   3.6131301   0.7515640   9.2682932  )
        30           Ti1 tau(  30) = (   4.8940083   0.8207741  12.7348365  )
        31           O1  tau(  31) = (   4.8487174   2.2703822  13.8475395  )
        32           O1  tau(  32) = (   2.8766274   0.7418004  12.6316555  )
        33           O1  tau(  33) = (   1.6476770   5.2064503   1.3730516  )
        34           Ti1 tau(  34) = (   4.9430310   5.2064503   2.6545865  )
        35           O1  tau(  35) = (   4.9430310   5.2064503   4.6684056  )
        36           O1  tau(  36) = (   6.2245660   3.7188931   2.6545865  )
        37           O1  tau(  37) = (   3.6614961   3.7188931   2.6545865  )
        38           Ti1 tau(  38) = (   4.9430310   3.7188931   5.9499405  )
        39           O1  tau(  39) = (   1.6418458   5.2133935   8.0066417  )
        40           O1  tau(  40) = (   4.9430310   5.2064503   7.2314755  )
        41           O1  tau(  41) = (   2.9292120   3.7188931   5.9499405  )
        42           Ti1 tau(  42) = (   5.0218241   5.2139137   9.3870600  )
        43           O1  tau(  43) = (   4.9399496   5.2040061  11.2598200  )
        44           O1  tau(  44) = (   6.2073000   3.7245411   9.2731052  )
        45           O1  tau(  45) = (   3.6137513   3.7232133   9.2682466  )
        46           Ti1 tau(  46) = (   4.8936935   3.8094630  12.7397413  )
        47           O1  tau(  47) = (   4.9051259   5.2510468  13.8339921  )
        48           O1  tau(  48) = (   2.8743370   3.7938830  12.6403791  )
        49           C1  tau(  49) = (   1.0587210   2.2268971  15.9066084  )
        50           O1  tau(  50) = (   1.8917182   2.2355032  14.7378010  )
        51           H1  tau(  51) = (   0.0310076   2.2200215  15.5603933  )
        52           H1  tau(  52) = (   2.8355400   2.2288152  14.9543747  )
        53           H1  tau(  53) = (   1.2478062   1.3326534  16.5039879  )
        54           H1  tau(  54) = (   1.2341453   3.0895140  16.5098874  )

     number of k points=    40  Fermi-Dirac smearing, width (Ry)=  0.0073
                       cart. coord. in units 2pi/alat
        k(    1) = (   0.0000000   0.0000000   0.0000000), wk =   0.0277778
        k(    2) = (   0.0000000   0.0280101   0.0000000), wk =   0.0555556
        k(    3) = (   0.0000000   0.0560203   0.0000000), wk =   0.0555556
        k(    4) = (   0.0000000  -0.0840304   0.0000000), wk =   0.0277778
        k(    5) = (   0.0252881   0.0000000   0.0000000), wk =   0.0555556
        k(    6) = (   0.0252881   0.0280101   0.0000000), wk =   0.0555556
        k(    7) = (   0.0252881   0.0560203   0.0000000), wk =   0.0555556
        k(    8) = (   0.0252881  -0.0840304   0.0000000), wk =   0.0555556
        k(    9) = (   0.0505763   0.0000000   0.0000000), wk =   0.0555556
        k(   10) = (   0.0505763   0.0280101   0.0000000), wk =   0.0555556
        k(   11) = (   0.0505763   0.0560203   0.0000000), wk =   0.0555556
        k(   12) = (   0.0505763  -0.0840304   0.0000000), wk =   0.0555556
        k(   13) = (  -0.0758644   0.0000000   0.0000000), wk =   0.0277778
        k(   14) = (  -0.0758644   0.0280101   0.0000000), wk =   0.0555556
        k(   15) = (  -0.0758644   0.0560203   0.0000000), wk =   0.0555556
        k(   16) = (  -0.0758644  -0.0840304   0.0000000), wk =   0.0277778
        k(   17) = (  -0.0252881   0.0280101   0.0000000), wk =   0.0555556
        k(   18) = (  -0.0252881   0.0560203   0.0000000), wk =   0.0555556
        k(   19) = (  -0.0505763   0.0280101   0.0000000), wk =   0.0555556
        k(   20) = (  -0.0505763   0.0560203   0.0000000), wk =   0.0555556
        k(   21) = (   0.0000000   0.0000000   0.0000000), wk =   0.0277778
        k(   22) = (   0.0000000   0.0280101   0.0000000), wk =   0.0555556
        k(   23) = (   0.0000000   0.0560203   0.0000000), wk =   0.0555556
        k(   24) = (   0.0000000  -0.0840304   0.0000000), wk =   0.0277778
        k(   25) = (   0.0252881   0.0000000   0.0000000), wk =   0.0555556
        k(   26) = (   0.0252881   0.0280101   0.0000000), wk =   0.0555556
        k(   27) = (   0.0252881   0.0560203   0.0000000), wk =   0.0555556
        k(   28) = (   0.0252881  -0.0840304   0.0000000), wk =   0.0555556
        k(   29) = (   0.0505763   0.0000000   0.0000000), wk =   0.0555556
        k(   30) = (   0.0505763   0.0280101   0.0000000), wk =   0.0555556
        k(   31) = (   0.0505763   0.0560203   0.0000000), wk =   0.0555556
        k(   32) = (   0.0505763  -0.0840304   0.0000000), wk =   0.0555556
        k(   33) = (  -0.0758644   0.0000000   0.0000000), wk =   0.0277778
        k(   34) = (  -0.0758644   0.0280101   0.0000000), wk =   0.0555556
        k(   35) = (  -0.0758644   0.0560203   0.0000000), wk =   0.0555556
        k(   36) = (  -0.0758644  -0.0840304   0.0000000), wk =   0.0277778
        k(   37) = (  -0.0252881   0.0280101   0.0000000), wk =   0.0555556
        k(   38) = (  -0.0252881   0.0560203   0.0000000), wk =   0.0555556
        k(   39) = (  -0.0505763   0.0280101   0.0000000), wk =   0.0555556
        k(   40) = (  -0.0505763   0.0560203   0.0000000), wk =   0.0555556

     Dense  grid:  1096637 G-vectors     FFT dimensions: (  80,  72, 375)

     Smooth grid:   277353 G-vectors     FFT dimensions: (  54,  45, 240)

     Largest allocated arrays     est. size (Mb)     dimensions
        Kohn-Sham Wavefunctions         9.95 Mb     (    2180,  299)
        NL pseudopotentials            18.89 Mb     (    2180,  568)
        Each V/rho on FFT grid          4.22 Mb     (  138240,   2)
        Each G-vector array             0.52 Mb     (   68538)
        G-vector shells                 0.25 Mb     (   33046)
     Largest temporary arrays     est. size (Mb)     dimensions
        Auxiliary wavefunctions        39.78 Mb     (    2180, 1196)
        Each subspace H/S matrix       21.83 Mb     (    1196, 1196)
        Each <psi_i|beta_j> matrix      2.59 Mb     (     568,  299)
        Arrays for rho mixing          21.09 Mb     (  138240,   10)

     Check: negative/imaginary core charge=   -0.000049    0.000000

     The initial density is read from file :
     ./calc.save/charge-density.dat


     negative rho (up, down):  1.209E-02 1.209E-02


     ************************************************************************
     *
     * You are using vdW-DF for exchange-correlation in this calculation.
     * Please cite the following three references that made this development
     * possible:
     *
     *   M. Dion, H. Rydberg, E. Schroder, D. C. Langreth, and
     *   B. I. Lundqvist, Phys. Rev. Lett. 92, 246401 (2004).
     *
     *   T. Thonhauser, V. R. Cooper, S. Li, A. Puzder, P. Hyldgaard, and
     *   D. C. Langreth, Phys. Rev. B 76, 125112 (2007).
     *
     *   G. Roman-Perez and J. M. Soler, Phys. Rev. Lett. 103, 096102 (2009).
     *
     *
     * If you are using vdW-DF2, please also cite:
     *
     *   K. Lee, E. D. Murray, L. Kong, B. I. Lundqvist, and
     *   D. C. Langreth, Phys. Rev. B 82, 081101(R) (2010).
     *
     *
     * If you are calculating the stress with vdW-DF, please also cite:
     *
     *   R. Sabatini, E. Kucukbenli, B. Kolb, T. Thonhauser, and
     *   S. de Gironcoli, J. Phys.: Condens. Matter 24, 424209 (2012).
     *
     ************************************************************************

     Carrying out vdW-DF run using the following parameters:

     Nqs =      20    Nr_points =    1024   r_max =   100.000
     q_mesh =
               0.00001000     0.04494208     0.09755937     0.15916263
               0.23128650     0.31572767     0.41458969     0.53033537
               0.66584808     0.82450364     1.01025438     1.22772762
               1.48234092     1.78043706     2.12944203     2.53805004
               3.01644009     3.57652955     4.23227104     5.00000000

     Gradients computed in reciprocal space

     ************************************************************************


     Starting wfc are  300 randomized atomic wfcs

     total cpu time spent up to now is       73.4 secs

     Self-consistent Calculation

     iteration #  1     ecut=    40.42 Ry     beta=0.10
     Davidson diagonalization with overlap
     ethr =  1.00E-05,  avg # of iterations = 14.7

     Threshold (ethr) on eigenvalues was too large:
     Diagonalizing with lowered threshold

     Davidson diagonalization with overlap
     ethr =  6.04E-07,  avg # of iterations =  1.0

     negative rho (up, down):  1.209E-02 1.209E-02
 
     Magnetic moment per site:
     atom:    1    charge:    3.1250    magn:   -0.0002    constr:    0.0000
     atom:    2    charge:    1.9452    magn:    0.0000    constr:    0.0000
     atom:    3    charge:    3.1198    magn:    0.0000    constr:    0.0000
     atom:    4    charge:    1.9504    magn:   -0.0001    constr:    0.0000
     atom:    5    charge:    3.1166    magn:    0.0000    constr:    0.0000
     atom:    6    charge:    1.9476    magn:   -0.0001    constr:    0.0000
     atom:    7    charge:    3.1157    magn:    0.0001    constr:    0.0000
     atom:    8    charge:    1.9452    magn:   -0.0001    constr:    0.0000
     atom:    9    charge:    3.1250    magn:   -0.0002    constr:    0.0000
     atom:   10    charge:    1.9452    magn:    0.0000    constr:    0.0000
     atom:   11    charge:    3.1197    magn:    0.0000    constr:    0.0000
     atom:   12    charge:    1.9504    magn:   -0.0001    constr:    0.0000
     atom:   13    charge:    3.1158    magn:    0.0000    constr:    0.0000
     atom:   14    charge:    1.9587    magn:   -0.0001    constr:    0.0000
     atom:   15    charge:    3.1188    magn:    0.0001    constr:    0.0000
     atom:   16    charge:    1.9445    magn:   -0.0001    constr:    0.0000
     atom:   17    charge:    1.9184    magn:    0.0004    constr:    0.0000
     atom:   18    charge:    3.1239    magn:   -0.0001    constr:    0.0000
     atom:   19    charge:    1.9408    magn:   -0.0000    constr:    0.0000
     atom:   20    charge:    1.9471    magn:    0.0000    constr:    0.0000
     atom:   21    charge:    1.9471    magn:    0.0000    constr:    0.0000
     atom:   22    charge:    3.1196    magn:    0.0000    constr:    0.0000
     atom:   23    charge:    1.9566    magn:   -0.0001    constr:    0.0000
     atom:   24    charge:    1.9379    magn:   -0.0001    constr:    0.0000
     atom:   25    charge:    1.9505    magn:   -0.0001    constr:    0.0000
     atom:   26    charge:    3.1145    magn:    0.0001    constr:    0.0000
     atom:   27    charge:    1.9398    magn:   -0.0001    constr:    0.0000
     atom:   28    charge:    1.9517    magn:   -0.0001    constr:    0.0000
     atom:   29    charge:    1.9476    magn:   -0.0001    constr:    0.0000
     atom:   30    charge:    3.1167    magn:    0.0000    constr:    0.0000
     atom:   31    charge:    1.9447    magn:   -0.0000    constr:    0.0000
     atom:   32    charge:    1.9440    magn:   -0.0001    constr:    0.0000
     atom:   33    charge:    1.9184    magn:    0.0004    constr:    0.0000
     atom:   34    charge:    3.1239    magn:   -0.0001    constr:    0.0000
     atom:   35    charge:    1.9408    magn:   -0.0000    constr:    0.0000
     atom:   36    charge:    1.9471    magn:    0.0000    constr:    0.0000
     atom:   37    charge:    1.9471    magn:    0.0000    constr:    0.0000
     atom:   38    charge:    3.1196    magn:    0.0000    constr:    0.0000
     atom:   39    charge:    1.9549    magn:   -0.0001    constr:    0.0000
     atom:   40    charge:    1.9383    magn:   -0.0001    constr:    0.0000
     atom:   41    charge:    1.9505    magn:   -0.0001    constr:    0.0000
     atom:   42    charge:    3.1141    magn:    0.0001    constr:    0.0000
     atom:   43    charge:    1.9413    magn:   -0.0001    constr:    0.0000
     atom:   44    charge:    1.9517    magn:   -0.0001    constr:    0.0000
     atom:   45    charge:    1.9468    magn:   -0.0001    constr:    0.0000
     atom:   46    charge:    3.1165    magn:    0.0000    constr:    0.0000
     atom:   47    charge:    1.9431    magn:   -0.0000    constr:    0.0000
     atom:   48    charge:    1.9444    magn:   -0.0001    constr:    0.0000
     atom:   49    charge:    0.6594    magn:   -0.0001    constr:    0.0000
     atom:   50    charge:    1.9577    magn:   -0.0001    constr:    0.0000
     atom:   51    charge:    0.4021    magn:    0.0000    constr:    0.0000
     atom:   52    charge:    0.4006    magn:    0.0000    constr:    0.0000
     atom:   53    charge:    0.4033    magn:    0.0000    constr:    0.0000
     atom:   54    charge:    0.4158    magn:    0.0000    constr:    0.0000

     total cpu time spent up to now is     1011.7 secs

     total energy              =   -3021.41980173 Ry
     Harris-Foulkes estimate   =   -3021.42005708 Ry
     estimated scf accuracy    <       0.00240735 Ry

     total magnetization       =     0.00 Bohr mag/cell
     absolute magnetization    =     0.01 Bohr mag/cell

     iteration #  2     ecut=    40.42 Ry     beta=0.10
     Davidson diagonalization with overlap
     ethr =  6.05E-07,  avg # of iterations =  2.0

     negative rho (up, down):  1.211E-02 1.211E-02
 
     Magnetic moment per site:
     atom:    1    charge:    3.1250    magn:   -0.0001    constr:    0.0000
     atom:    2    charge:    1.9452    magn:    0.0000    constr:    0.0000
     atom:    3    charge:    3.1198    magn:    0.0000    constr:    0.0000
     atom:    4    charge:    1.9504    magn:   -0.0000    constr:    0.0000
     atom:    5    charge:    3.1166    magn:    0.0000    constr:    0.0000
     atom:    6    charge:    1.9476    magn:   -0.0001    constr:    0.0000
     atom:    7    charge:    3.1157    magn:    0.0000    constr:    0.0000
     atom:    8    charge:    1.9452    magn:   -0.0001    constr:    0.0000
     atom:    9    charge:    3.1250    magn:   -0.0001    constr:    0.0000
     atom:   10    charge:    1.9452    magn:    0.0000    constr:    0.0000
     atom:   11    charge:    3.1197    magn:    0.0000    constr:    0.0000
     atom:   12    charge:    1.9504    magn:   -0.0000    constr:    0.0000
     atom:   13    charge:    3.1158    magn:    0.0000    constr:    0.0000
     atom:   14    charge:    1.9587    magn:   -0.0001    constr:    0.0000
     atom:   15    charge:    3.1188    magn:    0.0000    constr:    0.0000
     atom:   16    charge:    1.9445    magn:   -0.0001    constr:    0.0000
     atom:   17    charge:    1.9184    magn:    0.0003    constr:    0.0000
     atom:   18    charge:    3.1239    magn:   -0.0001    constr:    0.0000
     atom:   19    charge:    1.9408    magn:   -0.0000    constr:    0.0000
     atom:   20    charge:    1.9471    magn:    0.0000    constr:    0.0000
     atom:   21    charge:    1.9471    magn:    0.0000    constr:    0.0000
     atom:   22    charge:    3.1196    magn:    0.0000    constr:    0.0000
     atom:   23    charge:    1.9566    magn:   -0.0001    constr:    0.0000
     atom:   24    charge:    1.9379    magn:   -0.0000    constr:    0.0000
     atom:   25    charge:    1.9505    magn:   -0.0000    constr:    0.0000
     atom:   26    charge:    3.1145    magn:    0.0000    constr:    0.0000
     atom:   27    charge:    1.9398    magn:   -0.0000    constr:    0.0000
     atom:   28    charge:    1.9517    magn:   -0.0001    constr:    0.0000
     atom:   29    charge:    1.9476    magn:   -0.0001    constr:    0.0000
     atom:   30    charge:    3.1167    magn:    0.0000    constr:    0.0000
     atom:   31    charge:    1.9447    magn:   -0.0000    constr:    0.0000
     atom:   32    charge:    1.9440    magn:   -0.0001    constr:    0.0000
     atom:   33    charge:    1.9184    magn:    0.0003    constr:    0.0000
     atom:   34    charge:    3.1239    magn:   -0.0001    constr:    0.0000
     atom:   35    charge:    1.9408    magn:   -0.0000    constr:    0.0000
     atom:   36    charge:    1.9471    magn:    0.0000    constr:    0.0000
     atom:   37    charge:    1.9471    magn:    0.0000    constr:    0.0000
     atom:   38    charge:    3.1196    magn:    0.0000    constr:    0.0000
     atom:   39    charge:    1.9550    magn:   -0.0001    constr:    0.0000
     atom:   40    charge:    1.9383    magn:   -0.0000    constr:    0.0000
     atom:   41    charge:    1.9505    magn:   -0.0000    constr:    0.0000
     atom:   42    charge:    3.1141    magn:    0.0000    constr:    0.0000
     atom:   43    charge:    1.9413    magn:   -0.0000    constr:    0.0000
     atom:   44    charge:    1.9517    magn:   -0.0001    constr:    0.0000
     atom:   45    charge:    1.9469    magn:   -0.0001    constr:    0.0000
     atom:   46    charge:    3.1165    magn:    0.0000    constr:    0.0000
     atom:   47    charge:    1.9430    magn:   -0.0000    constr:    0.0000
     atom:   48    charge:    1.9444    magn:   -0.0001    constr:    0.0000
     atom:   49    charge:    0.6642    magn:   -0.0000    constr:    0.0000
     atom:   50    charge:    1.9573    magn:   -0.0000    constr:    0.0000
     atom:   51    charge:    0.4015    magn:    0.0000    constr:    0.0000
     atom:   52    charge:    0.4005    magn:    0.0000    constr:    0.0000
     atom:   53    charge:    0.4033    magn:    0.0000    constr:    0.0000
     atom:   54    charge:    0.4162    magn:    0.0000    constr:    0.0000

     total cpu time spent up to now is     1201.3 secs

     total energy              =   -3021.41917922 Ry
     Harris-Foulkes estimate   =   -3021.41981794 Ry
     estimated scf accuracy    <       0.00163247 Ry

     total magnetization       =     0.00 Bohr mag/cell
     absolute magnetization    =     0.01 Bohr mag/cell

     iteration #  3     ecut=    40.42 Ry     beta=0.10
     Davidson diagonalization with overlap
     ethr =  4.10E-07,  avg # of iterations =  4.7

     negative rho (up, down):  1.211E-02 1.211E-02
 
     Magnetic moment per site:
     atom:    1    charge:    3.1250    magn:   -0.0001    constr:    0.0000
     atom:    2    charge:    1.9452    magn:    0.0000    constr:    0.0000
     atom:    3    charge:    3.1198    magn:    0.0000    constr:    0.0000
     atom:    4    charge:    1.9504    magn:   -0.0000    constr:    0.0000
     atom:    5    charge:    3.1166    magn:    0.0000    constr:    0.0000
     atom:    6    charge:    1.9477    magn:   -0.0001    constr:    0.0000
     atom:    7    charge:    3.1157    magn:    0.0000    constr:    0.0000
     atom:    8    charge:    1.9452    magn:   -0.0001    constr:    0.0000
     atom:    9    charge:    3.1250    magn:   -0.0001    constr:    0.0000
     atom:   10    charge:    1.9452    magn:    0.0000    constr:    0.0000
     atom:   11    charge:    3.1197    magn:    0.0000    constr:    0.0000
     atom:   12    charge:    1.9504    magn:   -0.0000    constr:    0.0000
     atom:   13    charge:    3.1158    magn:    0.0000    constr:    0.0000
     atom:   14    charge:    1.9587    magn:   -0.0001    constr:    0.0000
     atom:   15    charge:    3.1188    magn:    0.0000    constr:    0.0000
     atom:   16    charge:    1.9445    magn:   -0.0001    constr:    0.0000
     atom:   17    charge:    1.9184    magn:    0.0003    constr:    0.0000
     atom:   18    charge:    3.1239    magn:   -0.0001    constr:    0.0000
     atom:   19    charge:    1.9408    magn:   -0.0000    constr:    0.0000
     atom:   20    charge:    1.9471    magn:    0.0000    constr:    0.0000
     atom:   21    charge:    1.9471    magn:    0.0000    constr:    0.0000
     atom:   22    charge:    3.1196    magn:    0.0000    constr:    0.0000
     atom:   23    charge:    1.9566    magn:   -0.0001    constr:    0.0000
     atom:   24    charge:    1.9379    magn:   -0.0000    constr:    0.0000
     atom:   25    charge:    1.9505    magn:   -0.0000    constr:    0.0000
     atom:   26    charge:    3.1145    magn:    0.0000    constr:    0.0000
     atom:   27    charge:    1.9398    magn:   -0.0000    constr:    0.0000
     atom:   28    charge:    1.9517    magn:   -0.0001    constr:    0.0000
     atom:   29    charge:    1.9476    magn:   -0.0001    constr:    0.0000
     atom:   30    charge:    3.1167    magn:    0.0000    constr:    0.0000
     atom:   31    charge:    1.9447    magn:   -0.0000    constr:    0.0000
     atom:   32    charge:    1.9440    magn:   -0.0001    constr:    0.0000
     atom:   33    charge:    1.9184    magn:    0.0003    constr:    0.0000
     atom:   34    charge:    3.1239    magn:   -0.0001    constr:    0.0000
     atom:   35    charge:    1.9408    magn:   -0.0000    constr:    0.0000
     atom:   36    charge:    1.9471    magn:    0.0000    constr:    0.0000
     atom:   37    charge:    1.9471    magn:    0.0000    constr:    0.0000
     atom:   38    charge:    3.1196    magn:    0.0000    constr:    0.0000
     atom:   39    charge:    1.9549    magn:   -0.0001    constr:    0.0000
     atom:   40    charge:    1.9383    magn:   -0.0000    constr:    0.0000
     atom:   41    charge:    1.9505    magn:   -0.0000    constr:    0.0000
     atom:   42    charge:    3.1141    magn:    0.0000    constr:    0.0000
     atom:   43    charge:    1.9413    magn:   -0.0000    constr:    0.0000
     atom:   44    charge:    1.9517    magn:   -0.0001    constr:    0.0000
     atom:   45    charge:    1.9468    magn:   -0.0001    constr:    0.0000
     atom:   46    charge:    3.1165    magn:    0.0000    constr:    0.0000
     atom:   47    charge:    1.9431    magn:   -0.0000    constr:    0.0000
     atom:   48    charge:    1.9444    magn:   -0.0001    constr:    0.0000
     atom:   49    charge:    0.6631    magn:   -0.0000    constr:    0.0000
     atom:   50    charge:    1.9576    magn:   -0.0000    constr:    0.0000
     atom:   51    charge:    0.4017    magn:    0.0000    constr:    0.0000
     atom:   52    charge:    0.4005    magn:    0.0000    constr:    0.0000
     atom:   53    charge:    0.4034    magn:    0.0000    constr:    0.0000
     atom:   54    charge:    0.4164    magn:    0.0000    constr:    0.0000

     total cpu time spent up to now is     1435.5 secs

     total energy              =   -3021.41942742 Ry
     Harris-Foulkes estimate   =   -3021.41945362 Ry
     estimated scf accuracy    <       0.00019834 Ry

     total magnetization       =     0.00 Bohr mag/cell
     absolute magnetization    =     0.00 Bohr mag/cell

     iteration #  4     ecut=    40.42 Ry     beta=0.10
     Davidson diagonalization with overlap
     ethr =  4.98E-08,  avg # of iterations =  3.0

     negative rho (up, down):  1.211E-02 1.211E-02
 
     Magnetic moment per site:
     atom:    1    charge:    3.1250    magn:   -0.0001    constr:    0.0000
     atom:    2    charge:    1.9452    magn:    0.0000    constr:    0.0000
     atom:    3    charge:    3.1198    magn:    0.0000    constr:    0.0000
     atom:    4    charge:    1.9504    magn:   -0.0000    constr:    0.0000
     atom:    5    charge:    3.1166    magn:    0.0000    constr:    0.0000
     atom:    6    charge:    1.9477    magn:   -0.0000    constr:    0.0000
     atom:    7    charge:    3.1157    magn:    0.0000    constr:    0.0000
     atom:    8    charge:    1.9452    magn:   -0.0000    constr:    0.0000
     atom:    9    charge:    3.1250    magn:   -0.0001    constr:    0.0000
     atom:   10    charge:    1.9452    magn:    0.0000    constr:    0.0000
     atom:   11    charge:    3.1197    magn:    0.0000    constr:    0.0000
     atom:   12    charge:    1.9504    magn:   -0.0000    constr:    0.0000
     atom:   13    charge:    3.1158    magn:    0.0000    constr:    0.0000
     atom:   14    charge:    1.9587    magn:   -0.0000    constr:    0.0000
     atom:   15    charge:    3.1189    magn:    0.0000    constr:    0.0000
     atom:   16    charge:    1.9446    magn:   -0.0000    constr:    0.0000
     atom:   17    charge:    1.9184    magn:    0.0002    constr:    0.0000
     atom:   18    charge:    3.1239    magn:   -0.0000    constr:    0.0000
     atom:   19    charge:    1.9408    magn:   -0.0000    constr:    0.0000
     atom:   20    charge:    1.9471    magn:    0.0000    constr:    0.0000
     atom:   21    charge:    1.9471    magn:    0.0000    constr:    0.0000
     atom:   22    charge:    3.1196    magn:    0.0000    constr:    0.0000
     atom:   23    charge:    1.9566    magn:   -0.0000    constr:    0.0000
     atom:   24    charge:    1.9379    magn:   -0.0000    constr:    0.0000
     atom:   25    charge:    1.9505    magn:   -0.0000    constr:    0.0000
     atom:   26    charge:    3.1145    magn:    0.0000    constr:    0.0000
     atom:   27    charge:    1.9398    magn:   -0.0000    constr:    0.0000
     atom:   28    charge:    1.9517    magn:   -0.0000    constr:    0.0000
     atom:   29    charge:    1.9476    magn:   -0.0000    constr:    0.0000
     atom:   30    charge:    3.1167    magn:    0.0000    constr:    0.0000
     atom:   31    charge:    1.9447    magn:   -0.0000    constr:    0.0000
     atom:   32    charge:    1.9440    magn:   -0.0000    constr:    0.0000
     atom:   33    charge:    1.9184    magn:    0.0002    constr:    0.0000
     atom:   34    charge:    3.1239    magn:   -0.0000    constr:    0.0000
     atom:   35    charge:    1.9408    magn:   -0.0000    constr:    0.0000
     atom:   36    charge:    1.9471    magn:    0.0000    constr:    0.0000
     atom:   37    charge:    1.9471    magn:    0.0000    constr:    0.0000
     atom:   38    charge:    3.1196    magn:    0.0000    constr:    0.0000
     atom:   39    charge:    1.9549    magn:   -0.0000    constr:    0.0000
     atom:   40    charge:    1.9383    magn:   -0.0000    constr:    0.0000
     atom:   41    charge:    1.9505    magn:   -0.0000    constr:    0.0000
     atom:   42    charge:    3.1141    magn:    0.0000    constr:    0.0000
     atom:   43    charge:    1.9413    magn:   -0.0000    constr:    0.0000
     atom:   44    charge:    1.9518    magn:   -0.0000    constr:    0.0000
     atom:   45    charge:    1.9468    magn:   -0.0000    constr:    0.0000
     atom:   46    charge:    3.1165    magn:    0.0000    constr:    0.0000
     atom:   47    charge:    1.9432    magn:   -0.0000    constr:    0.0000
     atom:   48    charge:    1.9445    magn:   -0.0000    constr:    0.0000
     atom:   49    charge:    0.6624    magn:   -0.0000    constr:    0.0000
     atom:   50    charge:    1.9580    magn:   -0.0000    constr:    0.0000
     atom:   51    charge:    0.4020    magn:    0.0000    constr:    0.0000
     atom:   52    charge:    0.4006    magn:    0.0000    constr:    0.0000
     atom:   53    charge:    0.4037    magn:    0.0000    constr:    0.0000
     atom:   54    charge:    0.4172    magn:    0.0000    constr:    0.0000

     total cpu time spent up to now is     1640.9 secs

     total energy              =   -3021.41942312 Ry
     Harris-Foulkes estimate   =   -3021.41943457 Ry
     estimated scf accuracy    <       0.00011870 Ry

     total magnetization       =     0.00 Bohr mag/cell
     absolute magnetization    =     0.00 Bohr mag/cell

     iteration #  5     ecut=    40.42 Ry     beta=0.10
     Davidson diagonalization with overlap
     ethr =  2.98E-08,  avg # of iterations =  3.0

     negative rho (up, down):  1.211E-02 1.211E-02
 
     Magnetic moment per site:
     atom:    1    charge:    3.1250    magn:   -0.0001    constr:    0.0000
     atom:    2    charge:    1.9452    magn:    0.0000    constr:    0.0000
     atom:    3    charge:    3.1198    magn:    0.0000    constr:    0.0000
     atom:    4    charge:    1.9504    magn:   -0.0000    constr:    0.0000
     atom:    5    charge:    3.1166    magn:    0.0000    constr:    0.0000
     atom:    6    charge:    1.9476    magn:   -0.0000    constr:    0.0000
     atom:    7    charge:    3.1157    magn:    0.0000    constr:    0.0000
     atom:    8    charge:    1.9452    magn:   -0.0000    constr:    0.0000
     atom:    9    charge:    3.1250    magn:   -0.0001    constr:    0.0000
     atom:   10    charge:    1.9452    magn:    0.0000    constr:    0.0000
     atom:   11    charge:    3.1197    magn:    0.0000    constr:    0.0000
     atom:   12    charge:    1.9504    magn:   -0.0000    constr:    0.0000
     atom:   13    charge:    3.1158    magn:    0.0000    constr:    0.0000
     atom:   14    charge:    1.9587    magn:   -0.0000    constr:    0.0000
     atom:   15    charge:    3.1189    magn:    0.0000    constr:    0.0000
     atom:   16    charge:    1.9446    magn:   -0.0000    constr:    0.0000
     atom:   17    charge:    1.9184    magn:    0.0002    constr:    0.0000
     atom:   18    charge:    3.1239    magn:   -0.0000    constr:    0.0000
     atom:   19    charge:    1.9408    magn:   -0.0000    constr:    0.0000
     atom:   20    charge:    1.9471    magn:    0.0000    constr:    0.0000
     atom:   21    charge:    1.9471    magn:    0.0000    constr:    0.0000
     atom:   22    charge:    3.1196    magn:    0.0000    constr:    0.0000
     atom:   23    charge:    1.9566    magn:   -0.0000    constr:    0.0000
     atom:   24    charge:    1.9379    magn:   -0.0000    constr:    0.0000
     atom:   25    charge:    1.9505    magn:   -0.0000    constr:    0.0000
     atom:   26    charge:    3.1145    magn:    0.0000    constr:    0.0000
     atom:   27    charge:    1.9398    magn:   -0.0000    constr:    0.0000
     atom:   28    charge:    1.9517    magn:   -0.0000    constr:    0.0000
     atom:   29    charge:    1.9476    magn:   -0.0000    constr:    0.0000
     atom:   30    charge:    3.1167    magn:    0.0000    constr:    0.0000
     atom:   31    charge:    1.9447    magn:   -0.0000    constr:    0.0000
     atom:   32    charge:    1.9440    magn:   -0.0000    constr:    0.0000
     atom:   33    charge:    1.9184    magn:    0.0002    constr:    0.0000
     atom:   34    charge:    3.1239    magn:   -0.0000    constr:    0.0000
     atom:   35    charge:    1.9408    magn:   -0.0000    constr:    0.0000
     atom:   36    charge:    1.9471    magn:    0.0000    constr:    0.0000
     atom:   37    charge:    1.9471    magn:    0.0000    constr:    0.0000
     atom:   38    charge:    3.1196    magn:    0.0000    constr:    0.0000
     atom:   39    charge:    1.9549    magn:   -0.0000    constr:    0.0000
     atom:   40    charge:    1.9383    magn:   -0.0000    constr:    0.0000
     atom:   41    charge:    1.9505    magn:   -0.0000    constr:    0.0000
     atom:   42    charge:    3.1141    magn:    0.0000    constr:    0.0000
     atom:   43    charge:    1.9413    magn:   -0.0000    constr:    0.0000
     atom:   44    charge:    1.9517    magn:   -0.0000    constr:    0.0000
     atom:   45    charge:    1.9468    magn:   -0.0000    constr:    0.0000
     atom:   46    charge:    3.1165    magn:    0.0000    constr:    0.0000
     atom:   47    charge:    1.9432    magn:   -0.0000    constr:    0.0000
     atom:   48    charge:    1.9444    magn:   -0.0000    constr:    0.0000
     atom:   49    charge:    0.6615    magn:   -0.0000    constr:    0.0000
     atom:   50    charge:    1.9580    magn:   -0.0000    constr:    0.0000
     atom:   51    charge:    0.4022    magn:    0.0000    constr:    0.0000
     atom:   52    charge:    0.4006    magn:    0.0000    constr:    0.0000
     atom:   53    charge:    0.4037    magn:    0.0000    constr:    0.0000
     atom:   54    charge:    0.4175    magn:    0.0000    constr:    0.0000

     total cpu time spent up to now is     1847.2 secs

     total energy              =   -3021.41942512 Ry
     Harris-Foulkes estimate   =   -3021.41942976 Ry
     estimated scf accuracy    <       0.00001324 Ry

     total magnetization       =     0.00 Bohr mag/cell
     absolute magnetization    =     0.00 Bohr mag/cell

     iteration #  6     ecut=    40.42 Ry     beta=0.10
     Davidson diagonalization with overlap
     ethr =  3.33E-09,  avg # of iterations =  4.0

     negative rho (up, down):  1.211E-02 1.211E-02
 
     Magnetic moment per site:
     atom:    1    charge:    3.1250    magn:   -0.0001    constr:    0.0000
     atom:    2    charge:    1.9452    magn:    0.0000    constr:    0.0000
     atom:    3    charge:    3.1198    magn:    0.0000    constr:    0.0000
     atom:    4    charge:    1.9504    magn:   -0.0000    constr:    0.0000
     atom:    5    charge:    3.1166    magn:    0.0000    constr:    0.0000
     atom:    6    charge:    1.9476    magn:   -0.0000    constr:    0.0000
     atom:    7    charge:    3.1157    magn:    0.0000    constr:    0.0000
     atom:    8    charge:    1.9452    magn:   -0.0000    constr:    0.0000
     atom:    9    charge:    3.1250    magn:   -0.0001    constr:    0.0000
     atom:   10    charge:    1.9452    magn:    0.0000    constr:    0.0000
     atom:   11    charge:    3.1197    magn:    0.0000    constr:    0.0000
     atom:   12    charge:    1.9504    magn:   -0.0000    constr:    0.0000
     atom:   13    charge:    3.1158    magn:    0.0000    constr:    0.0000
     atom:   14    charge:    1.9587    magn:   -0.0000    constr:    0.0000
     atom:   15    charge:    3.1188    magn:    0.0000    constr:    0.0000
     atom:   16    charge:    1.9446    magn:   -0.0000    constr:    0.0000
     atom:   17    charge:    1.9184    magn:    0.0002    constr:    0.0000
     atom:   18    charge:    3.1239    magn:   -0.0000    constr:    0.0000
     atom:   19    charge:    1.9408    magn:   -0.0000    constr:    0.0000
     atom:   20    charge:    1.9471    magn:    0.0000    constr:    0.0000
     atom:   21    charge:    1.9471    magn:    0.0000    constr:    0.0000
     atom:   22    charge:    3.1196    magn:    0.0000    constr:    0.0000
     atom:   23    charge:    1.9566    magn:   -0.0000    constr:    0.0000
     atom:   24    charge:    1.9379    magn:   -0.0000    constr:    0.0000
     atom:   25    charge:    1.9505    magn:   -0.0000    constr:    0.0000
     atom:   26    charge:    3.1145    magn:    0.0000    constr:    0.0000
     atom:   27    charge:    1.9398    magn:   -0.0000    constr:    0.0000
     atom:   28    charge:    1.9517    magn:   -0.0000    constr:    0.0000
     atom:   29    charge:    1.9476    magn:   -0.0000    constr:    0.0000
     atom:   30    charge:    3.1167    magn:    0.0000    constr:    0.0000
     atom:   31    charge:    1.9447    magn:   -0.0000    constr:    0.0000
     atom:   32    charge:    1.9440    magn:   -0.0000    constr:    0.0000
     atom:   33    charge:    1.9184    magn:    0.0002    constr:    0.0000
     atom:   34    charge:    3.1239    magn:   -0.0000    constr:    0.0000
     atom:   35    charge:    1.9408    magn:   -0.0000    constr:    0.0000
     atom:   36    charge:    1.9471    magn:    0.0000    constr:    0.0000
     atom:   37    charge:    1.9471    magn:    0.0000    constr:    0.0000
     atom:   38    charge:    3.1196    magn:    0.0000    constr:    0.0000
     atom:   39    charge:    1.9549    magn:   -0.0000    constr:    0.0000
     atom:   40    charge:    1.9383    magn:   -0.0000    constr:    0.0000
     atom:   41    charge:    1.9505    magn:   -0.0000    constr:    0.0000
     atom:   42    charge:    3.1141    magn:    0.0000    constr:    0.0000
     atom:   43    charge:    1.9413    magn:   -0.0000    constr:    0.0000
     atom:   44    charge:    1.9517    magn:   -0.0000    constr:    0.0000
     atom:   45    charge:    1.9468    magn:   -0.0000    constr:    0.0000
     atom:   46    charge:    3.1165    magn:    0.0000    constr:    0.0000
     atom:   47    charge:    1.9431    magn:   -0.0000    constr:    0.0000
     atom:   48    charge:    1.9444    magn:   -0.0000    constr:    0.0000
     atom:   49    charge:    0.6616    magn:   -0.0000    constr:    0.0000
     atom:   50    charge:    1.9579    magn:   -0.0000    constr:    0.0000
     atom:   51    charge:    0.4022    magn:    0.0000    constr:    0.0000
     atom:   52    charge:    0.4006    magn:    0.0000    constr:    0.0000
     atom:   53    charge:    0.4037    magn:    0.0000    constr:    0.0000
     atom:   54    charge:    0.4175    magn:    0.0000    constr:    0.0000

     total cpu time spent up to now is     2073.2 secs

     total energy              =   -3021.41942806 Ry
     Harris-Foulkes estimate   =   -3021.41942881 Ry
     estimated scf accuracy    <       0.00000461 Ry

     total magnetization       =     0.00 Bohr mag/cell
     absolute magnetization    =     0.00 Bohr mag/cell

     iteration #  7     ecut=    40.42 Ry     beta=0.10
     Davidson diagonalization with overlap
     ethr =  1.16E-09,  avg # of iterations =  3.0

     negative rho (up, down):  1.211E-02 1.211E-02
 
     Magnetic moment per site:
     atom:    1    charge:    3.1250    magn:   -0.0000    constr:    0.0000
     atom:    2    charge:    1.9452    magn:    0.0000    constr:    0.0000
     atom:    3    charge:    3.1198    magn:    0.0000    constr:    0.0000
     atom:    4    charge:    1.9504    magn:   -0.0000    constr:    0.0000
     atom:    5    charge:    3.1166    magn:    0.0000    constr:    0.0000
     atom:    6    charge:    1.9476    magn:   -0.0000    constr:    0.0000
     atom:    7    charge:    3.1157    magn:    0.0000    constr:    0.0000
     atom:    8    charge:    1.9452    magn:   -0.0000    constr:    0.0000
     atom:    9    charge:    3.1250    magn:   -0.0000    constr:    0.0000
     atom:   10    charge:    1.9452    magn:    0.0000    constr:    0.0000
     atom:   11    charge:    3.1197    magn:    0.0000    constr:    0.0000
     atom:   12    charge:    1.9504    magn:   -0.0000    constr:    0.0000
     atom:   13    charge:    3.1158    magn:    0.0000    constr:    0.0000
     atom:   14    charge:    1.9587    magn:   -0.0000    constr:    0.0000
     atom:   15    charge:    3.1188    magn:    0.0000    constr:    0.0000
     atom:   16    charge:    1.9445    magn:   -0.0000    constr:    0.0000
     atom:   17    charge:    1.9184    magn:    0.0001    constr:    0.0000
     atom:   18    charge:    3.1239    magn:   -0.0000    constr:    0.0000
     atom:   19    charge:    1.9408    magn:   -0.0000    constr:    0.0000
     atom:   20    charge:    1.9471    magn:    0.0000    constr:    0.0000
     atom:   21    charge:    1.9471    magn:    0.0000    constr:    0.0000
     atom:   22    charge:    3.1196    magn:    0.0000    constr:    0.0000
     atom:   23    charge:    1.9566    magn:   -0.0000    constr:    0.0000
     atom:   24    charge:    1.9379    magn:   -0.0000    constr:    0.0000
     atom:   25    charge:    1.9505    magn:   -0.0000    constr:    0.0000
     atom:   26    charge:    3.1145    magn:    0.0000    constr:    0.0000
     atom:   27    charge:    1.9398    magn:   -0.0000    constr:    0.0000
     atom:   28    charge:    1.9517    magn:   -0.0000    constr:    0.0000
     atom:   29    charge:    1.9476    magn:   -0.0000    constr:    0.0000
     atom:   30    charge:    3.1167    magn:    0.0000    constr:    0.0000
     atom:   31    charge:    1.9447    magn:   -0.0000    constr:    0.0000
     atom:   32    charge:    1.9440    magn:   -0.0000    constr:    0.0000
     atom:   33    charge:    1.9184    magn:    0.0001    constr:    0.0000
     atom:   34    charge:    3.1239    magn:   -0.0000    constr:    0.0000
     atom:   35    charge:    1.9408    magn:   -0.0000    constr:    0.0000
     atom:   36    charge:    1.9471    magn:    0.0000    constr:    0.0000
     atom:   37    charge:    1.9471    magn:    0.0000    constr:    0.0000
     atom:   38    charge:    3.1196    magn:    0.0000    constr:    0.0000
     atom:   39    charge:    1.9549    magn:   -0.0000    constr:    0.0000
     atom:   40    charge:    1.9383    magn:   -0.0000    constr:    0.0000
     atom:   41    charge:    1.9505    magn:   -0.0000    constr:    0.0000
     atom:   42    charge:    3.1141    magn:    0.0000    constr:    0.0000
     atom:   43    charge:    1.9413    magn:   -0.0000    constr:    0.0000
     atom:   44    charge:    1.9517    magn:   -0.0000    constr:    0.0000
     atom:   45    charge:    1.9468    magn:   -0.0000    constr:    0.0000
     atom:   46    charge:    3.1165    magn:    0.0000    constr:    0.0000
     atom:   47    charge:    1.9431    magn:   -0.0000    constr:    0.0000
     atom:   48    charge:    1.9444    magn:   -0.0000    constr:    0.0000
     atom:   49    charge:    0.6618    magn:   -0.0000    constr:    0.0000
     atom:   50    charge:    1.9577    magn:   -0.0000    constr:    0.0000
     atom:   51    charge:    0.4022    magn:    0.0000    constr:    0.0000
     atom:   52    charge:    0.4006    magn:    0.0000    constr:    0.0000
     atom:   53    charge:    0.4036    magn:    0.0000    constr:    0.0000
     atom:   54    charge:    0.4175    magn:    0.0000    constr:    0.0000

     total cpu time spent up to now is     2277.8 secs

     total energy              =   -3021.41942765 Ry
     Harris-Foulkes estimate   =   -3021.41942822 Ry
     estimated scf accuracy    <       0.00000169 Ry

     total magnetization       =     0.00 Bohr mag/cell
     absolute magnetization    =     0.00 Bohr mag/cell

     iteration #  8     ecut=    40.42 Ry     beta=0.10
     Davidson diagonalization with overlap
     ethr =  4.24E-10,  avg # of iterations =  4.0

     negative rho (up, down):  1.210E-02 1.210E-02
 
     Magnetic moment per site:
     atom:    1    charge:    3.1250    magn:   -0.0000    constr:    0.0000
     atom:    2    charge:    1.9452    magn:    0.0000    constr:    0.0000
     atom:    3    charge:    3.1198    magn:    0.0000    constr:    0.0000
     atom:    4    charge:    1.9504    magn:   -0.0000    constr:    0.0000
     atom:    5    charge:    3.1166    magn:    0.0000    constr:    0.0000
     atom:    6    charge:    1.9477    magn:   -0.0000    constr:    0.0000
     atom:    7    charge:    3.1157    magn:    0.0000    constr:    0.0000
     atom:    8    charge:    1.9452    magn:   -0.0000    constr:    0.0000
     atom:    9    charge:    3.1250    magn:   -0.0000    constr:    0.0000
     atom:   10    charge:    1.9452    magn:    0.0000    constr:    0.0000
     atom:   11    charge:    3.1197    magn:    0.0000    constr:    0.0000
     atom:   12    charge:    1.9504    magn:   -0.0000    constr:    0.0000
     atom:   13    charge:    3.1158    magn:    0.0000    constr:    0.0000
     atom:   14    charge:    1.9587    magn:   -0.0000    constr:    0.0000
     atom:   15    charge:    3.1188    magn:    0.0000    constr:    0.0000
     atom:   16    charge:    1.9446    magn:   -0.0000    constr:    0.0000
     atom:   17    charge:    1.9184    magn:    0.0001    constr:    0.0000
     atom:   18    charge:    3.1239    magn:   -0.0000    constr:    0.0000
     atom:   19    charge:    1.9408    magn:   -0.0000    constr:    0.0000
     atom:   20    charge:    1.9471    magn:    0.0000    constr:    0.0000
     atom:   21    charge:    1.9471    magn:    0.0000    constr:    0.0000
     atom:   22    charge:    3.1196    magn:    0.0000    constr:    0.0000
     atom:   23    charge:    1.9566    magn:   -0.0000    constr:    0.0000
     atom:   24    charge:    1.9379    magn:   -0.0000    constr:    0.0000
     atom:   25    charge:    1.9505    magn:   -0.0000    constr:    0.0000
     atom:   26    charge:    3.1145    magn:    0.0000    constr:    0.0000
     atom:   27    charge:    1.9398    magn:   -0.0000    constr:    0.0000
     atom:   28    charge:    1.9517    magn:   -0.0000    constr:    0.0000
     atom:   29    charge:    1.9476    magn:   -0.0000    constr:    0.0000
     atom:   30    charge:    3.1167    magn:    0.0000    constr:    0.0000
     atom:   31    charge:    1.9447    magn:   -0.0000    constr:    0.0000
     atom:   32    charge:    1.9440    magn:   -0.0000    constr:    0.0000
     atom:   33    charge:    1.9184    magn:    0.0001    constr:    0.0000
     atom:   34    charge:    3.1239    magn:   -0.0000    constr:    0.0000
     atom:   35    charge:    1.9408    magn:   -0.0000    constr:    0.0000
     atom:   36    charge:    1.9471    magn:    0.0000    constr:    0.0000
     atom:   37    charge:    1.9471    magn:    0.0000    constr:    0.0000
     atom:   38    charge:    3.1196    magn:    0.0000    constr:    0.0000
     atom:   39    charge:    1.9550    magn:   -0.0000    constr:    0.0000
     atom:   40    charge:    1.9383    magn:   -0.0000    constr:    0.0000
     atom:   41    charge:    1.9505    magn:   -0.0000    constr:    0.0000
     atom:   42    charge:    3.1141    magn:    0.0000    constr:    0.0000
     atom:   43    charge:    1.9413    magn:   -0.0000    constr:    0.0000
     atom:   44    charge:    1.9517    magn:   -0.0000    constr:    0.0000
     atom:   45    charge:    1.9468    magn:   -0.0000    constr:    0.0000
     atom:   46    charge:    3.1165    magn:    0.0000    constr:    0.0000
     atom:   47    charge:    1.9431    magn:   -0.0000    constr:    0.0000
     atom:   48    charge:    1.9444    magn:   -0.0000    constr:    0.0000
     atom:   49    charge:    0.6616    magn:   -0.0000    constr:    0.0000
     atom:   50    charge:    1.9579    magn:   -0.0000    constr:    0.0000
     atom:   51    charge:    0.4022    magn:    0.0000    constr:    0.0000
     atom:   52    charge:    0.4006    magn:    0.0000    constr:    0.0000
     atom:   53    charge:    0.4036    magn:    0.0000    constr:    0.0000
     atom:   54    charge:    0.4176    magn:    0.0000    constr:    0.0000

     total cpu time spent up to now is     2501.9 secs

     End of self-consistent calculation

 ------ SPIN UP ------------


          k = 0.0000 0.0000 0.0000 ( 34665 PWs)   bands (ev):

   -57.6966 -57.6616 -57.3149 -57.2786 -57.2295 -57.1073 -57.0709 -57.0700
   -57.0478 -57.0352 -56.9872 -56.9517 -56.7274 -56.6899 -56.1472 -56.1120
   -34.1327 -33.9788 -33.9503 -33.8976 -33.8672 -33.8033 -33.7428 -33.6502
   -33.6155 -33.6027 -33.5652 -33.5378 -33.5157 -33.5048 -33.4869 -33.4825
   -33.4616 -33.4515 -33.4280 -33.3964 -33.3216 -33.2896 -33.2693 -33.2601
   -33.2518 -33.2513 -33.2406 -33.2399 -33.2346 -33.2271 -33.2262 -33.2101
   -33.1775 -33.1771 -33.1722 -33.1379 -33.1154 -32.9934 -32.9753 -32.9543
   -32.9050 -32.8021 -32.5651 -32.4996 -32.4735 -32.3692 -32.2776 -32.1693
   -20.2959 -18.0099 -17.8391 -17.5543 -17.4590 -17.3699 -17.2492 -17.0751
   -17.0642 -16.9718 -16.9364 -16.8821 -16.7812 -16.7749 -16.7261 -16.7049
   -16.7003 -16.6597 -16.6090 -16.6015 -16.5335 -16.4127 -16.3998 -16.3959
   -16.3183 -16.2653 -16.1920 -16.1649 -16.1476 -15.9763 -15.9267 -14.7317
   -14.6481 -11.5081  -7.2787  -5.4683  -5.3929  -5.3100  -5.2190  -5.2023
    -5.1430  -5.1237  -4.8367  -4.8153  -4.4696  -4.4401  -4.3569  -4.3528
    -4.3193  -4.2304  -4.0873  -4.0587  -4.0529  -4.0153  -3.9966  -3.9886
    -3.9585  -3.9494  -3.9483  -3.8375  -3.7858  -3.7627  -3.7346  -3.7173
    -3.6299  -3.6143  -3.5842  -3.5750  -3.5174  -3.5058  -3.4062  -3.3932
    -3.3741  -3.2792  -3.2363  -3.1912  -3.0110  -2.9330  -2.8766  -2.8338
    -2.6928  -2.6042  -2.5875  -2.5779  -2.5729  -2.5657  -2.4291  -2.4118
    -2.3338  -2.2667  -2.2449  -2.2023  -2.1976  -2.1640  -2.1359  -2.0903
    -2.0453  -2.0263  -2.0175  -1.8849  -1.8636  -1.7600  -1.7333  -1.6219
    -1.5401  -1.5387  -1.4874  -1.4782  -1.4604  -1.4210  -1.3204  -1.3069
    -1.2998  -1.2772  -1.2401  -1.1328  -1.0841  -1.0802  -1.0645  -1.0166
    -0.9515  -0.9128  -0.8179  -0.7622  -0.6079  -0.5849  -0.5670  -0.4762
    -0.3736  -0.2402  -0.0827  -0.0238   0.1334   0.2503   0.2640   1.6449
     1.6774   1.9881   2.0043   2.0682   2.0984   2.2075   2.2467   2.2898
     2.4328   2.4999   2.5285   2.5330   2.5446   2.6337   2.6516   2.6597
     2.7180   2.8023   2.8302   2.8420   2.9140   3.0026   3.0363   3.1023
     3.1075   3.1173   3.1636   3.2047   3.2110   3.2288   3.2426   3.2543
     3.2629   3.2917   3.4002   3.4338   3.4596   3.4694   3.5306   3.5885
     3.6562   3.6977   3.8108   3.9857   4.0196   4.0951   4.1821   4.3229
     4.3417   4.3940   4.5911   4.6019   4.8137   4.8417   5.0897   5.1697
     5.2481   5.3329   5.4800   5.5201   5.5300   5.5965   5.6803   5.7150
     5.8024   5.8680   5.8793   5.8890   5.9575   6.0395   6.0503   6.0740
     6.1467   6.2318   6.2466   6.3000   6.3807   6.5836   6.6394   6.7573
     6.8446   7.0180   7.0459   7.1712   7.3046   7.5841   7.9138   8.2551
     8.3571   8.6728   8.7963   8.8703   8.9425   9.0090   9.1748   9.2602
     9.3533   9.3812   9.5296

          k = 0.0000 0.0280 0.0000 ( 34717 PWs)   bands (ev):

   -57.6942 -57.6640 -57.3125 -57.2810 -57.2291 -57.1050 -57.0730 -57.0678
   -57.0482 -57.0375 -56.9848 -56.9541 -56.7249 -56.6923 -56.1449 -56.1144
   -34.1073 -33.9768 -33.9521 -33.8914 -33.8413 -33.8098 -33.7698 -33.6275
   -33.6087 -33.5778 -33.5398 -33.5349 -33.5178 -33.4978 -33.4896 -33.4814
   -33.4687 -33.4588 -33.4261 -33.3895 -33.3155 -33.2878 -33.2831 -33.2616
   -33.2560 -33.2494 -33.2475 -33.2372 -33.2355 -33.2337 -33.2333 -33.2144
   -33.2001 -33.1823 -33.1742 -33.1420 -33.1387 -32.9896 -32.9739 -32.9556
   -32.9100 -32.8301 -32.5394 -32.4978 -32.4753 -32.3631 -32.2839 -32.1968
   -20.2957 -17.9481 -17.7815 -17.5013 -17.4068 -17.3263 -17.2225 -17.0888
   -17.0339 -16.9960 -16.9904 -16.8837 -16.8169 -16.7587 -16.7040 -16.6867
   -16.6733 -16.6619 -16.6536 -16.6397 -16.5925 -16.4366 -16.3812 -16.3661
   -16.3449 -16.2948 -16.2090 -16.1712 -16.1515 -16.0071 -15.9638 -14.7418
   -14.6715 -11.5078  -7.2784  -5.4320  -5.3120  -5.2496  -5.2233  -5.1277
    -5.0658  -5.0443  -4.7611  -4.7007  -4.4329  -4.3979  -4.3917  -4.3094
    -4.2988  -4.1578  -4.1212  -4.1114  -4.0892  -4.0681  -4.0302  -4.0281
    -3.9635  -3.9587  -3.9473  -3.8887  -3.8505  -3.8441  -3.8350  -3.7641
    -3.7196  -3.7033  -3.6634  -3.6135  -3.5728  -3.5551  -3.4292  -3.3598
    -3.3186  -3.2336  -3.2084  -3.1027  -2.9319  -2.8685  -2.7459  -2.7223
    -2.6115  -2.5988  -2.5230  -2.5073  -2.4754  -2.4381  -2.4097  -2.4054
    -2.3841  -2.3591  -2.2859  -2.2742  -2.1655  -2.1400  -2.1338  -2.0915
    -2.0196  -1.9952  -1.9514  -1.8747  -1.8084  -1.7651  -1.7045  -1.6794
    -1.6401  -1.6231  -1.5611  -1.5232  -1.4791  -1.4354  -1.4329  -1.3936
    -1.3519  -1.2690  -1.2155  -1.2110  -1.1564  -1.0878  -1.0680  -1.0195
    -1.0064  -0.9020  -0.8652  -0.7881  -0.7588  -0.7040  -0.6055  -0.5880
    -0.3919  -0.2682  -0.0895  -0.0780   0.1483   0.2039   0.2305   1.7312
     1.7771   1.9882   2.0678   2.1336   2.1540   2.2212   2.2767   2.3157
     2.4272   2.4638   2.5013   2.5382   2.5886   2.6054   2.6331   2.6943
     2.7354   2.7734   2.7998   2.9153   2.9254   2.9543   2.9790   3.0125
     3.1139   3.1196   3.1371   3.1775   3.1950   3.2081   3.2611   3.3070
     3.3378   3.3733   3.4099   3.4762   3.5096   3.5542   3.5647   3.6512
     3.6676   3.6887   3.7744   3.9625   4.0373   4.1187   4.1936   4.2893
     4.3254   4.3991   4.5431   4.6940   4.8676   4.9282   5.0936   5.2612
     5.3066   5.3374   5.5399   5.5686   5.6067   5.6273   5.6887   5.7225
     5.7868   5.7951   5.8543   5.8808   5.9014   5.9500   6.0712   6.1248
     6.1516   6.1602   6.1770   6.2095   6.2777   6.5610   6.6061   6.6971
     6.8500   6.9527   6.9902   7.0855   7.2332   7.5888   7.9275   8.0211
     8.0619   8.4602   8.5685   8.8440   8.9112   8.9987   9.0894   9.1404
     9.2755   9.4352   9.5054

          k = 0.0000 0.0560 0.0000 ( 34721 PWs)   bands (ev):

   -57.6879 -57.6704 -57.3060 -57.2876 -57.2283 -57.0990 -57.0791 -57.0615
   -57.0491 -57.0440 -56.9784 -56.9606 -56.7183 -56.6990 -56.1385 -56.1208
   -34.0375 -33.9715 -33.9571 -33.8743 -33.8428 -33.8272 -33.7702 -33.5931
   -33.5698 -33.5690 -33.5320 -33.5245 -33.5039 -33.5012 -33.4737 -33.4698
   -33.4531 -33.4232 -33.4159 -33.3700 -33.3130 -33.3105 -33.3103 -33.2990
   -33.2835 -33.2737 -33.2653 -33.2607 -33.2509 -33.2435 -33.2317 -33.2296
   -33.2073 -33.1954 -33.1677 -33.1621 -33.1232 -32.9845 -32.9703 -32.9590
   -32.9229 -32.8998 -32.4931 -32.4801 -32.4687 -32.3466 -32.3007 -32.2709
   -20.2954 -17.7770 -17.6228 -17.3700 -17.2731 -17.2574 -17.2162 -17.1647
   -17.1336 -16.9598 -16.9511 -16.9164 -16.8712 -16.8166 -16.7856 -16.7234
   -16.7135 -16.6812 -16.6220 -16.5944 -16.5368 -16.5020 -16.4198 -16.3755
   -16.3596 -16.2996 -16.2381 -16.1923 -16.1549 -16.1076 -16.0366 -14.7600
   -14.7221 -11.5070  -7.2776  -5.3977  -5.2342  -5.0742  -5.0353  -4.9216
    -4.8559  -4.8214  -4.5594  -4.5032  -4.4704  -4.4150  -4.4072  -4.3640
    -4.3288  -4.2576  -4.2323  -4.2094  -4.1938  -4.1841  -4.1539  -4.0731
    -4.0550  -4.0032  -3.9843  -3.9660  -3.9283  -3.8884  -3.8538  -3.8159
    -3.7945  -3.7289  -3.6334  -3.5836  -3.4315  -3.4251  -3.3525  -3.2656
    -3.2364  -3.2117  -3.1907  -3.0808  -2.8949  -2.8412  -2.8354  -2.7961
    -2.7194  -2.6663  -2.5459  -2.4711  -2.4421  -2.3200  -2.3135  -2.3087
    -2.3008  -2.2466  -2.2045  -2.1767  -2.1458  -2.1149  -2.0293  -2.0076
    -1.9582  -1.9450  -1.9145  -1.9028  -1.8811  -1.8466  -1.8140  -1.7805
    -1.7425  -1.6924  -1.6224  -1.5395  -1.5248  -1.5073  -1.4531  -1.4174
    -1.3777  -1.3622  -1.3475  -1.2878  -1.2362  -1.2146  -1.1541  -1.1009
    -1.0810  -1.0213  -0.9208  -0.8883  -0.8480  -0.7826  -0.7604  -0.6580
    -0.5844  -0.4607  -0.2394   0.0932   0.1455   0.1805   0.1872   1.8669
     2.0268   2.1004   2.1113   2.2124   2.2371   2.2717   2.3692   2.3916
     2.3980   2.4138   2.4370   2.4784   2.5053   2.5407   2.6768   2.6979
     2.7366   2.7775   2.8326   2.9062   2.9180   2.9409   2.9740   2.9761
     3.0179   3.1011   3.1402   3.1595   3.2528   3.2643   3.2888   3.3315
     3.3708   3.3890   3.4429   3.5396   3.5458   3.6391   3.6796   3.7299
     3.7631   3.8253   3.8605   3.8921   3.9345   4.1328   4.1441   4.1605
     4.3309   4.3776   4.5665   4.9090   5.0183   5.0664   5.1768   5.3804
     5.3844   5.4808   5.5206   5.5521   5.6510   5.7258   5.7261   5.7359
     5.7816   5.7900   5.8010   5.8589   5.8878   5.9476   5.9803   5.9922
     6.0039   6.0569   6.1572   6.1732   6.3116   6.3748   6.4116   6.6160
     6.6644   6.7828   6.8725   7.0436   7.2144   7.3351   7.4442   7.7340
     8.0865   8.2126   8.3665   8.6187   8.8937   8.9948   9.3092   9.3325
     9.4292   9.4463   9.5895

          k = 0.0000-0.0840 0.0000 ( 34678 PWs)   bands (ev):

   -57.6792 -57.6790 -57.2984 -57.2952 -57.2278 -57.0935 -57.0846 -57.0528
   -57.0527 -57.0495 -56.9701 -56.9689 -56.7113 -56.7060 -56.1297 -56.1296
   -33.9644 -33.9642 -33.9410 -33.9408 -33.8509 -33.8507 -33.6833 -33.6593
   -33.5632 -33.5598 -33.5256 -33.5152 -33.5109 -33.4740 -33.4502 -33.4210
   -33.4115 -33.4051 -33.3727 -33.3724 -33.3595 -33.3446 -33.3387 -33.3213
   -33.3199 -33.2824 -33.2756 -33.2734 -33.2667 -33.2641 -33.2302 -33.2284
   -33.2128 -33.2108 -33.1608 -33.1599 -33.0459 -33.0250 -32.9672 -32.9618
   -32.9369 -32.9338 -32.4866 -32.4865 -32.3707 -32.3707 -32.3237 -32.3236
   -20.2953 -17.5662 -17.5028 -17.4081 -17.3878 -17.2267 -17.1726 -17.0636
   -17.0591 -17.0132 -17.0003 -16.9868 -16.8692 -16.8375 -16.8375 -16.7985
   -16.7919 -16.5935 -16.5915 -16.5227 -16.5202 -16.4860 -16.4846 -16.4018
   -16.3995 -16.2602 -16.2581 -16.1988 -16.1949 -16.1289 -16.0990 -14.7588
   -14.7587 -11.5066  -7.2771  -5.3889  -5.2399  -4.7970  -4.7312  -4.7301
    -4.6533  -4.6395  -4.6350  -4.5994  -4.5710  -4.5069  -4.4993  -4.3981
    -4.3707  -4.3369  -4.3350  -4.3062  -4.2932  -4.2780  -4.2725  -4.0519
    -4.0304  -4.0209  -4.0080  -3.9898  -3.9399  -3.8071  -3.7913  -3.7864
    -3.7136  -3.6920  -3.6374  -3.5068  -3.4718  -3.3375  -3.3243  -3.2684
    -3.1361  -3.1141  -3.0417  -3.0170  -2.9604  -2.9256  -2.8022  -2.7857
    -2.6953  -2.6913  -2.5741  -2.5369  -2.5101  -2.4927  -2.4762  -2.4451
    -2.4361  -2.4162  -2.3277  -2.2432  -2.0261  -2.0050  -1.9653  -1.9390
    -1.9248  -1.8265  -1.8200  -1.8066  -1.7796  -1.7427  -1.7286  -1.6976
    -1.6625  -1.6379  -1.6120  -1.5557  -1.5127  -1.4852  -1.4788  -1.4502
    -1.4229  -1.4151  -1.4076  -1.3791  -1.3566  -1.3233  -1.2189  -1.1851
    -1.0985  -1.0704  -1.0086  -0.9756  -0.9683  -0.9576  -0.9415  -0.5215
    -0.5164  -0.4543  -0.4401   0.1455   0.1456   0.1882   0.1899   2.0414
     2.0445   2.2210   2.2221   2.2231   2.2394   2.2876   2.3426   2.3493
     2.3493   2.3751   2.3859   2.5304   2.5562   2.5572   2.6038   2.6669
     2.7177   2.7394   2.7525   2.8942   2.9252   2.9923   3.0000   3.0600
     3.0613   3.1046   3.1154   3.1829   3.2210   3.2359   3.2487   3.4064
     3.4286   3.4396   3.4423   3.4754   3.4864   3.7280   3.7685   3.8072
     3.8106   3.8347   3.9113   3.9337   3.9716   4.0756   4.0779   4.1279
     4.1286   4.4218   4.6747   4.9630   5.0031   5.2638   5.3329   5.4601
     5.4917   5.5105   5.5105   5.5797   5.6022   5.6495   5.6679   5.6739
     5.8020   5.8069   5.8291   5.8544   5.8643   5.8691   5.8861   5.9763
     6.0219   6.0622   6.0732   6.1611   6.1983   6.4057   6.4673   6.5661
     6.6058   6.7472   6.7744   6.9810   7.0331   7.1016   7.3287   7.6996
     7.8937   8.1774   8.4127   8.7907   8.8420   8.9004   9.1597   9.6933
     9.7037   9.7568   9.7938

          k = 0.0253 0.0000 0.0000 ( 34707 PWs)   bands (ev):

   -57.6966 -57.6616 -57.3149 -57.2786 -57.2295 -57.1073 -57.0709 -57.0701
   -57.0478 -57.0352 -56.9872 -56.9517 -56.7274 -56.6899 -56.1473 -56.1120
   -34.1330 -33.9788 -33.9503 -33.8969 -33.8673 -33.8033 -33.7429 -33.6510
   -33.6155 -33.6044 -33.5655 -33.5344 -33.5295 -33.5057 -33.4825 -33.4720
   -33.4604 -33.4515 -33.4281 -33.3894 -33.3215 -33.2897 -33.2691 -33.2601
   -33.2554 -33.2543 -33.2418 -33.2388 -33.2363 -33.2271 -33.2263 -33.2099
   -33.1774 -33.1771 -33.1726 -33.1380 -33.1155 -32.9935 -32.9777 -32.9534
   -32.9050 -32.8022 -32.5650 -32.5006 -32.4730 -32.3692 -32.2776 -32.1694
   -20.2957 -17.9800 -17.7991 -17.5120 -17.4301 -17.3533 -17.2557 -17.1423
   -17.0897 -16.9727 -16.9360 -16.8684 -16.8166 -16.8026 -16.7865 -16.7780
   -16.7268 -16.6906 -16.5536 -16.5309 -16.4515 -16.4497 -16.4007 -16.3679
   -16.3358 -16.3099 -16.1805 -16.1627 -16.1488 -15.9761 -15.9265 -14.7306
   -14.6479 -11.5069  -7.2760  -5.4625  -5.3011  -5.2616  -5.2180  -5.0947
    -5.0418  -5.0133  -4.8313  -4.8106  -4.6151  -4.4666  -4.4334  -4.3282
    -4.3087  -4.2988  -4.2447  -4.0970  -4.0337  -4.0298  -3.9937  -3.9427
    -3.9354  -3.9073  -3.8281  -3.7987  -3.7486  -3.7181  -3.6925  -3.6896
    -3.6177  -3.5952  -3.5673  -3.5598  -3.5140  -3.4455  -3.3433  -3.3079
    -3.2498  -3.2356  -3.1835  -3.1039  -3.0311  -2.9739  -2.9219  -2.8937
    -2.7510  -2.6711  -2.6303  -2.5973  -2.5771  -2.5274  -2.5171  -2.5011
    -2.4291  -2.3330  -2.3199  -2.2340  -2.2180  -2.1795  -2.1561  -2.0678
    -2.0069  -1.9974  -1.9607  -1.8806  -1.8476  -1.7504  -1.7368  -1.6485
    -1.5830  -1.5793  -1.5351  -1.4608  -1.4554  -1.3638  -1.3551  -1.3413
    -1.3344  -1.2876  -1.2712  -1.1869  -1.1245  -1.1148  -1.0761  -1.0450
    -0.9700  -0.9123  -0.8269  -0.7832  -0.7717  -0.6484  -0.6396  -0.5485
    -0.4183  -0.2345  -0.1132  -0.0515   0.1193   0.2075   0.2084   1.6643
     1.7273   2.0036   2.0743   2.1512   2.2262   2.2408   2.2725   2.3808
     2.3882   2.4604   2.5073   2.5251   2.5435   2.5809   2.6002   2.6389
     2.6584   2.7373   2.7604   2.8701   2.8871   2.9728   3.0338   3.1071
     3.1234   3.1470   3.1651   3.2060   3.2114   3.2566   3.2718   3.3419
     3.3805   3.4056   3.4538   3.4757   3.5379   3.5634   3.5947   3.6022
     3.6671   3.7330   3.7502   3.9172   4.0053   4.1007   4.1763   4.2794
     4.3767   4.3975   4.5555   4.6807   4.8665   4.9144   4.9291   5.0720
     5.1242   5.1486   5.1919   5.3534   5.5689   5.6253   5.6956   5.8688
     5.8855   5.9278   5.9615   6.0326   6.0832   6.1160   6.1635   6.2123
     6.2216   6.2546   6.2620   6.3105   6.4508   6.5285   6.6464   6.6717
     6.8249   6.8719   7.0364   7.1487   7.3044   7.7543   7.8553   8.0924
     8.3368   8.3772   8.4321   8.6828   8.8472   8.9710   9.1520   9.3478
     9.3642   9.4741   9.4961

          k = 0.0253 0.0280 0.0000 ( 34687 PWs)   bands (ev):

   -57.6942 -57.6640 -57.3125 -57.2810 -57.2291 -57.1050 -57.0730 -57.0679
   -57.0482 -57.0376 -56.9848 -56.9541 -56.7249 -56.6923 -56.1449 -56.1144
   -34.1076 -33.9768 -33.9521 -33.8907 -33.8414 -33.8097 -33.7698 -33.6282
   -33.6088 -33.5794 -33.5401 -33.5316 -33.5190 -33.5132 -33.4899 -33.4694
   -33.4631 -33.4576 -33.4261 -33.3827 -33.3154 -33.2879 -33.2808 -33.2616
   -33.2561 -33.2513 -33.2495 -33.2451 -33.2351 -33.2337 -33.2325 -33.2132
   -33.2002 -33.1823 -33.1743 -33.1419 -33.1386 -32.9896 -32.9760 -32.9549
   -32.9100 -32.8301 -32.5393 -32.4988 -32.4748 -32.3632 -32.2839 -32.1967
   -20.2955 -17.9198 -17.7424 -17.4608 -17.3803 -17.3062 -17.2293 -17.1260
   -17.0951 -17.0035 -16.9607 -16.8557 -16.8279 -16.8026 -16.7810 -16.7674
   -16.7105 -16.6965 -16.5972 -16.5765 -16.5038 -16.4722 -16.3782 -16.3622
   -16.3534 -16.3269 -16.1976 -16.1708 -16.1512 -16.0075 -15.9635 -14.7408
   -14.6715 -11.5065  -7.2756  -5.4349  -5.2380  -5.2222  -5.1791  -5.0183
    -4.9635  -4.9331  -4.7561  -4.6977  -4.5593  -4.4006  -4.3686  -4.3432
    -4.2569  -4.2503  -4.1839  -4.1156  -4.0840  -4.0618  -4.0309  -4.0177
    -3.9737  -3.9399  -3.9101  -3.8650  -3.8194  -3.8072  -3.7814  -3.7175
    -3.6949  -3.6615  -3.6126  -3.6024  -3.5383  -3.5243  -3.3563  -3.3051
    -3.2494  -3.2171  -3.1494  -3.0721  -2.9793  -2.9468  -2.7836  -2.7046
    -2.6790  -2.6336  -2.6082  -2.5317  -2.5009  -2.4516  -2.4452  -2.4181
    -2.4023  -2.3839  -2.3372  -2.2998  -2.2132  -2.1753  -2.1129  -2.0975
    -2.0642  -1.9922  -1.9465  -1.8892  -1.8625  -1.8240  -1.7594  -1.6716
    -1.6420  -1.6137  -1.5859  -1.5594  -1.5061  -1.4589  -1.4373  -1.3981
    -1.3421  -1.3250  -1.2666  -1.2522  -1.2048  -1.1054  -1.0947  -1.0579
    -1.0084  -0.8847  -0.8369  -0.8325  -0.7616  -0.7367  -0.6931  -0.6558
    -0.4293  -0.2791  -0.1313  -0.0836   0.1515   0.1808   0.1910   1.7233
     1.8474   2.0188   2.1019   2.1985   2.2477   2.2847   2.3191   2.3999
     2.4201   2.4700   2.4918   2.5273   2.5352   2.5555   2.5935   2.6769
     2.7080   2.7303   2.7902   2.8097   2.9336   2.9900   3.0126   3.0378
     3.1093   3.1373   3.1485   3.1754   3.2112   3.2453   3.3473   3.3762
     3.4085   3.4392   3.4655   3.5135   3.5554   3.5721   3.6391   3.6634
     3.6760   3.7112   3.7529   3.8976   3.9970   4.1424   4.1881   4.2562
     4.3089   4.4547   4.5118   4.7747   4.9322   4.9553   4.9964   5.0804
     5.1628   5.1781   5.2267   5.3896   5.6445   5.6852   5.7337   5.7796
     5.8569   5.8676   5.8742   6.0106   6.0737   6.0882   6.1224   6.1477
     6.1996   6.2112   6.2214   6.2374   6.4309   6.5334   6.6159   6.6650
     6.7935   6.8687   6.9655   7.1517   7.2276   7.5143   7.9317   8.0335
     8.0953   8.2544   8.4544   8.5816   8.6532   8.7740   8.9520   9.2717
     9.3597   9.4703   9.5141

          k = 0.0253 0.0560 0.0000 ( 34699 PWs)   bands (ev):

   -57.6879 -57.6704 -57.3060 -57.2876 -57.2283 -57.0989 -57.0791 -57.0615
   -57.0491 -57.0440 -56.9784 -56.9606 -56.7183 -56.6990 -56.1385 -56.1208
   -34.0378 -33.9715 -33.9572 -33.8738 -33.8429 -33.8270 -33.7703 -33.5931
   -33.5704 -33.5691 -33.5321 -33.5225 -33.5060 -33.5049 -33.4738 -33.4701
   -33.4522 -33.4233 -33.4106 -33.3646 -33.3135 -33.3112 -33.3060 -33.2989
   -33.2836 -33.2741 -33.2653 -33.2595 -33.2510 -33.2457 -33.2357 -33.2319
   -33.2074 -33.1961 -33.1677 -33.1619 -33.1231 -32.9845 -32.9717 -32.9588
   -32.9230 -32.8997 -32.4937 -32.4798 -32.4686 -32.3466 -32.3008 -32.2709
   -20.2952 -17.7535 -17.5871 -17.3406 -17.2615 -17.2417 -17.1908 -17.1655
   -17.1366 -16.9935 -16.9675 -16.8780 -16.8736 -16.8261 -16.7936 -16.7702
   -16.7453 -16.6675 -16.6198 -16.6014 -16.5768 -16.5274 -16.4241 -16.4091
   -16.3529 -16.2826 -16.2312 -16.1916 -16.1547 -16.1084 -16.0360 -14.7594
   -14.7222 -11.5057  -7.2747  -5.4051  -5.2335  -5.0288  -4.9464  -4.8100
    -4.7542  -4.7115  -4.5556  -4.4955  -4.4878  -4.4110  -4.3917  -4.3368
    -4.2680  -4.2288  -4.2131  -4.1893  -4.1451  -4.1386  -4.1035  -4.0592
    -4.0296  -4.0096  -3.9904  -3.9326  -3.9219  -3.8726  -3.8566  -3.8188
    -3.7718  -3.7134  -3.6522  -3.5692  -3.4713  -3.4005  -3.3305  -3.2803
    -3.2353  -3.2206  -3.1884  -3.0098  -2.9393  -2.8604  -2.8270  -2.7769
    -2.7566  -2.6432  -2.5908  -2.5070  -2.4866  -2.4349  -2.3903  -2.3628
    -2.3403  -2.3219  -2.2856  -2.2604  -2.1873  -2.1385  -2.1251  -2.0370
    -2.0088  -2.0070  -1.9441  -1.9356  -1.9000  -1.8587  -1.8318  -1.8092
    -1.7424  -1.7008  -1.6758  -1.6347  -1.5701  -1.5350  -1.4915  -1.4726
    -1.4286  -1.3702  -1.3359  -1.2997  -1.2208  -1.2026  -1.1287  -1.1030
    -1.0582  -1.0105  -0.9091  -0.8725  -0.8182  -0.7972  -0.7409  -0.6785
    -0.6041  -0.4625  -0.2532   0.0941   0.1308   0.1578   0.1904   1.8642
     2.0505   2.1352   2.1813   2.2342   2.2747   2.3084   2.3505   2.3872
     2.4290   2.4646   2.4838   2.5109   2.5227   2.5862   2.6966   2.7244
     2.7418   2.7788   2.8266   2.8426   2.9067   2.9555   2.9775   2.9890
     3.0302   3.0363   3.1592   3.2104   3.2894   3.3321   3.3433   3.3860
     3.4103   3.4416   3.4636   3.5436   3.5622   3.6336   3.6590   3.7373
     3.7960   3.8226   3.8639   3.9033   3.9073   4.0750   4.1190   4.1677
     4.3454   4.3885   4.6179   4.9677   5.0152   5.1306   5.1446   5.1606
     5.2648   5.2918   5.3166   5.4394   5.5128   5.5637   5.6401   5.7613
     5.8264   5.8530   5.8942   5.9361   5.9625   6.0049   6.0510   6.0629
     6.1389   6.1595   6.2259   6.3340   6.3818   6.4056   6.4823   6.6445
     6.6940   6.7986   6.8503   7.0375   7.1573   7.3651   7.4890   7.5961
     7.9811   8.1770   8.3500   8.5224   8.6469   8.8636   9.0554   9.1180
     9.1853   9.5039   9.6290

          k = 0.0253-0.0840 0.0000 ( 34722 PWs)   bands (ev):

   -57.6792 -57.6790 -57.2984 -57.2952 -57.2278 -57.0935 -57.0846 -57.0528
   -57.0527 -57.0495 -56.9701 -56.9689 -56.7113 -56.7060 -56.1297 -56.1296
   -33.9644 -33.9642 -33.9412 -33.9411 -33.8506 -33.8504 -33.6834 -33.6595
   -33.5632 -33.5598 -33.5262 -33.5150 -33.5108 -33.4740 -33.4494 -33.4212
   -33.4136 -33.4075 -33.3736 -33.3735 -33.3602 -33.3378 -33.3319 -33.3199
   -33.3184 -33.2822 -33.2754 -33.2737 -33.2669 -33.2627 -33.2337 -33.2322
   -33.2144 -33.2125 -33.1608 -33.1599 -33.0459 -33.0250 -32.9678 -32.9626
   -32.9368 -32.9338 -32.4868 -32.4868 -32.3708 -32.3707 -32.3237 -32.3236
   -20.2951 -17.5529 -17.4847 -17.3799 -17.3614 -17.2107 -17.1515 -17.0568
   -17.0471 -17.0012 -16.9767 -16.9725 -16.8865 -16.8770 -16.8664 -16.7833
   -16.7780 -16.6318 -16.6260 -16.5654 -16.5616 -16.5198 -16.5184 -16.3855
   -16.3840 -16.2517 -16.2494 -16.1971 -16.1935 -16.1294 -16.0983 -14.7587
   -14.7586 -11.5054  -7.2743  -5.3964  -5.2394  -4.7971  -4.6431  -4.6333
    -4.6219  -4.5455  -4.5447  -4.5292  -4.5219  -4.4154  -4.4061  -4.3672
    -4.3441  -4.3136  -4.2955  -4.2822  -4.2607  -4.2291  -4.2254  -4.0398
    -4.0358  -4.0117  -3.9808  -3.9618  -3.9176  -3.8451  -3.8400  -3.8131
    -3.7359  -3.6591  -3.6416  -3.4122  -3.3986  -3.3458  -3.3166  -3.2603
    -3.1171  -3.0929  -3.0577  -3.0485  -3.0066  -2.9618  -2.9167  -2.8931
    -2.8066  -2.8026  -2.6196  -2.5997  -2.5743  -2.5565  -2.5275  -2.4642
    -2.4321  -2.3397  -2.3125  -2.2732  -2.1193  -2.0711  -2.0528  -2.0066
    -1.9206  -1.9181  -1.8760  -1.8646  -1.8541  -1.8133  -1.8030  -1.7926
    -1.7643  -1.7265  -1.6831  -1.6544  -1.6180  -1.6046  -1.5918  -1.4730
    -1.3992  -1.3860  -1.2764  -1.2592  -1.2390  -1.2236  -1.1837  -1.1272
    -1.0811  -1.0493  -1.0411  -1.0096  -0.9568  -0.8882  -0.8762  -0.5345
    -0.5267  -0.4548  -0.4422   0.1193   0.1195   0.1987   0.2004   2.0530
     2.0553   2.2207   2.2359   2.2388   2.2427   2.2810   2.3192   2.4263
     2.4283   2.4429   2.4451   2.5604   2.5618   2.5809   2.6584   2.7245
     2.7588   2.8228   2.8316   2.8830   2.9027   2.9411   2.9511   3.0287
     3.0425   3.0881   3.1175   3.2243   3.2722   3.2928   3.3099   3.4252
     3.4305   3.4550   3.4721   3.4969   3.5255   3.7176   3.7431   3.8114
     3.8291   3.8405   3.8888   3.9161   3.9232   4.0832   4.0858   4.1195
     4.1199   4.4772   4.7164   4.9875   5.0265   5.2731   5.3043   5.3125
     5.3305   5.3634   5.3877   5.4299   5.4818   5.5123   5.5560   5.6434
     5.6510   5.7661   5.8362   5.8792   5.8943   6.0192   6.0800   6.0914
     6.1329   6.1884   6.2204   6.2831   6.3037   6.4675   6.5219   6.5964
     6.6399   6.7883   6.7966   6.9909   7.0361   7.1210   7.3859   7.5960
     7.7444   8.0077   8.2835   8.7249   8.7459   8.9655   9.0125   9.3147
     9.3515   9.4545   9.5520

          k = 0.0506 0.0000 0.0000 ( 34729 PWs)   bands (ev):

   -57.6966 -57.6616 -57.3149 -57.2786 -57.2295 -57.1071 -57.0708 -57.0703
   -57.0477 -57.0352 -56.9872 -56.9517 -56.7274 -56.6899 -56.1473 -56.1120
   -34.1337 -33.9787 -33.9503 -33.8955 -33.8675 -33.8034 -33.7429 -33.6524
   -33.6155 -33.6077 -33.5660 -33.5463 -33.5265 -33.5059 -33.4824 -33.4579
   -33.4556 -33.4507 -33.4281 -33.3728 -33.3213 -33.2899 -33.2685 -33.2640
   -33.2602 -33.2590 -33.2574 -33.2350 -33.2311 -33.2272 -33.2263 -33.2093
   -33.1772 -33.1769 -33.1732 -33.1380 -33.1156 -32.9934 -32.9827 -32.9516
   -32.9051 -32.8023 -32.5648 -32.5028 -32.4718 -32.3692 -32.2777 -32.1695
   -20.2953 -17.9140 -17.7043 -17.4134 -17.3873 -17.2801 -17.2631 -17.2351
   -17.1372 -16.9756 -16.9648 -16.9351 -16.8927 -16.8827 -16.8651 -16.8435
   -16.7483 -16.6988 -16.5338 -16.4524 -16.4464 -16.4080 -16.4019 -16.3558
   -16.3517 -16.3254 -16.1726 -16.1579 -16.1512 -15.9762 -15.9261 -14.7284
   -14.6476 -11.5045  -7.2705  -5.4700  -5.2878  -5.2162  -4.9777  -4.9112
    -4.8009  -4.7951  -4.7685  -4.7453  -4.7114  -4.6309  -4.5226  -4.4623
    -4.4153  -4.2455  -4.1297  -4.0382  -4.0221  -4.0167  -3.9712  -3.9275
    -3.9097  -3.8263  -3.7861  -3.7594  -3.7509  -3.6566  -3.6338  -3.6137
    -3.5528  -3.5510  -3.5385  -3.5228  -3.4974  -3.3067  -3.2795  -3.2651
    -3.2422  -3.1998  -3.1535  -3.1083  -2.9927  -2.9402  -2.8848  -2.8487
    -2.8241  -2.7793  -2.7556  -2.6764  -2.6200  -2.6082  -2.5750  -2.5446
    -2.4602  -2.4571  -2.4247  -2.3631  -2.3113  -2.2037  -2.1957  -2.1192
    -2.0836  -1.9889  -1.9367  -1.9293  -1.8411  -1.8149  -1.7983  -1.7121
    -1.6333  -1.5718  -1.5554  -1.5528  -1.4837  -1.4753  -1.4397  -1.3979
    -1.3492  -1.3302  -1.3007  -1.2081  -1.1171  -1.1032  -1.0861  -1.0700
    -0.9883  -0.9514  -0.8855  -0.8129  -0.8067  -0.7908  -0.7544  -0.5302
    -0.5213  -0.2653  -0.2217  -0.0450   0.0950   0.1211   0.1394   1.6443
     1.8207   2.0025   2.0994   2.1032   2.1819   2.1995   2.2836   2.2959
     2.4571   2.4601   2.4737   2.5610   2.5665   2.5881   2.6290   2.6812
     2.7093   2.8254   2.8727   2.8763   2.9021   2.9264   3.0866   3.1111
     3.1497   3.1661   3.2033   3.2044   3.2889   3.2921   3.3340   3.4120
     3.4420   3.4510   3.5033   3.5549   3.5795   3.5878   3.7030   3.7136
     3.7622   3.7656   3.8008   3.8966   3.9282   4.0858   4.1594   4.2147
     4.3495   4.4677   4.5778   4.6541   4.7701   4.8000   4.8640   4.9008
[...]
    -1.2946  -1.2639  -1.2497  -1.1875  -1.1502  -1.0284  -1.0174  -1.0092
    -0.9857  -0.9453  -0.9026  -0.8350  -0.7534  -0.6983  -0.6442  -0.5914
    -0.5874  -0.5319  -0.5152   0.0683   0.0684   0.2130   0.2147   2.1560
     2.1568   2.2033   2.2052   2.2413   2.2422   2.2693   2.3009   2.4906
     2.4959   2.5283   2.5583   2.6118   2.6195   2.6819   2.6838   2.6936
     2.6947   2.8472   2.9127   2.9855   3.0007   3.0369   3.0445   3.1014
     3.2227   3.2519   3.2751   3.3357   3.3764   3.3931   3.4475   3.4955
     3.5030   3.5254   3.5520   3.5838   3.6065   3.6830   3.7032   3.7484
     3.8378   3.8941   3.9103   3.9550   3.9554   4.0985   4.1053   4.1141
     4.1146   4.6179   4.7856   4.7894   4.8048   4.8737   4.9231   4.9282
     4.9447   4.9877   5.0302   5.2518   5.3423   5.3618   5.3723   5.7314
     5.8032   5.9140   5.9301   5.9821   6.0491   6.1618   6.3051   6.3521
     6.3685   6.3773   6.4127   6.5784   6.6137   6.6673   6.6674   6.7061
     6.7657   6.8460   6.8469   6.8547   6.8556   7.3601   7.4045   7.5215
     7.6611   7.8288   8.0156   8.1705   8.2248   8.3211   8.3947   8.8229
     8.9162   9.0430   9.0822

          k =-0.0253 0.0280 0.0000 ( 34687 PWs)   bands (ev):

   -57.6943 -57.6640 -57.3124 -57.2810 -57.2290 -57.1050 -57.0730 -57.0679
   -57.0481 -57.0375 -56.9848 -56.9540 -56.7249 -56.6923 -56.1451 -56.1146
   -34.1077 -33.9769 -33.9522 -33.8908 -33.8413 -33.8097 -33.7699 -33.6282
   -33.6087 -33.5794 -33.5401 -33.5316 -33.5190 -33.5132 -33.4898 -33.4693
   -33.4630 -33.4576 -33.4260 -33.3827 -33.3154 -33.2879 -33.2808 -33.2616
   -33.2558 -33.2512 -33.2497 -33.2450 -33.2350 -33.2336 -33.2325 -33.2132
   -33.2002 -33.1823 -33.1742 -33.1418 -33.1386 -32.9896 -32.9759 -32.9549
   -32.9100 -32.8301 -32.5395 -32.4990 -32.4750 -32.3634 -32.2841 -32.1970
   -20.2955 -17.9198 -17.7424 -17.4608 -17.3804 -17.3063 -17.2293 -17.1259
   -17.0953 -17.0031 -16.9607 -16.8561 -16.8279 -16.8035 -16.7806 -16.7673
   -16.7105 -16.6968 -16.5970 -16.5761 -16.5038 -16.4722 -16.3783 -16.3623
   -16.3534 -16.3269 -16.1976 -16.1708 -16.1512 -16.0075 -15.9635 -14.7404
   -14.6710 -11.5065  -7.2756  -5.4348  -5.2378  -5.2221  -5.1791  -5.0187
    -4.9635  -4.9334  -4.7562  -4.6985  -4.5591  -4.4003  -4.3686  -4.3435
    -4.2582  -4.2470  -4.1852  -4.1139  -4.0885  -4.0614  -4.0334  -4.0179
    -3.9724  -3.9381  -3.9115  -3.8660  -3.8195  -3.8086  -3.7816  -3.7177
    -3.6975  -3.6602  -3.6124  -3.6017  -3.5368  -3.5234  -3.3623  -3.2959
    -3.2512  -3.2183  -3.1471  -3.0706  -2.9803  -2.9430  -2.7826  -2.7042
    -2.6780  -2.6343  -2.6081  -2.5293  -2.5018  -2.4488  -2.4448  -2.4198
    -2.4032  -2.3819  -2.3367  -2.2987  -2.2151  -2.1726  -2.1187  -2.1009
    -2.0599  -1.9885  -1.9481  -1.8927  -1.8609  -1.8242  -1.7400  -1.7044
    -1.6499  -1.5963  -1.5902  -1.5572  -1.5130  -1.4673  -1.4334  -1.3896
    -1.3422  -1.3297  -1.2778  -1.2394  -1.1934  -1.1087  -1.0959  -1.0561
    -1.0080  -0.8898  -0.8378  -0.8280  -0.7524  -0.7362  -0.7052  -0.6567
    -0.4303  -0.2791  -0.1318  -0.0833   0.1517   0.1811   0.1913   1.7232
     1.8474   2.0187   2.1033   2.1983   2.2491   2.2879   2.3218   2.4070
     2.4181   2.4530   2.4888   2.5327   2.5352   2.5504   2.6108   2.6715
     2.7082   2.7419   2.7786   2.8152   2.9421   2.9893   3.0071   3.0301
     3.1104   3.1389   3.1489   3.1770   3.2115   3.2425   3.3508   3.3752
     3.4063   3.4228   3.4671   3.5099   3.5646   3.5739   3.6399   3.6633
     3.6757   3.7122   3.7523   3.8964   3.9957   4.1441   4.1882   4.2568
     4.3089   4.4551   4.5121   4.7763   4.9403   4.9546   4.9871   5.0803
     5.1616   5.1777   5.2265   5.3885   5.6463   5.6785   5.7306   5.7896
     5.8550   5.8674   5.8751   6.0095   6.0761   6.0814   6.1270   6.1485
     6.1996   6.2099   6.2177   6.2464   6.4308   6.5304   6.6159   6.6704
     6.7962   6.8621   6.9654   7.1518   7.2279   7.5069   7.9310   8.0292
     8.0952   8.2598   8.4433   8.5856   8.6510   8.7835   8.9523   9.2924
     9.3599   9.4644   9.5113

          k =-0.0253 0.0560 0.0000 ( 34699 PWs)   bands (ev):

   -57.6879 -57.6705 -57.3059 -57.2875 -57.2282 -57.0989 -57.0791 -57.0615
   -57.0490 -57.0440 -56.9783 -56.9605 -56.7183 -56.6990 -56.1387 -56.1210
   -34.0378 -33.9715 -33.9573 -33.8739 -33.8430 -33.8271 -33.7702 -33.5931
   -33.5703 -33.5691 -33.5321 -33.5224 -33.5060 -33.5048 -33.4737 -33.4701
   -33.4521 -33.4232 -33.4105 -33.3646 -33.3134 -33.3112 -33.3060 -33.2988
   -33.2836 -33.2741 -33.2653 -33.2595 -33.2510 -33.2458 -33.2357 -33.2319
   -33.2072 -33.1960 -33.1677 -33.1619 -33.1230 -32.9845 -32.9716 -32.9589
   -32.9229 -32.8997 -32.4939 -32.4801 -32.4688 -32.3468 -32.3010 -32.2711
   -20.2953 -17.7535 -17.5870 -17.3406 -17.2615 -17.2419 -17.1910 -17.1654
   -17.1364 -16.9934 -16.9674 -16.8781 -16.8738 -16.8267 -16.7940 -16.7702
   -16.7451 -16.6673 -16.6197 -16.6011 -16.5768 -16.5276 -16.4241 -16.4092
   -16.3529 -16.2825 -16.2312 -16.1916 -16.1546 -16.1085 -16.0360 -14.7590
   -14.7218 -11.5058  -7.2747  -5.4051  -5.2334  -5.0284  -4.9464  -4.8106
    -4.7543  -4.7116  -4.5556  -4.4937  -4.4885  -4.4106  -4.3920  -4.3417
    -4.2683  -4.2298  -4.2127  -4.1892  -4.1449  -4.1380  -4.1051  -4.0592
    -4.0288  -4.0069  -3.9915  -3.9337  -3.9216  -3.8705  -3.8603  -3.8194
    -3.7713  -3.7115  -3.6533  -3.5692  -3.4711  -3.4012  -3.3359  -3.2804
    -3.2355  -3.2138  -3.1821  -3.0106  -2.9367  -2.8620  -2.8237  -2.7804
    -2.7537  -2.6428  -2.5899  -2.5076  -2.4852  -2.4365  -2.3914  -2.3599
    -2.3405  -2.3214  -2.2879  -2.2629  -2.1869  -2.1384  -2.1242  -2.0338
    -2.0173  -1.9998  -1.9424  -1.9400  -1.9016  -1.8590  -1.8274  -1.8038
    -1.7403  -1.7079  -1.6698  -1.6394  -1.5767  -1.5365  -1.5020  -1.4573
    -1.4284  -1.3692  -1.3445  -1.2981  -1.2209  -1.2032  -1.1279  -1.1013
    -1.0593  -1.0112  -0.9207  -0.8732  -0.8108  -0.7973  -0.7347  -0.6781
    -0.6040  -0.4641  -0.2547   0.0944   0.1311   0.1582   0.1906   1.8640
     2.0504   2.1381   2.1813   2.2311   2.2729   2.3090   2.3364   2.3862
     2.4473   2.4618   2.4886   2.5162   2.5232   2.5863   2.6958   2.7273
     2.7477   2.7784   2.8306   2.8437   2.8961   2.9529   2.9739   2.9897
     3.0269   3.0375   3.1734   3.2110   3.2935   3.3197   3.3368   3.3737
     3.4146   3.4393   3.4629   3.5461   3.5619   3.6376   3.6605   3.7380
     3.7962   3.8201   3.8648   3.9016   3.9094   4.0758   4.1190   4.1678
     4.3452   4.3887   4.6189   4.9691   5.0223   5.1286   5.1417   5.1587
     5.2622   5.2897   5.3181   5.4309   5.5147   5.5634   5.6432   5.7656
     5.8274   5.8511   5.8978   5.9388   5.9576   5.9992   6.0546   6.0661
     6.1387   6.1580   6.2324   6.3267   6.3818   6.4113   6.4795   6.6474
     6.6980   6.7985   6.8433   7.0377   7.1501   7.3650   7.4850   7.5875
     7.9808   8.1792   8.3499   8.5245   8.6648   8.8727   9.0615   9.1205
     9.1962   9.4972   9.6238

          k =-0.0506 0.0280 0.0000 ( 34685 PWs)   bands (ev):

   -57.6943 -57.6640 -57.3124 -57.2810 -57.2290 -57.1048 -57.0730 -57.0680
   -57.0481 -57.0375 -56.9848 -56.9540 -56.7249 -56.6923 -56.1451 -56.1146
   -34.1084 -33.9769 -33.9522 -33.8894 -33.8415 -33.8097 -33.7700 -33.6296
   -33.6087 -33.5827 -33.5407 -33.5326 -33.5245 -33.5167 -33.4897 -33.4690
   -33.4552 -33.4457 -33.4261 -33.3665 -33.3151 -33.2882 -33.2765 -33.2627
   -33.2616 -33.2584 -33.2555 -33.2503 -33.2351 -33.2336 -33.2314 -33.2108
   -33.2007 -33.1825 -33.1742 -33.1417 -33.1385 -32.9896 -32.9803 -32.9535
   -32.9100 -32.8301 -32.5394 -32.5008 -32.4741 -32.3633 -32.2841 -32.1970
   -20.2952 -17.8576 -17.6488 -17.3661 -17.3384 -17.2469 -17.2215 -17.2122
   -17.1196 -17.0404 -16.9609 -16.9177 -16.8675 -16.8549 -16.8524 -16.8296
   -16.7604 -16.7426 -16.5563 -16.5250 -16.5006 -16.4354 -16.4128 -16.3729
   -16.3655 -16.3093 -16.1884 -16.1693 -16.1500 -16.0087 -15.9633 -14.7384
   -14.6711 -11.5041  -7.2699  -5.4480  -5.2244  -5.2189  -4.8899  -4.8314
    -4.7178  -4.7017  -4.6724  -4.6522  -4.6274  -4.5070  -4.4252  -4.3428
    -4.3155  -4.2992  -4.1567  -4.1240  -4.0577  -4.0240  -4.0059  -3.9904
    -3.9802  -3.9069  -3.8570  -3.8130  -3.7705  -3.7581  -3.7163  -3.6885
    -3.6530  -3.6307  -3.5804  -3.5482  -3.4460  -3.3219  -3.2870  -3.2597
    -3.2228  -3.1680  -3.0989  -3.0560  -2.9512  -2.9351  -2.8734  -2.8376
    -2.7406  -2.6922  -2.6567  -2.6478  -2.6012  -2.5882  -2.5332  -2.4922
    -2.4340  -2.3846  -2.3783  -2.3327  -2.3059  -2.2513  -2.1763  -2.1327
    -2.1104  -2.0595  -2.0237  -1.9717  -1.9373  -1.9024  -1.8566  -1.8282
    -1.7516  -1.7371  -1.7089  -1.6379  -1.5373  -1.5040  -1.4820  -1.4144
    -1.3637  -1.3446  -1.2757  -1.2577  -1.2346  -1.1443  -1.1109  -1.0102
    -0.9745  -0.8773  -0.8529  -0.8106  -0.7756  -0.7609  -0.7020  -0.6872
    -0.5100  -0.3093  -0.2568  -0.0707   0.1124   0.1417   0.1651   1.7067
     1.9076   2.0629   2.1259   2.1304   2.1753   2.2441   2.3646   2.3751
     2.4091   2.4414   2.5208   2.5707   2.5771   2.6056   2.6870   2.6998
     2.7461   2.8059   2.8364   2.9058   2.9592   2.9848   3.0444   3.0636
     3.0945   3.1637   3.1740   3.2033   3.3054   3.3599   3.3790   3.4136
     3.4491   3.4615   3.5501   3.5895   3.6069   3.6566   3.6788   3.6878
     3.7202   3.7741   3.8210   3.8726   3.9358   4.0625   4.1712   4.2847
     4.2973   4.4252   4.6253   4.6929   4.7669   4.8140   4.8589   4.9924
     5.0158   5.1299   5.2274   5.4735   5.5971   5.6438   5.7259   5.8095
     5.8639   5.8756   5.9282   5.9493   5.9830   6.0963   6.1201   6.1418
     6.2340   6.4352   6.4850   6.5436   6.5807   6.6103   6.6885   6.7433
     6.8005   6.8198   6.9763   7.1148   7.1693   7.3942   7.5720   7.7088
     8.1322   8.1651   8.2463   8.3956   8.7654   8.9729   9.0149   9.0519
     9.3959   9.4550   9.6080

          k =-0.0506 0.0560 0.0000 ( 34596 PWs)   bands (ev):

   -57.6879 -57.6705 -57.3059 -57.2875 -57.2282 -57.0988 -57.0790 -57.0616
   -57.0490 -57.0440 -56.9783 -56.9605 -56.7183 -56.6990 -56.1387 -56.1210
   -34.0384 -33.9715 -33.9572 -33.8727 -33.8431 -33.8267 -33.7704 -33.5930
   -33.5715 -33.5691 -33.5325 -33.5184 -33.5123 -33.5083 -33.4738 -33.4709
   -33.4501 -33.4232 -33.4009 -33.3510 -33.3154 -33.3143 -33.2985 -33.2963
   -33.2839 -33.2740 -33.2651 -33.2572 -33.2510 -33.2504 -33.2450 -33.2370
   -33.2074 -33.1975 -33.1676 -33.1616 -33.1226 -32.9846 -32.9744 -32.9586
   -32.9229 -32.8995 -32.4950 -32.4796 -32.4686 -32.3468 -32.3009 -32.2710
   -20.2949 -17.7031 -17.4981 -17.2883 -17.2369 -17.1947 -17.1712 -17.1591
   -17.0868 -17.0345 -17.0032 -16.9108 -16.8537 -16.8464 -16.8414 -16.8034
   -16.7736 -16.7186 -16.6595 -16.6192 -16.6095 -16.5481 -16.5099 -16.3956
   -16.3402 -16.2612 -16.2233 -16.1901 -16.1540 -16.1101 -16.0352 -14.7577
   -14.7222 -11.5032  -7.2688  -5.4204  -5.2323  -5.0189  -4.6567  -4.6145
    -4.5126  -4.4964  -4.4811  -4.4537  -4.4291  -4.3647  -4.3222  -4.2992
    -4.2233  -4.2031  -4.1439  -4.1293  -4.0797  -4.0643  -4.0434  -4.0337
    -4.0114  -3.9934  -3.9659  -3.9118  -3.8913  -3.8857  -3.8195  -3.7845
    -3.7280  -3.6579  -3.6278  -3.5205  -3.4871  -3.3811  -3.3256  -3.2593
    -3.2541  -3.2426  -3.1456  -3.0137  -2.9312  -2.9022  -2.8485  -2.8284
    -2.7538  -2.7241  -2.6822  -2.6070  -2.5892  -2.5650  -2.5258  -2.4873
    -2.4258  -2.4031  -2.3632  -2.3269  -2.3138  -2.2977  -2.2528  -2.1754
    -2.1496  -2.1186  -2.1113  -2.0748  -2.0445  -1.9993  -1.9814  -1.8990
    -1.8885  -1.8487  -1.8298  -1.7221  -1.6350  -1.6033  -1.5700  -1.4757
    -1.4054  -1.3720  -1.3045  -1.2475  -1.2034  -1.1083  -1.0710  -1.0148
    -0.9998  -0.9341  -0.8499  -0.8168  -0.7672  -0.7532  -0.6895  -0.6544
    -0.6492  -0.5148  -0.3217   0.0804   0.1145   0.1325   0.1961   1.8693
     2.0792   2.1686   2.2026   2.2238   2.2462   2.3014   2.3512   2.3963
     2.4063   2.5401   2.5733   2.5823   2.6102   2.6315   2.6867   2.7576
     2.7848   2.8073   2.8419   2.8841   2.9666   3.0076   3.0313   3.0653
     3.1003   3.1394   3.1707   3.2598   3.3385   3.3704   3.4001   3.4442
     3.4819   3.5030   3.5250   3.5458   3.6179   3.6506   3.7147   3.7470
     3.7833   3.8549   3.8834   3.9219   3.9279   3.9575   4.1141   4.1773
     4.2919   4.4775   4.7280   4.8094   4.8198   4.8991   4.9457   5.0952
     5.1686   5.2355   5.2744   5.3332   5.3753   5.4383   5.4988   5.6292
     5.7840   5.8343   5.8846   5.9551   6.0442   6.1272   6.2198   6.2613
     6.2896   6.3508   6.4193   6.4533   6.5054   6.5799   6.6519   6.7187
     6.7332   6.8264   6.8498   6.9867   7.0540   7.4123   7.4339   7.5763
     7.7442   7.9415   8.0734   8.3920   8.5754   8.6102   8.7486   9.0098
     9.2279   9.3232   9.4584

     the Fermi energy is     0.9995 ev

!    total energy              =   -3021.41942775 Ry
     Harris-Foulkes estimate   =   -3021.41942802 Ry
     estimated scf accuracy    <       0.00000037 Ry

     The total energy is the sum of the following terms:

     one-electron contribution =  -41241.67387175 Ry
     hartree contribution      =   20695.12719281 Ry
     xc contribution           =    -553.70915594 Ry
     ewald contribution        =   18078.83661810 Ry
     smearing contrib. (-TS)   =      -0.00021098 Ry

     total magnetization       =     0.00 Bohr mag/cell
     absolute magnetization    =     0.00 Bohr mag/cell

     convergence has been achieved in   8 iterations

     Forces acting on atoms (Ry/au):


     negative rho (up, down):  1.210E-02 1.210E-02
     atom    1 type  1   force =     0.00001704   -0.00035657   -0.13377760
     atom    2 type  2   force =     0.00000545    0.00003000    0.07211142
     atom    3 type  1   force =    -0.00135467    0.00030715   -0.06093905
     atom    4 type  2   force =     0.00290141    0.00048690    0.00637676
     atom    5 type  1   force =     0.00027593    0.00184654    0.00354641
     atom    6 type  2   force =     0.00005892    0.00001357   -0.00288465
     atom    7 type  1   force =    -0.00035182   -0.00077374    0.00457540
     atom    8 type  2   force =     0.00094767   -0.00019412   -0.00068365
     atom    9 type  1   force =    -0.00002533    0.00001979   -0.13353381
     atom   10 type  2   force =    -0.00006527    0.00006561    0.07129336
     atom   11 type  1   force =    -0.00131496   -0.00024352   -0.05585459
     atom   12 type  2   force =     0.00299678   -0.00006950    0.00609611
     atom   13 type  1   force =     0.00029639   -0.00147788    0.00348675
     atom   14 type  2   force =    -0.00119904   -0.00038410   -0.00293263
     atom   15 type  1   force =    -0.00055173    0.00021571    0.00455152
     atom   16 type  2   force =     0.00056270   -0.00019262   -0.00006069
     atom   17 type  2   force =    -0.00006891   -0.00007080    0.07937355
     atom   18 type  1   force =     0.00013671   -0.00017102    0.11913981
     atom   19 type  2   force =    -0.00010496   -0.00017567   -0.06669876
     atom   20 type  2   force =    -0.06322260    0.00014785   -0.03225306
     atom   21 type  2   force =     0.06320277    0.00001435   -0.03245843
     atom   22 type  1   force =     0.00072500    0.00108317    0.05977156
     atom   23 type  2   force =    -0.00017270    0.00005691   -0.00177381
     atom   24 type  2   force =    -0.00143133   -0.00000187   -0.02328167
     atom   25 type  2   force =    -0.00313027    0.00058977    0.00786373
     atom   26 type  1   force =     0.00063737    0.00029244    0.00464148
     atom   27 type  2   force =     0.00052807    0.00059859   -0.00383401
     atom   28 type  2   force =     0.00014336   -0.00009049   -0.00120544
     atom   29 type  2   force =     0.00021666   -0.00034660   -0.00058979
     atom   30 type  1   force =     0.00033079   -0.00068279    0.00388710
     atom   31 type  2   force =     0.00006228    0.00011488   -0.00262539
     atom   32 type  2   force =     0.00003296   -0.00006264   -0.00120046
     atom   33 type  2   force =    -0.00011827    0.00003760    0.07897260
     atom   34 type  1   force =     0.00006988   -0.00022144    0.11905568
     atom   35 type  2   force =    -0.00030309   -0.00005521   -0.06640030
     atom   36 type  2   force =    -0.06318132   -0.00005137   -0.03234017
     atom   37 type  2   force =     0.06333367   -0.00020123   -0.03249567
     atom   38 type  1   force =     0.00066436   -0.00098205    0.05999012
     atom   39 type  2   force =    -0.00045541    0.00010565   -0.00251836
     atom   40 type  2   force =    -0.00118864    0.00030638   -0.02219286
     atom   41 type  2   force =    -0.00316941   -0.00015109    0.00789332
     atom   42 type  1   force =     0.00051508    0.00006160    0.00376387
     atom   43 type  2   force =     0.00069656    0.00023910   -0.00301162
     atom   44 type  2   force =     0.00022554    0.00010276   -0.00116069
     atom   45 type  2   force =     0.00019292    0.00030930   -0.00062561
     atom   46 type  1   force =     0.00057133    0.00029218    0.00396011
     atom   47 type  2   force =     0.00007330   -0.00032631   -0.00130430
     atom   48 type  2   force =     0.00011977    0.00012103   -0.00094234
     atom   49 type  3   force =    -0.00625025   -0.02763700   -0.01095196
     atom   50 type  2   force =     0.00174761    0.00071126   -0.00315490
     atom   51 type  4   force =     0.00006727    0.00019225    0.00006987
     atom   52 type  4   force =     0.00032387    0.00037417    0.00065841
     atom   53 type  4   force =    -0.00062520   -0.00146649   -0.00212995
     atom   54 type  4   force =     0.00560574    0.02764959    0.01473729

     Total force =     0.365271     Total SCF correction =     0.000842
 !ASE

     Writing output data file calc.save
 
     init_run     :     57.86s CPU     72.93s WALL (       1 calls)
     electrons    :   1961.70s CPU   2428.84s WALL (       1 calls)
     forces       :     40.33s CPU     41.58s WALL (       1 calls)

     Called by init_run:
     wfcinit      :     49.54s CPU     63.85s WALL (       1 calls)
     potinit      :      1.34s CPU      1.65s WALL (       1 calls)

     Called by electrons:
     c_bands      :   1714.98s CPU   2119.73s WALL (       9 calls)
     sum_band     :    211.43s CPU    268.58s WALL (       9 calls)
     v_of_rho     :      8.70s CPU     11.07s WALL (       9 calls)
     newd         :     30.37s CPU     33.44s WALL (       9 calls)
     mix_rho      :      0.27s CPU      0.42s WALL (       9 calls)
     vdW_energy   :      1.62s CPU      1.97s WALL (      10 calls)
     vdW_ffts     :      2.35s CPU      3.15s WALL (      20 calls)
     vdW_v        :      0.92s CPU      1.16s WALL (      10 calls)

     Called by c_bands:
     init_us_2    :      5.36s CPU      5.89s WALL (     800 calls)
     cegterg      :   1681.74s CPU   2084.68s WALL (     360 calls)

     Called by *egterg:
     h_psi        :    690.00s CPU   1018.70s WALL (    1972 calls)
     s_psi        :     83.85s CPU     87.88s WALL (    1972 calls)
     g_psi        :      4.54s CPU      4.64s WALL (    1572 calls)
     cdiaghg      :    592.93s CPU    605.83s WALL (    1892 calls)

     Called by h_psi:
     add_vuspsi   :     84.42s CPU     88.27s WALL (    1972 calls)

     General routines
     calbec       :    128.13s CPU    130.88s WALL (    2372 calls)
     fft          :      4.96s CPU      6.62s WALL (     794 calls)
     ffts         :      0.04s CPU      0.06s WALL (      36 calls)
     fftw         :    457.38s CPU    823.13s WALL (  665474 calls)
     interpolate  :      0.27s CPU      0.44s WALL (      36 calls)
     davcio       :      0.16s CPU      3.57s WALL (      40 calls)
 
     Parallel routines
     fft_scatter  :    247.72s CPU    436.62s WALL (  666304 calls)
 
     PWSCF        : 34m20.91s CPU    42m28.62s WALL

 
   This run was terminated on:   8:15:22  13Feb2018            

=------------------------------------------------------------------------------=
   JOB DONE.
=------------------------------------------------------------------------------=
