  python dir          : /home/vossj/suncat/lib/python2.7/site-packages/espresso
  espresso dir        : /home/vossj/suncat/esdld/espresso-dynpy-beef/bin
  pseudo dir          : /home/alatimer/bin/psp/esp_psp_w_gbrvRu/
  ase-espresso py git : ffa2778-git



     Program PWSCF v.5.1rc2 (svn rev. ) starts on 26Feb2018 at  0:21:47 

     This program is part of the open-source Quantum ESPRESSO suite
     for quantum simulation of materials; please cite
         "P. Giannozzi et al., J. Phys.:Condens. Matter 21 395502 (2009);
          URL http://www.quantum-espresso.org", 
     in publications or presentations arising from this work. More details at
     http://www.quantum-espresso.org/quote

     Parallel version (MPI), running on    16 processors
     R & G space division:  proc/nbgrp/npool/nimage =      16
     Reading input from pw.inp
     Message from routine read_cards :
     DEPRECATED: no units specified in CELL_PARAMETERS card

     Current dimensions of program PWSCF are:
     Max number of different atomic species (ntypx) = 10
     Max number of k-points (npk) =  40000
     Max angular momentum in pseudopotentials (lmaxx) =  3

     **************************************************************************
     Initializing libbeef V0.1.1 with the BEEF-vdW functional.
     Citation: Wellendorff et al., PRB 85, 235149 (2012).
     **************************************************************************


     IMPORTANT: XC functional enforced from input :
     Exchange-correlation      = BEEF ( 1  4 27 13 2)
     Any further DFT definition will be discarded
     Please, verify this is what you really want


     Subspace diagonalization in iterative solution of the eigenvalue problem:
     a serial algorithm will be used

 
     Parallelization info
     --------------------
     sticks:   dense  smooth     PW     G-vecs:    dense   smooth      PW
     Min         281     112     31                68535    17318    2565
     Max         282     113     32                68545    17369    2582
     Sum        4501    1795    503              1096637   277353   41113
 
     Generating pointlists ...
     new r_m :   0.4125 (alat units)  0.7795 (a.u.) for type    1
     new r_m :   0.4125 (alat units)  0.7795 (a.u.) for type    2
     new r_m :   0.4125 (alat units)  0.7795 (a.u.) for type    3
     new r_m :   0.4125 (alat units)  0.7795 (a.u.) for type    4


     bravais-lattice index     =            0
     lattice parameter (alat)  =       1.8897  a.u.
     unit-cell volume          =    7990.9933 (a.u.)^3
     number of atoms/cell      =           54
     number of atomic types    =            4
     number of electrons       =       398.00
     number of Kohn-Sham states=          299
     kinetic-energy cutoff     =      40.4243  Ry
     charge density cutoff     =     404.2426  Ry
     convergence threshold     =      7.3E-07
     mixing beta               =       0.1000
     number of iterations used =           10  plain     mixing
     Exchange-correlation      = BEEF ( 1  4 27 13 2)
     nstep                     =           50


     celldm(1)=   1.889726  celldm(2)=   0.000000  celldm(3)=   0.000000
     celldm(4)=   0.000000  celldm(5)=   0.000000  celldm(6)=   0.000000

     crystal axes: (cart. coord. in units of alat)
               a(1) = (   6.590708   0.000000   0.000000 )  
               a(2) = (   0.000000   5.950229   0.000000 )  
               a(3) = (   0.000000   0.000000  30.195235 )  

     reciprocal axes: (cart. coord. in units 2 pi/alat)
               b(1) = (  0.151729  0.000000  0.000000 )  
               b(2) = (  0.000000  0.168061  0.000000 )  
               b(3) = (  0.000000  0.000000  0.033118 )  


     PseudoPot. # 1 for Ti read from file:
     /home/alatimer/bin/psp/esp_psp_w_gbrvRu/Ti.UPF
     MD5 check sum: 8e4df49b7f0d34bbd5052bf3f5ea0213
     Pseudo is Ultrasoft, Zval = 12.0
     Generated by new atomic code, or converted to UPF format
     Using radial grid of  851 points,  6 beta functions with: 
                l(1) =   0
                l(2) =   0
                l(3) =   1
                l(4) =   1
                l(5) =   2
                l(6) =   2
     Q(r) pseudized with  8 coefficients,  rinner =    1.000   1.000   1.000
                                                       1.000   1.000

     PseudoPot. # 2 for  O read from file:
     /home/alatimer/bin/psp/esp_psp_w_gbrvRu/O.UPF
     MD5 check sum: e057bbcf3229fb5d8c36c0c92f9568b4
     Pseudo is Ultrasoft + core correction, Zval =  6.0
     Generated using "atomic" code by A. Dal Corso  v.5.0.2 svn rev. 9415
     Using radial grid of 1095 points,  4 beta functions with: 
                l(1) =   0
                l(2) =   0
                l(3) =   1
                l(4) =   1
     Q(r) pseudized with 0 coefficients 


     PseudoPot. # 3 for  C read from file:
     /home/alatimer/bin/psp/esp_psp_w_gbrvRu/C.UPF
     MD5 check sum: ab446d787031eba755f1d5ee46644bb0
     Pseudo is Ultrasoft + core correction, Zval =  4.0
     Generated using "atomic" code by A. Dal Corso  v.5.0.2 svn rev. 9415
     Using radial grid of 1073 points,  4 beta functions with: 
                l(1) =   0
                l(2) =   0
                l(3) =   1
                l(4) =   1
     Q(r) pseudized with 0 coefficients 


     PseudoPot. # 4 for  H read from file:
     /home/alatimer/bin/psp/esp_psp_w_gbrvRu/H.UPF
     MD5 check sum: bd57da0722753ddfd9833a65b40bb853
     Pseudo is Ultrasoft, Zval =  1.0
     Generated using "atomic" code by A. Dal Corso  v.5.0.2 svn rev. 9415
     Using radial grid of  929 points,  2 beta functions with: 
                l(1) =   0
                l(2) =   0
     Q(r) pseudized with 0 coefficients 


     vdW kernel table read from file vdW_kernel_table
     MD5 check sum: 095c7af220d748ca6e76c0b4c6cfb241

     atomic species   valence    mass     pseudopotential
        Ti1           12.00    47.88000     Ti( 1.00)
        O1             6.00    15.99940      O( 1.00)
        C1             4.00    12.01100      C( 1.00)
        H1             1.00     1.00794      H( 1.00)

     Starting magnetic structure 
     atomic species   magnetization
        Ti1          0.250
        O1           0.500
        C1           0.750
        H1           0.000

     No symmetry found



   Cartesian axes

     site n.     atom                  positions (alat units)
         1           Ti1 tau(   1) = (   1.6476770   0.7437786   2.6545865  )
         2           O1  tau(   2) = (   1.6476770   2.2313359   3.9361215  )
         3           Ti1 tau(   3) = (   1.6476770   2.2313359   5.9499405  )
         4           O1  tau(   4) = (   0.3661420   0.7437786   5.9499405  )
         5           Ti1 tau(   5) = (   1.6407309   0.9134410   9.3139491  )
         6           O1  tau(   6) = (   1.6648823   2.2608486  10.4895904  )
         7           Ti1 tau(   7) = (   1.7578240   2.2899216  13.0472362  )
         8           O1  tau(   8) = (   0.4801583   0.7600008  12.7739736  )
         9           Ti1 tau(   9) = (   1.6476770   3.7188931   2.6545865  )
        10           O1  tau(  10) = (   1.6476770   5.2064503   3.9361215  )
        11           Ti1 tau(  11) = (   1.6476770   5.2064503   5.9499405  )
        12           O1  tau(  12) = (   0.3661420   3.7188931   5.9499405  )
        13           Ti1 tau(  13) = (   1.6336050   3.7786827   9.1566831  )
        14           O1  tau(  14) = (   1.6678212   5.2513959  10.5409436  )
        15           Ti1 tau(  15) = (   1.7144009   5.2558216  12.3462911  )
        16           O1  tau(  16) = (   0.4635505   3.7986228  12.7318280  )
        17           O1  tau(  17) = (   1.6476770   2.2313359   1.3730516  )
        18           Ti1 tau(  18) = (   4.9430310   2.2313359   2.6545865  )
        19           O1  tau(  19) = (   4.9430310   2.2313359   4.6684056  )
        20           O1  tau(  20) = (   6.2245660   0.7437786   2.6545865  )
        21           O1  tau(  21) = (   3.6614961   0.7437786   2.6545865  )
        22           Ti1 tau(  22) = (   4.9430310   0.7437786   5.9499405  )
        23           O1  tau(  23) = (   1.6683653   2.2752577   7.9427336  )
        24           O1  tau(  24) = (   4.9430310   2.2313359   7.2314755  )
        25           O1  tau(  25) = (   2.9292120   0.7437786   5.9499405  )
        26           Ti1 tau(  26) = (   4.9404121   2.2664794   9.4552217  )
        27           O1  tau(  27) = (   5.0099888   2.2616732  11.2946145  )
        28           O1  tau(  28) = (   6.2612001   0.7714827   9.2659748  )
        29           O1  tau(  29) = (   3.6791272   0.7744986   9.2965846  )
        30           Ti1 tau(  30) = (   5.0117873   0.7976728  12.8161605  )
        31           O1  tau(  31) = (   4.9963122   2.2836652  13.8750618  )
        32           O1  tau(  32) = (   2.9819382   0.7448324  12.7109220  )
        33           O1  tau(  33) = (   1.6476770   5.2064503   1.3730516  )
        34           Ti1 tau(  34) = (   4.9430310   5.2064503   2.6545865  )
        35           O1  tau(  35) = (   4.9430310   5.2064503   4.6684056  )
        36           O1  tau(  36) = (   6.2245660   3.7188931   2.6545865  )
        37           O1  tau(  37) = (   3.6614961   3.7188931   2.6545865  )
        38           Ti1 tau(  38) = (   4.9430310   3.7188931   5.9499405  )
        39           O1  tau(  39) = (   1.6664207   5.2035600   7.9365221  )
        40           O1  tau(  40) = (   4.9430310   5.2064503   7.2314755  )
        41           O1  tau(  41) = (   2.9292120   3.7188931   5.9499405  )
        42           Ti1 tau(  42) = (   4.9524353   5.2460635   9.4426343  )
        43           O1  tau(  43) = (   5.0107556   5.2394944  11.2927493  )
        44           O1  tau(  44) = (   6.2663940   3.7551737   9.2646230  )
        45           O1  tau(  45) = (   3.6780957   3.7542261   9.2971476  )
        46           Ti1 tau(  46) = (   5.0587989   3.7766986  12.8010349  )
        47           O1  tau(  47) = (   5.0196089   5.2502198  13.8813978  )
        48           O1  tau(  48) = (   2.9624133   3.7943242  12.7299881  )
        49           O1  tau(  49) = (   1.7427453   2.2533568  14.8370015  )
        50           C1  tau(  50) = (   2.6896098   4.2826273  16.2318421  )
        51           H1  tau(  51) = (   3.3037454   4.9255546  15.5827400  )
        52           H1  tau(  52) = (   3.3286606   3.7870117  16.9822022  )
        53           H1  tau(  53) = (   2.3125587   3.4026405  15.5729816  )
        54           H1  tau(  54) = (   1.8391288   4.7650601  16.6448379  )

     number of k points=    40  Fermi-Dirac smearing, width (Ry)=  0.0073
                       cart. coord. in units 2pi/alat
        k(    1) = (   0.0000000   0.0000000   0.0000000), wk =   0.0277778
        k(    2) = (   0.0000000   0.0280101   0.0000000), wk =   0.0555556
        k(    3) = (   0.0000000   0.0560203   0.0000000), wk =   0.0555556
        k(    4) = (   0.0000000  -0.0840304   0.0000000), wk =   0.0277778
        k(    5) = (   0.0252881   0.0000000   0.0000000), wk =   0.0555556
        k(    6) = (   0.0252881   0.0280101   0.0000000), wk =   0.0555556
        k(    7) = (   0.0252881   0.0560203   0.0000000), wk =   0.0555556
        k(    8) = (   0.0252881  -0.0840304   0.0000000), wk =   0.0555556
        k(    9) = (   0.0505763   0.0000000   0.0000000), wk =   0.0555556
        k(   10) = (   0.0505763   0.0280101   0.0000000), wk =   0.0555556
        k(   11) = (   0.0505763   0.0560203   0.0000000), wk =   0.0555556
        k(   12) = (   0.0505763  -0.0840304   0.0000000), wk =   0.0555556
        k(   13) = (  -0.0758644   0.0000000   0.0000000), wk =   0.0277778
        k(   14) = (  -0.0758644   0.0280101   0.0000000), wk =   0.0555556
        k(   15) = (  -0.0758644   0.0560203   0.0000000), wk =   0.0555556
        k(   16) = (  -0.0758644  -0.0840304   0.0000000), wk =   0.0277778
        k(   17) = (  -0.0252881   0.0280101   0.0000000), wk =   0.0555556
        k(   18) = (  -0.0252881   0.0560203   0.0000000), wk =   0.0555556
        k(   19) = (  -0.0505763   0.0280101   0.0000000), wk =   0.0555556
        k(   20) = (  -0.0505763   0.0560203   0.0000000), wk =   0.0555556
        k(   21) = (   0.0000000   0.0000000   0.0000000), wk =   0.0277778
        k(   22) = (   0.0000000   0.0280101   0.0000000), wk =   0.0555556
        k(   23) = (   0.0000000   0.0560203   0.0000000), wk =   0.0555556
        k(   24) = (   0.0000000  -0.0840304   0.0000000), wk =   0.0277778
        k(   25) = (   0.0252881   0.0000000   0.0000000), wk =   0.0555556
        k(   26) = (   0.0252881   0.0280101   0.0000000), wk =   0.0555556
        k(   27) = (   0.0252881   0.0560203   0.0000000), wk =   0.0555556
        k(   28) = (   0.0252881  -0.0840304   0.0000000), wk =   0.0555556
        k(   29) = (   0.0505763   0.0000000   0.0000000), wk =   0.0555556
        k(   30) = (   0.0505763   0.0280101   0.0000000), wk =   0.0555556
        k(   31) = (   0.0505763   0.0560203   0.0000000), wk =   0.0555556
        k(   32) = (   0.0505763  -0.0840304   0.0000000), wk =   0.0555556
        k(   33) = (  -0.0758644   0.0000000   0.0000000), wk =   0.0277778
        k(   34) = (  -0.0758644   0.0280101   0.0000000), wk =   0.0555556
        k(   35) = (  -0.0758644   0.0560203   0.0000000), wk =   0.0555556
        k(   36) = (  -0.0758644  -0.0840304   0.0000000), wk =   0.0277778
        k(   37) = (  -0.0252881   0.0280101   0.0000000), wk =   0.0555556
        k(   38) = (  -0.0252881   0.0560203   0.0000000), wk =   0.0555556
        k(   39) = (  -0.0505763   0.0280101   0.0000000), wk =   0.0555556
        k(   40) = (  -0.0505763   0.0560203   0.0000000), wk =   0.0555556

     Dense  grid:  1096637 G-vectors     FFT dimensions: (  80,  72, 375)

     Smooth grid:   277353 G-vectors     FFT dimensions: (  54,  45, 240)

     Largest allocated arrays     est. size (Mb)     dimensions
        Kohn-Sham Wavefunctions         9.95 Mb     (    2180,  299)
        NL pseudopotentials            18.89 Mb     (    2180,  568)
        Each V/rho on FFT grid          4.22 Mb     (  138240,   2)
        Each G-vector array             0.52 Mb     (   68538)
        G-vector shells                 0.25 Mb     (   33046)
     Largest temporary arrays     est. size (Mb)     dimensions
        Auxiliary wavefunctions        39.78 Mb     (    2180, 1196)
        Each subspace H/S matrix       21.83 Mb     (    1196, 1196)
        Each <psi_i|beta_j> matrix      2.59 Mb     (     568,  299)
        Arrays for rho mixing          21.09 Mb     (  138240,   10)

     Check: negative/imaginary core charge=   -0.000049    0.000000

     The initial density is read from file :
     ./calc.save/charge-density.dat


     negative rho (up, down):  1.189E-02 1.196E-02


     ************************************************************************
     *
     * You are using vdW-DF for exchange-correlation in this calculation.
     * Please cite the following three references that made this development
     * possible:
     *
     *   M. Dion, H. Rydberg, E. Schroder, D. C. Langreth, and
     *   B. I. Lundqvist, Phys. Rev. Lett. 92, 246401 (2004).
     *
     *   T. Thonhauser, V. R. Cooper, S. Li, A. Puzder, P. Hyldgaard, and
     *   D. C. Langreth, Phys. Rev. B 76, 125112 (2007).
     *
     *   G. Roman-Perez and J. M. Soler, Phys. Rev. Lett. 103, 096102 (2009).
     *
     *
     * If you are using vdW-DF2, please also cite:
     *
     *   K. Lee, E. D. Murray, L. Kong, B. I. Lundqvist, and
     *   D. C. Langreth, Phys. Rev. B 82, 081101(R) (2010).
     *
     *
     * If you are calculating the stress with vdW-DF, please also cite:
     *
     *   R. Sabatini, E. Kucukbenli, B. Kolb, T. Thonhauser, and
     *   S. de Gironcoli, J. Phys.: Condens. Matter 24, 424209 (2012).
     *
     ************************************************************************

     Carrying out vdW-DF run using the following parameters:

     Nqs =      20    Nr_points =    1024   r_max =   100.000
     q_mesh =
               0.00001000     0.04494208     0.09755937     0.15916263
               0.23128650     0.31572767     0.41458969     0.53033537
               0.66584808     0.82450364     1.01025438     1.22772762
               1.48234092     1.78043706     2.12944203     2.53805004
               3.01644009     3.57652955     4.23227104     5.00000000

     Gradients computed in reciprocal space

     ************************************************************************


     Starting wfc are  300 randomized atomic wfcs

     total cpu time spent up to now is       76.9 secs

     Self-consistent Calculation

     iteration #  1     ecut=    40.42 Ry     beta=0.10
     Davidson diagonalization with overlap
     ethr =  1.00E-05,  avg # of iterations = 15.0

     negative rho (up, down):  1.189E-02 1.196E-02
 
     Magnetic moment per site:
     atom:    1    charge:    3.1244    magn:   -0.0003    constr:    0.0000
     atom:    2    charge:    2.0896    magn:    0.0003    constr:    0.0000
     atom:    3    charge:    3.1198    magn:   -0.0000    constr:    0.0000
     atom:    4    charge:    2.0867    magn:   -0.0001    constr:    0.0000
     atom:    5    charge:    3.1161    magn:   -0.0002    constr:    0.0000
     atom:    6    charge:    2.0795    magn:    0.0021    constr:    0.0000
     atom:    7    charge:    3.1166    magn:   -0.0054    constr:    0.0000
     atom:    8    charge:    2.0792    magn:    0.0250    constr:    0.0000
     atom:    9    charge:    3.1244    magn:   -0.0003    constr:    0.0000
     atom:   10    charge:    2.0898    magn:    0.0003    constr:    0.0000
     atom:   11    charge:    3.1198    magn:   -0.0000    constr:    0.0000
     atom:   12    charge:    2.0870    magn:   -0.0000    constr:    0.0000
     atom:   13    charge:    3.1150    magn:   -0.0002    constr:    0.0000
     atom:   14    charge:    2.0939    magn:    0.0023    constr:    0.0000
     atom:   15    charge:    3.1185    magn:   -0.0008    constr:    0.0000
     atom:   16    charge:    2.0830    magn:    0.0046    constr:    0.0000
     atom:   17    charge:    2.0623    magn:    0.0018    constr:    0.0000
     atom:   18    charge:    3.1239    magn:   -0.0001    constr:    0.0000
     atom:   19    charge:    2.0875    magn:    0.0001    constr:    0.0000
     atom:   20    charge:    2.0847    magn:    0.0002    constr:    0.0000
     atom:   21    charge:    2.0847    magn:    0.0002    constr:    0.0000
     atom:   22    charge:    3.1199    magn:    0.0000    constr:    0.0000
     atom:   23    charge:    2.0908    magn:    0.0002    constr:    0.0000
     atom:   24    charge:    2.0754    magn:   -0.0002    constr:    0.0000
     atom:   25    charge:    2.0867    magn:    0.0000    constr:    0.0000
     atom:   26    charge:    3.1127    magn:   -0.0002    constr:    0.0000
     atom:   27    charge:    2.0803    magn:    0.0025    constr:    0.0000
     atom:   28    charge:    2.0839    magn:    0.0006    constr:    0.0000
     atom:   29    charge:    2.0860    magn:    0.0008    constr:    0.0000
     atom:   30    charge:    3.1172    magn:   -0.0008    constr:    0.0000
     atom:   31    charge:    2.0824    magn:    0.0006    constr:    0.0000
     atom:   32    charge:    2.0829    magn:    0.0064    constr:    0.0000
     atom:   33    charge:    2.0623    magn:    0.0018    constr:    0.0000
     atom:   34    charge:    3.1239    magn:   -0.0001    constr:    0.0000
     atom:   35    charge:    2.0876    magn:    0.0001    constr:    0.0000
     atom:   36    charge:    2.0847    magn:    0.0002    constr:    0.0000
     atom:   37    charge:    2.0847    magn:    0.0002    constr:    0.0000
     atom:   38    charge:    3.1200    magn:    0.0000    constr:    0.0000
     atom:   39    charge:    2.0839    magn:    0.0002    constr:    0.0000
     atom:   40    charge:    2.0756    magn:   -0.0003    constr:    0.0000
     atom:   41    charge:    2.0870    magn:   -0.0000    constr:    0.0000
     atom:   42    charge:    3.1151    magn:   -0.0002    constr:    0.0000
     atom:   43    charge:    2.0803    magn:    0.0030    constr:    0.0000
     atom:   44    charge:    2.0851    magn:    0.0008    constr:    0.0000
     atom:   45    charge:    2.0858    magn:    0.0004    constr:    0.0000
     atom:   46    charge:    3.1148    magn:   -0.0007    constr:    0.0000
     atom:   47    charge:    2.0803    magn:    0.0047    constr:    0.0000
     atom:   48    charge:    2.0835    magn:    0.0137    constr:    0.0000
     atom:   49    charge:    2.0522    magn:    0.2398    constr:    0.0000
     atom:   50    charge:    0.6710    magn:    0.0551    constr:    0.0000
     atom:   51    charge:    0.4201    magn:    0.0009    constr:    0.0000
     atom:   52    charge:    0.4207    magn:    0.0008    constr:    0.0000
     atom:   53    charge:    0.3686    magn:    0.0231    constr:    0.0000
     atom:   54    charge:    0.4258    magn:    0.0006    constr:    0.0000

     total cpu time spent up to now is     1092.0 secs

     total energy              =   -3021.15387180 Ry
     Harris-Foulkes estimate   =   -3021.15677220 Ry
     estimated scf accuracy    <       0.01955648 Ry

     total magnetization       =     1.05 Bohr mag/cell
     absolute magnetization    =     1.22 Bohr mag/cell

     iteration #  2     ecut=    40.42 Ry     beta=0.10
     Davidson diagonalization with overlap
     ethr =  4.91E-06,  avg # of iterations =  1.9

     negative rho (up, down):  1.189E-02 1.196E-02
 
     Magnetic moment per site:
     atom:    1    charge:    3.1244    magn:   -0.0003    constr:    0.0000
     atom:    2    charge:    2.0898    magn:    0.0003    constr:    0.0000
     atom:    3    charge:    3.1198    magn:   -0.0000    constr:    0.0000
     atom:    4    charge:    2.0868    magn:   -0.0001    constr:    0.0000
     atom:    5    charge:    3.1161    magn:   -0.0002    constr:    0.0000
     atom:    6    charge:    2.0794    magn:    0.0021    constr:    0.0000
     atom:    7    charge:    3.1166    magn:   -0.0054    constr:    0.0000
     atom:    8    charge:    2.0791    magn:    0.0251    constr:    0.0000
     atom:    9    charge:    3.1245    magn:   -0.0003    constr:    0.0000
     atom:   10    charge:    2.0899    magn:    0.0003    constr:    0.0000
     atom:   11    charge:    3.1198    magn:   -0.0000    constr:    0.0000
     atom:   12    charge:    2.0871    magn:   -0.0000    constr:    0.0000
     atom:   13    charge:    3.1150    magn:   -0.0002    constr:    0.0000
     atom:   14    charge:    2.0938    magn:    0.0023    constr:    0.0000
     atom:   15    charge:    3.1185    magn:   -0.0008    constr:    0.0000
     atom:   16    charge:    2.0828    magn:    0.0046    constr:    0.0000
     atom:   17    charge:    2.0628    magn:    0.0017    constr:    0.0000
     atom:   18    charge:    3.1240    magn:   -0.0001    constr:    0.0000
     atom:   19    charge:    2.0876    magn:    0.0001    constr:    0.0000
     atom:   20    charge:    2.0847    magn:    0.0002    constr:    0.0000
     atom:   21    charge:    2.0847    magn:    0.0002    constr:    0.0000
     atom:   22    charge:    3.1199    magn:    0.0000    constr:    0.0000
     atom:   23    charge:    2.0908    magn:    0.0002    constr:    0.0000
     atom:   24    charge:    2.0754    magn:   -0.0002    constr:    0.0000
     atom:   25    charge:    2.0868    magn:    0.0000    constr:    0.0000
     atom:   26    charge:    3.1127    magn:   -0.0002    constr:    0.0000
     atom:   27    charge:    2.0801    magn:    0.0025    constr:    0.0000
     atom:   28    charge:    2.0838    magn:    0.0006    constr:    0.0000
     atom:   29    charge:    2.0859    magn:    0.0008    constr:    0.0000
     atom:   30    charge:    3.1172    magn:   -0.0008    constr:    0.0000
     atom:   31    charge:    2.0822    magn:    0.0006    constr:    0.0000
     atom:   32    charge:    2.0827    magn:    0.0065    constr:    0.0000
     atom:   33    charge:    2.0628    magn:    0.0017    constr:    0.0000
     atom:   34    charge:    3.1239    magn:   -0.0001    constr:    0.0000
     atom:   35    charge:    2.0876    magn:    0.0001    constr:    0.0000
     atom:   36    charge:    2.0847    magn:    0.0002    constr:    0.0000
     atom:   37    charge:    2.0847    magn:    0.0002    constr:    0.0000
     atom:   38    charge:    3.1200    magn:    0.0000    constr:    0.0000
     atom:   39    charge:    2.0839    magn:    0.0002    constr:    0.0000
     atom:   40    charge:    2.0756    magn:   -0.0003    constr:    0.0000
     atom:   41    charge:    2.0871    magn:   -0.0000    constr:    0.0000
     atom:   42    charge:    3.1152    magn:   -0.0002    constr:    0.0000
     atom:   43    charge:    2.0801    magn:    0.0030    constr:    0.0000
     atom:   44    charge:    2.0850    magn:    0.0008    constr:    0.0000
     atom:   45    charge:    2.0858    magn:    0.0004    constr:    0.0000
     atom:   46    charge:    3.1148    magn:   -0.0007    constr:    0.0000
     atom:   47    charge:    2.0800    magn:    0.0047    constr:    0.0000
     atom:   48    charge:    2.0833    magn:    0.0139    constr:    0.0000
     atom:   49    charge:    2.0521    magn:    0.2401    constr:    0.0000
     atom:   50    charge:    0.6714    magn:    0.0548    constr:    0.0000
     atom:   51    charge:    0.4177    magn:    0.0010    constr:    0.0000
     atom:   52    charge:    0.4183    magn:    0.0008    constr:    0.0000
     atom:   53    charge:    0.3699    magn:    0.0229    constr:    0.0000
     atom:   54    charge:    0.4292    magn:    0.0007    constr:    0.0000

     total cpu time spent up to now is     1331.4 secs

     total energy              =   -3021.15093776 Ry
     Harris-Foulkes estimate   =   -3021.15406880 Ry
     estimated scf accuracy    <       0.01425212 Ry

     total magnetization       =     1.06 Bohr mag/cell
     absolute magnetization    =     1.23 Bohr mag/cell

     iteration #  3     ecut=    40.42 Ry     beta=0.10
     Davidson diagonalization with overlap
     ethr =  3.58E-06,  avg # of iterations =  3.7

     negative rho (up, down):  1.189E-02 1.195E-02
 
     Magnetic moment per site:
     atom:    1    charge:    3.1244    magn:   -0.0003    constr:    0.0000
     atom:    2    charge:    2.0897    magn:    0.0003    constr:    0.0000
     atom:    3    charge:    3.1198    magn:   -0.0000    constr:    0.0000
     atom:    4    charge:    2.0868    magn:   -0.0001    constr:    0.0000
     atom:    5    charge:    3.1161    magn:   -0.0002    constr:    0.0000
     atom:    6    charge:    2.0795    magn:    0.0021    constr:    0.0000
     atom:    7    charge:    3.1167    magn:   -0.0055    constr:    0.0000
     atom:    8    charge:    2.0792    magn:    0.0253    constr:    0.0000
     atom:    9    charge:    3.1244    magn:   -0.0003    constr:    0.0000
     atom:   10    charge:    2.0898    magn:    0.0003    constr:    0.0000
     atom:   11    charge:    3.1198    magn:   -0.0000    constr:    0.0000
     atom:   12    charge:    2.0871    magn:   -0.0000    constr:    0.0000
     atom:   13    charge:    3.1150    magn:   -0.0002    constr:    0.0000
     atom:   14    charge:    2.0939    magn:    0.0023    constr:    0.0000
     atom:   15    charge:    3.1184    magn:   -0.0008    constr:    0.0000
     atom:   16    charge:    2.0829    magn:    0.0046    constr:    0.0000
     atom:   17    charge:    2.0622    magn:    0.0016    constr:    0.0000
     atom:   18    charge:    3.1239    magn:   -0.0001    constr:    0.0000
     atom:   19    charge:    2.0876    magn:    0.0001    constr:    0.0000
     atom:   20    charge:    2.0847    magn:    0.0001    constr:    0.0000
     atom:   21    charge:    2.0847    magn:    0.0001    constr:    0.0000
     atom:   22    charge:    3.1199    magn:    0.0000    constr:    0.0000
     atom:   23    charge:    2.0908    magn:    0.0002    constr:    0.0000
     atom:   24    charge:    2.0755    magn:   -0.0001    constr:    0.0000
     atom:   25    charge:    2.0868    magn:    0.0000    constr:    0.0000
     atom:   26    charge:    3.1127    magn:   -0.0002    constr:    0.0000
     atom:   27    charge:    2.0802    magn:    0.0025    constr:    0.0000
     atom:   28    charge:    2.0839    magn:    0.0006    constr:    0.0000
     atom:   29    charge:    2.0861    magn:    0.0008    constr:    0.0000
     atom:   30    charge:    3.1172    magn:   -0.0008    constr:    0.0000
     atom:   31    charge:    2.0820    magn:    0.0006    constr:    0.0000
     atom:   32    charge:    2.0827    magn:    0.0065    constr:    0.0000
     atom:   33    charge:    2.0622    magn:    0.0016    constr:    0.0000
     atom:   34    charge:    3.1239    magn:   -0.0001    constr:    0.0000
     atom:   35    charge:    2.0876    magn:    0.0001    constr:    0.0000
     atom:   36    charge:    2.0847    magn:    0.0001    constr:    0.0000
     atom:   37    charge:    2.0847    magn:    0.0001    constr:    0.0000
     atom:   38    charge:    3.1200    magn:    0.0000    constr:    0.0000
     atom:   39    charge:    2.0840    magn:    0.0002    constr:    0.0000
     atom:   40    charge:    2.0757    magn:   -0.0002    constr:    0.0000
     atom:   41    charge:    2.0871    magn:   -0.0000    constr:    0.0000
     atom:   42    charge:    3.1152    magn:   -0.0002    constr:    0.0000
     atom:   43    charge:    2.0803    magn:    0.0031    constr:    0.0000
     atom:   44    charge:    2.0851    magn:    0.0009    constr:    0.0000
     atom:   45    charge:    2.0859    magn:    0.0004    constr:    0.0000
     atom:   46    charge:    3.1148    magn:   -0.0007    constr:    0.0000
     atom:   47    charge:    2.0798    magn:    0.0048    constr:    0.0000
     atom:   48    charge:    2.0833    magn:    0.0141    constr:    0.0000
     atom:   49    charge:    2.0519    magn:    0.2406    constr:    0.0000
     atom:   50    charge:    0.6721    magn:    0.0542    constr:    0.0000
     atom:   51    charge:    0.4129    magn:    0.0010    constr:    0.0000
     atom:   52    charge:    0.4133    magn:    0.0008    constr:    0.0000
     atom:   53    charge:    0.3725    magn:    0.0227    constr:    0.0000
     atom:   54    charge:    0.4361    magn:    0.0007    constr:    0.0000

     total cpu time spent up to now is     1603.0 secs

     total energy              =   -3021.14718931 Ry
     Harris-Foulkes estimate   =   -3021.15195628 Ry
     estimated scf accuracy    <       0.02820206 Ry

     total magnetization       =     1.05 Bohr mag/cell
     absolute magnetization    =     1.22 Bohr mag/cell

     iteration #  4     ecut=    40.42 Ry     beta=0.10
     Davidson diagonalization with overlap
     ethr =  3.58E-06,  avg # of iterations =  4.0

     negative rho (up, down):  1.189E-02 1.195E-02
 
     Magnetic moment per site:
     atom:    1    charge:    3.1244    magn:   -0.0003    constr:    0.0000
     atom:    2    charge:    2.0897    magn:    0.0003    constr:    0.0000
     atom:    3    charge:    3.1198    magn:   -0.0000    constr:    0.0000
     atom:    4    charge:    2.0867    magn:   -0.0001    constr:    0.0000
     atom:    5    charge:    3.1161    magn:   -0.0002    constr:    0.0000
     atom:    6    charge:    2.0796    magn:    0.0021    constr:    0.0000
     atom:    7    charge:    3.1167    magn:   -0.0055    constr:    0.0000
     atom:    8    charge:    2.0793    magn:    0.0253    constr:    0.0000
     atom:    9    charge:    3.1244    magn:   -0.0003    constr:    0.0000
     atom:   10    charge:    2.0898    magn:    0.0003    constr:    0.0000
     atom:   11    charge:    3.1198    magn:   -0.0000    constr:    0.0000
     atom:   12    charge:    2.0870    magn:   -0.0000    constr:    0.0000
     atom:   13    charge:    3.1150    magn:   -0.0002    constr:    0.0000
     atom:   14    charge:    2.0939    magn:    0.0023    constr:    0.0000
     atom:   15    charge:    3.1184    magn:   -0.0008    constr:    0.0000
     atom:   16    charge:    2.0828    magn:    0.0046    constr:    0.0000
     atom:   17    charge:    2.0624    magn:    0.0015    constr:    0.0000
     atom:   18    charge:    3.1240    magn:   -0.0001    constr:    0.0000
     atom:   19    charge:    2.0875    magn:    0.0001    constr:    0.0000
     atom:   20    charge:    2.0847    magn:    0.0001    constr:    0.0000
     atom:   21    charge:    2.0847    magn:    0.0001    constr:    0.0000
     atom:   22    charge:    3.1199    magn:    0.0000    constr:    0.0000
     atom:   23    charge:    2.0908    magn:    0.0002    constr:    0.0000
     atom:   24    charge:    2.0754    magn:   -0.0001    constr:    0.0000
     atom:   25    charge:    2.0867    magn:    0.0000    constr:    0.0000
     atom:   26    charge:    3.1126    magn:   -0.0002    constr:    0.0000
     atom:   27    charge:    2.0803    magn:    0.0026    constr:    0.0000
     atom:   28    charge:    2.0839    magn:    0.0006    constr:    0.0000
     atom:   29    charge:    2.0860    magn:    0.0008    constr:    0.0000
     atom:   30    charge:    3.1171    magn:   -0.0008    constr:    0.0000
     atom:   31    charge:    2.0822    magn:    0.0006    constr:    0.0000
     atom:   32    charge:    2.0829    magn:    0.0065    constr:    0.0000
     atom:   33    charge:    2.0624    magn:    0.0015    constr:    0.0000
     atom:   34    charge:    3.1239    magn:   -0.0001    constr:    0.0000
     atom:   35    charge:    2.0875    magn:    0.0001    constr:    0.0000
     atom:   36    charge:    2.0847    magn:    0.0001    constr:    0.0000
     atom:   37    charge:    2.0847    magn:    0.0001    constr:    0.0000
     atom:   38    charge:    3.1200    magn:    0.0000    constr:    0.0000
     atom:   39    charge:    2.0839    magn:    0.0002    constr:    0.0000
     atom:   40    charge:    2.0756    magn:   -0.0002    constr:    0.0000
     atom:   41    charge:    2.0870    magn:   -0.0000    constr:    0.0000
     atom:   42    charge:    3.1151    magn:   -0.0002    constr:    0.0000
     atom:   43    charge:    2.0803    magn:    0.0031    constr:    0.0000
     atom:   44    charge:    2.0851    magn:    0.0009    constr:    0.0000
     atom:   45    charge:    2.0859    magn:    0.0004    constr:    0.0000
     atom:   46    charge:    3.1147    magn:   -0.0007    constr:    0.0000
     atom:   47    charge:    2.0803    magn:    0.0048    constr:    0.0000
     atom:   48    charge:    2.0836    magn:    0.0141    constr:    0.0000
     atom:   49    charge:    2.0516    magn:    0.2408    constr:    0.0000
     atom:   50    charge:    0.6721    magn:    0.0541    constr:    0.0000
     atom:   51    charge:    0.4120    magn:    0.0010    constr:    0.0000
     atom:   52    charge:    0.4123    magn:    0.0009    constr:    0.0000
     atom:   53    charge:    0.3729    magn:    0.0227    constr:    0.0000
     atom:   54    charge:    0.4376    magn:    0.0007    constr:    0.0000

     total cpu time spent up to now is     1887.2 secs

     total energy              =   -3021.14831696 Ry
     Harris-Foulkes estimate   =   -3021.14865058 Ry
     estimated scf accuracy    <       0.00161226 Ry

     total magnetization       =     1.06 Bohr mag/cell
     absolute magnetization    =     1.23 Bohr mag/cell

     iteration #  5     ecut=    40.42 Ry     beta=0.10
     Davidson diagonalization with overlap
     ethr =  4.05E-07,  avg # of iterations =  2.9

     negative rho (up, down):  1.189E-02 1.195E-02
 
     Magnetic moment per site:
     atom:    1    charge:    3.1244    magn:   -0.0002    constr:    0.0000
     atom:    2    charge:    2.0897    magn:    0.0002    constr:    0.0000
     atom:    3    charge:    3.1198    magn:   -0.0000    constr:    0.0000
     atom:    4    charge:    2.0867    magn:   -0.0001    constr:    0.0000
     atom:    5    charge:    3.1161    magn:   -0.0002    constr:    0.0000
     atom:    6    charge:    2.0795    magn:    0.0021    constr:    0.0000
     atom:    7    charge:    3.1168    magn:   -0.0055    constr:    0.0000
     atom:    8    charge:    2.0793    magn:    0.0253    constr:    0.0000
     atom:    9    charge:    3.1244    magn:   -0.0003    constr:    0.0000
     atom:   10    charge:    2.0898    magn:    0.0003    constr:    0.0000
     atom:   11    charge:    3.1198    magn:   -0.0000    constr:    0.0000
     atom:   12    charge:    2.0870    magn:   -0.0000    constr:    0.0000
     atom:   13    charge:    3.1150    magn:   -0.0002    constr:    0.0000
     atom:   14    charge:    2.0939    magn:    0.0023    constr:    0.0000
     atom:   15    charge:    3.1183    magn:   -0.0008    constr:    0.0000
     atom:   16    charge:    2.0827    magn:    0.0047    constr:    0.0000
     atom:   17    charge:    2.0625    magn:    0.0014    constr:    0.0000
     atom:   18    charge:    3.1239    magn:   -0.0001    constr:    0.0000
     atom:   19    charge:    2.0875    magn:    0.0001    constr:    0.0000
     atom:   20    charge:    2.0847    magn:    0.0001    constr:    0.0000
     atom:   21    charge:    2.0847    magn:    0.0001    constr:    0.0000
     atom:   22    charge:    3.1199    magn:    0.0000    constr:    0.0000
     atom:   23    charge:    2.0908    magn:    0.0002    constr:    0.0000
     atom:   24    charge:    2.0754    magn:   -0.0001    constr:    0.0000
     atom:   25    charge:    2.0867    magn:    0.0000    constr:    0.0000
     atom:   26    charge:    3.1126    magn:   -0.0002    constr:    0.0000
     atom:   27    charge:    2.0803    magn:    0.0026    constr:    0.0000
     atom:   28    charge:    2.0839    magn:    0.0007    constr:    0.0000
     atom:   29    charge:    2.0860    magn:    0.0008    constr:    0.0000
     atom:   30    charge:    3.1170    magn:   -0.0008    constr:    0.0000
     atom:   31    charge:    2.0825    magn:    0.0006    constr:    0.0000
     atom:   32    charge:    2.0830    magn:    0.0065    constr:    0.0000
     atom:   33    charge:    2.0625    magn:    0.0014    constr:    0.0000
     atom:   34    charge:    3.1239    magn:   -0.0001    constr:    0.0000
     atom:   35    charge:    2.0876    magn:    0.0001    constr:    0.0000
     atom:   36    charge:    2.0847    magn:    0.0001    constr:    0.0000
     atom:   37    charge:    2.0847    magn:    0.0001    constr:    0.0000
     atom:   38    charge:    3.1200    magn:    0.0000    constr:    0.0000
     atom:   39    charge:    2.0839    magn:    0.0002    constr:    0.0000
     atom:   40    charge:    2.0756    magn:   -0.0002    constr:    0.0000
     atom:   41    charge:    2.0870    magn:   -0.0000    constr:    0.0000
     atom:   42    charge:    3.1151    magn:   -0.0002    constr:    0.0000
     atom:   43    charge:    2.0803    magn:    0.0031    constr:    0.0000
     atom:   44    charge:    2.0851    magn:    0.0009    constr:    0.0000
     atom:   45    charge:    2.0858    magn:    0.0005    constr:    0.0000
     atom:   46    charge:    3.1147    magn:   -0.0007    constr:    0.0000
     atom:   47    charge:    2.0808    magn:    0.0048    constr:    0.0000
     atom:   48    charge:    2.0839    magn:    0.0141    constr:    0.0000
     atom:   49    charge:    2.0512    magn:    0.2411    constr:    0.0000
     atom:   50    charge:    0.6718    magn:    0.0540    constr:    0.0000
     atom:   51    charge:    0.4118    magn:    0.0010    constr:    0.0000
     atom:   52    charge:    0.4121    magn:    0.0009    constr:    0.0000
     atom:   53    charge:    0.3728    magn:    0.0229    constr:    0.0000
     atom:   54    charge:    0.4382    magn:    0.0007    constr:    0.0000

     total cpu time spent up to now is     2144.6 secs

     total energy              =   -3021.14830779 Ry
     Harris-Foulkes estimate   =   -3021.14840151 Ry
     estimated scf accuracy    <       0.00036725 Ry

     total magnetization       =     1.07 Bohr mag/cell
     absolute magnetization    =     1.23 Bohr mag/cell

     iteration #  6     ecut=    40.42 Ry     beta=0.10
     Davidson diagonalization with overlap
     ethr =  9.23E-08,  avg # of iterations =  3.0

     negative rho (up, down):  1.189E-02 1.195E-02
 
     Magnetic moment per site:
     atom:    1    charge:    3.1244    magn:   -0.0002    constr:    0.0000
     atom:    2    charge:    2.0897    magn:    0.0002    constr:    0.0000
     atom:    3    charge:    3.1198    magn:   -0.0000    constr:    0.0000
     atom:    4    charge:    2.0867    magn:   -0.0001    constr:    0.0000
     atom:    5    charge:    3.1161    magn:   -0.0002    constr:    0.0000
     atom:    6    charge:    2.0795    magn:    0.0021    constr:    0.0000
     atom:    7    charge:    3.1167    magn:   -0.0054    constr:    0.0000
     atom:    8    charge:    2.0793    magn:    0.0252    constr:    0.0000
     atom:    9    charge:    3.1244    magn:   -0.0002    constr:    0.0000
     atom:   10    charge:    2.0898    magn:    0.0002    constr:    0.0000
     atom:   11    charge:    3.1198    magn:   -0.0000    constr:    0.0000
     atom:   12    charge:    2.0871    magn:   -0.0000    constr:    0.0000
     atom:   13    charge:    3.1150    magn:   -0.0002    constr:    0.0000
     atom:   14    charge:    2.0939    magn:    0.0023    constr:    0.0000
     atom:   15    charge:    3.1183    magn:   -0.0008    constr:    0.0000
     atom:   16    charge:    2.0827    magn:    0.0047    constr:    0.0000
     atom:   17    charge:    2.0624    magn:    0.0013    constr:    0.0000
     atom:   18    charge:    3.1239    magn:   -0.0001    constr:    0.0000
     atom:   19    charge:    2.0875    magn:    0.0001    constr:    0.0000
     atom:   20    charge:    2.0847    magn:    0.0001    constr:    0.0000
     atom:   21    charge:    2.0847    magn:    0.0001    constr:    0.0000
     atom:   22    charge:    3.1199    magn:    0.0000    constr:    0.0000
     atom:   23    charge:    2.0908    magn:    0.0002    constr:    0.0000
     atom:   24    charge:    2.0754    magn:   -0.0001    constr:    0.0000
     atom:   25    charge:    2.0867    magn:    0.0000    constr:    0.0000
     atom:   26    charge:    3.1127    magn:   -0.0002    constr:    0.0000
     atom:   27    charge:    2.0802    magn:    0.0026    constr:    0.0000
     atom:   28    charge:    2.0839    magn:    0.0007    constr:    0.0000
     atom:   29    charge:    2.0860    magn:    0.0008    constr:    0.0000
     atom:   30    charge:    3.1171    magn:   -0.0008    constr:    0.0000
     atom:   31    charge:    2.0827    magn:    0.0006    constr:    0.0000
     atom:   32    charge:    2.0830    magn:    0.0066    constr:    0.0000
     atom:   33    charge:    2.0624    magn:    0.0013    constr:    0.0000
     atom:   34    charge:    3.1239    magn:   -0.0001    constr:    0.0000
     atom:   35    charge:    2.0876    magn:    0.0000    constr:    0.0000
     atom:   36    charge:    2.0847    magn:    0.0001    constr:    0.0000
     atom:   37    charge:    2.0847    magn:    0.0001    constr:    0.0000
     atom:   38    charge:    3.1200    magn:    0.0000    constr:    0.0000
     atom:   39    charge:    2.0839    magn:    0.0002    constr:    0.0000
     atom:   40    charge:    2.0756    magn:   -0.0002    constr:    0.0000
     atom:   41    charge:    2.0870    magn:   -0.0000    constr:    0.0000
     atom:   42    charge:    3.1151    magn:   -0.0002    constr:    0.0000
     atom:   43    charge:    2.0803    magn:    0.0031    constr:    0.0000
     atom:   44    charge:    2.0851    magn:    0.0009    constr:    0.0000
     atom:   45    charge:    2.0858    magn:    0.0005    constr:    0.0000
     atom:   46    charge:    3.1148    magn:   -0.0007    constr:    0.0000
     atom:   47    charge:    2.0809    magn:    0.0048    constr:    0.0000
     atom:   48    charge:    2.0838    magn:    0.0141    constr:    0.0000
     atom:   49    charge:    2.0514    magn:    0.2413    constr:    0.0000
     atom:   50    charge:    0.6716    magn:    0.0540    constr:    0.0000
     atom:   51    charge:    0.4119    magn:    0.0011    constr:    0.0000
     atom:   52    charge:    0.4122    magn:    0.0009    constr:    0.0000
     atom:   53    charge:    0.3727    magn:    0.0230    constr:    0.0000
     atom:   54    charge:    0.4384    magn:    0.0007    constr:    0.0000

     total cpu time spent up to now is     2406.6 secs

     total energy              =   -3021.14831221 Ry
     Harris-Foulkes estimate   =   -3021.14833306 Ry
     estimated scf accuracy    <       0.00009930 Ry

     total magnetization       =     1.06 Bohr mag/cell
     absolute magnetization    =     1.23 Bohr mag/cell

     iteration #  7     ecut=    40.42 Ry     beta=0.10
     Davidson diagonalization with overlap
     ethr =  2.50E-08,  avg # of iterations =  3.0

     negative rho (up, down):  1.189E-02 1.195E-02
 
     Magnetic moment per site:
     atom:    1    charge:    3.1244    magn:   -0.0002    constr:    0.0000
     atom:    2    charge:    2.0897    magn:    0.0002    constr:    0.0000
     atom:    3    charge:    3.1198    magn:   -0.0000    constr:    0.0000
     atom:    4    charge:    2.0867    magn:   -0.0001    constr:    0.0000
     atom:    5    charge:    3.1161    magn:   -0.0003    constr:    0.0000
     atom:    6    charge:    2.0795    magn:    0.0022    constr:    0.0000
     atom:    7    charge:    3.1167    magn:   -0.0054    constr:    0.0000
     atom:    8    charge:    2.0793    magn:    0.0252    constr:    0.0000
     atom:    9    charge:    3.1244    magn:   -0.0002    constr:    0.0000
     atom:   10    charge:    2.0898    magn:    0.0002    constr:    0.0000
     atom:   11    charge:    3.1198    magn:   -0.0000    constr:    0.0000
     atom:   12    charge:    2.0870    magn:   -0.0000    constr:    0.0000
     atom:   13    charge:    3.1150    magn:   -0.0002    constr:    0.0000
     atom:   14    charge:    2.0939    magn:    0.0023    constr:    0.0000
     atom:   15    charge:    3.1184    magn:   -0.0008    constr:    0.0000
     atom:   16    charge:    2.0828    magn:    0.0047    constr:    0.0000
     atom:   17    charge:    2.0625    magn:    0.0012    constr:    0.0000
     atom:   18    charge:    3.1240    magn:   -0.0000    constr:    0.0000
     atom:   19    charge:    2.0875    magn:    0.0000    constr:    0.0000
     atom:   20    charge:    2.0847    magn:    0.0001    constr:    0.0000
     atom:   21    charge:    2.0847    magn:    0.0001    constr:    0.0000
     atom:   22    charge:    3.1199    magn:    0.0000    constr:    0.0000
     atom:   23    charge:    2.0908    magn:    0.0003    constr:    0.0000
     atom:   24    charge:    2.0754    magn:   -0.0001    constr:    0.0000
     atom:   25    charge:    2.0867    magn:    0.0000    constr:    0.0000
     atom:   26    charge:    3.1127    magn:   -0.0002    constr:    0.0000
     atom:   27    charge:    2.0802    magn:    0.0026    constr:    0.0000
     atom:   28    charge:    2.0839    magn:    0.0007    constr:    0.0000
     atom:   29    charge:    2.0860    magn:    0.0009    constr:    0.0000
     atom:   30    charge:    3.1171    magn:   -0.0008    constr:    0.0000
     atom:   31    charge:    2.0827    magn:    0.0006    constr:    0.0000
     atom:   32    charge:    2.0829    magn:    0.0066    constr:    0.0000
     atom:   33    charge:    2.0624    magn:    0.0013    constr:    0.0000
     atom:   34    charge:    3.1239    magn:   -0.0000    constr:    0.0000
     atom:   35    charge:    2.0875    magn:    0.0000    constr:    0.0000
     atom:   36    charge:    2.0847    magn:    0.0001    constr:    0.0000
     atom:   37    charge:    2.0847    magn:    0.0001    constr:    0.0000
     atom:   38    charge:    3.1200    magn:    0.0000    constr:    0.0000
     atom:   39    charge:    2.0839    magn:    0.0002    constr:    0.0000
     atom:   40    charge:    2.0756    magn:   -0.0002    constr:    0.0000
     atom:   41    charge:    2.0870    magn:   -0.0000    constr:    0.0000
     atom:   42    charge:    3.1151    magn:   -0.0002    constr:    0.0000
     atom:   43    charge:    2.0802    magn:    0.0032    constr:    0.0000
     atom:   44    charge:    2.0851    magn:    0.0009    constr:    0.0000
     atom:   45    charge:    2.0858    magn:    0.0005    constr:    0.0000
     atom:   46    charge:    3.1148    magn:   -0.0007    constr:    0.0000
     atom:   47    charge:    2.0808    magn:    0.0048    constr:    0.0000
     atom:   48    charge:    2.0837    magn:    0.0140    constr:    0.0000
     atom:   49    charge:    2.0516    magn:    0.2414    constr:    0.0000
     atom:   50    charge:    0.6714    magn:    0.0539    constr:    0.0000
     atom:   51    charge:    0.4123    magn:    0.0011    constr:    0.0000
     atom:   52    charge:    0.4127    magn:    0.0009    constr:    0.0000
     atom:   53    charge:    0.3724    magn:    0.0232    constr:    0.0000
     atom:   54    charge:    0.4379    magn:    0.0007    constr:    0.0000

     total cpu time spent up to now is     2667.8 secs

     total energy              =   -3021.14831280 Ry
     Harris-Foulkes estimate   =   -3021.14831979 Ry
     estimated scf accuracy    <       0.00004148 Ry

     total magnetization       =     1.06 Bohr mag/cell
     absolute magnetization    =     1.23 Bohr mag/cell

     iteration #  8     ecut=    40.42 Ry     beta=0.10
     Davidson diagonalization with overlap
     ethr =  1.04E-08,  avg # of iterations =  3.0

     negative rho (up, down):  1.189E-02 1.196E-02
 
     Magnetic moment per site:
     atom:    1    charge:    3.1244    magn:   -0.0002    constr:    0.0000
     atom:    2    charge:    2.0897    magn:    0.0002    constr:    0.0000
     atom:    3    charge:    3.1198    magn:   -0.0000    constr:    0.0000
     atom:    4    charge:    2.0867    magn:   -0.0001    constr:    0.0000
     atom:    5    charge:    3.1161    magn:   -0.0003    constr:    0.0000
     atom:    6    charge:    2.0795    magn:    0.0022    constr:    0.0000
     atom:    7    charge:    3.1167    magn:   -0.0054    constr:    0.0000
     atom:    8    charge:    2.0793    magn:    0.0252    constr:    0.0000
     atom:    9    charge:    3.1244    magn:   -0.0002    constr:    0.0000
     atom:   10    charge:    2.0898    magn:    0.0002    constr:    0.0000
     atom:   11    charge:    3.1198    magn:   -0.0000    constr:    0.0000
     atom:   12    charge:    2.0870    magn:   -0.0000    constr:    0.0000
     atom:   13    charge:    3.1150    magn:   -0.0002    constr:    0.0000
     atom:   14    charge:    2.0939    magn:    0.0023    constr:    0.0000
     atom:   15    charge:    3.1184    magn:   -0.0008    constr:    0.0000
     atom:   16    charge:    2.0829    magn:    0.0047    constr:    0.0000
     atom:   17    charge:    2.0624    magn:    0.0011    constr:    0.0000
     atom:   18    charge:    3.1239    magn:   -0.0000    constr:    0.0000
     atom:   19    charge:    2.0875    magn:    0.0000    constr:    0.0000
     atom:   20    charge:    2.0847    magn:    0.0001    constr:    0.0000
     atom:   21    charge:    2.0847    magn:    0.0001    constr:    0.0000
     atom:   22    charge:    3.1199    magn:    0.0000    constr:    0.0000
     atom:   23    charge:    2.0908    magn:    0.0003    constr:    0.0000
     atom:   24    charge:    2.0754    magn:   -0.0001    constr:    0.0000
     atom:   25    charge:    2.0867    magn:    0.0000    constr:    0.0000
     atom:   26    charge:    3.1127    magn:   -0.0003    constr:    0.0000
     atom:   27    charge:    2.0802    magn:    0.0027    constr:    0.0000
     atom:   28    charge:    2.0839    magn:    0.0007    constr:    0.0000
     atom:   29    charge:    2.0860    magn:    0.0009    constr:    0.0000
     atom:   30    charge:    3.1171    magn:   -0.0008    constr:    0.0000
     atom:   31    charge:    2.0825    magn:    0.0006    constr:    0.0000
     atom:   32    charge:    2.0829    magn:    0.0066    constr:    0.0000
     atom:   33    charge:    2.0624    magn:    0.0011    constr:    0.0000
     atom:   34    charge:    3.1239    magn:   -0.0000    constr:    0.0000
     atom:   35    charge:    2.0876    magn:    0.0000    constr:    0.0000
     atom:   36    charge:    2.0847    magn:    0.0001    constr:    0.0000
     atom:   37    charge:    2.0847    magn:    0.0001    constr:    0.0000
     atom:   38    charge:    3.1200    magn:    0.0000    constr:    0.0000
     atom:   39    charge:    2.0839    magn:    0.0002    constr:    0.0000
     atom:   40    charge:    2.0756    magn:   -0.0001    constr:    0.0000
     atom:   41    charge:    2.0870    magn:   -0.0000    constr:    0.0000
     atom:   42    charge:    3.1151    magn:   -0.0002    constr:    0.0000
     atom:   43    charge:    2.0803    magn:    0.0032    constr:    0.0000
     atom:   44    charge:    2.0851    magn:    0.0010    constr:    0.0000
     atom:   45    charge:    2.0858    magn:    0.0005    constr:    0.0000
     atom:   46    charge:    3.1148    magn:   -0.0007    constr:    0.0000
     atom:   47    charge:    2.0806    magn:    0.0048    constr:    0.0000
     atom:   48    charge:    2.0836    magn:    0.0141    constr:    0.0000
     atom:   49    charge:    2.0517    magn:    0.2417    constr:    0.0000
     atom:   50    charge:    0.6716    magn:    0.0538    constr:    0.0000
     atom:   51    charge:    0.4125    magn:    0.0011    constr:    0.0000
     atom:   52    charge:    0.4129    magn:    0.0009    constr:    0.0000
     atom:   53    charge:    0.3723    magn:    0.0232    constr:    0.0000
     atom:   54    charge:    0.4377    magn:    0.0007    constr:    0.0000

     total cpu time spent up to now is     2926.7 secs

     total energy              =   -3021.14831478 Ry
     Harris-Foulkes estimate   =   -3021.14831575 Ry
     estimated scf accuracy    <       0.00001341 Ry

     total magnetization       =     1.06 Bohr mag/cell
     absolute magnetization    =     1.23 Bohr mag/cell

     iteration #  9     ecut=    40.42 Ry     beta=0.10
     Davidson diagonalization with overlap
     ethr =  3.37E-09,  avg # of iterations =  3.0

     negative rho (up, down):  1.189E-02 1.196E-02
 
     Magnetic moment per site:
     atom:    1    charge:    3.1244    magn:   -0.0002    constr:    0.0000
     atom:    2    charge:    2.0897    magn:    0.0002    constr:    0.0000
     atom:    3    charge:    3.1198    magn:   -0.0000    constr:    0.0000
     atom:    4    charge:    2.0867    magn:   -0.0001    constr:    0.0000
     atom:    5    charge:    3.1161    magn:   -0.0003    constr:    0.0000
     atom:    6    charge:    2.0795    magn:    0.0022    constr:    0.0000
     atom:    7    charge:    3.1167    magn:   -0.0055    constr:    0.0000
     atom:    8    charge:    2.0793    magn:    0.0252    constr:    0.0000
     atom:    9    charge:    3.1244    magn:   -0.0002    constr:    0.0000
     atom:   10    charge:    2.0898    magn:    0.0002    constr:    0.0000
     atom:   11    charge:    3.1198    magn:   -0.0000    constr:    0.0000
     atom:   12    charge:    2.0870    magn:   -0.0000    constr:    0.0000
     atom:   13    charge:    3.1150    magn:   -0.0002    constr:    0.0000
     atom:   14    charge:    2.0939    magn:    0.0023    constr:    0.0000
     atom:   15    charge:    3.1184    magn:   -0.0008    constr:    0.0000
     atom:   16    charge:    2.0829    magn:    0.0048    constr:    0.0000
     atom:   17    charge:    2.0624    magn:    0.0010    constr:    0.0000
     atom:   18    charge:    3.1239    magn:   -0.0000    constr:    0.0000
     atom:   19    charge:    2.0875    magn:    0.0000    constr:    0.0000
     atom:   20    charge:    2.0847    magn:    0.0001    constr:    0.0000
     atom:   21    charge:    2.0847    magn:    0.0001    constr:    0.0000
     atom:   22    charge:    3.1199    magn:    0.0000    constr:    0.0000
     atom:   23    charge:    2.0908    magn:    0.0003    constr:    0.0000
     atom:   24    charge:    2.0754    magn:   -0.0000    constr:    0.0000
     atom:   25    charge:    2.0867    magn:    0.0000    constr:    0.0000
     atom:   26    charge:    3.1127    magn:   -0.0003    constr:    0.0000
     atom:   27    charge:    2.0802    magn:    0.0027    constr:    0.0000
     atom:   28    charge:    2.0839    magn:    0.0008    constr:    0.0000
     atom:   29    charge:    2.0860    magn:    0.0009    constr:    0.0000
     atom:   30    charge:    3.1171    magn:   -0.0008    constr:    0.0000
     atom:   31    charge:    2.0825    magn:    0.0006    constr:    0.0000
     atom:   32    charge:    2.0829    magn:    0.0067    constr:    0.0000
     atom:   33    charge:    2.0624    magn:    0.0010    constr:    0.0000
     atom:   34    charge:    3.1239    magn:   -0.0000    constr:    0.0000
     atom:   35    charge:    2.0876    magn:    0.0000    constr:    0.0000
     atom:   36    charge:    2.0847    magn:    0.0001    constr:    0.0000
     atom:   37    charge:    2.0847    magn:    0.0001    constr:    0.0000
     atom:   38    charge:    3.1200    magn:    0.0000    constr:    0.0000
     atom:   39    charge:    2.0839    magn:    0.0002    constr:    0.0000
     atom:   40    charge:    2.0756    magn:   -0.0001    constr:    0.0000
     atom:   41    charge:    2.0870    magn:   -0.0000    constr:    0.0000
     atom:   42    charge:    3.1151    magn:   -0.0002    constr:    0.0000
     atom:   43    charge:    2.0803    magn:    0.0032    constr:    0.0000
     atom:   44    charge:    2.0851    magn:    0.0010    constr:    0.0000
     atom:   45    charge:    2.0858    magn:    0.0005    constr:    0.0000
     atom:   46    charge:    3.1147    magn:   -0.0007    constr:    0.0000
     atom:   47    charge:    2.0806    magn:    0.0048    constr:    0.0000
     atom:   48    charge:    2.0837    magn:    0.0141    constr:    0.0000
     atom:   49    charge:    2.0518    magn:    0.2418    constr:    0.0000
     atom:   50    charge:    0.6716    magn:    0.0538    constr:    0.0000
     atom:   51    charge:    0.4128    magn:    0.0011    constr:    0.0000
     atom:   52    charge:    0.4132    magn:    0.0009    constr:    0.0000
     atom:   53    charge:    0.3722    magn:    0.0233    constr:    0.0000
     atom:   54    charge:    0.4374    magn:    0.0006    constr:    0.0000

     total cpu time spent up to now is     3186.2 secs

     total energy              =   -3021.14831538 Ry
     Harris-Foulkes estimate   =   -3021.14831590 Ry
     estimated scf accuracy    <       0.00000609 Ry

     total magnetization       =     1.06 Bohr mag/cell
     absolute magnetization    =     1.23 Bohr mag/cell

     iteration # 10     ecut=    40.42 Ry     beta=0.10
     Davidson diagonalization with overlap
     ethr =  1.53E-09,  avg # of iterations =  3.0

     negative rho (up, down):  1.189E-02 1.196E-02
 
     Magnetic moment per site:
     atom:    1    charge:    3.1244    magn:   -0.0002    constr:    0.0000
     atom:    2    charge:    2.0897    magn:    0.0001    constr:    0.0000
     atom:    3    charge:    3.1198    magn:   -0.0000    constr:    0.0000
     atom:    4    charge:    2.0867    magn:   -0.0001    constr:    0.0000
     atom:    5    charge:    3.1161    magn:   -0.0003    constr:    0.0000
     atom:    6    charge:    2.0795    magn:    0.0022    constr:    0.0000
     atom:    7    charge:    3.1167    magn:   -0.0055    constr:    0.0000
     atom:    8    charge:    2.0793    magn:    0.0252    constr:    0.0000
     atom:    9    charge:    3.1244    magn:   -0.0002    constr:    0.0000
     atom:   10    charge:    2.0898    magn:    0.0002    constr:    0.0000
     atom:   11    charge:    3.1198    magn:   -0.0000    constr:    0.0000
     atom:   12    charge:    2.0870    magn:   -0.0000    constr:    0.0000
     atom:   13    charge:    3.1150    magn:   -0.0002    constr:    0.0000
     atom:   14    charge:    2.0939    magn:    0.0023    constr:    0.0000
     atom:   15    charge:    3.1184    magn:   -0.0008    constr:    0.0000
     atom:   16    charge:    2.0828    magn:    0.0048    constr:    0.0000
     atom:   17    charge:    2.0624    magn:    0.0010    constr:    0.0000
     atom:   18    charge:    3.1239    magn:   -0.0000    constr:    0.0000
     atom:   19    charge:    2.0875    magn:    0.0000    constr:    0.0000
     atom:   20    charge:    2.0847    magn:    0.0001    constr:    0.0000
     atom:   21    charge:    2.0847    magn:    0.0001    constr:    0.0000
     atom:   22    charge:    3.1199    magn:    0.0000    constr:    0.0000
     atom:   23    charge:    2.0908    magn:    0.0003    constr:    0.0000
     atom:   24    charge:    2.0754    magn:   -0.0000    constr:    0.0000
     atom:   25    charge:    2.0867    magn:    0.0000    constr:    0.0000
     atom:   26    charge:    3.1127    magn:   -0.0003    constr:    0.0000
     atom:   27    charge:    2.0803    magn:    0.0027    constr:    0.0000
     atom:   28    charge:    2.0839    magn:    0.0008    constr:    0.0000
     atom:   29    charge:    2.0860    magn:    0.0009    constr:    0.0000
     atom:   30    charge:    3.1171    magn:   -0.0008    constr:    0.0000
     atom:   31    charge:    2.0825    magn:    0.0006    constr:    0.0000
     atom:   32    charge:    2.0829    magn:    0.0067    constr:    0.0000
     atom:   33    charge:    2.0624    magn:    0.0010    constr:    0.0000
     atom:   34    charge:    3.1239    magn:   -0.0000    constr:    0.0000
     atom:   35    charge:    2.0876    magn:    0.0000    constr:    0.0000
     atom:   36    charge:    2.0847    magn:    0.0001    constr:    0.0000
     atom:   37    charge:    2.0847    magn:    0.0001    constr:    0.0000
     atom:   38    charge:    3.1200    magn:    0.0000    constr:    0.0000
     atom:   39    charge:    2.0839    magn:    0.0002    constr:    0.0000
     atom:   40    charge:    2.0756    magn:   -0.0001    constr:    0.0000
     atom:   41    charge:    2.0870    magn:   -0.0000    constr:    0.0000
     atom:   42    charge:    3.1151    magn:   -0.0003    constr:    0.0000
     atom:   43    charge:    2.0803    magn:    0.0033    constr:    0.0000
     atom:   44    charge:    2.0851    magn:    0.0010    constr:    0.0000
     atom:   45    charge:    2.0858    magn:    0.0005    constr:    0.0000
     atom:   46    charge:    3.1147    magn:   -0.0007    constr:    0.0000
     atom:   47    charge:    2.0806    magn:    0.0048    constr:    0.0000
     atom:   48    charge:    2.0837    magn:    0.0141    constr:    0.0000
     atom:   49    charge:    2.0518    magn:    0.2419    constr:    0.0000
     atom:   50    charge:    0.6716    magn:    0.0537    constr:    0.0000
     atom:   51    charge:    0.4129    magn:    0.0011    constr:    0.0000
     atom:   52    charge:    0.4133    magn:    0.0009    constr:    0.0000
     atom:   53    charge:    0.3722    magn:    0.0233    constr:    0.0000
     atom:   54    charge:    0.4373    magn:    0.0006    constr:    0.0000

     total cpu time spent up to now is     3444.3 secs

     total energy              =   -3021.14831586 Ry
     Harris-Foulkes estimate   =   -3021.14831574 Ry
     estimated scf accuracy    <       0.00000077 Ry

     total magnetization       =     1.06 Bohr mag/cell
     absolute magnetization    =     1.23 Bohr mag/cell

     iteration # 11     ecut=    40.42 Ry     beta=0.10
     Davidson diagonalization with overlap
     ethr =  1.93E-10,  avg # of iterations =  3.0

     negative rho (up, down):  1.189E-02 1.196E-02
 
     Magnetic moment per site:
     atom:    1    charge:    3.1244    magn:   -0.0001    constr:    0.0000
     atom:    2    charge:    2.0897    magn:    0.0001    constr:    0.0000
     atom:    3    charge:    3.1198    magn:   -0.0000    constr:    0.0000
     atom:    4    charge:    2.0867    magn:   -0.0001    constr:    0.0000
     atom:    5    charge:    3.1161    magn:   -0.0003    constr:    0.0000
     atom:    6    charge:    2.0795    magn:    0.0022    constr:    0.0000
     atom:    7    charge:    3.1167    magn:   -0.0055    constr:    0.0000
     atom:    8    charge:    2.0793    magn:    0.0252    constr:    0.0000
     atom:    9    charge:    3.1244    magn:   -0.0001    constr:    0.0000
     atom:   10    charge:    2.0898    magn:    0.0001    constr:    0.0000
     atom:   11    charge:    3.1198    magn:   -0.0000    constr:    0.0000
     atom:   12    charge:    2.0871    magn:   -0.0000    constr:    0.0000
     atom:   13    charge:    3.1150    magn:   -0.0002    constr:    0.0000
     atom:   14    charge:    2.0939    magn:    0.0023    constr:    0.0000
     atom:   15    charge:    3.1184    magn:   -0.0008    constr:    0.0000
     atom:   16    charge:    2.0828    magn:    0.0048    constr:    0.0000
     atom:   17    charge:    2.0624    magn:    0.0007    constr:    0.0000
     atom:   18    charge:    3.1239    magn:   -0.0000    constr:    0.0000
     atom:   19    charge:    2.0875    magn:    0.0000    constr:    0.0000
     atom:   20    charge:    2.0847    magn:    0.0000    constr:    0.0000
     atom:   21    charge:    2.0847    magn:    0.0000    constr:    0.0000
     atom:   22    charge:    3.1199    magn:    0.0000    constr:    0.0000
     atom:   23    charge:    2.0908    magn:    0.0003    constr:    0.0000
     atom:   24    charge:    2.0754    magn:   -0.0000    constr:    0.0000
     atom:   25    charge:    2.0867    magn:    0.0000    constr:    0.0000
     atom:   26    charge:    3.1127    magn:   -0.0003    constr:    0.0000
     atom:   27    charge:    2.0802    magn:    0.0028    constr:    0.0000
     atom:   28    charge:    2.0839    magn:    0.0008    constr:    0.0000
     atom:   29    charge:    2.0860    magn:    0.0009    constr:    0.0000
     atom:   30    charge:    3.1171    magn:   -0.0008    constr:    0.0000
     atom:   31    charge:    2.0825    magn:    0.0006    constr:    0.0000
     atom:   32    charge:    2.0829    magn:    0.0067    constr:    0.0000
     atom:   33    charge:    2.0624    magn:    0.0007    constr:    0.0000
     atom:   34    charge:    3.1239    magn:   -0.0000    constr:    0.0000
     atom:   35    charge:    2.0876    magn:    0.0000    constr:    0.0000
     atom:   36    charge:    2.0847    magn:    0.0000    constr:    0.0000
     atom:   37    charge:    2.0847    magn:    0.0000    constr:    0.0000
     atom:   38    charge:    3.1200    magn:    0.0000    constr:    0.0000
     atom:   39    charge:    2.0839    magn:    0.0002    constr:    0.0000
     atom:   40    charge:    2.0756    magn:   -0.0001    constr:    0.0000
     atom:   41    charge:    2.0870    magn:   -0.0000    constr:    0.0000
     atom:   42    charge:    3.1151    magn:   -0.0003    constr:    0.0000
     atom:   43    charge:    2.0803    magn:    0.0033    constr:    0.0000
     atom:   44    charge:    2.0851    magn:    0.0010    constr:    0.0000
     atom:   45    charge:    2.0858    magn:    0.0006    constr:    0.0000
     atom:   46    charge:    3.1148    magn:   -0.0007    constr:    0.0000
     atom:   47    charge:    2.0806    magn:    0.0048    constr:    0.0000
     atom:   48    charge:    2.0837    magn:    0.0141    constr:    0.0000
     atom:   49    charge:    2.0518    magn:    0.2421    constr:    0.0000
     atom:   50    charge:    0.6716    magn:    0.0536    constr:    0.0000
     atom:   51    charge:    0.4129    magn:    0.0011    constr:    0.0000
     atom:   52    charge:    0.4133    magn:    0.0010    constr:    0.0000
     atom:   53    charge:    0.3722    magn:    0.0233    constr:    0.0000
     atom:   54    charge:    0.4373    magn:    0.0006    constr:    0.0000

     total cpu time spent up to now is     3698.9 secs

     End of self-consistent calculation

 ------ SPIN UP ------------


          k = 0.0000 0.0000 0.0000 ( 34665 PWs)   bands (ev):

   -58.3135 -58.2785 -57.3957 -57.3900 -57.3569 -57.3193 -57.2681 -57.0997
   -57.0725 -57.0669 -57.0285 -56.9297 -56.9052 -56.8945 -56.8084 -56.7700
   -34.7587 -34.5821 -34.5533 -34.5201 -34.4251 -34.3683 -33.8907 -33.8784
   -33.7604 -33.6873 -33.6452 -33.6024 -33.5701 -33.5632 -33.5573 -33.5507
   -33.5393 -33.5243 -33.4989 -33.4976 -33.4831 -33.4819 -33.4786 -33.4601
   -33.3491 -33.3434 -33.3397 -33.3373 -33.3246 -33.2962 -33.2905 -33.2705
   -33.2503 -33.2449 -33.2445 -33.2353 -33.2069 -33.1846 -33.1496 -33.1483
   -33.1110 -33.0863 -33.0584 -33.0365 -33.0229 -32.9972 -32.9567 -32.8896
   -18.4788 -18.0462 -17.8221 -17.7212 -17.5613 -17.5392 -17.4961 -17.3936
   -17.3672 -17.2667 -17.0552 -17.0342 -17.0267 -17.0003 -16.9387 -16.8642
   -16.8455 -16.8077 -16.7498 -16.7187 -16.6993 -16.6672 -16.6024 -16.5983
   -16.4755 -16.4280 -16.4086 -16.3722 -16.3355 -16.1550 -16.0939 -15.6090
   -15.5481 -11.1652  -6.0573  -5.5064  -5.2923  -5.2125  -5.1039  -5.0035
    -4.9917  -4.9486  -4.8880  -4.7429  -4.6595  -4.6090  -4.5951  -4.5201
    -4.4392  -4.4233  -4.3621  -4.3259  -4.2406  -4.2289  -4.2034  -4.1518
    -4.0406  -4.0333  -3.9877  -3.9183  -3.9016  -3.8957  -3.8929  -3.8355
    -3.7862  -3.7682  -3.7604  -3.6439  -3.5951  -3.5599  -3.5452  -3.5372
    -3.4653  -3.4260  -3.4138  -3.3636  -3.2823  -3.2410  -3.1965  -3.0960
    -2.9298  -2.9063  -2.8610  -2.8120  -2.7553  -2.7031  -2.6815  -2.6704
    -2.6432  -2.5459  -2.4954  -2.4482  -2.3871  -2.3429  -2.2574  -2.2385
    -2.2346  -2.1695  -2.0780  -2.0504  -2.0083  -1.9688  -1.9389  -1.9080
    -1.8630  -1.7470  -1.7049  -1.6788  -1.6501  -1.6398  -1.5966  -1.5146
    -1.4302  -1.3767  -1.3621  -1.3478  -1.3226  -1.2767  -1.2349  -1.1794
    -1.1691  -1.1195  -1.1181  -1.1058  -1.0732  -0.9897  -0.8825  -0.8444
    -0.8177  -0.7023  -0.6963  -0.6332  -0.5612  -0.5203  -0.4926  -0.1960
     1.0173   1.1141   1.4090   1.6871   1.7955   1.9135   1.9607   2.0075
     2.0377   2.1247   2.2013   2.2221   2.2681   2.3871   2.4624   2.4762
     2.4832   2.5103   2.6134   2.6587   2.6634   2.6801   2.7021   2.8190
     2.8337   2.8783   2.8926   2.9458   2.9602   3.0131   3.0213   3.0433
     3.0969   3.1525   3.1908   3.1918   3.2395   3.2472   3.4032   3.4386
     3.4700   3.5123   3.5894   3.6180   3.6617   3.7061   3.8206   3.9481
     4.0960   4.1282   4.3183   4.4652   4.5864   4.6986   4.7764   4.8281
     5.0779   5.1247   5.2048   5.3457   5.3902   5.3953   5.4226   5.4249
     5.4492   5.5143   5.5467   5.6542   5.7104   5.7299   5.8980   5.9208
     5.9487   6.0675   6.0858   6.1281   6.2122   6.2870   6.4144   6.4817
     6.5347   6.5681   6.7758   6.8071   7.2193   7.9226   8.1553   8.1700
     8.3764   8.3889   8.6283   8.7134   8.7470   8.9588   9.1528   9.2586
     9.3084   9.4439   9.6175

          k = 0.0000 0.0280 0.0000 ( 34717 PWs)   bands (ev):

   -58.3112 -58.2809 -57.3940 -57.3883 -57.3593 -57.3204 -57.2677 -57.0995
   -57.0726 -57.0652 -57.0305 -56.9274 -56.9055 -56.8969 -56.8059 -56.7725
   -34.7333 -34.5801 -34.5553 -34.5139 -34.4317 -34.3953 -33.8653 -33.8529
   -33.7396 -33.6810 -33.6391 -33.5999 -33.5770 -33.5596 -33.5516 -33.5435
   -33.5385 -33.5261 -33.5229 -33.5058 -33.4982 -33.4815 -33.4735 -33.4539
   -33.3437 -33.3377 -33.3242 -33.3224 -33.3172 -33.3128 -33.2880 -33.2688
   -33.2550 -33.2467 -33.2451 -33.2346 -33.2109 -33.2088 -33.1559 -33.1423
   -33.1228 -33.0829 -33.0646 -33.0364 -33.0227 -33.0020 -32.9841 -32.9183
   -18.4204 -17.9866 -17.7722 -17.6909 -17.6155 -17.5166 -17.4473 -17.3816
   -17.3360 -17.2974 -17.1062 -17.0149 -17.0051 -16.9894 -16.9393 -16.8864
   -16.8058 -16.7833 -16.7709 -16.7458 -16.7177 -16.6926 -16.6276 -16.5759
   -16.4896 -16.4533 -16.4155 -16.3955 -16.3677 -16.1738 -16.1355 -15.6230
   -15.5736 -11.1662  -5.9719  -5.4222  -5.2130  -5.1419  -5.0343  -4.9735
    -4.9364  -4.9196  -4.8171  -4.7387  -4.6779  -4.6633  -4.5361  -4.5255
    -4.4266  -4.3864  -4.3725  -4.3327  -4.2677  -4.2205  -4.2077  -4.1868
    -4.1094  -4.0767  -4.0263  -4.0086  -3.9879  -3.9804  -3.9314  -3.8626
    -3.8249  -3.7993  -3.7633  -3.7242  -3.7041  -3.5805  -3.5148  -3.4403
    -3.4030  -3.3296  -3.3098  -3.3004  -3.2769  -3.1313  -3.1130  -2.9539
    -2.9126  -2.8916  -2.8112  -2.7578  -2.7537  -2.7301  -2.6965  -2.6609
    -2.6084  -2.5269  -2.4670  -2.4519  -2.4243  -2.2890  -2.2646  -2.2330
    -2.2220  -2.1624  -2.1542  -2.0376  -1.9925  -1.9676  -1.9350  -1.9221
    -1.8836  -1.7767  -1.7679  -1.7290  -1.6919  -1.6200  -1.5917  -1.5815
    -1.5111  -1.4689  -1.4020  -1.3869  -1.3839  -1.3664  -1.2943  -1.2816
    -1.2450  -1.1845  -1.1612  -1.0788  -1.0025  -0.9627  -0.9392  -0.9062
    -0.8857  -0.8493  -0.7388  -0.6087  -0.5819  -0.5682  -0.5487  -0.2371
     1.1500   1.1551   1.4102   1.8236   1.8678   1.8854   1.9180   1.9944
     2.0526   2.0706   2.2916   2.2999   2.3325   2.4497   2.4858   2.5063
     2.5143   2.5360   2.5408   2.5894   2.7066   2.7243   2.7944   2.8055
     2.8276   2.8917   2.9283   2.9565   2.9732   2.9861   3.0071   3.0579
     3.0783   3.1146   3.1677   3.2267   3.2391   3.3195   3.4280   3.4686
     3.5042   3.5353   3.5577   3.5806   3.6356   3.6589   3.7789   3.9002
     4.0502   4.1954   4.2746   4.5184   4.6971   4.6998   4.8065   4.9031
     5.1045   5.1653   5.2492   5.2948   5.3643   5.4041   5.4268   5.4724
     5.4987   5.5381   5.5464   5.6534   5.6976   5.7060   5.8157   5.8763
     5.9403   5.9835   6.0372   6.0439   6.1719   6.2448   6.3806   6.4261
     6.4435   6.5520   6.7247   6.8105   7.3262   7.4472   7.9995   8.0865
     8.3430   8.4938   8.5415   8.7020   8.7858   8.9899   9.0997   9.3082
     9.3780   9.4381   9.5166

          k = 0.0000 0.0560 0.0000 ( 34721 PWs)   bands (ev):

   -58.3048 -58.2873 -57.3906 -57.3832 -57.3657 -57.3226 -57.2669 -57.0990
   -57.0731 -57.0606 -57.0354 -56.9210 -56.9059 -56.9033 -56.7992 -56.7792
   -34.6634 -34.5749 -34.5604 -34.4967 -34.4684 -34.4492 -33.7955 -33.7835
   -33.6890 -33.6640 -33.6224 -33.6002 -33.5994 -33.5936 -33.5789 -33.5755
   -33.5475 -33.5386 -33.5212 -33.5029 -33.4794 -33.4747 -33.4715 -33.4198
   -33.3782 -33.3334 -33.3311 -33.3165 -33.2895 -33.2796 -33.2642 -33.2641
   -33.2629 -33.2545 -33.2514 -33.2333 -33.2253 -33.2181 -33.1737 -33.1420
   -33.1261 -33.0812 -33.0800 -33.0580 -33.0359 -33.0226 -33.0141 -32.9888
   -18.2593 -17.8219 -17.7992 -17.6423 -17.6082 -17.4186 -17.3995 -17.3810
   -17.3171 -17.2738 -17.2392 -17.0538 -17.0022 -16.9299 -16.9254 -16.9089
   -16.8525 -16.8249 -16.7363 -16.7130 -16.7074 -16.6817 -16.6324 -16.5689
   -16.5225 -16.5169 -16.4619 -16.4496 -16.4225 -16.2390 -16.2161 -15.6515
   -15.6273 -11.1680  -5.7325  -5.1894  -5.0533  -4.9973  -4.9652  -4.9421
    -4.8561  -4.8407  -4.8228  -4.7808  -4.7410  -4.5616  -4.5163  -4.4733
    -4.4016  -4.4007  -4.3589  -4.3279  -4.3133  -4.2954  -4.2579  -4.2211
    -4.2167  -4.1989  -4.1381  -4.0662  -4.0231  -3.9804  -3.9728  -3.9157
    -3.8836  -3.8224  -3.7871  -3.6846  -3.5920  -3.5153  -3.4177  -3.4067
    -3.3684  -3.2902  -3.2516  -3.1394  -3.0955  -3.0771  -3.0450  -3.0187
    -2.9762  -2.9649  -2.8327  -2.8044  -2.7459  -2.7020  -2.6567  -2.5639
    -2.4908  -2.4818  -2.4491  -2.3627  -2.3098  -2.3042  -2.2293  -2.1962
    -2.1614  -2.1474  -2.1263  -2.0939  -2.0615  -2.0179  -2.0034  -1.9769
    -1.9415  -1.9000  -1.8897  -1.8685  -1.8207  -1.7611  -1.6658  -1.6141
    -1.6022  -1.5857  -1.5204  -1.4819  -1.4583  -1.4535  -1.4394  -1.3845
    -1.3010  -1.2800  -1.2228  -1.2074  -1.0981  -1.0144  -0.9867  -0.9521
    -0.8674  -0.8441  -0.7454  -0.7233  -0.6281  -0.5901  -0.5719  -0.3405
     1.2789   1.4206   1.4933   1.7145   1.7912   1.8842   1.9549   2.0524
     2.1329   2.2687   2.2740   2.3255   2.4095   2.4785   2.4979   2.5242
     2.5652   2.6043   2.6548   2.7018   2.7453   2.7624   2.7938   2.8422
     2.8576   2.8765   2.8861   2.9561   3.0025   3.0206   3.0295   3.0564
     3.1174   3.1507   3.1741   3.2521   3.3007   3.3321   3.3789   3.4266
     3.4643   3.4801   3.5559   3.6037   3.6671   3.6791   3.7189   3.7946
     3.9170   4.1519   4.3178   4.6453   4.7355   4.8357   4.9275   5.0660
     5.0714   5.1689   5.2753   5.3265   5.3946   5.4298   5.4630   5.4923
     5.4927   5.5549   5.5749   5.6409   5.6458   5.7465   5.7646   5.8075
     5.8536   5.8624   5.8815   5.9233   6.1103   6.1524   6.2923   6.3707
     6.4175   6.4372   6.7151   6.7428   7.0039   7.2205   7.6210   7.7501
     8.2167   8.3879   8.7196   8.8171   8.8290   8.8757   9.1813   9.3402
     9.4060   9.6053   9.7187

          k = 0.0000-0.0840 0.0000 ( 34678 PWs)   bands (ev):

   -58.2967 -58.2954 -57.3890 -57.3768 -57.3725 -57.3238 -57.2665 -57.0988
   -57.0734 -57.0573 -57.0389 -56.9125 -56.9118 -56.9062 -56.7925 -56.7860
   -34.5685 -34.5676 -34.5666 -34.5660 -34.4736 -34.4725 -33.7117 -33.6985
   -33.6948 -33.6562 -33.6549 -33.6490 -33.6174 -33.6012 -33.5971 -33.5865
   -33.5459 -33.5405 -33.5206 -33.5121 -33.4765 -33.4702 -33.4083 -33.3939
   -33.3882 -33.3723 -33.3350 -33.3303 -33.3134 -33.2817 -33.2687 -33.2598
   -33.2579 -33.2574 -33.2332 -33.2312 -33.1830 -33.1577 -33.1568 -33.1495
   -33.1343 -33.1320 -33.1041 -33.1034 -33.0362 -33.0278 -33.0249 -33.0191
   -18.0342 -18.0335 -17.6020 -17.5929 -17.5192 -17.4950 -17.4947 -17.4047
   -17.2677 -17.2285 -17.1415 -17.1149 -17.0820 -17.0477 -16.9097 -16.8543
   -16.8173 -16.8170 -16.8156 -16.6843 -16.6224 -16.6191 -16.6127 -16.5887
   -16.5582 -16.5355 -16.5170 -16.4844 -16.4753 -16.2815 -16.2574 -15.6608
   -15.6608 -11.1690  -5.3929  -5.3927  -4.9436  -4.8967  -4.8957  -4.8834
    -4.8611  -4.7794  -4.7677  -4.7290  -4.6682  -4.6137  -4.5769  -4.5699
    -4.5018  -4.4786  -4.4554  -4.4010  -4.3853  -4.2753  -4.2631  -4.2552
    -4.1681  -4.1256  -4.0760  -4.0398  -4.0023  -3.9118  -3.8927  -3.8698
    -3.7865  -3.7679  -3.7008  -3.6810  -3.6582  -3.6335  -3.5685  -3.4136
    -3.3677  -3.3499  -3.1531  -3.0863  -3.0806  -3.0336  -2.9366  -2.9353
    -2.9263  -2.8588  -2.8360  -2.8020  -2.7816  -2.7005  -2.6785  -2.6497
    -2.5300  -2.5112  -2.4294  -2.4125  -2.4049  -2.3827  -2.3217  -2.2479
    -2.2365  -2.1744  -2.1291  -2.0659  -2.0158  -1.9888  -1.9847  -1.9788
    -1.9748  -1.9502  -1.8485  -1.8078  -1.7874  -1.7378  -1.7014  -1.6668
    -1.6508  -1.6195  -1.6001  -1.5264  -1.5167  -1.4746  -1.4549  -1.4322
    -1.3904  -1.3399  -1.2916  -1.1870  -1.1466  -1.1259  -1.1002  -1.0779
    -0.8476  -0.8235  -0.6260  -0.6170  -0.6121  -0.6040  -0.5552  -0.5069
     1.4751   1.4778   1.6274   1.6281   1.7070   1.7079   2.0781   2.0789
     2.1417   2.1967   2.3675   2.4021   2.4387   2.4847   2.5325   2.5402
     2.6470   2.6588   2.6681   2.6819   2.7341   2.7442   2.8022   2.8049
     2.9048   2.9400   2.9835   3.0113   3.0163   3.0192   3.0258   3.0292
     3.0365   3.2175   3.2271   3.2575   3.2901   3.3321   3.3584   3.3886
     3.4256   3.4403   3.4957   3.6175   3.6889   3.7278   3.7422   3.7846
     3.8382   4.0291   4.3703   4.7493   4.8249   4.8587   4.8594   5.0449
     5.1372   5.2166   5.3074   5.3232   5.3576   5.4006   5.4612   5.5353
     5.5573   5.5895   5.5919   5.6794   5.6921   5.7113   5.7216   5.7349
     5.7615   5.8024   5.8353   5.9363   6.0196   6.1509   6.2882   6.3840
     6.4551   6.4713   6.5890   6.6101   6.9384   6.9868   7.4606   7.6174
     8.0437   8.2522   8.7235   8.9256   9.1165   9.2536   9.3423   9.3438
     9.4430   9.6082   9.6982

[...]
    -1.7371  -1.5154  -1.4715  -1.4610  -1.4434  -1.4057  -1.3260  -1.1623
    -1.1519  -1.0956  -1.0777  -1.0612  -0.9790  -0.9183  -0.8801  -0.7950
    -0.7413  -0.7345  -0.7052  -0.6781  -0.6034  -0.5813  -0.5680   0.2838
     1.5940   1.5975   1.6101   1.6154   1.9579   1.9587   2.0877   2.0887
     2.2710   2.2919   2.3051   2.3868   2.4100   2.4798   2.5668   2.6259
     2.6479   2.6924   2.7759   2.8093   2.8656   2.9179   2.9400   2.9680
     2.9827   2.9913   3.0324   3.0902   3.1043   3.2017   3.2274   3.2362
     3.2519   3.2759   3.3332   3.3794   3.3931   3.3983   3.4552   3.4660
     3.4762   3.5038   3.5186   3.5708   3.6285   3.6472   3.7690   3.8707
     3.9076   3.9166   4.1328   4.1332   4.5841   4.6122   4.6346   4.7200
     4.8750   4.8912   4.9235   5.0740   5.1532   5.1582   5.1775   5.4392
     5.6661   5.6751   5.6862   5.9189   5.9242   5.9579   6.0091   6.0116
     6.0865   6.0982   6.1681   6.2602   6.2633   6.2725   6.3754   6.4527
     6.4924   6.5990   7.0887   7.2320   7.3493   7.4030   7.5562   7.5917
     7.7202   7.7725   7.9295   8.1157   8.3012   8.3543   8.4510   8.8724
     9.0037   9.0888   9.2152

          k =-0.0253 0.0280 0.0000 ( 34687 PWs)   bands (ev):

   -58.3114 -58.2811 -57.3937 -57.3887 -57.3592 -57.3204 -57.2685 -57.1035
   -57.0737 -57.0666 -57.0317 -56.9306 -56.9282 -56.8976 -56.8095 -56.7762
   -34.7338 -34.5804 -34.5555 -34.5133 -34.4317 -34.3955 -33.8655 -33.8549
   -33.7406 -33.6733 -33.6390 -33.6002 -33.5742 -33.5600 -33.5566 -33.5476
   -33.5398 -33.5271 -33.5254 -33.5054 -33.4992 -33.4761 -33.4753 -33.4569
   -33.3447 -33.3353 -33.3281 -33.3248 -33.3186 -33.3140 -33.2896 -33.2705
   -33.2600 -33.2468 -33.2467 -33.2380 -33.2228 -33.2112 -33.1750 -33.1431
   -33.1418 -33.0863 -33.0653 -33.0462 -33.0271 -33.0054 -32.9849 -32.9211
   -18.3765 -17.9477 -17.7820 -17.7402 -17.5291 -17.5228 -17.3815 -17.3746
   -17.3513 -17.3217 -17.1181 -17.0752 -16.9904 -16.9453 -16.8793 -16.8364
   -16.7984 -16.7567 -16.7390 -16.6756 -16.6690 -16.5892 -16.5498 -16.4915
   -16.4674 -16.4114 -16.3723 -16.3544 -16.1613 -16.1265 -15.8893 -15.6185
   -15.5698 -10.7728  -5.8474  -5.3162  -5.1500  -5.1320  -4.9999  -4.9591
    -4.9200  -4.8315  -4.7046  -4.6840  -4.6428  -4.5427  -4.5046  -4.4482
    -4.4149  -4.3199  -4.2965  -4.2566  -4.2070  -4.1870  -4.1472  -4.1339
    -4.1017  -4.0630  -4.0322  -3.9988  -3.9621  -3.9207  -3.8879  -3.8050
    -3.7959  -3.7306  -3.6957  -3.6443  -3.6246  -3.5478  -3.4443  -3.3839
    -3.3480  -3.3265  -3.2736  -3.2645  -3.2288  -3.1846  -3.1169  -3.1025
    -2.9261  -2.8881  -2.8280  -2.7841  -2.7280  -2.6903  -2.6808  -2.6238
    -2.5946  -2.5154  -2.5060  -2.4491  -2.4132  -2.3650  -2.2946  -2.2722
    -2.2188  -2.1985  -2.1106  -2.0492  -1.9660  -1.9471  -1.9231  -1.8573
    -1.8459  -1.7979  -1.7520  -1.6916  -1.6428  -1.6018  -1.5693  -1.5165
    -1.4831  -1.4423  -1.4135  -1.3875  -1.3675  -1.3525  -1.3211  -1.2980
    -1.2118  -1.1307  -1.0720  -1.0174  -0.9936  -0.9608  -0.9361  -0.8916
    -0.8498  -0.8270  -0.6381  -0.6166  -0.5920  -0.5287  -0.2718   0.3070
     1.1459   1.2395   1.4236   1.8128   1.8523   1.9195   1.9558   2.0231
     2.0341   2.1832   2.2940   2.3398   2.3813   2.4240   2.4477   2.4978
     2.5180   2.5422   2.5831   2.6435   2.6916   2.7159   2.7715   2.8256
     2.8706   2.9076   2.9242   2.9671   2.9846   3.0082   3.0345   3.0872
     3.1644   3.1850   3.2273   3.2529   3.2879   3.3310   3.4236   3.4585
     3.4886   3.5525   3.6057   3.6365   3.6570   3.7379   3.8163   3.8594
     4.0064   4.2029   4.2793   4.4298   4.6189   4.7168   4.8377   4.8548
     4.9958   5.0196   5.1062   5.1923   5.2360   5.3520   5.4548   5.5424
     5.6639   5.6891   5.7141   5.7969   5.8442   5.8769   5.9032   5.9252
     5.9611   5.9835   6.0597   6.1264   6.1689   6.2776   6.3921   6.4426
     6.4561   6.5779   6.7522   6.8074   7.3841   7.4797   7.8002   7.8996
     8.0931   8.2448   8.4876   8.5382   8.7909   8.9039   9.0880   9.3067
     9.3809   9.5154   9.6183

          k =-0.0253 0.0560 0.0000 ( 34699 PWs)   bands (ev):

   -58.3050 -58.2875 -57.3904 -57.3833 -57.3656 -57.3227 -57.2678 -57.1030
   -57.0743 -57.0620 -57.0367 -56.9311 -56.9217 -56.9041 -56.8028 -56.7829
   -34.6639 -34.5751 -34.5607 -34.4963 -34.4687 -34.4492 -33.7957 -33.7858
   -33.6899 -33.6580 -33.6223 -33.5987 -33.5947 -33.5937 -33.5823 -33.5755
   -33.5492 -33.5394 -33.5259 -33.5042 -33.4910 -33.4738 -33.4630 -33.4229
   -33.3796 -33.3326 -33.3290 -33.3208 -33.2915 -33.2819 -33.2655 -33.2654
   -33.2644 -33.2551 -33.2518 -33.2386 -33.2282 -33.2243 -33.1906 -33.1709
   -33.1268 -33.0833 -33.0820 -33.0588 -33.0432 -33.0295 -33.0175 -32.9916
   -18.2188 -17.8089 -17.7874 -17.6187 -17.6071 -17.4630 -17.4006 -17.3768
   -17.2559 -17.2486 -17.2110 -17.0652 -16.9554 -16.9265 -16.8883 -16.8475
   -16.8047 -16.7509 -16.7401 -16.7248 -16.6905 -16.6051 -16.5551 -16.5383
   -16.5071 -16.4486 -16.4181 -16.4137 -16.2229 -16.2077 -15.8881 -15.6472
   -15.6236 -10.7748  -5.6122  -5.0888  -5.0310  -4.9631  -4.9309  -4.8242
    -4.8022  -4.7651  -4.6948  -4.6807  -4.5331  -4.5164  -4.4533  -4.4027
    -4.3848  -4.3765  -4.3277  -4.2841  -4.2572  -4.2474  -4.2137  -4.1826
    -4.1399  -4.1307  -4.0625  -4.0363  -3.9993  -3.9759  -3.9380  -3.8968
    -3.8396  -3.7983  -3.7000  -3.6295  -3.5589  -3.5073  -3.4268  -3.3908
    -3.3575  -3.2888  -3.1944  -3.1650  -3.1233  -3.1147  -3.0637  -3.0312
    -2.9873  -2.9337  -2.8482  -2.7999  -2.7689  -2.7112  -2.6152  -2.5926
    -2.5304  -2.5167  -2.4629  -2.3979  -2.3828  -2.3250  -2.3071  -2.2659
    -2.1952  -2.1422  -2.1282  -2.0952  -2.0555  -2.0135  -1.9922  -1.9554
    -1.9382  -1.9128  -1.9000  -1.8528  -1.7750  -1.7096  -1.6970  -1.6006
    -1.5795  -1.5511  -1.5247  -1.4919  -1.4484  -1.4205  -1.3914  -1.3327
    -1.2969  -1.2293  -1.1619  -1.0405  -1.0120  -0.9783  -0.9445  -0.8644
    -0.7703  -0.7421  -0.7118  -0.6470  -0.6159  -0.5625  -0.3690   0.2884
     1.2802   1.4622   1.5575   1.7514   1.7669   1.9052   1.9720   2.0512
     2.2586   2.2690   2.3355   2.3718   2.4083   2.4805   2.5157   2.5410
     2.5659   2.5893   2.6467   2.6992   2.7142   2.7579   2.8003   2.8500
     2.8759   2.9108   2.9549   3.0004   3.0261   3.0395   3.0494   3.1029
     3.1525   3.1923   3.2114   3.2820   3.3110   3.3395   3.3714   3.4512
     3.5029   3.5282   3.6054   3.6268   3.6630   3.7208   3.7399   3.7936
     3.8892   4.0929   4.3868   4.4943   4.7094   4.8523   4.9035   4.9546
     4.9888   5.0830   5.1803   5.2014   5.3301   5.3816   5.4273   5.5221
     5.5579   5.5929   5.6457   5.7030   5.7323   5.7973   5.8135   5.8542
     5.9210   5.9377   6.0023   6.0835   6.1264   6.2068   6.3234   6.4268
     6.4568   6.4731   6.7145   6.7642   7.0821   7.3047   7.6792   7.8357
     8.1003   8.2428   8.3288   8.5033   8.7850   8.9034   9.0026   9.1756
     9.3767   9.5529   9.6463

          k =-0.0506 0.0280 0.0000 ( 34685 PWs)   bands (ev):

   -58.3114 -58.2811 -57.3928 -57.3895 -57.3592 -57.3205 -57.2685 -57.1035
   -57.0734 -57.0670 -57.0317 -56.9306 -56.9282 -56.8976 -56.8096 -56.7762
   -34.7346 -34.5804 -34.5555 -34.5117 -34.4317 -34.3956 -33.8659 -33.8590
   -33.7408 -33.6538 -33.6388 -33.6003 -33.5793 -33.5619 -33.5606 -33.5529
   -33.5401 -33.5345 -33.5242 -33.5053 -33.4993 -33.4767 -33.4637 -33.4579
   -33.3449 -33.3286 -33.3270 -33.3247 -33.3147 -33.3136 -33.2897 -33.2725
   -33.2700 -33.2468 -33.2458 -33.2408 -33.2229 -33.2106 -33.1710 -33.1431
   -33.1421 -33.0863 -33.0653 -33.0531 -33.0255 -33.0053 -32.9849 -32.9211
   -18.2682 -17.8701 -17.8580 -17.7074 -17.5939 -17.4617 -17.4442 -17.3506
   -17.3234 -17.2570 -17.1866 -17.0927 -17.0031 -16.9579 -16.9290 -16.9014
   -16.8167 -16.7737 -16.7626 -16.7027 -16.6395 -16.5559 -16.5292 -16.4956
   -16.4674 -16.4124 -16.3962 -16.3593 -16.1578 -16.1269 -15.8901 -15.6166
   -15.5699 -10.7726  -5.5460  -5.1935  -5.1601  -5.1274  -4.9556  -4.8758
    -4.7741  -4.7161  -4.6890  -4.6585  -4.6077  -4.5937  -4.5395  -4.4138
    -4.3696  -4.3288  -4.2475  -4.2236  -4.1849  -4.1717  -4.1545  -4.0688
    -4.0552  -4.0215  -3.9847  -3.9392  -3.8913  -3.8454  -3.8180  -3.7803
    -3.7286  -3.6864  -3.6669  -3.6080  -3.5569  -3.5107  -3.4789  -3.4442
    -3.3814  -3.3620  -3.2794  -3.2695  -3.2099  -3.1475  -3.1222  -3.0644
    -3.0159  -2.9866  -2.9082  -2.8402  -2.7627  -2.7050  -2.6956  -2.6713
    -2.6230  -2.6001  -2.5869  -2.5318  -2.5233  -2.3975  -2.3475  -2.3395
    -2.2754  -2.2069  -2.1921  -2.1655  -2.0875  -2.0172  -2.0108  -1.9495
    -1.9306  -1.9007  -1.8182  -1.7290  -1.7154  -1.6911  -1.6215  -1.5934
    -1.5299  -1.4837  -1.4615  -1.3996  -1.3857  -1.3331  -1.3178  -1.2672
    -1.2504  -1.1276  -1.0644  -1.0414  -1.0174  -0.9628  -0.9323  -0.8831
    -0.8348  -0.8031  -0.7267  -0.6882  -0.6668  -0.5426  -0.3979   0.2915
     1.1328   1.3328   1.4579   1.5587   1.9266   1.9366   1.9592   2.0510
     2.1169   2.1917   2.2465   2.3224   2.3987   2.4325   2.5213   2.5388
     2.5852   2.6433   2.6800   2.6940   2.7476   2.8212   2.8441   2.8745
     2.9331   2.9390   2.9723   2.9773   2.9836   3.0949   3.1018   3.1304
     3.1781   3.2072   3.2829   3.3032   3.3481   3.3757   3.3993   3.4476
     3.4621   3.5407   3.5949   3.6599   3.7348   3.7720   3.7918   3.8937
     3.9520   4.0544   4.1021   4.4009   4.5029   4.6486   4.7404   4.8019
     4.8347   4.9067   4.9591   5.2819   5.3228   5.4061   5.5205   5.5522
     5.6334   5.7593   5.7794   5.8464   5.8926   5.9058   5.9709   6.0510
     6.0866   6.1588   6.2430   6.3280   6.3802   6.4019   6.4370   6.4830
     6.5341   6.5448   6.7058   6.9242   7.0810   7.2222   7.5451   7.6176
     7.7284   8.2159   8.4179   8.5097   8.8693   8.9337   9.0728   9.2371
     9.4255   9.6009   9.6780

          k =-0.0506 0.0560 0.0000 ( 34596 PWs)   bands (ev):

   -58.3050 -58.2875 -57.3900 -57.3837 -57.3656 -57.3227 -57.2677 -57.1030
   -57.0741 -57.0621 -57.0367 -56.9311 -56.9217 -56.9041 -56.8029 -56.7829
   -34.6645 -34.5751 -34.5606 -34.4949 -34.4689 -34.4487 -33.7959 -33.7903
   -33.6900 -33.6423 -33.6221 -33.5979 -33.5963 -33.5936 -33.5767 -33.5755
   -33.5525 -33.5396 -33.5380 -33.5044 -33.5002 -33.4739 -33.4514 -33.4245
   -33.3799 -33.3324 -33.3183 -33.3154 -33.2940 -33.2841 -33.2667 -33.2652
   -33.2641 -33.2550 -33.2513 -33.2486 -33.2290 -33.2245 -33.1900 -33.1667
   -33.1268 -33.0834 -33.0819 -33.0587 -33.0474 -33.0301 -33.0174 -32.9914
   -18.1156 -17.8266 -17.7095 -17.6214 -17.6051 -17.5654 -17.3884 -17.3768
   -17.2268 -17.2143 -17.1253 -17.1031 -16.9856 -16.9200 -16.8755 -16.8503
   -16.8316 -16.8155 -16.7695 -16.7438 -16.7288 -16.6356 -16.6047 -16.5144
   -16.5041 -16.4461 -16.4288 -16.4186 -16.2224 -16.2041 -15.8880 -15.6459
   -15.6240 -10.7746  -5.3095  -4.9997  -4.9491  -4.9412  -4.7911  -4.7833
    -4.7245  -4.6474  -4.5346  -4.5147  -4.5087  -4.4260  -4.4117  -4.3887
    -4.3690  -4.3354  -4.3169  -4.2564  -4.2084  -4.1841  -4.1758  -4.1221
    -4.1092  -4.0790  -4.0535  -4.0062  -3.9890  -3.9143  -3.8985  -3.8323
    -3.7906  -3.7141  -3.6932  -3.6253  -3.5933  -3.5437  -3.4745  -3.4297
    -3.3786  -3.3232  -3.2661  -3.2387  -3.1415  -3.1317  -3.0863  -3.0546
    -3.0028  -2.9854  -2.9653  -2.9053  -2.8058  -2.7700  -2.7557  -2.7135
    -2.6371  -2.5940  -2.5522  -2.5092  -2.4862  -2.4221  -2.3967  -2.3767
    -2.3589  -2.2978  -2.2024  -2.1796  -2.1548  -2.1366  -2.1103  -2.0556
    -2.0207  -1.9789  -1.9514  -1.8782  -1.8560  -1.7896  -1.7393  -1.6659
    -1.5742  -1.5567  -1.5456  -1.5041  -1.4497  -1.3930  -1.3608  -1.3137
    -1.2523  -1.1828  -1.0849  -1.0292  -0.9957  -0.9116  -0.8600  -0.8528
    -0.8006  -0.7141  -0.7002  -0.6786  -0.6634  -0.5606  -0.4830   0.2906
     1.3008   1.4905   1.6392   1.6609   1.8456   1.9967   2.0253   2.0603
     2.2362   2.2488   2.3532   2.3693   2.4255   2.4542   2.5409   2.5780
     2.6433   2.6884   2.7224   2.7369   2.8041   2.8351   2.8637   2.8962
     2.9267   2.9438   2.9993   3.0346   3.0651   3.1062   3.1378   3.1835
     3.1885   3.2436   3.2775   3.3175   3.3268   3.3696   3.4093   3.4599
     3.4747   3.5419   3.5707   3.6335   3.6604   3.7383   3.7978   3.8333
     3.8768   3.9531   4.1455   4.4974   4.5893   4.6090   4.7471   4.8146
     4.8815   4.9579   5.0031   5.1794   5.2948   5.3687   5.4046   5.4367
     5.5877   5.6105   5.6608   5.7101   5.8725   5.8897   5.9802   5.9993
     6.0612   6.1015   6.1634   6.2016   6.3122   6.3317   6.4101   6.4169
     6.5344   6.6096   6.7656   6.8025   7.1973   7.3619   7.5095   7.6259
     7.9454   8.0177   8.1109   8.3898   8.6135   8.7261   8.8063   9.0449
     9.1891   9.3275   9.4315

     the Fermi energy is    -0.2985 ev

!    total energy              =   -3021.14831601 Ry
     Harris-Foulkes estimate   =   -3021.14831591 Ry
     estimated scf accuracy    <       0.00000031 Ry

     The total energy is the sum of the following terms:

     one-electron contribution =  -40438.29554737 Ry
     hartree contribution      =   20290.41954991 Ry
     xc contribution           =    -553.20916127 Ry
     ewald contribution        =   17679.95665654 Ry
     smearing contrib. (-TS)   =      -0.01981383 Ry

     total magnetization       =     1.06 Bohr mag/cell
     absolute magnetization    =     1.23 Bohr mag/cell

     convergence has been achieved in  11 iterations

     Forces acting on atoms (Ry/au):


     negative rho (up, down):  1.189E-02 1.196E-02
     atom    1 type  1   force =     0.00018459   -0.00089930   -0.10472077
     atom    2 type  2   force =     0.00014433    0.00068122    0.04003059
     atom    3 type  1   force =     0.00074888   -0.00175419   -0.02055047
     atom    4 type  2   force =    -0.00326609    0.00312363   -0.00323864
     atom    5 type  1   force =     0.00034661    0.00006992    0.00030883
     atom    6 type  2   force =    -0.00013495   -0.00009876    0.00026096
     atom    7 type  1   force =    -0.00021008    0.00005675   -0.00085776
     atom    8 type  2   force =    -0.00012939   -0.00013584   -0.00019408
     atom    9 type  1   force =    -0.00003198    0.00056684   -0.10485394
     atom   10 type  2   force =     0.00034766   -0.00021136    0.03600002
     atom   11 type  1   force =     0.00067901    0.00183655    0.00260642
     atom   12 type  2   force =    -0.00519526   -0.00266892   -0.00520459
     atom   13 type  1   force =     0.00041375    0.00008604   -0.00026329
     atom   14 type  2   force =     0.00013180   -0.00008217   -0.00002710
     atom   15 type  1   force =    -0.00003553   -0.00004384    0.00020462
     atom   16 type  2   force =    -0.00012362   -0.00006621   -0.00034179
     atom   17 type  2   force =     0.00000997   -0.00001417    0.06657513
     atom   18 type  1   force =     0.00005879    0.00002879    0.13141412
     atom   19 type  2   force =     0.00017770   -0.00052915   -0.08520793
     atom   20 type  2   force =    -0.05791722    0.00014188   -0.03608384
     atom   21 type  2   force =     0.05780926   -0.00004791   -0.03604467
     atom   22 type  1   force =    -0.00043026    0.00075081    0.08016501
     atom   23 type  2   force =     0.00020200   -0.00005334    0.00004127
     atom   24 type  2   force =     0.00064098    0.00185865   -0.03466880
     atom   25 type  2   force =     0.00414137    0.00332735   -0.00511301
     atom   26 type  1   force =     0.00041166   -0.00005032    0.00009768
     atom   27 type  2   force =    -0.00010352   -0.00012673    0.00001490
     atom   28 type  2   force =     0.00006094   -0.00020173   -0.00002062
     atom   29 type  2   force =    -0.00001041   -0.00007952    0.00007549
     atom   30 type  1   force =    -0.00029278   -0.00016899    0.00028114
     atom   31 type  2   force =     0.00009303   -0.00007259   -0.00009704
     atom   32 type  2   force =    -0.00018674    0.00011698    0.00010783
     atom   33 type  2   force =    -0.00016915    0.00004902    0.06631343
     atom   34 type  1   force =     0.00007676   -0.00003492    0.13119825
     atom   35 type  2   force =     0.00018809   -0.00013014   -0.08482218
     atom   36 type  2   force =    -0.05781084    0.00006289   -0.03569598
     atom   37 type  2   force =     0.05798462   -0.00017519   -0.03609407
     atom   38 type  1   force =    -0.00037603   -0.00020308    0.07983406
     atom   39 type  2   force =     0.00007621   -0.00026436   -0.00008264
     atom   40 type  2   force =     0.00049125    0.00123916   -0.03527349
     atom   41 type  2   force =     0.00588886   -0.00243259   -0.00723265
     atom   42 type  1   force =     0.00024584   -0.00006784    0.00002626
     atom   43 type  2   force =    -0.00019615   -0.00009794    0.00003454
     atom   44 type  2   force =     0.00001640   -0.00015957   -0.00003085
     atom   45 type  2   force =    -0.00000268   -0.00016632    0.00005473
     atom   46 type  1   force =    -0.00024872   -0.00008239    0.00026606
     atom   47 type  2   force =    -0.00005949   -0.00018510    0.00008625
     atom   48 type  2   force =    -0.00014598   -0.00013256    0.00036066
     atom   49 type  2   force =    -0.00143588   -0.00268317   -0.00142020
     atom   50 type  3   force =     0.05936048   -0.00808442   -0.00714263
     atom   51 type  4   force =    -0.01532002   -0.00964450    0.00919431
     atom   52 type  4   force =    -0.01547937    0.00742187   -0.01074111
     atom   53 type  4   force =    -0.00438645   -0.00264647   -0.00105350
     atom   54 type  4   force =    -0.02723223    0.01307725    0.01152505

     Total force =     0.350265     Total SCF correction =     0.001885
 !ASE

     Writing output data file calc.save
 
     init_run     :     65.63s CPU     76.36s WALL (       1 calls)
     electrons    :   3000.09s CPU   3622.30s WALL (       1 calls)
     forces       :     63.46s CPU     65.47s WALL (       1 calls)

     Called by init_run:
     wfcinit      :     57.56s CPU     67.60s WALL (       1 calls)
     potinit      :      1.46s CPU      1.73s WALL (       1 calls)

     Called by electrons:
     c_bands      :   2615.15s CPU   3135.67s WALL (      11 calls)
     sum_band     :    314.66s CPU    406.25s WALL (      11 calls)
     v_of_rho     :     14.88s CPU     19.14s WALL (      12 calls)
     newd         :     58.89s CPU     64.72s WALL (      12 calls)
     mix_rho      :      0.47s CPU      0.79s WALL (      11 calls)
     vdW_energy   :      3.13s CPU      3.68s WALL (      13 calls)
     vdW_ffts     :      4.57s CPU      5.98s WALL (      26 calls)
     vdW_v        :      1.49s CPU      1.77s WALL (      13 calls)

     Called by c_bands:
     init_us_2    :      6.68s CPU      7.49s WALL (     960 calls)
     cegterg      :   2574.62s CPU   3092.23s WALL (     440 calls)

     Called by *egterg:
     h_psi        :    955.81s CPU   1329.76s WALL (    2300 calls)
     s_psi        :    165.94s CPU    172.56s WALL (    2300 calls)
     g_psi        :      4.88s CPU      4.96s WALL (    1820 calls)
     cdiaghg      :    858.50s CPU    880.70s WALL (    2260 calls)

     Called by h_psi:
     add_vuspsi   :    167.63s CPU    174.12s WALL (    2300 calls)

     General routines
     calbec       :    246.86s CPU    253.07s WALL (    2780 calls)
     fft          :     19.21s CPU     22.02s WALL (    1029 calls)
     ffts         :      0.06s CPU      0.08s WALL (      46 calls)
     fftw         :    551.22s CPU    991.92s WALL (  782412 calls)
     interpolate  :      0.41s CPU      0.66s WALL (      46 calls)
     davcio       :      0.11s CPU      2.52s WALL (      40 calls)
 
     Parallel routines
     fft_scatter  :    296.95s CPU    544.60s WALL (  783487 calls)
 
     PWSCF        :     0h52m CPU        1h 2m WALL

 
   This run was terminated on:   1:24:35  26Feb2018            

=------------------------------------------------------------------------------=
   JOB DONE.
=------------------------------------------------------------------------------=
