  python dir          : /home/vossj/suncat/lib/python2.7/site-packages/espresso
  espresso dir        : /home/vossj/suncat/esdld/espresso-dynpy-beef/bin
  pseudo dir          : /home/alatimer/bin/psp/esp_psp_w_gbrvRu/
  ase-espresso py git : ffa2778-git



     Program PWSCF v.5.1rc2 (svn rev. ) starts on 13Feb2018 at  1:30: 2 

     This program is part of the open-source Quantum ESPRESSO suite
     for quantum simulation of materials; please cite
         "P. Giannozzi et al., J. Phys.:Condens. Matter 21 395502 (2009);
          URL http://www.quantum-espresso.org", 
     in publications or presentations arising from this work. More details at
     http://www.quantum-espresso.org/quote

     Parallel version (MPI), running on    16 processors
     R & G space division:  proc/nbgrp/npool/nimage =      16
     Reading input from pw.inp
     Message from routine read_cards :
     DEPRECATED: no units specified in CELL_PARAMETERS card

     Current dimensions of program PWSCF are:
     Max number of different atomic species (ntypx) = 10
     Max number of k-points (npk) =  40000
     Max angular momentum in pseudopotentials (lmaxx) =  3

     **************************************************************************
     Initializing libbeef V0.1.1 with the BEEF-vdW functional.
     Citation: Wellendorff et al., PRB 85, 235149 (2012).
     **************************************************************************


     IMPORTANT: XC functional enforced from input :
     Exchange-correlation      = BEEF ( 1  4 27 13 2)
     Any further DFT definition will be discarded
     Please, verify this is what you really want


     Subspace diagonalization in iterative solution of the eigenvalue problem:
     a serial algorithm will be used

 
     Parallelization info
     --------------------
     sticks:   dense  smooth     PW     G-vecs:    dense   smooth      PW
     Min         281     112     31                68535    17318    2565
     Max         282     113     32                68545    17369    2582
     Sum        4501    1795    503              1096637   277353   41113
 
     Generating pointlists ...
     new r_m :   0.4125 (alat units)  0.7795 (a.u.) for type    1
     new r_m :   0.4024 (alat units)  0.7604 (a.u.) for type    2
     new r_m :   0.4125 (alat units)  0.7795 (a.u.) for type    3
     new r_m :   0.4024 (alat units)  0.7604 (a.u.) for type    4


     bravais-lattice index     =            0
     lattice parameter (alat)  =       1.8897  a.u.
     unit-cell volume          =    7990.9933 (a.u.)^3
     number of atoms/cell      =           54
     number of atomic types    =            4
     number of electrons       =       398.00
     number of Kohn-Sham states=          299
     kinetic-energy cutoff     =      40.4243  Ry
     charge density cutoff     =     404.2426  Ry
     convergence threshold     =      7.3E-07
     mixing beta               =       0.1000
     number of iterations used =           10  plain     mixing
     Exchange-correlation      = BEEF ( 1  4 27 13 2)
     nstep                     =           50


     celldm(1)=   1.889726  celldm(2)=   0.000000  celldm(3)=   0.000000
     celldm(4)=   0.000000  celldm(5)=   0.000000  celldm(6)=   0.000000

     crystal axes: (cart. coord. in units of alat)
               a(1) = (   6.590708   0.000000   0.000000 )  
               a(2) = (   0.000000   5.950229   0.000000 )  
               a(3) = (   0.000000   0.000000  30.195235 )  

     reciprocal axes: (cart. coord. in units 2 pi/alat)
               b(1) = (  0.151729  0.000000  0.000000 )  
               b(2) = (  0.000000  0.168061  0.000000 )  
               b(3) = (  0.000000  0.000000  0.033118 )  


     PseudoPot. # 1 for Ti read from file:
     /home/alatimer/bin/psp/esp_psp_w_gbrvRu/Ti.UPF
     MD5 check sum: 8e4df49b7f0d34bbd5052bf3f5ea0213
     Pseudo is Ultrasoft, Zval = 12.0
     Generated by new atomic code, or converted to UPF format
     Using radial grid of  851 points,  6 beta functions with: 
                l(1) =   0
                l(2) =   0
                l(3) =   1
                l(4) =   1
                l(5) =   2
                l(6) =   2
     Q(r) pseudized with  8 coefficients,  rinner =    1.000   1.000   1.000
                                                       1.000   1.000

     PseudoPot. # 2 for  O read from file:
     /home/alatimer/bin/psp/esp_psp_w_gbrvRu/O.UPF
     MD5 check sum: e057bbcf3229fb5d8c36c0c92f9568b4
     Pseudo is Ultrasoft + core correction, Zval =  6.0
     Generated using "atomic" code by A. Dal Corso  v.5.0.2 svn rev. 9415
     Using radial grid of 1095 points,  4 beta functions with: 
                l(1) =   0
                l(2) =   0
                l(3) =   1
                l(4) =   1
     Q(r) pseudized with 0 coefficients 


     PseudoPot. # 3 for  C read from file:
     /home/alatimer/bin/psp/esp_psp_w_gbrvRu/C.UPF
     MD5 check sum: ab446d787031eba755f1d5ee46644bb0
     Pseudo is Ultrasoft + core correction, Zval =  4.0
     Generated using "atomic" code by A. Dal Corso  v.5.0.2 svn rev. 9415
     Using radial grid of 1073 points,  4 beta functions with: 
                l(1) =   0
                l(2) =   0
                l(3) =   1
                l(4) =   1
     Q(r) pseudized with 0 coefficients 


     PseudoPot. # 4 for  H read from file:
     /home/alatimer/bin/psp/esp_psp_w_gbrvRu/H.UPF
     MD5 check sum: bd57da0722753ddfd9833a65b40bb853
     Pseudo is Ultrasoft, Zval =  1.0
     Generated using "atomic" code by A. Dal Corso  v.5.0.2 svn rev. 9415
     Using radial grid of  929 points,  2 beta functions with: 
                l(1) =   0
                l(2) =   0
     Q(r) pseudized with 0 coefficients 


     vdW kernel table read from file vdW_kernel_table
     MD5 check sum: 095c7af220d748ca6e76c0b4c6cfb241

     atomic species   valence    mass     pseudopotential
        Ti1           12.00    47.88000     Ti( 1.00)
        O1             6.00    15.99940      O( 1.00)
        C1             4.00    12.01100      C( 1.00)
        H1             1.00     1.00794      H( 1.00)

     Starting magnetic structure 
     atomic species   magnetization
        Ti1          0.250
        O1           0.500
        C1           0.750
        H1           0.000

     No symmetry found



   Cartesian axes

     site n.     atom                  positions (alat units)
         1           Ti1 tau(   1) = (   1.6476770   0.7437786   2.6545865  )
         2           O1  tau(   2) = (   1.6476770   2.2313359   3.9361215  )
         3           Ti1 tau(   3) = (   1.6476770   2.2313359   5.9499405  )
         4           O1  tau(   4) = (   0.3661420   0.7437786   5.9499405  )
         5           Ti1 tau(   5) = (   1.7592931   0.7557636   9.1813031  )
         6           O1  tau(   6) = (   1.6162490   2.2572048  10.5951269  )
         7           Ti1 tau(   7) = (   1.5595004   2.2680265  12.4668274  )
         8           O1  tau(   8) = (   0.3709531   0.7738127  12.6996540  )
         9           Ti1 tau(   9) = (   1.6476770   3.7188931   2.6545865  )
        10           O1  tau(  10) = (   1.6476770   5.2064503   3.9361215  )
        11           Ti1 tau(  11) = (   1.6476770   5.2064503   5.9499405  )
        12           O1  tau(  12) = (   0.3661420   3.7188931   5.9499405  )
        13           Ti1 tau(  13) = (   1.7607536   3.7112867   9.1949733  )
        14           O1  tau(  14) = (   1.6133076   5.2250699  10.5465640  )
        15           Ti1 tau(  15) = (   1.6492307   5.2431137  12.3448001  )
        16           O1  tau(  16) = (   0.3719744   3.7598389  12.7007434  )
        17           O1  tau(  17) = (   1.6476770   2.2313359   1.3730516  )
        18           Ti1 tau(  18) = (   4.9430310   2.2313359   2.6545865  )
        19           O1  tau(  19) = (   4.9430310   2.2313359   4.6684056  )
        20           O1  tau(  20) = (   6.2245660   0.7437786   2.6545865  )
        21           O1  tau(  21) = (   3.6614961   0.7437786   2.6545865  )
        22           Ti1 tau(  22) = (   4.9430310   0.7437786   5.9499405  )
        23           O1  tau(  23) = (   1.6387103   2.2391978   8.0037664  )
        24           O1  tau(  24) = (   4.9430310   2.2313359   7.2314755  )
        25           O1  tau(  25) = (   2.9292120   0.7437786   5.9499405  )
        26           Ti1 tau(  26) = (   5.0158092   2.2383949   9.3973727  )
        27           O1  tau(  27) = (   4.9391445   2.2276729  11.2675731  )
        28           O1  tau(  28) = (   6.2094020   0.7514556   9.2742047  )
        29           O1  tau(  29) = (   3.6131301   0.7515640   9.2682932  )
        30           Ti1 tau(  30) = (   4.8940083   0.8207741  12.7348365  )
        31           O1  tau(  31) = (   4.8487174   2.2703822  13.8475395  )
        32           O1  tau(  32) = (   2.8766274   0.7418004  12.6316555  )
        33           O1  tau(  33) = (   1.6476770   5.2064503   1.3730516  )
        34           Ti1 tau(  34) = (   4.9430310   5.2064503   2.6545865  )
        35           O1  tau(  35) = (   4.9430310   5.2064503   4.6684056  )
        36           O1  tau(  36) = (   6.2245660   3.7188931   2.6545865  )
        37           O1  tau(  37) = (   3.6614961   3.7188931   2.6545865  )
        38           Ti1 tau(  38) = (   4.9430310   3.7188931   5.9499405  )
        39           O1  tau(  39) = (   1.6418458   5.2133935   8.0066417  )
        40           O1  tau(  40) = (   4.9430310   5.2064503   7.2314755  )
        41           O1  tau(  41) = (   2.9292120   3.7188931   5.9499405  )
        42           Ti1 tau(  42) = (   5.0218241   5.2139137   9.3870600  )
        43           O1  tau(  43) = (   4.9399496   5.2040061  11.2598200  )
        44           O1  tau(  44) = (   6.2073000   3.7245411   9.2731052  )
        45           O1  tau(  45) = (   3.6137513   3.7232133   9.2682466  )
        46           Ti1 tau(  46) = (   4.8936935   3.8094630  12.7397413  )
        47           O1  tau(  47) = (   4.9051259   5.2510468  13.8339921  )
        48           O1  tau(  48) = (   2.8743370   3.7938830  12.6403791  )
        49           C1  tau(  49) = (   1.0587210   2.2268971  15.9066084  )
        50           O1  tau(  50) = (   1.8917182   2.2355032  14.7378010  )
        51           H1  tau(  51) = (   0.0310076   2.2200215  15.5603933  )
        52           H1  tau(  52) = (   2.8355400   2.2288152  14.9843747  )
        53           H1  tau(  53) = (   1.2478062   1.3326534  16.5039879  )
        54           H1  tau(  54) = (   1.2341453   3.1195140  16.5098874  )

     number of k points=    40  Fermi-Dirac smearing, width (Ry)=  0.0073
                       cart. coord. in units 2pi/alat
        k(    1) = (   0.0000000   0.0000000   0.0000000), wk =   0.0277778
        k(    2) = (   0.0000000   0.0280101   0.0000000), wk =   0.0555556
        k(    3) = (   0.0000000   0.0560203   0.0000000), wk =   0.0555556
        k(    4) = (   0.0000000  -0.0840304   0.0000000), wk =   0.0277778
        k(    5) = (   0.0252881   0.0000000   0.0000000), wk =   0.0555556
        k(    6) = (   0.0252881   0.0280101   0.0000000), wk =   0.0555556
        k(    7) = (   0.0252881   0.0560203   0.0000000), wk =   0.0555556
        k(    8) = (   0.0252881  -0.0840304   0.0000000), wk =   0.0555556
        k(    9) = (   0.0505763   0.0000000   0.0000000), wk =   0.0555556
        k(   10) = (   0.0505763   0.0280101   0.0000000), wk =   0.0555556
        k(   11) = (   0.0505763   0.0560203   0.0000000), wk =   0.0555556
        k(   12) = (   0.0505763  -0.0840304   0.0000000), wk =   0.0555556
        k(   13) = (  -0.0758644   0.0000000   0.0000000), wk =   0.0277778
        k(   14) = (  -0.0758644   0.0280101   0.0000000), wk =   0.0555556
        k(   15) = (  -0.0758644   0.0560203   0.0000000), wk =   0.0555556
        k(   16) = (  -0.0758644  -0.0840304   0.0000000), wk =   0.0277778
        k(   17) = (  -0.0252881   0.0280101   0.0000000), wk =   0.0555556
        k(   18) = (  -0.0252881   0.0560203   0.0000000), wk =   0.0555556
        k(   19) = (  -0.0505763   0.0280101   0.0000000), wk =   0.0555556
        k(   20) = (  -0.0505763   0.0560203   0.0000000), wk =   0.0555556
        k(   21) = (   0.0000000   0.0000000   0.0000000), wk =   0.0277778
        k(   22) = (   0.0000000   0.0280101   0.0000000), wk =   0.0555556
        k(   23) = (   0.0000000   0.0560203   0.0000000), wk =   0.0555556
        k(   24) = (   0.0000000  -0.0840304   0.0000000), wk =   0.0277778
        k(   25) = (   0.0252881   0.0000000   0.0000000), wk =   0.0555556
        k(   26) = (   0.0252881   0.0280101   0.0000000), wk =   0.0555556
        k(   27) = (   0.0252881   0.0560203   0.0000000), wk =   0.0555556
        k(   28) = (   0.0252881  -0.0840304   0.0000000), wk =   0.0555556
        k(   29) = (   0.0505763   0.0000000   0.0000000), wk =   0.0555556
        k(   30) = (   0.0505763   0.0280101   0.0000000), wk =   0.0555556
        k(   31) = (   0.0505763   0.0560203   0.0000000), wk =   0.0555556
        k(   32) = (   0.0505763  -0.0840304   0.0000000), wk =   0.0555556
        k(   33) = (  -0.0758644   0.0000000   0.0000000), wk =   0.0277778
        k(   34) = (  -0.0758644   0.0280101   0.0000000), wk =   0.0555556
        k(   35) = (  -0.0758644   0.0560203   0.0000000), wk =   0.0555556
        k(   36) = (  -0.0758644  -0.0840304   0.0000000), wk =   0.0277778
        k(   37) = (  -0.0252881   0.0280101   0.0000000), wk =   0.0555556
        k(   38) = (  -0.0252881   0.0560203   0.0000000), wk =   0.0555556
        k(   39) = (  -0.0505763   0.0280101   0.0000000), wk =   0.0555556
        k(   40) = (  -0.0505763   0.0560203   0.0000000), wk =   0.0555556

     Dense  grid:  1096637 G-vectors     FFT dimensions: (  80,  72, 375)

     Smooth grid:   277353 G-vectors     FFT dimensions: (  54,  45, 240)

     Largest allocated arrays     est. size (Mb)     dimensions
        Kohn-Sham Wavefunctions         9.95 Mb     (    2180,  299)
        NL pseudopotentials            18.89 Mb     (    2180,  568)
        Each V/rho on FFT grid          4.22 Mb     (  138240,   2)
        Each G-vector array             0.52 Mb     (   68538)
        G-vector shells                 0.25 Mb     (   33046)
     Largest temporary arrays     est. size (Mb)     dimensions
        Auxiliary wavefunctions        39.78 Mb     (    2180, 1196)
        Each subspace H/S matrix       21.83 Mb     (    1196, 1196)
        Each <psi_i|beta_j> matrix      2.59 Mb     (     568,  299)
        Arrays for rho mixing          21.09 Mb     (  138240,   10)

     Check: negative/imaginary core charge=   -0.000049    0.000000

     The initial density is read from file :
     ./calc.save/charge-density.dat


     negative rho (up, down):  1.209E-02 1.209E-02


     ************************************************************************
     *
     * You are using vdW-DF for exchange-correlation in this calculation.
     * Please cite the following three references that made this development
     * possible:
     *
     *   M. Dion, H. Rydberg, E. Schroder, D. C. Langreth, and
     *   B. I. Lundqvist, Phys. Rev. Lett. 92, 246401 (2004).
     *
     *   T. Thonhauser, V. R. Cooper, S. Li, A. Puzder, P. Hyldgaard, and
     *   D. C. Langreth, Phys. Rev. B 76, 125112 (2007).
     *
     *   G. Roman-Perez and J. M. Soler, Phys. Rev. Lett. 103, 096102 (2009).
     *
     *
     * If you are using vdW-DF2, please also cite:
     *
     *   K. Lee, E. D. Murray, L. Kong, B. I. Lundqvist, and
     *   D. C. Langreth, Phys. Rev. B 82, 081101(R) (2010).
     *
     *
     * If you are calculating the stress with vdW-DF, please also cite:
     *
     *   R. Sabatini, E. Kucukbenli, B. Kolb, T. Thonhauser, and
     *   S. de Gironcoli, J. Phys.: Condens. Matter 24, 424209 (2012).
     *
     ************************************************************************

     Carrying out vdW-DF run using the following parameters:

     Nqs =      20    Nr_points =    1024   r_max =   100.000
     q_mesh =
               0.00001000     0.04494208     0.09755937     0.15916263
               0.23128650     0.31572767     0.41458969     0.53033537
               0.66584808     0.82450364     1.01025438     1.22772762
               1.48234092     1.78043706     2.12944203     2.53805004
               3.01644009     3.57652955     4.23227104     5.00000000

     Gradients computed in reciprocal space

     ************************************************************************


     Starting wfc are  300 randomized atomic wfcs

     total cpu time spent up to now is       70.9 secs

     Self-consistent Calculation

     iteration #  1     ecut=    40.42 Ry     beta=0.10
     Davidson diagonalization with overlap
     ethr =  1.00E-05,  avg # of iterations = 14.6

     Threshold (ethr) on eigenvalues was too large:
     Diagonalizing with lowered threshold

     Davidson diagonalization with overlap
     ethr =  3.36E-07,  avg # of iterations =  1.0

     negative rho (up, down):  1.209E-02 1.209E-02
 
     Magnetic moment per site:
     atom:    1    charge:    3.1250    magn:   -0.0002    constr:    0.0000
     atom:    2    charge:    1.9767    magn:    0.0000    constr:    0.0000
     atom:    3    charge:    3.1197    magn:    0.0000    constr:    0.0000
     atom:    4    charge:    1.9813    magn:   -0.0001    constr:    0.0000
     atom:    5    charge:    3.1166    magn:    0.0000    constr:    0.0000
     atom:    6    charge:    1.9789    magn:   -0.0001    constr:    0.0000
     atom:    7    charge:    3.1155    magn:    0.0001    constr:    0.0000
     atom:    8    charge:    1.9767    magn:   -0.0001    constr:    0.0000
     atom:    9    charge:    3.1250    magn:   -0.0002    constr:    0.0000
     atom:   10    charge:    1.9767    magn:    0.0000    constr:    0.0000
     atom:   11    charge:    3.1197    magn:    0.0000    constr:    0.0000
     atom:   12    charge:    1.9813    magn:   -0.0001    constr:    0.0000
     atom:   13    charge:    3.1158    magn:    0.0000    constr:    0.0000
     atom:   14    charge:    1.9893    magn:   -0.0001    constr:    0.0000
     atom:   15    charge:    3.1189    magn:    0.0001    constr:    0.0000
     atom:   16    charge:    1.9767    magn:   -0.0001    constr:    0.0000
     atom:   17    charge:    1.9507    magn:    0.0005    constr:    0.0000
     atom:   18    charge:    3.1240    magn:   -0.0001    constr:    0.0000
     atom:   19    charge:    1.9739    magn:   -0.0000    constr:    0.0000
     atom:   20    charge:    1.9784    magn:    0.0000    constr:    0.0000
     atom:   21    charge:    1.9784    magn:    0.0000    constr:    0.0000
     atom:   22    charge:    3.1196    magn:    0.0000    constr:    0.0000
     atom:   23    charge:    1.9876    magn:   -0.0001    constr:    0.0000
     atom:   24    charge:    1.9693    magn:   -0.0001    constr:    0.0000
     atom:   25    charge:    1.9814    magn:   -0.0001    constr:    0.0000
     atom:   26    charge:    3.1145    magn:    0.0001    constr:    0.0000
     atom:   27    charge:    1.9721    magn:   -0.0001    constr:    0.0000
     atom:   28    charge:    1.9827    magn:   -0.0001    constr:    0.0000
     atom:   29    charge:    1.9789    magn:   -0.0001    constr:    0.0000
     atom:   30    charge:    3.1166    magn:    0.0000    constr:    0.0000
     atom:   31    charge:    1.9754    magn:   -0.0000    constr:    0.0000
     atom:   32    charge:    1.9760    magn:   -0.0001    constr:    0.0000
     atom:   33    charge:    1.9507    magn:    0.0005    constr:    0.0000
     atom:   34    charge:    3.1240    magn:   -0.0001    constr:    0.0000
     atom:   35    charge:    1.9740    magn:   -0.0000    constr:    0.0000
     atom:   36    charge:    1.9784    magn:    0.0000    constr:    0.0000
     atom:   37    charge:    1.9784    magn:    0.0000    constr:    0.0000
     atom:   38    charge:    3.1196    magn:    0.0000    constr:    0.0000
     atom:   39    charge:    1.9859    magn:   -0.0001    constr:    0.0000
     atom:   40    charge:    1.9697    magn:   -0.0001    constr:    0.0000
     atom:   41    charge:    1.9814    magn:   -0.0001    constr:    0.0000
     atom:   42    charge:    3.1141    magn:    0.0001    constr:    0.0000
     atom:   43    charge:    1.9726    magn:   -0.0001    constr:    0.0000
     atom:   44    charge:    1.9828    magn:   -0.0001    constr:    0.0000
     atom:   45    charge:    1.9786    magn:   -0.0001    constr:    0.0000
     atom:   46    charge:    3.1164    magn:    0.0000    constr:    0.0000
     atom:   47    charge:    1.9731    magn:   -0.0000    constr:    0.0000
     atom:   48    charge:    1.9763    magn:   -0.0001    constr:    0.0000
     atom:   49    charge:    0.6583    magn:   -0.0001    constr:    0.0000
     atom:   50    charge:    1.9898    magn:   -0.0001    constr:    0.0000
     atom:   51    charge:    0.4084    magn:    0.0000    constr:    0.0000
     atom:   52    charge:    0.4013    magn:    0.0000    constr:    0.0000
     atom:   53    charge:    0.4097    magn:    0.0000    constr:    0.0000
     atom:   54    charge:    0.4102    magn:    0.0000    constr:    0.0000

     total cpu time spent up to now is     1003.0 secs

     total energy              =   -3021.42003946 Ry
     Harris-Foulkes estimate   =   -3021.42017729 Ry
     estimated scf accuracy    <       0.00133881 Ry

     total magnetization       =     0.00 Bohr mag/cell
     absolute magnetization    =     0.01 Bohr mag/cell

     iteration #  2     ecut=    40.42 Ry     beta=0.10
     Davidson diagonalization with overlap
     ethr =  3.36E-07,  avg # of iterations =  2.0

     negative rho (up, down):  1.209E-02 1.209E-02
 
     Magnetic moment per site:
     atom:    1    charge:    3.1250    magn:   -0.0002    constr:    0.0000
     atom:    2    charge:    1.9767    magn:    0.0000    constr:    0.0000
     atom:    3    charge:    3.1197    magn:    0.0000    constr:    0.0000
     atom:    4    charge:    1.9813    magn:   -0.0000    constr:    0.0000
     atom:    5    charge:    3.1166    magn:    0.0000    constr:    0.0000
     atom:    6    charge:    1.9789    magn:   -0.0001    constr:    0.0000
     atom:    7    charge:    3.1154    magn:    0.0001    constr:    0.0000
     atom:    8    charge:    1.9767    magn:   -0.0001    constr:    0.0000
     atom:    9    charge:    3.1250    magn:   -0.0002    constr:    0.0000
     atom:   10    charge:    1.9767    magn:    0.0000    constr:    0.0000
     atom:   11    charge:    3.1197    magn:    0.0000    constr:    0.0000
     atom:   12    charge:    1.9813    magn:   -0.0000    constr:    0.0000
     atom:   13    charge:    3.1158    magn:    0.0000    constr:    0.0000
     atom:   14    charge:    1.9893    magn:   -0.0001    constr:    0.0000
     atom:   15    charge:    3.1189    magn:    0.0001    constr:    0.0000
     atom:   16    charge:    1.9768    magn:   -0.0001    constr:    0.0000
     atom:   17    charge:    1.9506    magn:    0.0004    constr:    0.0000
     atom:   18    charge:    3.1240    magn:   -0.0001    constr:    0.0000
     atom:   19    charge:    1.9740    magn:   -0.0000    constr:    0.0000
     atom:   20    charge:    1.9784    magn:    0.0000    constr:    0.0000
     atom:   21    charge:    1.9784    magn:    0.0000    constr:    0.0000
     atom:   22    charge:    3.1196    magn:    0.0000    constr:    0.0000
     atom:   23    charge:    1.9876    magn:   -0.0001    constr:    0.0000
     atom:   24    charge:    1.9693    magn:   -0.0001    constr:    0.0000
     atom:   25    charge:    1.9814    magn:   -0.0001    constr:    0.0000
     atom:   26    charge:    3.1145    magn:    0.0000    constr:    0.0000
     atom:   27    charge:    1.9721    magn:   -0.0001    constr:    0.0000
     atom:   28    charge:    1.9827    magn:   -0.0001    constr:    0.0000
     atom:   29    charge:    1.9789    magn:   -0.0001    constr:    0.0000
     atom:   30    charge:    3.1166    magn:    0.0000    constr:    0.0000
     atom:   31    charge:    1.9754    magn:   -0.0000    constr:    0.0000
     atom:   32    charge:    1.9759    magn:   -0.0001    constr:    0.0000
     atom:   33    charge:    1.9506    magn:    0.0004    constr:    0.0000
     atom:   34    charge:    3.1240    magn:   -0.0001    constr:    0.0000
     atom:   35    charge:    1.9740    magn:   -0.0000    constr:    0.0000
     atom:   36    charge:    1.9784    magn:    0.0000    constr:    0.0000
     atom:   37    charge:    1.9784    magn:    0.0000    constr:    0.0000
     atom:   38    charge:    3.1196    magn:    0.0000    constr:    0.0000
     atom:   39    charge:    1.9860    magn:   -0.0001    constr:    0.0000
     atom:   40    charge:    1.9697    magn:   -0.0001    constr:    0.0000
     atom:   41    charge:    1.9814    magn:   -0.0001    constr:    0.0000
     atom:   42    charge:    3.1141    magn:    0.0000    constr:    0.0000
     atom:   43    charge:    1.9726    magn:   -0.0001    constr:    0.0000
     atom:   44    charge:    1.9828    magn:   -0.0001    constr:    0.0000
     atom:   45    charge:    1.9786    magn:   -0.0001    constr:    0.0000
     atom:   46    charge:    3.1164    magn:    0.0000    constr:    0.0000
     atom:   47    charge:    1.9731    magn:   -0.0000    constr:    0.0000
     atom:   48    charge:    1.9762    magn:   -0.0001    constr:    0.0000
     atom:   49    charge:    0.6586    magn:   -0.0000    constr:    0.0000
     atom:   50    charge:    1.9884    magn:   -0.0001    constr:    0.0000
     atom:   51    charge:    0.4084    magn:    0.0000    constr:    0.0000
     atom:   52    charge:    0.4015    magn:    0.0000    constr:    0.0000
     atom:   53    charge:    0.4098    magn:    0.0000    constr:    0.0000
     atom:   54    charge:    0.4103    magn:    0.0000    constr:    0.0000

     total cpu time spent up to now is     1191.2 secs

     total energy              =   -3021.41992460 Ry
     Harris-Foulkes estimate   =   -3021.42006100 Ry
     estimated scf accuracy    <       0.00077652 Ry

     total magnetization       =     0.00 Bohr mag/cell
     absolute magnetization    =     0.01 Bohr mag/cell

     iteration #  3     ecut=    40.42 Ry     beta=0.10
     Davidson diagonalization with overlap
     ethr =  1.95E-07,  avg # of iterations =  3.0

     negative rho (up, down):  1.208E-02 1.208E-02
 
     Magnetic moment per site:
     atom:    1    charge:    3.1250    magn:   -0.0001    constr:    0.0000
     atom:    2    charge:    1.9767    magn:    0.0000    constr:    0.0000
     atom:    3    charge:    3.1198    magn:    0.0000    constr:    0.0000
     atom:    4    charge:    1.9813    magn:   -0.0000    constr:    0.0000
     atom:    5    charge:    3.1166    magn:    0.0000    constr:    0.0000
     atom:    6    charge:    1.9789    magn:   -0.0001    constr:    0.0000
     atom:    7    charge:    3.1157    magn:    0.0000    constr:    0.0000
     atom:    8    charge:    1.9766    magn:   -0.0001    constr:    0.0000
     atom:    9    charge:    3.1250    magn:   -0.0001    constr:    0.0000
     atom:   10    charge:    1.9767    magn:    0.0000    constr:    0.0000
     atom:   11    charge:    3.1197    magn:    0.0000    constr:    0.0000
     atom:   12    charge:    1.9813    magn:   -0.0000    constr:    0.0000
     atom:   13    charge:    3.1158    magn:    0.0000    constr:    0.0000
     atom:   14    charge:    1.9893    magn:   -0.0001    constr:    0.0000
     atom:   15    charge:    3.1188    magn:    0.0000    constr:    0.0000
     atom:   16    charge:    1.9767    magn:   -0.0001    constr:    0.0000
     atom:   17    charge:    1.9505    magn:    0.0003    constr:    0.0000
     atom:   18    charge:    3.1239    magn:   -0.0001    constr:    0.0000
     atom:   19    charge:    1.9740    magn:   -0.0000    constr:    0.0000
     atom:   20    charge:    1.9784    magn:    0.0000    constr:    0.0000
     atom:   21    charge:    1.9784    magn:    0.0000    constr:    0.0000
     atom:   22    charge:    3.1196    magn:    0.0000    constr:    0.0000
     atom:   23    charge:    1.9876    magn:   -0.0001    constr:    0.0000
     atom:   24    charge:    1.9694    magn:   -0.0000    constr:    0.0000
     atom:   25    charge:    1.9814    magn:   -0.0000    constr:    0.0000
     atom:   26    charge:    3.1145    magn:    0.0000    constr:    0.0000
     atom:   27    charge:    1.9722    magn:   -0.0000    constr:    0.0000
     atom:   28    charge:    1.9827    magn:   -0.0001    constr:    0.0000
     atom:   29    charge:    1.9789    magn:   -0.0001    constr:    0.0000
     atom:   30    charge:    3.1167    magn:    0.0000    constr:    0.0000
     atom:   31    charge:    1.9753    magn:   -0.0000    constr:    0.0000
     atom:   32    charge:    1.9760    magn:   -0.0001    constr:    0.0000
     atom:   33    charge:    1.9505    magn:    0.0003    constr:    0.0000
     atom:   34    charge:    3.1239    magn:   -0.0001    constr:    0.0000
     atom:   35    charge:    1.9740    magn:   -0.0000    constr:    0.0000
     atom:   36    charge:    1.9784    magn:    0.0000    constr:    0.0000
     atom:   37    charge:    1.9784    magn:    0.0000    constr:    0.0000
     atom:   38    charge:    3.1196    magn:    0.0000    constr:    0.0000
     atom:   39    charge:    1.9859    magn:   -0.0001    constr:    0.0000
     atom:   40    charge:    1.9698    magn:   -0.0000    constr:    0.0000
     atom:   41    charge:    1.9814    magn:   -0.0000    constr:    0.0000
     atom:   42    charge:    3.1141    magn:    0.0000    constr:    0.0000
     atom:   43    charge:    1.9726    magn:   -0.0000    constr:    0.0000
     atom:   44    charge:    1.9828    magn:   -0.0001    constr:    0.0000
     atom:   45    charge:    1.9786    magn:   -0.0001    constr:    0.0000
     atom:   46    charge:    3.1165    magn:    0.0000    constr:    0.0000
     atom:   47    charge:    1.9729    magn:   -0.0000    constr:    0.0000
     atom:   48    charge:    1.9764    magn:   -0.0001    constr:    0.0000
     atom:   49    charge:    0.6587    magn:   -0.0000    constr:    0.0000
     atom:   50    charge:    1.9879    magn:   -0.0000    constr:    0.0000
     atom:   51    charge:    0.4084    magn:    0.0000    constr:    0.0000
     atom:   52    charge:    0.4017    magn:    0.0000    constr:    0.0000
     atom:   53    charge:    0.4098    magn:    0.0000    constr:    0.0000
     atom:   54    charge:    0.4103    magn:    0.0000    constr:    0.0000

     total cpu time spent up to now is     1395.5 secs

     total energy              =   -3021.41993633 Ry
     Harris-Foulkes estimate   =   -3021.41996528 Ry
     estimated scf accuracy    <       0.00028367 Ry

     total magnetization       =     0.00 Bohr mag/cell
     absolute magnetization    =     0.00 Bohr mag/cell

     iteration #  4     ecut=    40.42 Ry     beta=0.10
     Davidson diagonalization with overlap
     ethr =  7.13E-08,  avg # of iterations =  3.8

     negative rho (up, down):  1.208E-02 1.208E-02
 
     Magnetic moment per site:
     atom:    1    charge:    3.1250    magn:   -0.0001    constr:    0.0000
     atom:    2    charge:    1.9767    magn:    0.0000    constr:    0.0000
     atom:    3    charge:    3.1198    magn:    0.0000    constr:    0.0000
     atom:    4    charge:    1.9813    magn:   -0.0000    constr:    0.0000
     atom:    5    charge:    3.1166    magn:    0.0000    constr:    0.0000
     atom:    6    charge:    1.9789    magn:   -0.0000    constr:    0.0000
     atom:    7    charge:    3.1158    magn:    0.0000    constr:    0.0000
     atom:    8    charge:    1.9765    magn:   -0.0000    constr:    0.0000
     atom:    9    charge:    3.1250    magn:   -0.0001    constr:    0.0000
     atom:   10    charge:    1.9767    magn:    0.0000    constr:    0.0000
     atom:   11    charge:    3.1197    magn:    0.0000    constr:    0.0000
     atom:   12    charge:    1.9813    magn:   -0.0000    constr:    0.0000
     atom:   13    charge:    3.1158    magn:    0.0000    constr:    0.0000
     atom:   14    charge:    1.9893    magn:   -0.0001    constr:    0.0000
     atom:   15    charge:    3.1188    magn:    0.0000    constr:    0.0000
     atom:   16    charge:    1.9766    magn:   -0.0000    constr:    0.0000
     atom:   17    charge:    1.9505    magn:    0.0003    constr:    0.0000
     atom:   18    charge:    3.1239    magn:   -0.0000    constr:    0.0000
     atom:   19    charge:    1.9739    magn:   -0.0000    constr:    0.0000
     atom:   20    charge:    1.9784    magn:    0.0000    constr:    0.0000
     atom:   21    charge:    1.9784    magn:    0.0000    constr:    0.0000
     atom:   22    charge:    3.1196    magn:    0.0000    constr:    0.0000
     atom:   23    charge:    1.9875    magn:   -0.0000    constr:    0.0000
     atom:   24    charge:    1.9694    magn:   -0.0000    constr:    0.0000
     atom:   25    charge:    1.9814    magn:   -0.0000    constr:    0.0000
     atom:   26    charge:    3.1145    magn:    0.0000    constr:    0.0000
     atom:   27    charge:    1.9722    magn:   -0.0000    constr:    0.0000
     atom:   28    charge:    1.9827    magn:   -0.0000    constr:    0.0000
     atom:   29    charge:    1.9789    magn:   -0.0001    constr:    0.0000
     atom:   30    charge:    3.1167    magn:    0.0000    constr:    0.0000
     atom:   31    charge:    1.9754    magn:   -0.0000    constr:    0.0000
     atom:   32    charge:    1.9762    magn:   -0.0000    constr:    0.0000
     atom:   33    charge:    1.9505    magn:    0.0003    constr:    0.0000
     atom:   34    charge:    3.1239    magn:   -0.0000    constr:    0.0000
     atom:   35    charge:    1.9740    magn:   -0.0000    constr:    0.0000
     atom:   36    charge:    1.9784    magn:    0.0000    constr:    0.0000
     atom:   37    charge:    1.9784    magn:    0.0000    constr:    0.0000
     atom:   38    charge:    3.1196    magn:    0.0000    constr:    0.0000
     atom:   39    charge:    1.9859    magn:   -0.0000    constr:    0.0000
     atom:   40    charge:    1.9697    magn:   -0.0000    constr:    0.0000
     atom:   41    charge:    1.9814    magn:   -0.0000    constr:    0.0000
     atom:   42    charge:    3.1141    magn:    0.0000    constr:    0.0000
     atom:   43    charge:    1.9726    magn:   -0.0000    constr:    0.0000
     atom:   44    charge:    1.9828    magn:   -0.0000    constr:    0.0000
     atom:   45    charge:    1.9786    magn:   -0.0001    constr:    0.0000
     atom:   46    charge:    3.1165    magn:    0.0000    constr:    0.0000
     atom:   47    charge:    1.9728    magn:   -0.0000    constr:    0.0000
     atom:   48    charge:    1.9765    magn:   -0.0000    constr:    0.0000
     atom:   49    charge:    0.6585    magn:   -0.0000    constr:    0.0000
     atom:   50    charge:    1.9882    magn:   -0.0000    constr:    0.0000
     atom:   51    charge:    0.4084    magn:    0.0000    constr:    0.0000
     atom:   52    charge:    0.4017    magn:    0.0000    constr:    0.0000
     atom:   53    charge:    0.4098    magn:    0.0000    constr:    0.0000
     atom:   54    charge:    0.4103    magn:    0.0000    constr:    0.0000

     total cpu time spent up to now is     1609.7 secs

     total energy              =   -3021.41995400 Ry
     Harris-Foulkes estimate   =   -3021.41995024 Ry
     estimated scf accuracy    <       0.00008758 Ry

     total magnetization       =     0.00 Bohr mag/cell
     absolute magnetization    =     0.00 Bohr mag/cell

     iteration #  5     ecut=    40.42 Ry     beta=0.10
     Davidson diagonalization with overlap
     ethr =  2.20E-08,  avg # of iterations =  3.0

     negative rho (up, down):  1.209E-02 1.209E-02
 
     Magnetic moment per site:
     atom:    1    charge:    3.1250    magn:   -0.0001    constr:    0.0000
     atom:    2    charge:    1.9767    magn:    0.0000    constr:    0.0000
     atom:    3    charge:    3.1197    magn:    0.0000    constr:    0.0000
     atom:    4    charge:    1.9813    magn:   -0.0000    constr:    0.0000
     atom:    5    charge:    3.1166    magn:    0.0000    constr:    0.0000
     atom:    6    charge:    1.9789    magn:   -0.0000    constr:    0.0000
     atom:    7    charge:    3.1157    magn:    0.0000    constr:    0.0000
     atom:    8    charge:    1.9766    magn:   -0.0000    constr:    0.0000
     atom:    9    charge:    3.1250    magn:   -0.0001    constr:    0.0000
     atom:   10    charge:    1.9767    magn:    0.0000    constr:    0.0000
     atom:   11    charge:    3.1197    magn:    0.0000    constr:    0.0000
     atom:   12    charge:    1.9813    magn:   -0.0000    constr:    0.0000
     atom:   13    charge:    3.1158    magn:    0.0000    constr:    0.0000
     atom:   14    charge:    1.9893    magn:   -0.0000    constr:    0.0000
     atom:   15    charge:    3.1188    magn:    0.0000    constr:    0.0000
     atom:   16    charge:    1.9767    magn:   -0.0000    constr:    0.0000
     atom:   17    charge:    1.9506    magn:    0.0002    constr:    0.0000
     atom:   18    charge:    3.1239    magn:   -0.0000    constr:    0.0000
     atom:   19    charge:    1.9739    magn:   -0.0000    constr:    0.0000
     atom:   20    charge:    1.9784    magn:    0.0000    constr:    0.0000
     atom:   21    charge:    1.9784    magn:    0.0000    constr:    0.0000
     atom:   22    charge:    3.1196    magn:    0.0000    constr:    0.0000
     atom:   23    charge:    1.9876    magn:   -0.0000    constr:    0.0000
     atom:   24    charge:    1.9693    magn:   -0.0000    constr:    0.0000
     atom:   25    charge:    1.9814    magn:   -0.0000    constr:    0.0000
     atom:   26    charge:    3.1145    magn:    0.0000    constr:    0.0000
     atom:   27    charge:    1.9721    magn:   -0.0000    constr:    0.0000
     atom:   28    charge:    1.9827    magn:   -0.0000    constr:    0.0000
     atom:   29    charge:    1.9789    magn:   -0.0000    constr:    0.0000
     atom:   30    charge:    3.1167    magn:    0.0000    constr:    0.0000
     atom:   31    charge:    1.9754    magn:   -0.0000    constr:    0.0000
     atom:   32    charge:    1.9762    magn:   -0.0000    constr:    0.0000
     atom:   33    charge:    1.9506    magn:    0.0002    constr:    0.0000
     atom:   34    charge:    3.1239    magn:   -0.0000    constr:    0.0000
     atom:   35    charge:    1.9740    magn:   -0.0000    constr:    0.0000
     atom:   36    charge:    1.9784    magn:    0.0000    constr:    0.0000
     atom:   37    charge:    1.9784    magn:    0.0000    constr:    0.0000
     atom:   38    charge:    3.1196    magn:    0.0000    constr:    0.0000
     atom:   39    charge:    1.9859    magn:   -0.0000    constr:    0.0000
     atom:   40    charge:    1.9697    magn:   -0.0000    constr:    0.0000
     atom:   41    charge:    1.9814    magn:   -0.0000    constr:    0.0000
     atom:   42    charge:    3.1141    magn:    0.0000    constr:    0.0000
     atom:   43    charge:    1.9726    magn:   -0.0000    constr:    0.0000
     atom:   44    charge:    1.9828    magn:   -0.0000    constr:    0.0000
     atom:   45    charge:    1.9786    magn:   -0.0000    constr:    0.0000
     atom:   46    charge:    3.1165    magn:    0.0000    constr:    0.0000
     atom:   47    charge:    1.9729    magn:   -0.0000    constr:    0.0000
     atom:   48    charge:    1.9765    magn:   -0.0000    constr:    0.0000
     atom:   49    charge:    0.6583    magn:   -0.0000    constr:    0.0000
     atom:   50    charge:    1.9891    magn:   -0.0000    constr:    0.0000
     atom:   51    charge:    0.4085    magn:    0.0000    constr:    0.0000
     atom:   52    charge:    0.4017    magn:    0.0000    constr:    0.0000
     atom:   53    charge:    0.4098    magn:    0.0000    constr:    0.0000
     atom:   54    charge:    0.4103    magn:    0.0000    constr:    0.0000

     total cpu time spent up to now is     1812.4 secs

     total energy              =   -3021.41995668 Ry
     Harris-Foulkes estimate   =   -3021.41995771 Ry
     estimated scf accuracy    <       0.00002626 Ry

     total magnetization       =     0.00 Bohr mag/cell
     absolute magnetization    =     0.00 Bohr mag/cell

     iteration #  6     ecut=    40.42 Ry     beta=0.10
     Davidson diagonalization with overlap
     ethr =  6.60E-09,  avg # of iterations =  3.5

     negative rho (up, down):  1.209E-02 1.209E-02
 
     Magnetic moment per site:
     atom:    1    charge:    3.1250    magn:   -0.0001    constr:    0.0000
     atom:    2    charge:    1.9767    magn:    0.0000    constr:    0.0000
     atom:    3    charge:    3.1198    magn:    0.0000    constr:    0.0000
     atom:    4    charge:    1.9813    magn:   -0.0000    constr:    0.0000
     atom:    5    charge:    3.1166    magn:    0.0000    constr:    0.0000
     atom:    6    charge:    1.9789    magn:   -0.0000    constr:    0.0000
     atom:    7    charge:    3.1157    magn:    0.0000    constr:    0.0000
     atom:    8    charge:    1.9766    magn:   -0.0000    constr:    0.0000
     atom:    9    charge:    3.1250    magn:   -0.0001    constr:    0.0000
     atom:   10    charge:    1.9767    magn:    0.0000    constr:    0.0000
     atom:   11    charge:    3.1197    magn:    0.0000    constr:    0.0000
     atom:   12    charge:    1.9813    magn:   -0.0000    constr:    0.0000
     atom:   13    charge:    3.1158    magn:    0.0000    constr:    0.0000
     atom:   14    charge:    1.9893    magn:   -0.0000    constr:    0.0000
     atom:   15    charge:    3.1188    magn:    0.0000    constr:    0.0000
     atom:   16    charge:    1.9767    magn:   -0.0000    constr:    0.0000
     atom:   17    charge:    1.9506    magn:    0.0002    constr:    0.0000
     atom:   18    charge:    3.1239    magn:   -0.0000    constr:    0.0000
     atom:   19    charge:    1.9739    magn:   -0.0000    constr:    0.0000
     atom:   20    charge:    1.9784    magn:    0.0000    constr:    0.0000
     atom:   21    charge:    1.9784    magn:    0.0000    constr:    0.0000
     atom:   22    charge:    3.1196    magn:    0.0000    constr:    0.0000
     atom:   23    charge:    1.9876    magn:   -0.0000    constr:    0.0000
     atom:   24    charge:    1.9693    magn:   -0.0000    constr:    0.0000
     atom:   25    charge:    1.9814    magn:   -0.0000    constr:    0.0000
     atom:   26    charge:    3.1145    magn:    0.0000    constr:    0.0000
     atom:   27    charge:    1.9721    magn:   -0.0000    constr:    0.0000
     atom:   28    charge:    1.9827    magn:   -0.0000    constr:    0.0000
     atom:   29    charge:    1.9789    magn:   -0.0000    constr:    0.0000
     atom:   30    charge:    3.1167    magn:    0.0000    constr:    0.0000
     atom:   31    charge:    1.9754    magn:   -0.0000    constr:    0.0000
     atom:   32    charge:    1.9761    magn:   -0.0000    constr:    0.0000
     atom:   33    charge:    1.9506    magn:    0.0002    constr:    0.0000
     atom:   34    charge:    3.1239    magn:   -0.0000    constr:    0.0000
     atom:   35    charge:    1.9740    magn:   -0.0000    constr:    0.0000
     atom:   36    charge:    1.9784    magn:    0.0000    constr:    0.0000
     atom:   37    charge:    1.9784    magn:    0.0000    constr:    0.0000
     atom:   38    charge:    3.1196    magn:    0.0000    constr:    0.0000
     atom:   39    charge:    1.9859    magn:   -0.0000    constr:    0.0000
     atom:   40    charge:    1.9697    magn:   -0.0000    constr:    0.0000
     atom:   41    charge:    1.9814    magn:   -0.0000    constr:    0.0000
     atom:   42    charge:    3.1141    magn:    0.0000    constr:    0.0000
     atom:   43    charge:    1.9726    magn:   -0.0000    constr:    0.0000
     atom:   44    charge:    1.9828    magn:   -0.0000    constr:    0.0000
     atom:   45    charge:    1.9786    magn:   -0.0000    constr:    0.0000
     atom:   46    charge:    3.1165    magn:    0.0000    constr:    0.0000
     atom:   47    charge:    1.9729    magn:   -0.0000    constr:    0.0000
     atom:   48    charge:    1.9764    magn:   -0.0000    constr:    0.0000
     atom:   49    charge:    0.6583    magn:   -0.0000    constr:    0.0000
     atom:   50    charge:    1.9889    magn:   -0.0000    constr:    0.0000
     atom:   51    charge:    0.4085    magn:    0.0000    constr:    0.0000
     atom:   52    charge:    0.4017    magn:    0.0000    constr:    0.0000
     atom:   53    charge:    0.4098    magn:    0.0000    constr:    0.0000
     atom:   54    charge:    0.4103    magn:    0.0000    constr:    0.0000

     total cpu time spent up to now is     2026.6 secs

     total energy              =   -3021.41995974 Ry
     Harris-Foulkes estimate   =   -3021.41995953 Ry
     estimated scf accuracy    <       0.00000503 Ry

     total magnetization       =     0.00 Bohr mag/cell
     absolute magnetization    =     0.00 Bohr mag/cell

     iteration #  7     ecut=    40.42 Ry     beta=0.10
     Davidson diagonalization with overlap
     ethr =  1.26E-09,  avg # of iterations =  3.0

     negative rho (up, down):  1.209E-02 1.209E-02
 
     Magnetic moment per site:
     atom:    1    charge:    3.1250    magn:   -0.0000    constr:    0.0000
     atom:    2    charge:    1.9767    magn:    0.0000    constr:    0.0000
     atom:    3    charge:    3.1198    magn:    0.0000    constr:    0.0000
     atom:    4    charge:    1.9813    magn:   -0.0000    constr:    0.0000
     atom:    5    charge:    3.1166    magn:    0.0000    constr:    0.0000
     atom:    6    charge:    1.9789    magn:   -0.0000    constr:    0.0000
     atom:    7    charge:    3.1157    magn:    0.0000    constr:    0.0000
     atom:    8    charge:    1.9766    magn:   -0.0000    constr:    0.0000
     atom:    9    charge:    3.1250    magn:   -0.0000    constr:    0.0000
     atom:   10    charge:    1.9767    magn:    0.0000    constr:    0.0000
     atom:   11    charge:    3.1197    magn:    0.0000    constr:    0.0000
     atom:   12    charge:    1.9813    magn:   -0.0000    constr:    0.0000
     atom:   13    charge:    3.1158    magn:    0.0000    constr:    0.0000
     atom:   14    charge:    1.9893    magn:   -0.0000    constr:    0.0000
     atom:   15    charge:    3.1189    magn:    0.0000    constr:    0.0000
     atom:   16    charge:    1.9767    magn:   -0.0000    constr:    0.0000
     atom:   17    charge:    1.9506    magn:    0.0001    constr:    0.0000
     atom:   18    charge:    3.1239    magn:   -0.0000    constr:    0.0000
     atom:   19    charge:    1.9739    magn:   -0.0000    constr:    0.0000
     atom:   20    charge:    1.9784    magn:    0.0000    constr:    0.0000
     atom:   21    charge:    1.9784    magn:    0.0000    constr:    0.0000
     atom:   22    charge:    3.1196    magn:    0.0000    constr:    0.0000
     atom:   23    charge:    1.9876    magn:   -0.0000    constr:    0.0000
     atom:   24    charge:    1.9693    magn:   -0.0000    constr:    0.0000
     atom:   25    charge:    1.9814    magn:   -0.0000    constr:    0.0000
     atom:   26    charge:    3.1145    magn:    0.0000    constr:    0.0000
     atom:   27    charge:    1.9721    magn:   -0.0000    constr:    0.0000
     atom:   28    charge:    1.9827    magn:   -0.0000    constr:    0.0000
     atom:   29    charge:    1.9789    magn:   -0.0000    constr:    0.0000
     atom:   30    charge:    3.1167    magn:    0.0000    constr:    0.0000
     atom:   31    charge:    1.9755    magn:   -0.0000    constr:    0.0000
     atom:   32    charge:    1.9761    magn:   -0.0000    constr:    0.0000
     atom:   33    charge:    1.9506    magn:    0.0001    constr:    0.0000
     atom:   34    charge:    3.1239    magn:   -0.0000    constr:    0.0000
     atom:   35    charge:    1.9740    magn:   -0.0000    constr:    0.0000
     atom:   36    charge:    1.9784    magn:    0.0000    constr:    0.0000
     atom:   37    charge:    1.9784    magn:    0.0000    constr:    0.0000
     atom:   38    charge:    3.1196    magn:    0.0000    constr:    0.0000
     atom:   39    charge:    1.9859    magn:   -0.0000    constr:    0.0000
     atom:   40    charge:    1.9697    magn:   -0.0000    constr:    0.0000
     atom:   41    charge:    1.9814    magn:   -0.0000    constr:    0.0000
     atom:   42    charge:    3.1141    magn:    0.0000    constr:    0.0000
     atom:   43    charge:    1.9726    magn:   -0.0000    constr:    0.0000
     atom:   44    charge:    1.9828    magn:   -0.0000    constr:    0.0000
     atom:   45    charge:    1.9786    magn:   -0.0000    constr:    0.0000
     atom:   46    charge:    3.1165    magn:    0.0000    constr:    0.0000
     atom:   47    charge:    1.9730    magn:   -0.0000    constr:    0.0000
     atom:   48    charge:    1.9764    magn:   -0.0000    constr:    0.0000
     atom:   49    charge:    0.6583    magn:   -0.0000    constr:    0.0000
     atom:   50    charge:    1.9890    magn:   -0.0000    constr:    0.0000
     atom:   51    charge:    0.4085    magn:    0.0000    constr:    0.0000
     atom:   52    charge:    0.4017    magn:    0.0000    constr:    0.0000
     atom:   53    charge:    0.4098    magn:    0.0000    constr:    0.0000
     atom:   54    charge:    0.4103    magn:    0.0000    constr:    0.0000

     total cpu time spent up to now is     2231.3 secs

     total energy              =   -3021.41995971 Ry
     Harris-Foulkes estimate   =   -3021.41996006 Ry
     estimated scf accuracy    <       0.00000248 Ry

     total magnetization       =     0.00 Bohr mag/cell
     absolute magnetization    =     0.00 Bohr mag/cell

     iteration #  8     ecut=    40.42 Ry     beta=0.10
     Davidson diagonalization with overlap
     ethr =  6.24E-10,  avg # of iterations =  3.0

     negative rho (up, down):  1.209E-02 1.209E-02
 
     Magnetic moment per site:
     atom:    1    charge:    3.1250    magn:   -0.0000    constr:    0.0000
     atom:    2    charge:    1.9767    magn:    0.0000    constr:    0.0000
     atom:    3    charge:    3.1198    magn:    0.0000    constr:    0.0000
     atom:    4    charge:    1.9813    magn:   -0.0000    constr:    0.0000
     atom:    5    charge:    3.1166    magn:    0.0000    constr:    0.0000
     atom:    6    charge:    1.9789    magn:   -0.0000    constr:    0.0000
     atom:    7    charge:    3.1157    magn:    0.0000    constr:    0.0000
     atom:    8    charge:    1.9766    magn:   -0.0000    constr:    0.0000
     atom:    9    charge:    3.1250    magn:   -0.0000    constr:    0.0000
     atom:   10    charge:    1.9767    magn:    0.0000    constr:    0.0000
     atom:   11    charge:    3.1197    magn:    0.0000    constr:    0.0000
     atom:   12    charge:    1.9813    magn:   -0.0000    constr:    0.0000
     atom:   13    charge:    3.1158    magn:    0.0000    constr:    0.0000
     atom:   14    charge:    1.9893    magn:   -0.0000    constr:    0.0000
     atom:   15    charge:    3.1188    magn:    0.0000    constr:    0.0000
     atom:   16    charge:    1.9767    magn:   -0.0000    constr:    0.0000
     atom:   17    charge:    1.9505    magn:    0.0001    constr:    0.0000
     atom:   18    charge:    3.1239    magn:   -0.0000    constr:    0.0000
     atom:   19    charge:    1.9740    magn:   -0.0000    constr:    0.0000
     atom:   20    charge:    1.9784    magn:    0.0000    constr:    0.0000
     atom:   21    charge:    1.9784    magn:    0.0000    constr:    0.0000
     atom:   22    charge:    3.1196    magn:    0.0000    constr:    0.0000
     atom:   23    charge:    1.9876    magn:   -0.0000    constr:    0.0000
     atom:   24    charge:    1.9693    magn:   -0.0000    constr:    0.0000
     atom:   25    charge:    1.9814    magn:   -0.0000    constr:    0.0000
     atom:   26    charge:    3.1145    magn:    0.0000    constr:    0.0000
     atom:   27    charge:    1.9721    magn:   -0.0000    constr:    0.0000
     atom:   28    charge:    1.9827    magn:   -0.0000    constr:    0.0000
     atom:   29    charge:    1.9789    magn:   -0.0000    constr:    0.0000
     atom:   30    charge:    3.1167    magn:    0.0000    constr:    0.0000
     atom:   31    charge:    1.9754    magn:   -0.0000    constr:    0.0000
     atom:   32    charge:    1.9761    magn:   -0.0000    constr:    0.0000
     atom:   33    charge:    1.9505    magn:    0.0001    constr:    0.0000
     atom:   34    charge:    3.1239    magn:   -0.0000    constr:    0.0000
     atom:   35    charge:    1.9740    magn:   -0.0000    constr:    0.0000
     atom:   36    charge:    1.9784    magn:    0.0000    constr:    0.0000
     atom:   37    charge:    1.9784    magn:    0.0000    constr:    0.0000
     atom:   38    charge:    3.1196    magn:    0.0000    constr:    0.0000
     atom:   39    charge:    1.9859    magn:   -0.0000    constr:    0.0000
     atom:   40    charge:    1.9697    magn:   -0.0000    constr:    0.0000
     atom:   41    charge:    1.9814    magn:   -0.0000    constr:    0.0000
     atom:   42    charge:    3.1141    magn:    0.0000    constr:    0.0000
     atom:   43    charge:    1.9726    magn:   -0.0000    constr:    0.0000
     atom:   44    charge:    1.9828    magn:   -0.0000    constr:    0.0000
     atom:   45    charge:    1.9786    magn:   -0.0000    constr:    0.0000
     atom:   46    charge:    3.1165    magn:    0.0000    constr:    0.0000
     atom:   47    charge:    1.9729    magn:   -0.0000    constr:    0.0000
     atom:   48    charge:    1.9764    magn:   -0.0000    constr:    0.0000
     atom:   49    charge:    0.6584    magn:   -0.0000    constr:    0.0000
     atom:   50    charge:    1.9887    magn:   -0.0000    constr:    0.0000
     atom:   51    charge:    0.4085    magn:    0.0000    constr:    0.0000
     atom:   52    charge:    0.4017    magn:    0.0000    constr:    0.0000
     atom:   53    charge:    0.4098    magn:    0.0000    constr:    0.0000
     atom:   54    charge:    0.4103    magn:    0.0000    constr:    0.0000

     total cpu time spent up to now is     2442.3 secs

     End of self-consistent calculation

 ------ SPIN UP ------------


          k = 0.0000 0.0000 0.0000 ( 34665 PWs)   bands (ev):

   -57.6941 -57.6592 -57.3124 -57.2761 -57.2284 -57.1050 -57.0687 -57.0678
   -57.0443 -57.0330 -56.9843 -56.9489 -56.7230 -56.6856 -56.1447 -56.1094
   -34.1302 -33.9763 -33.9478 -33.8951 -33.8647 -33.8008 -33.7404 -33.6481
   -33.6131 -33.6004 -33.5631 -33.5352 -33.5130 -33.5022 -33.4842 -33.4818
   -33.4598 -33.4490 -33.4249 -33.3941 -33.3195 -33.2873 -33.2670 -33.2578
   -33.2487 -33.2482 -33.2385 -33.2356 -33.2324 -33.2249 -33.2233 -33.2077
   -33.1746 -33.1742 -33.1700 -33.1350 -33.1126 -32.9893 -32.9710 -32.9500
   -32.9008 -32.7977 -32.5625 -32.4970 -32.4709 -32.3667 -32.2750 -32.1667
   -20.2876 -18.0072 -17.8366 -17.5517 -17.4561 -17.3671 -17.2467 -17.0726
   -17.0617 -16.9692 -16.9341 -16.8796 -16.7783 -16.7725 -16.7234 -16.7026
   -16.6967 -16.6568 -16.6065 -16.5980 -16.5313 -16.4099 -16.3964 -16.3934
   -16.3149 -16.2630 -16.1893 -16.1623 -16.1450 -15.9712 -15.9234 -14.7292
   -14.6455 -11.4221  -7.2203  -5.4691  -5.3910  -5.3101  -5.2085  -5.1997
    -5.1405  -5.1205  -4.8343  -4.8122  -4.4671  -4.4374  -4.3540  -4.3501
    -4.3165  -4.2279  -4.0847  -4.0554  -4.0499  -4.0129  -3.9940  -3.9859
    -3.9560  -3.9468  -3.9451  -3.8351  -3.7822  -3.7592  -3.7313  -3.7141
    -3.6270  -3.6115  -3.5813  -3.5723  -3.5151  -3.5031  -3.4037  -3.3899
    -3.3721  -3.2750  -3.2321  -3.1886  -3.0084  -2.9298  -2.8742  -2.8337
    -2.6908  -2.6010  -2.5852  -2.5755  -2.5676  -2.5627  -2.4256  -2.4091
    -2.3313  -2.2645  -2.2424  -2.1995  -2.1949  -2.1608  -2.1334  -2.0878
    -2.0426  -2.0250  -2.0149  -1.8832  -1.8608  -1.7571  -1.7305  -1.6194
    -1.5372  -1.5358  -1.4848  -1.4755  -1.4579  -1.4185  -1.3162  -1.3045
    -1.2972  -1.2746  -1.2375  -1.1299  -1.0813  -1.0769  -1.0618  -1.0116
    -0.9488  -0.9099  -0.8153  -0.7592  -0.6055  -0.5824  -0.5646  -0.4725
    -0.3707  -0.2376  -0.0802  -0.0212   0.1360   0.2528   0.2665   1.6473
     1.6798   1.9904   2.0067   2.0708   2.1014   2.2098   2.2492   2.2925
     2.4354   2.5025   2.5311   2.5354   2.5467   2.6362   2.6539   2.6621
     2.7207   2.8048   2.8337   2.8451   2.9172   3.0051   3.0392   3.1050
     3.1098   3.1198   3.1659   3.2070   3.2136   3.2313   3.2453   3.2572
     3.2653   3.2944   3.4033   3.4363   3.4626   3.4724   3.5331   3.5912
     3.6595   3.7002   3.8137   3.9857   4.0217   4.0987   4.1847   4.3181
     4.3447   4.3965   4.5787   4.6035   4.8134   4.8448   5.0913   5.1724
     5.2487   5.3354   5.4797   5.5222   5.5252   5.5998   5.6824   5.7180
     5.8047   5.8699   5.8818   5.8901   5.9600   6.0366   6.0528   6.0752
     6.1492   6.2341   6.2498   6.3027   6.3830   6.5831   6.6419   6.7573
     6.8470   6.9920   7.0395   7.1568   7.3071   7.5760   7.9060   8.2557
     8.3215   8.6624   8.7982   8.8707   8.9395   9.0059   9.1736   9.2551
     9.3551   9.3781   9.5233

          k = 0.0000 0.0280 0.0000 ( 34717 PWs)   bands (ev):

   -57.6918 -57.6615 -57.3100 -57.2785 -57.2280 -57.1027 -57.0707 -57.0657
   -57.0448 -57.0354 -56.9820 -56.9513 -56.7206 -56.6881 -56.1423 -56.1118
   -34.1049 -33.9743 -33.9497 -33.8889 -33.8387 -33.8073 -33.7674 -33.6255
   -33.6063 -33.5754 -33.5377 -33.5323 -33.5152 -33.4952 -33.4883 -33.4786
   -33.4668 -33.4571 -33.4229 -33.3872 -33.3133 -33.2855 -33.2808 -33.2593
   -33.2528 -33.2464 -33.2447 -33.2349 -33.2333 -33.2315 -33.2311 -33.2102
   -33.1979 -33.1795 -33.1714 -33.1392 -33.1357 -32.9854 -32.9696 -32.9514
   -32.9058 -32.8257 -32.5368 -32.4953 -32.4728 -32.3606 -32.2813 -32.1942
   -20.2874 -17.9454 -17.7790 -17.4987 -17.4039 -17.3235 -17.2200 -17.0860
   -17.0315 -16.9937 -16.9881 -16.8813 -16.8144 -16.7559 -16.7019 -16.6839
   -16.6708 -16.6579 -16.6497 -16.6372 -16.5902 -16.4338 -16.3778 -16.3636
   -16.3416 -16.2926 -16.2063 -16.1684 -16.1491 -16.0018 -15.9606 -14.7392
   -14.6689 -11.4217  -7.2199  -5.4346  -5.3098  -5.2480  -5.2130  -5.1250
    -5.0634  -5.0410  -4.7588  -4.6978  -4.4301  -4.3950  -4.3893  -4.3068
    -4.2959  -4.1553  -4.1184  -4.1089  -4.0866  -4.0656  -4.0273  -4.0248
    -3.9610  -3.9560  -3.9446  -3.8853  -3.8478  -3.8410  -3.8317  -3.7609
    -3.7171  -3.6999  -3.6609  -3.6111  -3.5703  -3.5519  -3.4263  -3.3566
    -3.3149  -3.2309  -3.2045  -3.0996  -2.9292  -2.8653  -2.7459  -2.7194
    -2.6090  -2.5969  -2.5207  -2.5046  -2.4726  -2.4332  -2.4074  -2.4031
    -2.3814  -2.3565  -2.2834  -2.2716  -2.1623  -2.1374  -2.1312  -2.0884
    -2.0172  -1.9925  -1.9489  -1.8720  -1.8057  -1.7631  -1.7016  -1.6767
    -1.6373  -1.6204  -1.5584  -1.5207  -1.4761  -1.4324  -1.4300  -1.3910
    -1.3485  -1.2667  -1.2128  -1.2080  -1.1531  -1.0846  -1.0645  -1.0170
    -1.0029  -0.8992  -0.8625  -0.7851  -0.7562  -0.7015  -0.6029  -0.5845
    -0.3890  -0.2657  -0.0870  -0.0754   0.1508   0.2064   0.2330   1.7336
     1.7796   1.9906   2.0704   2.1365   2.1564   2.2236   2.2792   2.3182
     2.4298   2.4662   2.5037   2.5410   2.5910   2.6078   2.6357   2.6966
     2.7379   2.7760   2.8026   2.9185   2.9282   2.9573   2.9821   3.0148
     3.1163   3.1223   3.1394   3.1799   3.1974   3.2110   3.2638   3.3099
     3.3404   3.3756   3.4130   3.4790   3.5122   3.5567   3.5677   3.6537
     3.6703   3.6920   3.7773   3.9656   4.0407   4.1189   4.1957   4.2923
     4.3279   4.3957   4.5456   4.6805   4.8662   4.9313   5.0951   5.2637
     5.3077   5.3399   5.5421   5.5693   5.6096   5.6229   5.6913   5.7240
     5.7891   5.7974   5.8568   5.8834   5.9017   5.9525   6.0721   6.1261
     6.1541   6.1632   6.1766   6.2115   6.2800   6.5611   6.6073   6.6990
     6.8471   6.9388   6.9702   7.0836   7.2354   7.5791   7.9119   8.0077
     8.0634   8.4593   8.5567   8.8298   8.9067   8.9966   9.0891   9.1307
     9.2720   9.4332   9.4920

          k = 0.0000 0.0560 0.0000 ( 34721 PWs)   bands (ev):

   -57.6854 -57.6679 -57.3034 -57.2850 -57.2271 -57.0967 -57.0768 -57.0593
   -57.0456 -57.0418 -56.9755 -56.9578 -56.7140 -56.6947 -56.1359 -56.1183
   -34.0351 -33.9690 -33.9547 -33.8719 -33.8404 -33.8248 -33.7677 -33.5907
   -33.5679 -33.5665 -33.5298 -33.5219 -33.5016 -33.4987 -33.4728 -33.4676
   -33.4514 -33.4200 -33.4131 -33.3677 -33.3100 -33.3082 -33.3080 -33.2968
   -33.2812 -33.2715 -33.2630 -33.2573 -33.2487 -33.2407 -33.2295 -33.2274
   -33.2045 -33.1925 -33.1648 -33.1588 -33.1193 -32.9803 -32.9660 -32.9547
   -32.9188 -32.8955 -32.4905 -32.4775 -32.4661 -32.3441 -32.2982 -32.2683
   -20.2871 -17.7743 -17.6204 -17.3673 -17.2704 -17.2546 -17.2135 -17.1622
   -17.1310 -16.9574 -16.9486 -16.9141 -16.8687 -16.8137 -16.7830 -16.7210
   -16.7113 -16.6784 -16.6186 -16.5921 -16.5331 -16.4992 -16.4164 -16.3732
   -16.3566 -16.2971 -16.2354 -16.1895 -16.1524 -16.1024 -16.0331 -14.7574
   -14.7195 -11.4209  -7.2190  -5.4018  -5.2241  -5.0717  -5.0327  -4.9188
    -4.8536  -4.8179  -4.5570  -4.5005  -4.4677  -4.4122  -4.4047  -4.3613
    -4.3260  -4.2552  -4.2297  -4.2068  -4.1914  -4.1815  -4.1503  -4.0704
    -4.0521  -4.0002  -3.9812  -3.9629  -3.9259  -3.8854  -3.8504  -3.8128
    -3.7917  -3.7261  -3.6306  -3.5811  -3.4290  -3.4218  -3.3471  -3.2628
    -3.2338  -3.2092  -3.1879  -3.0786  -2.8923  -2.8383  -2.8330  -2.7935
    -2.7171  -2.6636  -2.5436  -2.4685  -2.4406  -2.3174  -2.3103  -2.3063
    -2.2979  -2.2434  -2.2016  -2.1736  -2.1433  -2.1113  -2.0267  -2.0049
    -1.9553  -1.9421  -1.9111  -1.9004  -1.8784  -1.8438  -1.8113  -1.7780
    -1.7398  -1.6907  -1.6192  -1.5370  -1.5220  -1.5045  -1.4500  -1.4149
    -1.3747  -1.3595  -1.3442  -1.2853  -1.2325  -1.2113  -1.1514  -1.0985
    -1.0783  -1.0188  -0.9176  -0.8853  -0.8449  -0.7800  -0.7575  -0.6555
    -0.5818  -0.4579  -0.2366   0.0957   0.1480   0.1830   0.1897   1.8692
     2.0292   2.1028   2.1137   2.2150   2.2396   2.2742   2.3717   2.3941
     2.4004   2.4164   2.4398   2.4808   2.5078   2.5428   2.6792   2.7006
     2.7394   2.7799   2.8350   2.9089   2.9206   2.9438   2.9763   2.9794
     3.0210   3.1039   3.1432   3.1621   3.2555   3.2669   3.2914   3.3339
     3.3735   3.3920   3.4453   3.5422   3.5484   3.6422   3.6826   3.7330
     3.7666   3.8281   3.8637   3.8947   3.9379   4.1356   4.1470   4.1630
     4.3317   4.3801   4.5642   4.9066   5.0206   5.0530   5.1777   5.3828
     5.3864   5.4831   5.5231   5.5542   5.6535   5.7285   5.7289   5.7387
     5.7839   5.7920   5.8030   5.8605   5.8898   5.9457   5.9813   5.9902
     6.0066   6.0592   6.1596   6.1753   6.2968   6.3745   6.4084   6.6175
     6.6611   6.7852   6.8697   7.0447   7.2088   7.3367   7.4399   7.7252
     8.0766   8.2021   8.3337   8.6149   8.8828   8.9943   9.3101   9.3211
     9.4274   9.4380   9.5559

          k = 0.0000-0.0840 0.0000 ( 34678 PWs)   bands (ev):

   -57.6768 -57.6766 -57.2959 -57.2926 -57.2267 -57.0912 -57.0823 -57.0506
   -57.0506 -57.0460 -56.9672 -56.9661 -56.7069 -56.7019 -56.1271 -56.1271
   -33.9619 -33.9618 -33.9385 -33.9384 -33.8484 -33.8483 -33.6808 -33.6568
   -33.5606 -33.5577 -33.5240 -33.5126 -33.5082 -33.4732 -33.4485 -33.4179
   -33.4091 -33.4028 -33.3705 -33.3703 -33.3560 -33.3424 -33.3365 -33.3185
   -33.3171 -33.2801 -33.2734 -33.2712 -33.2644 -33.2607 -33.2280 -33.2262
   -33.2099 -33.2081 -33.1579 -33.1571 -33.0417 -33.0205 -32.9628 -32.9576
   -32.9325 -32.9298 -32.4840 -32.4840 -32.3682 -32.3681 -32.3211 -32.3211
   -20.2870 -17.5633 -17.5003 -17.4057 -17.3854 -17.2240 -17.1699 -17.0612
   -17.0563 -17.0104 -16.9974 -16.9840 -16.8669 -16.8350 -16.8350 -16.7962
   -16.7896 -16.5907 -16.5887 -16.5194 -16.5169 -16.4837 -16.4823 -16.3988
   -16.3960 -16.2574 -16.2550 -16.1960 -16.1925 -16.1237 -16.0958 -14.7562
   -14.7561 -11.4205  -7.2185  -5.3932  -5.2300  -4.7941  -4.7287  -4.7277
    -4.6506  -4.6367  -4.6323  -4.5971  -4.5684  -4.5035  -4.4957  -4.3956
    -4.3680  -4.3344  -4.3324  -4.3038  -4.2908  -4.2755  -4.2701  -4.0492
    -4.0275  -4.0181  -4.0048  -3.9872  -3.9361  -3.8042  -3.7875  -3.7826
    -3.7106  -3.6892  -3.6347  -3.5035  -3.4683  -3.3348  -3.3220  -3.2685
    -3.1336  -3.1114  -3.0381  -3.0142  -2.9570  -2.9225  -2.7994  -2.7830
    -2.6929  -2.6888  -2.5710  -2.5344  -2.5072  -2.4900  -2.4725  -2.4427
    -2.4334  -2.4135  -2.3248  -2.2415  -2.0234  -2.0026  -1.9617  -1.9364
    -1.9224  -1.8239  -1.8175  -1.8040  -1.7757  -1.7399  -1.7260  -1.6950
    -1.6599  -1.6351  -1.6104  -1.5528  -1.5095  -1.4828  -1.4764  -1.4469
    -1.4204  -1.4127  -1.4050  -1.3748  -1.3535  -1.3202  -1.2157  -1.1816
    -1.0959  -1.0673  -1.0066  -0.9729  -0.9658  -0.9549  -0.9389  -0.5185
    -0.5137  -0.4516  -0.4373   0.1480   0.1481   0.1907   0.1924   2.0438
     2.0469   2.2234   2.2245   2.2255   2.2419   2.2901   2.3454   2.3517
     2.3518   2.3775   2.3884   2.5328   2.5585   2.5595   2.6067   2.6694
     2.7203   2.7417   2.7550   2.8969   2.9279   2.9946   3.0027   3.0631
     3.0646   3.1072   3.1183   3.1858   3.2236   3.2386   3.2515   3.4089
     3.4311   3.4420   3.4447   3.4781   3.4892   3.7319   3.7716   3.8105
     3.8141   3.8377   3.9141   3.9364   3.9749   4.0781   4.0805   4.1304
     4.1311   4.4233   4.6718   4.9654   5.0054   5.2640   5.3307   5.4622
     5.4942   5.5129   5.5130   5.5681   5.5847   5.6518   5.6695   5.6761
     5.8049   5.8094   5.8314   5.8564   5.8666   5.8714   5.8898   5.9789
     6.0232   6.0637   6.0754   6.1632   6.1988   6.3991   6.4682   6.5657
     6.6069   6.7460   6.7705   6.9765   7.0347   7.1014   7.3260   7.7011
     7.8813   8.1612   8.4084   8.7768   8.8320   8.8514   9.1369   9.6579
     9.7026   9.7517   9.7955

          k = 0.0253 0.0000 0.0000 ( 34707 PWs)   bands (ev):

   -57.6941 -57.6592 -57.3123 -57.2761 -57.2284 -57.1050 -57.0686 -57.0679
   -57.0443 -57.0330 -56.9844 -56.9489 -56.7230 -56.6856 -56.1447 -56.1094
   -34.1306 -33.9763 -33.9479 -33.8944 -33.8648 -33.8009 -33.7404 -33.6489
   -33.6131 -33.6021 -33.5633 -33.5318 -33.5268 -33.5032 -33.4818 -33.4693
   -33.4586 -33.4490 -33.4249 -33.3872 -33.3193 -33.2874 -33.2668 -33.2578
   -33.2526 -33.2508 -33.2396 -33.2366 -33.2322 -33.2250 -33.2234 -33.2076
   -33.1745 -33.1742 -33.1704 -33.1350 -33.1127 -32.9893 -32.9734 -32.9492
   -32.9008 -32.7979 -32.5624 -32.4981 -32.4704 -32.3667 -32.2751 -32.1668
   -20.2874 -17.9774 -17.7967 -17.5094 -17.4272 -17.3505 -17.2532 -17.1398
   -17.0872 -16.9700 -16.9337 -16.8656 -16.8142 -16.7995 -16.7836 -16.7757
   -16.7236 -16.6882 -16.5508 -16.5275 -16.4492 -16.4469 -16.3972 -16.3655
   -16.3325 -16.3076 -16.1777 -16.1602 -16.1463 -15.9710 -15.9231 -14.7280
   -14.6453 -11.4209  -7.2176  -5.4641  -5.3006  -5.2593  -5.2075  -5.0919
    -5.0394  -5.0100  -4.8289  -4.8075  -4.6123  -4.4642  -4.4309  -4.3254
    -4.3061  -4.2962  -4.2414  -4.0931  -4.0308  -4.0268  -3.9912  -3.9402
    -3.9330  -3.9045  -3.8257  -3.7958  -3.7451  -3.7153  -3.6898  -3.6867
    -3.6144  -3.5924  -3.5645  -3.5570  -3.5118  -3.4429  -3.3397  -3.3054
    -3.2463  -3.2317  -3.1805  -3.1013  -3.0280  -2.9710  -2.9195  -2.8912
    -2.7511  -2.6678  -2.6268  -2.5943  -2.5746  -2.5244  -2.5146  -2.4984
    -2.4260  -2.3305  -2.3171  -2.2316  -2.2153  -2.1771  -2.1527  -2.0652
    -2.0043  -1.9955  -1.9582  -1.8784  -1.8445  -1.7477  -1.7338  -1.6460
    -1.5800  -1.5767  -1.5323  -1.4586  -1.4530  -1.3609  -1.3525  -1.3373
    -1.3318  -1.2847  -1.2687  -1.1839  -1.1213  -1.1122  -1.0725  -1.0412
    -0.9673  -0.9095  -0.8240  -0.7803  -0.7693  -0.6456  -0.6361  -0.5461
    -0.4155  -0.2320  -0.1107  -0.0490   0.1219   0.2100   0.2109   1.6667
     1.7297   2.0060   2.0767   2.1536   2.2289   2.2434   2.2750   2.3832
     2.3908   2.4631   2.5099   2.5277   2.5459   2.5834   2.6027   2.6412
     2.6606   2.7403   2.7631   2.8732   2.8903   2.9754   3.0367   3.1098
     3.1257   3.1496   3.1674   3.2082   3.2141   3.2592   3.2742   3.3444
     3.3842   3.4088   3.4564   3.4782   3.5404   3.5666   3.5972   3.6048
     3.6697   3.7358   3.7532   3.9192   4.0074   4.1023   4.1789   4.2814
     4.3784   4.3937   4.5569   4.6677   4.8696   4.9145   4.9318   5.0745
     5.1253   5.1509   5.1951   5.3537   5.5672   5.6216   5.6969   5.8687
     5.8875   5.9303   5.9639   6.0320   6.0848   6.1142   6.1662   6.2149
     6.2239   6.2571   6.2655   6.3128   6.4533   6.5184   6.6432   6.6685
     6.8233   6.8717   7.0389   7.1466   7.3069   7.7328   7.8517   8.0795
     8.3347   8.3399   8.4314   8.6786   8.8492   8.9672   9.1482   9.3447
     9.3660   9.4585   9.4865

          k = 0.0253 0.0280 0.0000 ( 34687 PWs)   bands (ev):

   -57.6918 -57.6615 -57.3099 -57.2785 -57.2280 -57.1027 -57.0707 -57.0658
   -57.0448 -57.0354 -56.9820 -56.9513 -56.7206 -56.6881 -56.1423 -56.1118
   -34.1052 -33.9744 -33.9497 -33.8882 -33.8388 -33.8072 -33.7674 -33.6262
   -33.6063 -33.5771 -33.5379 -33.5291 -33.5164 -33.5106 -33.4886 -33.4675
   -33.4604 -33.4559 -33.4229 -33.3804 -33.3132 -33.2856 -33.2785 -33.2593
   -33.2528 -33.2485 -33.2465 -33.2428 -33.2329 -33.2315 -33.2303 -33.2090
   -33.1981 -33.1795 -33.1714 -33.1391 -33.1357 -32.9854 -32.9717 -32.9506
   -32.9058 -32.8257 -32.5367 -32.4962 -32.4722 -32.3606 -32.2813 -32.1942
   -20.2872 -17.9171 -17.7400 -17.4582 -17.3774 -17.3034 -17.2268 -17.1235
   -17.0924 -17.0011 -16.9584 -16.8530 -16.8255 -16.7998 -16.7783 -16.7651
   -16.7081 -16.6929 -16.5944 -16.5730 -16.5015 -16.4694 -16.3749 -16.3594
   -16.3505 -16.3246 -16.1948 -16.1680 -16.1488 -16.0022 -15.9603 -14.7382
   -14.6689 -11.4205  -7.2171  -5.4379  -5.2361  -5.2120  -5.1767  -5.0155
    -4.9611  -4.9297  -4.7538  -4.6948  -4.5566  -4.3982  -4.3658  -4.3407
    -4.2542  -4.2474  -4.1813  -4.1124  -4.0810  -4.0589  -4.0282  -4.0145
    -3.9710  -3.9374  -3.9075  -3.8619  -3.8169  -3.8044  -3.7788  -3.7149
    -3.6914  -3.6580  -3.6100  -3.5998  -3.5358  -3.5212  -3.3531  -3.3017
    -3.2469  -3.2120  -3.1467  -3.0694  -2.9766  -2.9437  -2.7824  -2.7032
    -2.6767  -2.6312  -2.6058  -2.5289  -2.4979  -2.4489  -2.4422  -2.4153
    -2.3997  -2.3808  -2.3347  -2.2973  -2.2104  -2.1727  -2.1100  -2.0945
    -2.0616  -1.9892  -1.9444  -1.8865  -1.8599  -1.8214  -1.7565  -1.6689
    -1.6391  -1.6109  -1.5832  -1.5569  -1.5036  -1.4556  -1.4349  -1.3947
    -1.3398  -1.3221  -1.2639  -1.2492  -1.2011  -1.1027  -1.0922  -1.0550
    -1.0049  -0.8820  -0.8341  -0.8300  -0.7587  -0.7341  -0.6894  -0.6532
    -0.4265  -0.2766  -0.1287  -0.0811   0.1540   0.1833   0.1935   1.7257
     1.8498   2.0212   2.1043   2.2009   2.2505   2.2871   2.3215   2.4024
     2.4225   2.4727   2.4944   2.5298   2.5376   2.5585   2.5961   2.6793
     2.7103   2.7328   2.7929   2.8123   2.9368   2.9930   3.0150   3.0405
     3.1122   3.1399   3.1508   3.1778   3.2137   3.2481   3.3506   3.3785
     3.4111   3.4420   3.4680   3.5161   3.5581   3.5751   3.6418   3.6660
     3.6786   3.7141   3.7561   3.9004   4.0007   4.1433   4.1904   4.2584
     4.3114   4.4520   4.5128   4.7613   4.9352   4.9544   4.9990   5.0827
     5.1642   5.1804   5.2297   5.3905   5.6452   5.6838   5.7332   5.7805
     5.8569   5.8698   5.8759   6.0128   6.0759   6.0897   6.1246   6.1502
     6.2016   6.2126   6.2202   6.2388   6.4334   6.5271   6.6149   6.6639
     6.7833   6.8684   6.9679   7.1492   7.2282   7.4881   7.9300   8.0219
     8.0971   8.2422   8.4455   8.5783   8.6486   8.7712   8.9396   9.2639
     9.3562   9.4570   9.5071

          k = 0.0253 0.0560 0.0000 ( 34699 PWs)   bands (ev):

   -57.6854 -57.6679 -57.3034 -57.2850 -57.2271 -57.0966 -57.0768 -57.0594
   -57.0456 -57.0418 -56.9755 -56.9578 -56.7140 -56.6947 -56.1359 -56.1183
   -34.0353 -33.9690 -33.9547 -33.8714 -33.8404 -33.8245 -33.7677 -33.5907
   -33.5685 -33.5666 -33.5299 -33.5199 -33.5035 -33.5024 -33.4728 -33.4680
   -33.4505 -33.4201 -33.4078 -33.3623 -33.3104 -33.3089 -33.3037 -33.2967
   -33.2813 -33.2719 -33.2630 -33.2561 -33.2488 -33.2429 -33.2335 -33.2297
   -33.2046 -33.1932 -33.1648 -33.1587 -33.1191 -32.9803 -32.9674 -32.9546
   -32.9188 -32.8954 -32.4912 -32.4773 -32.4660 -32.3441 -32.2982 -32.2683
   -20.2870 -17.7508 -17.5846 -17.3379 -17.2589 -17.2388 -17.1882 -17.1630
   -17.1340 -16.9911 -16.9651 -16.8756 -16.8711 -16.8232 -16.7910 -16.7678
   -16.7430 -16.6648 -16.6164 -16.5979 -16.5745 -16.5244 -16.4217 -16.4058
   -16.3499 -16.2801 -16.2284 -16.1888 -16.1521 -16.1032 -16.0325 -14.7568
   -14.7197 -11.4197  -7.2161  -5.4091  -5.2233  -5.0262  -4.9440  -4.8072
    -4.7519  -4.7081  -4.5532  -4.4926  -4.4852  -4.4081  -4.3893  -4.3341
    -4.2654  -4.2262  -4.2107  -4.1866  -4.1425  -4.1360  -4.1002  -4.0564
    -4.0269  -4.0063  -3.9873  -3.9297  -3.9193  -3.8697  -3.8535  -3.8159
    -3.7688  -3.7107  -3.6493  -3.5665  -3.4684  -3.3963  -3.3272  -3.2769
    -3.2322  -3.2175  -3.1874  -3.0069  -2.9365  -2.8573  -2.8245  -2.7741
    -2.7548  -2.6405  -2.5886  -2.5043  -2.4846  -2.4326  -2.3877  -2.3594
    -2.3377  -2.3194  -2.2823  -2.2575  -2.1846  -2.1359  -2.1224  -2.0340
    -2.0057  -2.0039  -1.9414  -1.9329  -1.8973  -1.8562  -1.8295  -1.8062
    -1.7397  -1.6981  -1.6732  -1.6320  -1.5671  -1.5322  -1.4887  -1.4698
    -1.4263  -1.3668  -1.3331  -1.2967  -1.2176  -1.1990  -1.1263  -1.1005
    -1.0560  -1.0079  -0.9054  -0.8696  -0.8151  -0.7946  -0.7379  -0.6760
    -0.6015  -0.4597  -0.2505   0.0966   0.1332   0.1603   0.1929   1.8666
     2.0528   2.1376   2.1837   2.2367   2.2774   2.3108   2.3533   2.3896
     2.4317   2.4670   2.4864   2.5133   2.5251   2.5886   2.6992   2.7270
     2.7443   2.7812   2.8293   2.8450   2.9094   2.9586   2.9803   2.9919
     3.0329   3.0388   3.1619   3.2130   3.2923   3.3345   3.3460   3.3887
     3.4130   3.4441   3.4664   3.5464   3.5647   3.6365   3.6620   3.7404
     3.7993   3.8259   3.8666   3.9065   3.9102   4.0779   4.1216   4.1702
     4.3478   4.3898   4.6152   4.9660   5.0175   5.1192   5.1446   5.1630
     5.2668   5.2933   5.3191   5.4411   5.5153   5.5661   5.6429   5.7634
     5.8265   5.8553   5.8963   5.9374   5.9644   6.0049   6.0502   6.0634
     6.1403   6.1603   6.2264   6.3244   6.3839   6.4030   6.4796   6.6449
     6.6916   6.8010   6.8462   7.0384   7.1480   7.3667   7.4810   7.5791
     7.9747   8.1711   8.3466   8.5179   8.6427   8.8527   9.0444   9.1173
     9.1738   9.4856   9.6181

          k = 0.0253-0.0840 0.0000 ( 34722 PWs)   bands (ev):

   -57.6768 -57.6766 -57.2959 -57.2926 -57.2267 -57.0912 -57.0823 -57.0507
   -57.0506 -57.0460 -56.9672 -56.9661 -56.7069 -56.7019 -56.1271 -56.1271
   -33.9620 -33.9618 -33.9388 -33.9387 -33.8481 -33.8480 -33.6809 -33.6569
   -33.5606 -33.5577 -33.5246 -33.5124 -33.5081 -33.4732 -33.4477 -33.4182
   -33.4112 -33.4052 -33.3714 -33.3713 -33.3568 -33.3355 -33.3296 -33.3171
   -33.3157 -33.2799 -33.2732 -33.2715 -33.2646 -33.2593 -33.2315 -33.2301
   -33.2116 -33.2098 -33.1579 -33.1571 -33.0417 -33.0205 -32.9634 -32.9584
   -32.9325 -32.9298 -32.4842 -32.4842 -32.3682 -32.3681 -32.3211 -32.3211
   -20.2868 -17.5499 -17.4822 -17.3774 -17.3589 -17.2080 -17.1489 -17.0544
   -17.0445 -16.9983 -16.9738 -16.9697 -16.8840 -16.8746 -16.8640 -16.7810
   -16.7756 -16.6290 -16.6232 -16.5622 -16.5582 -16.5175 -16.5161 -16.3825
   -16.3805 -16.2488 -16.2463 -16.1944 -16.1910 -16.1241 -16.0951 -14.7561
   -14.7560 -11.4193  -7.2157  -5.4006  -5.2294  -4.7942  -4.6405  -4.6308
    -4.6192  -4.5428  -4.5420  -4.5264  -4.5194  -4.4120  -4.4027  -4.3647
    -4.3416  -4.3109  -4.2931  -4.2796  -4.2583  -4.2266  -4.2229  -4.0369
    -4.0330  -4.0091  -3.9778  -3.9592  -3.9138  -3.8419  -3.8366  -3.8101
    -3.7332  -3.6557  -3.6375  -3.4091  -3.3959  -3.3435  -3.3142  -3.2595
    -3.1141  -3.0906  -3.0551  -3.0458  -3.0029  -2.9590  -2.9139  -2.8902
    -2.8042  -2.8002  -2.6166  -2.5964  -2.5712  -2.5528  -2.5248  -2.4615
    -2.4291  -2.3368  -2.3099  -2.2718  -2.1163  -2.0687  -2.0501  -2.0038
    -1.9181  -1.9156  -1.8732  -1.8621  -1.8513  -1.8104  -1.8003  -1.7896
    -1.7617  -1.7238  -1.6802  -1.6511  -1.6154  -1.6019  -1.5892  -1.4700
    -1.3967  -1.3836  -1.2737  -1.2563  -1.2360  -1.2199  -1.1806  -1.1237
    -1.0786  -1.0465  -1.0385  -1.0065  -0.9545  -0.8856  -0.8735  -0.5315
    -0.5239  -0.4521  -0.4395   0.1218   0.1220   0.2012   0.2029   2.0554
     2.0577   2.2232   2.2383   2.2412   2.2451   2.2834   2.3219   2.4287
     2.4307   2.4454   2.4476   2.5627   2.5641   2.5833   2.6612   2.7270
     2.7614   2.8252   2.8340   2.8857   2.9056   2.9439   2.9538   3.0314
     3.0452   3.0907   3.1202   3.2273   3.2749   3.2955   3.3127   3.4276
     3.4329   3.4575   3.4745   3.4995   3.5287   3.7212   3.7462   3.8152
     3.8322   3.8434   3.8918   3.9187   3.9262   4.0857   4.0883   4.1220
     4.1224   4.4789   4.7131   4.9900   5.0289   5.2745   5.3062   5.3148
     5.3310   5.3652   5.3890   5.4321   5.4830   5.5149   5.5564   5.6277
     5.6387   5.7677   5.8381   5.8809   5.8964   6.0218   6.0824   6.0938
     6.1345   6.1903   6.2225   6.2852   6.3047   6.4606   6.5233   6.5958
     6.6412   6.7839   6.7940   6.9895   7.0378   7.1200   7.3827   7.5753
     7.7423   8.0019   8.2717   8.7218   8.7381   8.9638   8.9943   9.2844
     9.3452   9.4485   9.5390

          k = 0.0506 0.0000 0.0000 ( 34729 PWs)   bands (ev):

   -57.6941 -57.6592 -57.3123 -57.2761 -57.2284 -57.1048 -57.0685 -57.0681
   -57.0443 -57.0330 -56.9844 -56.9489 -56.7231 -56.6856 -56.1447 -56.1094
   -34.1312 -33.9763 -33.9479 -33.8930 -33.8650 -33.8009 -33.7405 -33.6503
   -33.6130 -33.6054 -33.5638 -33.5436 -33.5239 -33.5034 -33.4818 -33.4561
   -33.4530 -33.4482 -33.4250 -33.3705 -33.3191 -33.2876 -33.2662 -33.2612
   -33.2578 -33.2568 -33.2538 -33.2328 -33.2271 -33.2250 -33.2235 -33.2070
   -33.1743 -33.1740 -33.1710 -33.1350 -33.1128 -32.9892 -32.9784 -32.9473
   -32.9009 -32.7980 -32.5623 -32.5002 -32.4692 -32.3666 -32.2751 -32.1669
   -20.2870 -17.9113 -17.7018 -17.4109 -17.3844 -17.2774 -17.2605 -17.2327
   -17.1347 -16.9729 -16.9620 -16.9329 -16.8904 -16.8795 -16.8614 -16.8411
   -16.7460 -16.6964 -16.5310 -16.4492 -16.4434 -16.4057 -16.3985 -16.3524
   -16.3494 -16.3230 -16.1697 -16.1555 -16.1487 -15.9710 -15.9228 -14.7258
   -14.6450 -11.4186  -7.2119  -5.4722  -5.2866  -5.2057  -4.9753  -4.9087
    -4.7978  -4.7923  -4.7658  -4.7422  -4.7090  -4.6285  -4.5203  -4.4599
    -4.4114  -4.2427  -4.1267  -4.0348  -4.0191  -4.0137  -3.9686  -3.9249
    -3.9073  -3.8237  -3.7835  -3.7571  -3.7480  -3.6539  -3.6304  -3.6102
    -3.5498  -3.5484  -3.5360  -3.5197  -3.4951  -3.3022  -3.2772  -3.2623
    -3.2381  -3.1965  -3.1508  -3.1059  -2.9905  -2.9377  -2.8842  -2.8455
    -2.8211  -2.7782  -2.7531  -2.6736  -2.6167  -2.6047  -2.5725  -2.5419
    -2.4574  -2.4545  -2.4222  -2.3607  -2.3088  -2.2015  -2.1931  -2.1157
    -2.0807  -1.9862  -1.9341  -1.9267  -1.8380  -1.8123  -1.7955  -1.7096
    -1.6302  -1.5688  -1.5529  -1.5504  -1.4808  -1.4725  -1.4358  -1.3956
    -1.3462  -1.3279  -1.2966  -1.2042  -1.1146  -1.1005  -1.0834  -1.0674
    -0.9860  -0.9476  -0.8824  -0.8101  -0.8040  -0.7882  -0.7515  -0.5277
    -0.5187  -0.2627  -0.2192  -0.0426   0.0975   0.1236   0.1419   1.6467
     1.8231   2.0049   2.1018   2.1056   2.1845   2.2019   2.2862   2.2982
     2.4600   2.4626   2.4766   2.5635   2.5693   2.5907   2.6316   2.6837
     2.7117   2.8278   2.8749   2.8789   2.9050   2.9292   3.0895   3.1139
     3.1520   3.1684   3.2056   3.2071   3.2913   3.2953   3.3365   3.4153
     3.4456   3.4538   3.5061   3.5574   3.5821   3.5903   3.7057   3.7161
     3.7651   3.7680   3.8033   3.8995   3.9312   4.0876   4.1620   4.2163
     4.3520   4.4697   4.5708   4.6568   4.7726   4.8024   4.8671   4.8859
[...]
    -1.2916  -1.2605  -1.2473  -1.1849  -1.1478  -1.0255  -1.0149  -1.0067
    -0.9829  -0.9425  -0.8981  -0.8320  -0.7507  -0.6947  -0.6417  -0.5890
    -0.5850  -0.5292  -0.5125   0.0708   0.0709   0.2155   0.2172   2.1584
     2.1592   2.2058   2.2076   2.2440   2.2447   2.2717   2.3034   2.4930
     2.4983   2.5310   2.5612   2.6144   2.6219   2.6843   2.6863   2.6961
     2.6972   2.8498   2.9155   2.9879   3.0033   3.0395   3.0470   3.1036
     3.2255   3.2543   3.2777   3.3383   3.3791   3.3959   3.4501   3.4982
     3.5056   3.5279   3.5550   3.5865   3.6092   3.6859   3.7073   3.7518
     3.8409   3.8973   3.9136   3.9576   3.9579   4.1009   4.1079   4.1165
     4.1171   4.6199   4.7867   4.7919   4.8029   4.8763   4.9251   4.9304
     4.9468   4.9903   5.0339   5.2541   5.3428   5.3644   5.3732   5.7106
     5.8042   5.9148   5.9316   5.9813   6.0426   6.1463   6.2979   6.3548
     6.3699   6.3798   6.4133   6.5774   6.6091   6.6697   6.6698   6.7092
     6.7618   6.8479   6.8489   6.8571   6.8580   7.3556   7.3960   7.5189
     7.6582   7.8238   8.0059   8.1680   8.2213   8.3174   8.3854   8.8147
     8.9113   9.0452   9.0795

          k =-0.0253 0.0280 0.0000 ( 34687 PWs)   bands (ev):

   -57.6919 -57.6616 -57.3099 -57.2784 -57.2279 -57.1027 -57.0707 -57.0657
   -57.0447 -57.0354 -56.9819 -56.9512 -56.7206 -56.6880 -56.1426 -56.1120
   -34.1052 -33.9745 -33.9498 -33.8883 -33.8388 -33.8073 -33.7675 -33.6261
   -33.6063 -33.5771 -33.5379 -33.5290 -33.5164 -33.5105 -33.4885 -33.4674
   -33.4603 -33.4558 -33.4228 -33.3804 -33.3132 -33.2856 -33.2785 -33.2593
   -33.2525 -33.2484 -33.2467 -33.2428 -33.2329 -33.2315 -33.2303 -33.2090
   -33.1980 -33.1795 -33.1713 -33.1390 -33.1356 -32.9854 -32.9716 -32.9506
   -32.9058 -32.8257 -32.5369 -32.4964 -32.4724 -32.3608 -32.2815 -32.1944
   -20.2873 -17.9171 -17.7399 -17.4582 -17.3775 -17.3035 -17.2268 -17.1235
   -17.0925 -17.0008 -16.9584 -16.8534 -16.8254 -16.8008 -16.7779 -16.7650
   -16.7080 -16.6931 -16.5943 -16.5727 -16.5015 -16.4694 -16.3749 -16.3595
   -16.3505 -16.3246 -16.1949 -16.1681 -16.1487 -16.0022 -15.9604 -14.7378
   -14.6685 -11.4205  -7.2170  -5.4378  -5.2359  -5.2120  -5.1767  -5.0159
    -4.9612  -4.9300  -4.7538  -4.6955  -4.5564  -4.3979  -4.3657  -4.3410
    -4.2555  -4.2441  -4.1826  -4.1109  -4.0853  -4.0586  -4.0307  -4.0145
    -3.9698  -3.9357  -3.9088  -3.8628  -3.8170  -3.8059  -3.7789  -3.7150
    -3.6941  -3.6566  -3.6099  -3.5989  -3.5342  -3.5203  -3.3589  -3.2927
    -3.2485  -3.2139  -3.1446  -3.0675  -2.9776  -2.9399  -2.7814  -2.7026
    -2.6760  -2.6318  -2.6055  -2.5264  -2.4989  -2.4461  -2.4417  -2.4172
    -2.4005  -2.3788  -2.3341  -2.2963  -2.2123  -2.1700  -2.1153  -2.0981
    -2.0574  -1.9856  -1.9459  -1.8896  -1.8584  -1.8219  -1.7372  -1.7018
    -1.6471  -1.5937  -1.5875  -1.5544  -1.5102  -1.4641  -1.4307  -1.3871
    -1.3398  -1.3266  -1.2751  -1.2361  -1.1898  -1.1051  -1.0930  -1.0533
    -1.0049  -0.8873  -0.8353  -0.8254  -0.7495  -0.7336  -0.7015  -0.6542
    -0.4274  -0.2766  -0.1292  -0.0808   0.1542   0.1836   0.1939   1.7256
     1.8498   2.0211   2.1058   2.2007   2.2518   2.2903   2.3243   2.4095
     2.4205   2.4557   2.4913   2.5352   2.5376   2.5532   2.6134   2.6740
     2.7105   2.7444   2.7813   2.8179   2.9454   2.9923   3.0097   3.0326
     3.1132   3.1415   3.1512   3.1793   3.2139   3.2453   3.3541   3.3777
     3.4089   3.4255   3.4696   3.5125   3.5673   3.5768   3.6427   3.6658
     3.6783   3.7151   3.7555   3.8993   3.9994   4.1451   4.1904   4.2589
     4.3115   4.4524   4.5130   4.7622   4.9431   4.9538   4.9896   5.0826
     5.1631   5.1800   5.2294   5.3895   5.6474   5.6764   5.7296   5.7907
     5.8551   5.8697   5.8767   6.0118   6.0778   6.0831   6.1291   6.1511
     6.2015   6.2105   6.2182   6.2472   6.4333   6.5251   6.6150   6.6695
     6.7860   6.8628   6.9679   7.1493   7.2283   7.4875   7.9295   8.0211
     8.0971   8.2404   8.4406   8.5798   8.6453   8.7726   8.9454   9.2692
     9.3531   9.4585   9.5047

          k =-0.0253 0.0560 0.0000 ( 34699 PWs)   bands (ev):

   -57.6855 -57.6680 -57.3034 -57.2850 -57.2271 -57.0966 -57.0768 -57.0594
   -57.0455 -57.0418 -56.9755 -56.9577 -56.7139 -56.6947 -56.1361 -56.1185
   -34.0354 -33.9691 -33.9548 -33.8714 -33.8405 -33.8246 -33.7677 -33.5906
   -33.5684 -33.5665 -33.5299 -33.5198 -33.5035 -33.5024 -33.4728 -33.4679
   -33.4504 -33.4200 -33.4077 -33.3623 -33.3103 -33.3089 -33.3037 -33.2966
   -33.2813 -33.2719 -33.2629 -33.2561 -33.2488 -33.2430 -33.2335 -33.2297
   -33.2044 -33.1932 -33.1648 -33.1587 -33.1190 -32.9803 -32.9673 -32.9546
   -32.9188 -32.8954 -32.4914 -32.4775 -32.4662 -32.3443 -32.2984 -32.2685
   -20.2870 -17.7508 -17.5846 -17.3379 -17.2589 -17.2389 -17.1884 -17.1629
   -17.1338 -16.9911 -16.9650 -16.8757 -16.8714 -16.8237 -16.7915 -16.7677
   -16.7428 -16.6645 -16.6162 -16.5975 -16.5745 -16.5247 -16.4217 -16.4059
   -16.3500 -16.2801 -16.2285 -16.1888 -16.1521 -16.1032 -16.0325 -14.7564
   -14.7192 -11.4197  -7.2161  -5.4091  -5.2233  -5.0258  -4.9440  -4.8078
    -4.7520  -4.7082  -4.5532  -4.4909  -4.4858  -4.4078  -4.3895  -4.3389
    -4.2657  -4.2273  -4.2102  -4.1866  -4.1423  -4.1355  -4.1017  -4.0565
    -4.0259  -4.0037  -3.9886  -3.9308  -3.9191  -3.8679  -3.8568  -3.8166
    -3.7682  -3.7088  -3.6503  -3.5666  -3.4679  -3.3965  -3.3319  -3.2773
    -3.2329  -3.2115  -3.1811  -3.0079  -2.9339  -2.8589  -2.8213  -2.7777
    -2.7519  -2.6399  -2.5877  -2.5049  -2.4831  -2.4339  -2.3890  -2.3564
    -2.3379  -2.3189  -2.2848  -2.2598  -2.1843  -2.1358  -2.1214  -2.0310
    -2.0144  -1.9969  -1.9396  -1.9374  -1.8988  -1.8565  -1.8251  -1.8008
    -1.7377  -1.7055  -1.6666  -1.6366  -1.5738  -1.5335  -1.4991  -1.4546
    -1.4260  -1.3659  -1.3418  -1.2952  -1.2179  -1.1994  -1.1249  -1.0988
    -1.0567  -1.0088  -0.9173  -0.8705  -0.8077  -0.7947  -0.7317  -0.6756
    -0.6015  -0.4613  -0.2520   0.0969   0.1336   0.1607   0.1931   1.8664
     2.0527   2.1405   2.1837   2.2336   2.2756   2.3114   2.3391   2.3886
     2.4498   2.4643   2.4912   2.5185   2.5256   2.5886   2.6985   2.7297
     2.7503   2.7807   2.8333   2.8461   2.8988   2.9560   2.9768   2.9925
     3.0295   3.0399   3.1762   3.2137   3.2964   3.3224   3.3392   3.3764
     3.4172   3.4418   3.4655   3.5489   3.5644   3.6405   3.6634   3.7410
     3.7995   3.8234   3.8675   3.9048   3.9123   4.0787   4.1215   4.1703
     4.3476   4.3898   4.6160   4.9675   5.0246   5.1174   5.1397   5.1613
     5.2643   5.2911   5.3206   5.4328   5.5171   5.5659   5.6460   5.7676
     5.8278   5.8534   5.8998   5.9395   5.9595   5.9987   6.0534   6.0672
     6.1401   6.1591   6.2344   6.3158   6.3841   6.4082   6.4776   6.6486
     6.6945   6.8008   6.8397   7.0390   7.1459   7.3667   7.4815   7.5775
     7.9734   8.1705   8.3471   8.5197   8.6433   8.8560   9.0499   9.1188
     9.1701   9.4905   9.6178

          k =-0.0506 0.0280 0.0000 ( 34685 PWs)   bands (ev):

   -57.6919 -57.6616 -57.3099 -57.2784 -57.2279 -57.1025 -57.0707 -57.0659
   -57.0447 -57.0354 -56.9820 -56.9512 -56.7206 -56.6880 -56.1426 -56.1120
   -34.1059 -33.9744 -33.9498 -33.8869 -33.8390 -33.8073 -33.7675 -33.6275
   -33.6063 -33.5804 -33.5385 -33.5299 -33.5219 -33.5142 -33.4884 -33.4671
   -33.4535 -33.4430 -33.4229 -33.3642 -33.3129 -33.2859 -33.2742 -33.2605
   -33.2593 -33.2556 -33.2522 -33.2473 -33.2329 -33.2315 -33.2291 -33.2067
   -33.1985 -33.1797 -33.1713 -33.1388 -33.1355 -32.9854 -32.9760 -32.9492
   -32.9058 -32.8257 -32.5368 -32.4982 -32.4715 -32.3608 -32.2815 -32.1944
   -20.2869 -17.8549 -17.6464 -17.3635 -17.3354 -17.2443 -17.2187 -17.2097
   -17.1170 -17.0379 -16.9587 -16.9150 -16.8645 -16.8525 -16.8500 -16.8262
   -16.7578 -16.7401 -16.5535 -16.5222 -16.4972 -16.4331 -16.4105 -16.3694
   -16.3622 -16.3068 -16.1855 -16.1667 -16.1476 -16.0034 -15.9602 -14.7358
   -14.6685 -11.4181  -7.2113  -5.4511  -5.2204  -5.2104  -4.8875  -4.8289
    -4.7148  -4.6990  -4.6692  -4.6496  -4.6249  -4.5046  -4.4229  -4.3401
    -4.3120  -4.2963  -4.1538  -4.1211  -4.0548  -4.0211  -4.0032  -3.9876
    -3.9774  -3.9044  -3.8545  -3.8104  -3.7676  -3.7551  -3.7135  -3.6858
    -3.6497  -3.6277  -3.5777  -3.5452  -3.4421  -3.3184  -3.2838  -3.2568
    -3.2196  -3.1649  -3.0968  -3.0525  -2.9486  -2.9327  -2.8725  -2.8353
    -2.7379  -2.6912  -2.6537  -2.6451  -2.5981  -2.5858  -2.5305  -2.4891
    -2.4313  -2.3821  -2.3757  -2.3299  -2.3034  -2.2487  -2.1735  -2.1301
    -2.1070  -2.0568  -2.0205  -1.9691  -1.9345  -1.8992  -1.8539  -1.8255
    -1.7490  -1.7344  -1.7064  -1.6353  -1.5345  -1.5014  -1.4788  -1.4115
    -1.3601  -1.3416  -1.2723  -1.2550  -1.2315  -1.1409  -1.1081  -1.0076
    -0.9719  -0.8746  -0.8498  -0.8079  -0.7725  -0.7584  -0.6990  -0.6847
    -0.5073  -0.3068  -0.2542  -0.0682   0.1149   0.1442   0.1676   1.7091
     1.9099   2.0653   2.1283   2.1328   2.1777   2.2468   2.3675   2.3777
     2.4115   2.4440   2.5233   2.5731   2.5795   2.6081   2.6896   2.7025
     2.7487   2.8084   2.8392   2.9081   2.9620   2.9875   3.0467   3.0665
     3.0974   3.1664   3.1763   3.2056   3.3078   3.3630   3.3815   3.4165
     3.4524   3.4643   3.5528   3.5926   3.6095   3.6593   3.6813   3.6903
     3.7227   3.7768   3.8235   3.8755   3.9398   4.0648   4.1737   4.2870
     4.2984   4.4276   4.6195   4.6956   4.7692   4.8163   4.8619   4.9767
     5.0188   5.1288   5.2267   5.4742   5.5994   5.6437   5.7218   5.8056
     5.8648   5.8775   5.9302   5.9498   5.9835   6.0960   6.1207   6.1434
     6.2314   6.4379   6.4859   6.5466   6.5832   6.6107   6.6911   6.7424
     6.8023   6.8223   6.9787   7.1087   7.1709   7.3915   7.5540   7.6958
     8.1282   8.1670   8.2443   8.3808   8.7508   8.9682   9.0052   9.0446
     9.3733   9.4314   9.6028

          k =-0.0506 0.0560 0.0000 ( 34596 PWs)   bands (ev):

   -57.6855 -57.6680 -57.3034 -57.2850 -57.2271 -57.0965 -57.0767 -57.0595
   -57.0455 -57.0418 -56.9755 -56.9577 -56.7139 -56.6947 -56.1361 -56.1185
   -34.0360 -33.9691 -33.9548 -33.8702 -33.8407 -33.8242 -33.7678 -33.5906
   -33.5696 -33.5666 -33.5302 -33.5158 -33.5097 -33.5060 -33.4728 -33.4687
   -33.4484 -33.4200 -33.3981 -33.3487 -33.3131 -33.3112 -33.2963 -33.2940
   -33.2816 -33.2718 -33.2628 -33.2538 -33.2489 -33.2476 -33.2428 -33.2348
   -33.2046 -33.1947 -33.1648 -33.1583 -33.1186 -32.9803 -32.9701 -32.9544
   -32.9187 -32.8952 -32.4925 -32.4771 -32.4661 -32.3443 -32.2984 -32.2684
   -20.2866 -17.7003 -17.4957 -17.2855 -17.2343 -17.1919 -17.1687 -17.1567
   -17.0840 -17.0322 -17.0007 -16.9082 -16.8511 -16.8439 -16.8386 -16.8008
   -16.7713 -16.7151 -16.6568 -16.6161 -16.6064 -16.5459 -16.5076 -16.3921
   -16.3373 -16.2587 -16.2205 -16.1873 -16.1516 -16.1048 -16.0317 -14.7552
   -14.7196 -11.4172  -7.2101  -5.4242  -5.2221  -5.0163  -4.6543  -4.6121
    -4.5098  -4.4937  -4.4782  -4.4505  -4.4264  -4.3621  -4.3196  -4.2966
    -4.2207  -4.2007  -4.1415  -4.1269  -4.0770  -4.0613  -4.0408  -4.0305
    -4.0083  -3.9905  -3.9632  -3.9089  -3.8884  -3.8833  -3.8163  -3.7814
    -3.7251  -3.6550  -3.6246  -3.5174  -3.4832  -3.3755  -3.3230  -3.2565
    -3.2522  -3.2399  -3.1456  -3.0104  -2.9287  -2.8989  -2.8461  -2.8262
    -2.7512  -2.7217  -2.6799  -2.6038  -2.5868  -2.5623  -2.5218  -2.4847
    -2.4232  -2.4008  -2.3603  -2.3241  -2.3112  -2.2951  -2.2503  -2.1723
    -2.1470  -2.1162  -2.1086  -2.0723  -2.0419  -1.9962  -1.9781  -1.8963
    -1.8857  -1.8460  -1.8267  -1.7195  -1.6324  -1.6006  -1.5672  -1.4730
    -1.4023  -1.3691  -1.3016  -1.2445  -1.2006  -1.1043  -1.0685  -1.0124
    -0.9975  -0.9313  -0.8472  -0.8134  -0.7645  -0.7501  -0.6864  -0.6519
    -0.6467  -0.5120  -0.3192   0.0829   0.1170   0.1350   0.1986   1.8717
     2.0815   2.1709   2.2052   2.2263   2.2486   2.3038   2.3539   2.3990
     2.4087   2.5425   2.5758   2.5847   2.6126   2.6341   2.6892   2.7601
     2.7872   2.8100   2.8448   2.8868   2.9691   3.0103   3.0338   3.0680
     3.1028   3.1421   3.1733   3.2625   3.3411   3.3732   3.4029   3.4469
     3.4848   3.5055   3.5280   3.5487   3.6203   3.6534   3.7175   3.7497
     3.7865   3.8588   3.8865   3.9244   3.9305   3.9603   4.1166   4.1798
     4.2944   4.4788   4.7244   4.8118   4.8225   4.9014   4.9487   5.0959
     5.1713   5.2334   5.2765   5.3157   5.3772   5.4410   5.5009   5.6318
     5.7851   5.8319   5.8861   5.9557   6.0369   6.1281   6.2208   6.2631
     6.2911   6.3484   6.4216   6.4545   6.4988   6.5818   6.6520   6.7209
     6.7356   6.8268   6.8448   6.9885   7.0445   7.4139   7.4280   7.5672
     7.7398   7.9383   8.0678   8.3815   8.5709   8.6074   8.7392   9.0022
     9.2207   9.3214   9.4565

     the Fermi energy is     1.0019 ev

!    total energy              =   -3021.41995995 Ry
     Harris-Foulkes estimate   =   -3021.41996006 Ry
     estimated scf accuracy    <       0.00000056 Ry

     The total energy is the sum of the following terms:

     one-electron contribution =  -41239.55849090 Ry
     hartree contribution      =   20694.10071579 Ry
     xc contribution           =    -553.68419431 Ry
     ewald contribution        =   18077.72222056 Ry
     smearing contrib. (-TS)   =      -0.00021108 Ry

     total magnetization       =     0.00 Bohr mag/cell
     absolute magnetization    =     0.00 Bohr mag/cell

     convergence has been achieved in   8 iterations

     Forces acting on atoms (Ry/au):


     negative rho (up, down):  1.209E-02 1.209E-02
     atom    1 type  1   force =     0.00001665   -0.00035611   -0.13376749
     atom    2 type  2   force =     0.00000321    0.00002982    0.07210431
     atom    3 type  1   force =    -0.00135304    0.00030923   -0.06094035
     atom    4 type  2   force =     0.00290332    0.00048724    0.00637266
     atom    5 type  1   force =     0.00028579    0.00179138    0.00353798
     atom    6 type  2   force =     0.00003063    0.00001401   -0.00269307
     atom    7 type  1   force =     0.00054840   -0.00076645    0.00421335
     atom    8 type  2   force =     0.00103199   -0.00007953   -0.00056708
     atom    9 type  1   force =    -0.00002987    0.00002102   -0.13352517
     atom   10 type  2   force =    -0.00006682    0.00006495    0.07128604
     atom   11 type  1   force =    -0.00131637   -0.00024083   -0.05585502
     atom   12 type  2   force =     0.00299436   -0.00006884    0.00608889
     atom   13 type  1   force =     0.00030932   -0.00141868    0.00347494
     atom   14 type  2   force =    -0.00121617   -0.00038855   -0.00296624
     atom   15 type  1   force =    -0.00030431    0.00022063    0.00443811
     atom   16 type  2   force =     0.00063841   -0.00030305    0.00003756
     atom   17 type  2   force =    -0.00007096   -0.00007032    0.07940042
     atom   18 type  1   force =     0.00013539   -0.00017171    0.11915760
     atom   19 type  2   force =    -0.00010991   -0.00017447   -0.06670959
     atom   20 type  2   force =    -0.06322393    0.00014901   -0.03225384
     atom   21 type  2   force =     0.06319870    0.00001456   -0.03246019
     atom   22 type  1   force =     0.00072173    0.00108274    0.05977567
     atom   23 type  2   force =    -0.00017360    0.00005612   -0.00176799
     atom   24 type  2   force =    -0.00143662   -0.00000409   -0.02330497
     atom   25 type  2   force =    -0.00313474    0.00059141    0.00786162
     atom   26 type  1   force =     0.00062617    0.00029134    0.00470507
     atom   27 type  2   force =     0.00052890    0.00060515   -0.00389172
     atom   28 type  2   force =     0.00015592   -0.00008590   -0.00121517
     atom   29 type  2   force =     0.00019306   -0.00034021   -0.00060065
     atom   30 type  1   force =     0.00002612   -0.00037209    0.00400627
     atom   31 type  2   force =     0.00046376    0.00009555   -0.00281127
     atom   32 type  2   force =    -0.00008740   -0.00016064   -0.00132262
     atom   33 type  2   force =    -0.00011876    0.00003777    0.07900442
     atom   34 type  1   force =     0.00006746   -0.00021863    0.11907248
     atom   35 type  2   force =    -0.00030585   -0.00005425   -0.06640956
     atom   36 type  2   force =    -0.06318454   -0.00005209   -0.03234231
     atom   37 type  2   force =     0.06332900   -0.00020114   -0.03249750
     atom   38 type  1   force =     0.00065935   -0.00098181    0.05999314
     atom   39 type  2   force =    -0.00045153    0.00010431   -0.00251893
     atom   40 type  2   force =    -0.00119414    0.00030695   -0.02221132
     atom   41 type  2   force =    -0.00317454   -0.00014811    0.00788584
     atom   42 type  1   force =     0.00050733    0.00006474    0.00381786
     atom   43 type  2   force =     0.00072640    0.00023273   -0.00307845
     atom   44 type  2   force =     0.00023744    0.00010012   -0.00117534
     atom   45 type  2   force =     0.00016737    0.00030645   -0.00063076
     atom   46 type  1   force =     0.00031736   -0.00000419    0.00403870
     atom   47 type  2   force =     0.00008410   -0.00031591   -0.00122434
     atom   48 type  2   force =    -0.00000120    0.00018878   -0.00104272
     atom   49 type  3   force =    -0.00523511   -0.00068065    0.00221959
     atom   50 type  2   force =     0.01592632   -0.00040711    0.00672986
     atom   51 type  4   force =    -0.00020239    0.00005100    0.00047996
     atom   52 type  4   force =    -0.01079619    0.00049304   -0.00872888
     atom   53 type  4   force =     0.00005762    0.00096240   -0.00066387
     atom   54 type  4   force =     0.00029643   -0.00060711   -0.00052589

     Total force =     0.363328     Total SCF correction =     0.001325
 !ASE

     Writing output data file calc.save
 
     init_run     :     55.71s CPU     70.41s WALL (       1 calls)
     electrons    :   1912.36s CPU   2371.77s WALL (       1 calls)
     forces       :     40.90s CPU     41.99s WALL (       1 calls)

     Called by init_run:
     wfcinit      :     47.62s CPU     61.62s WALL (       1 calls)
     potinit      :      1.30s CPU      1.56s WALL (       1 calls)

     Called by electrons:
     c_bands      :   1664.81s CPU   2063.28s WALL (       9 calls)
     sum_band     :    211.79s CPU    267.84s WALL (       9 calls)
     v_of_rho     :      8.83s CPU     10.99s WALL (       9 calls)
     newd         :     30.74s CPU     33.69s WALL (       9 calls)
     mix_rho      :      0.29s CPU      0.42s WALL (       9 calls)
     vdW_energy   :      1.62s CPU      1.96s WALL (      10 calls)
     vdW_ffts     :      2.56s CPU      3.32s WALL (      20 calls)
     vdW_v        :      0.93s CPU      1.08s WALL (      10 calls)

     Called by c_bands:
     init_us_2    :      5.45s CPU      5.91s WALL (     800 calls)
     cegterg      :   1632.90s CPU   2029.44s WALL (     360 calls)

     Called by *egterg:
     h_psi        :    683.19s CPU   1011.33s WALL (    1872 calls)
     s_psi        :     82.96s CPU     87.55s WALL (    1872 calls)
     g_psi        :      4.48s CPU      4.60s WALL (    1472 calls)
     cdiaghg      :    554.57s CPU    566.13s WALL (    1792 calls)

     Called by h_psi:
     add_vuspsi   :     83.42s CPU     87.39s WALL (    1872 calls)

     General routines
     calbec       :    127.33s CPU    130.36s WALL (    2272 calls)
     fft          :      5.49s CPU      7.05s WALL (     794 calls)
     ffts         :      0.06s CPU      0.08s WALL (      36 calls)
     fftw         :    456.37s CPU    819.61s WALL (  663184 calls)
     interpolate  :      0.30s CPU      0.48s WALL (      36 calls)
     davcio       :      0.10s CPU      2.71s WALL (      40 calls)
 
     Parallel routines
     fft_scatter  :    248.21s CPU    437.16s WALL (  664014 calls)
 
     PWSCF        : 33m29.96s CPU    41m28.68s WALL

 
   This run was terminated on:   2:11:31  13Feb2018            

=------------------------------------------------------------------------------=
   JOB DONE.
=------------------------------------------------------------------------------=
