  python dir          : /home/vossj/suncat/lib/python2.7/site-packages/espresso
  espresso dir        : /home/vossj/suncat/esdld/espresso-dynpy-beef/bin
  pseudo dir          : /home/alatimer/bin/psp/esp_psp_w_gbrvRu/
  ase-espresso py git : ffa2778-git



     Program PWSCF v.5.1rc2 (svn rev. ) starts on 26Feb2018 at 21:35:41 

     This program is part of the open-source Quantum ESPRESSO suite
     for quantum simulation of materials; please cite
         "P. Giannozzi et al., J. Phys.:Condens. Matter 21 395502 (2009);
          URL http://www.quantum-espresso.org", 
     in publications or presentations arising from this work. More details at
     http://www.quantum-espresso.org/quote

     Parallel version (MPI), running on    16 processors
     R & G space division:  proc/nbgrp/npool/nimage =      16
     Reading input from pw.inp
     Message from routine read_cards :
     DEPRECATED: no units specified in CELL_PARAMETERS card

     Current dimensions of program PWSCF are:
     Max number of different atomic species (ntypx) = 10
     Max number of k-points (npk) =  40000
     Max angular momentum in pseudopotentials (lmaxx) =  3

     **************************************************************************
     Initializing libbeef V0.1.1 with the BEEF-vdW functional.
     Citation: Wellendorff et al., PRB 85, 235149 (2012).
     **************************************************************************


     IMPORTANT: XC functional enforced from input :
     Exchange-correlation      = BEEF ( 1  4 27 13 2)
     Any further DFT definition will be discarded
     Please, verify this is what you really want


     Subspace diagonalization in iterative solution of the eigenvalue problem:
     a serial algorithm will be used

 
     Parallelization info
     --------------------
     sticks:   dense  smooth     PW     G-vecs:    dense   smooth      PW
     Min         281     112     31                68535    17318    2565
     Max         282     113     32                68545    17369    2582
     Sum        4501    1795    503              1096637   277353   41113
 
     Generating pointlists ...
     new r_m :   0.4125 (alat units)  0.7795 (a.u.) for type    1
     new r_m :   0.4125 (alat units)  0.7795 (a.u.) for type    2
     new r_m :   0.4125 (alat units)  0.7795 (a.u.) for type    3
     new r_m :   0.4125 (alat units)  0.7795 (a.u.) for type    4


     bravais-lattice index     =            0
     lattice parameter (alat)  =       1.8897  a.u.
     unit-cell volume          =    7990.9933 (a.u.)^3
     number of atoms/cell      =           54
     number of atomic types    =            4
     number of electrons       =       398.00
     number of Kohn-Sham states=          299
     kinetic-energy cutoff     =      40.4243  Ry
     charge density cutoff     =     404.2426  Ry
     convergence threshold     =      7.3E-07
     mixing beta               =       0.1000
     number of iterations used =           10  plain     mixing
     Exchange-correlation      = BEEF ( 1  4 27 13 2)
     nstep                     =           50


     celldm(1)=   1.889726  celldm(2)=   0.000000  celldm(3)=   0.000000
     celldm(4)=   0.000000  celldm(5)=   0.000000  celldm(6)=   0.000000

     crystal axes: (cart. coord. in units of alat)
               a(1) = (   6.590708   0.000000   0.000000 )  
               a(2) = (   0.000000   5.950229   0.000000 )  
               a(3) = (   0.000000   0.000000  30.195235 )  

     reciprocal axes: (cart. coord. in units 2 pi/alat)
               b(1) = (  0.151729  0.000000  0.000000 )  
               b(2) = (  0.000000  0.168061  0.000000 )  
               b(3) = (  0.000000  0.000000  0.033118 )  


     PseudoPot. # 1 for Ti read from file:
     /home/alatimer/bin/psp/esp_psp_w_gbrvRu/Ti.UPF
     MD5 check sum: 8e4df49b7f0d34bbd5052bf3f5ea0213
     Pseudo is Ultrasoft, Zval = 12.0
     Generated by new atomic code, or converted to UPF format
     Using radial grid of  851 points,  6 beta functions with: 
                l(1) =   0
                l(2) =   0
                l(3) =   1
                l(4) =   1
                l(5) =   2
                l(6) =   2
     Q(r) pseudized with  8 coefficients,  rinner =    1.000   1.000   1.000
                                                       1.000   1.000

     PseudoPot. # 2 for  O read from file:
     /home/alatimer/bin/psp/esp_psp_w_gbrvRu/O.UPF
     MD5 check sum: e057bbcf3229fb5d8c36c0c92f9568b4
     Pseudo is Ultrasoft + core correction, Zval =  6.0
     Generated using "atomic" code by A. Dal Corso  v.5.0.2 svn rev. 9415
     Using radial grid of 1095 points,  4 beta functions with: 
                l(1) =   0
                l(2) =   0
                l(3) =   1
                l(4) =   1
     Q(r) pseudized with 0 coefficients 


     PseudoPot. # 3 for  C read from file:
     /home/alatimer/bin/psp/esp_psp_w_gbrvRu/C.UPF
     MD5 check sum: ab446d787031eba755f1d5ee46644bb0
     Pseudo is Ultrasoft + core correction, Zval =  4.0
     Generated using "atomic" code by A. Dal Corso  v.5.0.2 svn rev. 9415
     Using radial grid of 1073 points,  4 beta functions with: 
                l(1) =   0
                l(2) =   0
                l(3) =   1
                l(4) =   1
     Q(r) pseudized with 0 coefficients 


     PseudoPot. # 4 for  H read from file:
     /home/alatimer/bin/psp/esp_psp_w_gbrvRu/H.UPF
     MD5 check sum: bd57da0722753ddfd9833a65b40bb853
     Pseudo is Ultrasoft, Zval =  1.0
     Generated using "atomic" code by A. Dal Corso  v.5.0.2 svn rev. 9415
     Using radial grid of  929 points,  2 beta functions with: 
                l(1) =   0
                l(2) =   0
     Q(r) pseudized with 0 coefficients 


     vdW kernel table read from file vdW_kernel_table
     MD5 check sum: 095c7af220d748ca6e76c0b4c6cfb241

     atomic species   valence    mass     pseudopotential
        Ti1           12.00    47.88000     Ti( 1.00)
        O1             6.00    15.99940      O( 1.00)
        C1             4.00    12.01100      C( 1.00)
        H1             1.00     1.00794      H( 1.00)

     Starting magnetic structure 
     atomic species   magnetization
        Ti1          0.250
        O1           0.500
        C1           0.750
        H1           0.000

     No symmetry found



   Cartesian axes

     site n.     atom                  positions (alat units)
         1           Ti1 tau(   1) = (   1.6476770   0.7437786   2.6545865  )
         2           O1  tau(   2) = (   1.6476770   2.2313359   3.9361215  )
         3           Ti1 tau(   3) = (   1.6476770   2.2313359   5.9499405  )
         4           O1  tau(   4) = (   0.3661420   0.7437786   5.9499405  )
         5           Ti1 tau(   5) = (   1.6407309   0.9134410   9.3139491  )
         6           O1  tau(   6) = (   1.6648823   2.2608486  10.4895904  )
         7           Ti1 tau(   7) = (   1.7578240   2.2899216  13.0472362  )
         8           O1  tau(   8) = (   0.4801583   0.7600008  12.7739736  )
         9           Ti1 tau(   9) = (   1.6476770   3.7188931   2.6545865  )
        10           O1  tau(  10) = (   1.6476770   5.2064503   3.9361215  )
        11           Ti1 tau(  11) = (   1.6476770   5.2064503   5.9499405  )
        12           O1  tau(  12) = (   0.3661420   3.7188931   5.9499405  )
        13           Ti1 tau(  13) = (   1.6336050   3.7786827   9.1566831  )
        14           O1  tau(  14) = (   1.6678212   5.2513959  10.5409436  )
        15           Ti1 tau(  15) = (   1.7144009   5.2558216  12.3462911  )
        16           O1  tau(  16) = (   0.4635505   3.7986228  12.7318280  )
        17           O1  tau(  17) = (   1.6476770   2.2313359   1.3730516  )
        18           Ti1 tau(  18) = (   4.9430310   2.2313359   2.6545865  )
        19           O1  tau(  19) = (   4.9430310   2.2313359   4.6684056  )
        20           O1  tau(  20) = (   6.2245660   0.7437786   2.6545865  )
        21           O1  tau(  21) = (   3.6614961   0.7437786   2.6545865  )
        22           Ti1 tau(  22) = (   4.9430310   0.7437786   5.9499405  )
        23           O1  tau(  23) = (   1.6683653   2.2752577   7.9427336  )
        24           O1  tau(  24) = (   4.9430310   2.2313359   7.2314755  )
        25           O1  tau(  25) = (   2.9292120   0.7437786   5.9499405  )
        26           Ti1 tau(  26) = (   4.9404121   2.2664794   9.4552217  )
        27           O1  tau(  27) = (   5.0099888   2.2616732  11.2946145  )
        28           O1  tau(  28) = (   6.2612001   0.7714827   9.2659748  )
        29           O1  tau(  29) = (   3.6791272   0.7744986   9.2965846  )
        30           Ti1 tau(  30) = (   5.0117873   0.7976728  12.8161605  )
        31           O1  tau(  31) = (   4.9963122   2.2836652  13.8750618  )
        32           O1  tau(  32) = (   2.9819382   0.7448324  12.7109220  )
        33           O1  tau(  33) = (   1.6476770   5.2064503   1.3730516  )
        34           Ti1 tau(  34) = (   4.9430310   5.2064503   2.6545865  )
        35           O1  tau(  35) = (   4.9430310   5.2064503   4.6684056  )
        36           O1  tau(  36) = (   6.2245660   3.7188931   2.6545865  )
        37           O1  tau(  37) = (   3.6614961   3.7188931   2.6545865  )
        38           Ti1 tau(  38) = (   4.9430310   3.7188931   5.9499405  )
        39           O1  tau(  39) = (   1.6664207   5.2035600   7.9365221  )
        40           O1  tau(  40) = (   4.9430310   5.2064503   7.2314755  )
        41           O1  tau(  41) = (   2.9292120   3.7188931   5.9499405  )
        42           Ti1 tau(  42) = (   4.9524353   5.2460635   9.4426343  )
        43           O1  tau(  43) = (   5.0107556   5.2394944  11.2927493  )
        44           O1  tau(  44) = (   6.2663940   3.7551737   9.2646230  )
        45           O1  tau(  45) = (   3.6780957   3.7542261   9.2971476  )
        46           Ti1 tau(  46) = (   5.0587989   3.7766986  12.8010349  )
        47           O1  tau(  47) = (   5.0196089   5.2502198  13.8813978  )
        48           O1  tau(  48) = (   2.9624133   3.7943242  12.7299881  )
        49           O1  tau(  49) = (   1.7427453   2.2533568  14.8370015  )
        50           C1  tau(  50) = (   2.7196098   4.2826273  16.2318421  )
        51           H1  tau(  51) = (   3.3037454   4.9255546  15.5827400  )
        52           H1  tau(  52) = (   3.3286606   3.7870117  16.9822022  )
        53           H1  tau(  53) = (   2.3125587   3.4026405  15.5429816  )
        54           H1  tau(  54) = (   1.8391288   4.7650601  16.6448379  )

     number of k points=    40  Fermi-Dirac smearing, width (Ry)=  0.0073
                       cart. coord. in units 2pi/alat
        k(    1) = (   0.0000000   0.0000000   0.0000000), wk =   0.0277778
        k(    2) = (   0.0000000   0.0280101   0.0000000), wk =   0.0555556
        k(    3) = (   0.0000000   0.0560203   0.0000000), wk =   0.0555556
        k(    4) = (   0.0000000  -0.0840304   0.0000000), wk =   0.0277778
        k(    5) = (   0.0252881   0.0000000   0.0000000), wk =   0.0555556
        k(    6) = (   0.0252881   0.0280101   0.0000000), wk =   0.0555556
        k(    7) = (   0.0252881   0.0560203   0.0000000), wk =   0.0555556
        k(    8) = (   0.0252881  -0.0840304   0.0000000), wk =   0.0555556
        k(    9) = (   0.0505763   0.0000000   0.0000000), wk =   0.0555556
        k(   10) = (   0.0505763   0.0280101   0.0000000), wk =   0.0555556
        k(   11) = (   0.0505763   0.0560203   0.0000000), wk =   0.0555556
        k(   12) = (   0.0505763  -0.0840304   0.0000000), wk =   0.0555556
        k(   13) = (  -0.0758644   0.0000000   0.0000000), wk =   0.0277778
        k(   14) = (  -0.0758644   0.0280101   0.0000000), wk =   0.0555556
        k(   15) = (  -0.0758644   0.0560203   0.0000000), wk =   0.0555556
        k(   16) = (  -0.0758644  -0.0840304   0.0000000), wk =   0.0277778
        k(   17) = (  -0.0252881   0.0280101   0.0000000), wk =   0.0555556
        k(   18) = (  -0.0252881   0.0560203   0.0000000), wk =   0.0555556
        k(   19) = (  -0.0505763   0.0280101   0.0000000), wk =   0.0555556
        k(   20) = (  -0.0505763   0.0560203   0.0000000), wk =   0.0555556
        k(   21) = (   0.0000000   0.0000000   0.0000000), wk =   0.0277778
        k(   22) = (   0.0000000   0.0280101   0.0000000), wk =   0.0555556
        k(   23) = (   0.0000000   0.0560203   0.0000000), wk =   0.0555556
        k(   24) = (   0.0000000  -0.0840304   0.0000000), wk =   0.0277778
        k(   25) = (   0.0252881   0.0000000   0.0000000), wk =   0.0555556
        k(   26) = (   0.0252881   0.0280101   0.0000000), wk =   0.0555556
        k(   27) = (   0.0252881   0.0560203   0.0000000), wk =   0.0555556
        k(   28) = (   0.0252881  -0.0840304   0.0000000), wk =   0.0555556
        k(   29) = (   0.0505763   0.0000000   0.0000000), wk =   0.0555556
        k(   30) = (   0.0505763   0.0280101   0.0000000), wk =   0.0555556
        k(   31) = (   0.0505763   0.0560203   0.0000000), wk =   0.0555556
        k(   32) = (   0.0505763  -0.0840304   0.0000000), wk =   0.0555556
        k(   33) = (  -0.0758644   0.0000000   0.0000000), wk =   0.0277778
        k(   34) = (  -0.0758644   0.0280101   0.0000000), wk =   0.0555556
        k(   35) = (  -0.0758644   0.0560203   0.0000000), wk =   0.0555556
        k(   36) = (  -0.0758644  -0.0840304   0.0000000), wk =   0.0277778
        k(   37) = (  -0.0252881   0.0280101   0.0000000), wk =   0.0555556
        k(   38) = (  -0.0252881   0.0560203   0.0000000), wk =   0.0555556
        k(   39) = (  -0.0505763   0.0280101   0.0000000), wk =   0.0555556
        k(   40) = (  -0.0505763   0.0560203   0.0000000), wk =   0.0555556

     Dense  grid:  1096637 G-vectors     FFT dimensions: (  80,  72, 375)

     Smooth grid:   277353 G-vectors     FFT dimensions: (  54,  45, 240)

     Largest allocated arrays     est. size (Mb)     dimensions
        Kohn-Sham Wavefunctions         9.95 Mb     (    2180,  299)
        NL pseudopotentials            18.89 Mb     (    2180,  568)
        Each V/rho on FFT grid          4.22 Mb     (  138240,   2)
        Each G-vector array             0.52 Mb     (   68538)
        G-vector shells                 0.25 Mb     (   33046)
     Largest temporary arrays     est. size (Mb)     dimensions
        Auxiliary wavefunctions        39.78 Mb     (    2180, 1196)
        Each subspace H/S matrix       21.83 Mb     (    1196, 1196)
        Each <psi_i|beta_j> matrix      2.59 Mb     (     568,  299)
        Arrays for rho mixing          21.09 Mb     (  138240,   10)

     Check: negative/imaginary core charge=   -0.000049    0.000000

     The initial density is read from file :
     ./calc.save/charge-density.dat


     negative rho (up, down):  1.189E-02 1.196E-02


     ************************************************************************
     *
     * You are using vdW-DF for exchange-correlation in this calculation.
     * Please cite the following three references that made this development
     * possible:
     *
     *   M. Dion, H. Rydberg, E. Schroder, D. C. Langreth, and
     *   B. I. Lundqvist, Phys. Rev. Lett. 92, 246401 (2004).
     *
     *   T. Thonhauser, V. R. Cooper, S. Li, A. Puzder, P. Hyldgaard, and
     *   D. C. Langreth, Phys. Rev. B 76, 125112 (2007).
     *
     *   G. Roman-Perez and J. M. Soler, Phys. Rev. Lett. 103, 096102 (2009).
     *
     *
     * If you are using vdW-DF2, please also cite:
     *
     *   K. Lee, E. D. Murray, L. Kong, B. I. Lundqvist, and
     *   D. C. Langreth, Phys. Rev. B 82, 081101(R) (2010).
     *
     *
     * If you are calculating the stress with vdW-DF, please also cite:
     *
     *   R. Sabatini, E. Kucukbenli, B. Kolb, T. Thonhauser, and
     *   S. de Gironcoli, J. Phys.: Condens. Matter 24, 424209 (2012).
     *
     ************************************************************************

     Carrying out vdW-DF run using the following parameters:

     Nqs =      20    Nr_points =    1024   r_max =   100.000
     q_mesh =
               0.00001000     0.04494208     0.09755937     0.15916263
               0.23128650     0.31572767     0.41458969     0.53033537
               0.66584808     0.82450364     1.01025438     1.22772762
               1.48234092     1.78043706     2.12944203     2.53805004
               3.01644009     3.57652955     4.23227104     5.00000000

     Gradients computed in reciprocal space

     ************************************************************************


     Starting wfc are  300 randomized atomic wfcs

     total cpu time spent up to now is       78.8 secs

     Self-consistent Calculation

     iteration #  1     ecut=    40.42 Ry     beta=0.10
     Davidson diagonalization with overlap
     ethr =  1.00E-05,  avg # of iterations = 15.1

     negative rho (up, down):  1.189E-02 1.196E-02
 
     Magnetic moment per site:
     atom:    1    charge:    3.1244    magn:   -0.0003    constr:    0.0000
     atom:    2    charge:    2.0895    magn:    0.0003    constr:    0.0000
     atom:    3    charge:    3.1198    magn:   -0.0000    constr:    0.0000
     atom:    4    charge:    2.0867    magn:   -0.0001    constr:    0.0000
     atom:    5    charge:    3.1161    magn:   -0.0002    constr:    0.0000
     atom:    6    charge:    2.0797    magn:    0.0020    constr:    0.0000
     atom:    7    charge:    3.1167    magn:   -0.0052    constr:    0.0000
     atom:    8    charge:    2.0795    magn:    0.0247    constr:    0.0000
     atom:    9    charge:    3.1244    magn:   -0.0003    constr:    0.0000
     atom:   10    charge:    2.0897    magn:    0.0003    constr:    0.0000
     atom:   11    charge:    3.1198    magn:   -0.0000    constr:    0.0000
     atom:   12    charge:    2.0870    magn:   -0.0000    constr:    0.0000
     atom:   13    charge:    3.1150    magn:   -0.0002    constr:    0.0000
     atom:   14    charge:    2.0940    magn:    0.0022    constr:    0.0000
     atom:   15    charge:    3.1184    magn:   -0.0008    constr:    0.0000
     atom:   16    charge:    2.0830    magn:    0.0046    constr:    0.0000
     atom:   17    charge:    2.0618    magn:    0.0018    constr:    0.0000
     atom:   18    charge:    3.1239    magn:   -0.0001    constr:    0.0000
     atom:   19    charge:    2.0875    magn:    0.0001    constr:    0.0000
     atom:   20    charge:    2.0847    magn:    0.0002    constr:    0.0000
     atom:   21    charge:    2.0847    magn:    0.0002    constr:    0.0000
     atom:   22    charge:    3.1199    magn:    0.0000    constr:    0.0000
     atom:   23    charge:    2.0908    magn:    0.0002    constr:    0.0000
     atom:   24    charge:    2.0754    magn:   -0.0002    constr:    0.0000
     atom:   25    charge:    2.0867    magn:    0.0000    constr:    0.0000
     atom:   26    charge:    3.1126    magn:   -0.0002    constr:    0.0000
     atom:   27    charge:    2.0805    magn:    0.0024    constr:    0.0000
     atom:   28    charge:    2.0840    magn:    0.0006    constr:    0.0000
     atom:   29    charge:    2.0861    magn:    0.0008    constr:    0.0000
     atom:   30    charge:    3.1171    magn:   -0.0008    constr:    0.0000
     atom:   31    charge:    2.0825    magn:    0.0006    constr:    0.0000
     atom:   32    charge:    2.0831    magn:    0.0064    constr:    0.0000
     atom:   33    charge:    2.0617    magn:    0.0018    constr:    0.0000
     atom:   34    charge:    3.1239    magn:   -0.0001    constr:    0.0000
     atom:   35    charge:    2.0875    magn:    0.0001    constr:    0.0000
     atom:   36    charge:    2.0847    magn:    0.0002    constr:    0.0000
     atom:   37    charge:    2.0847    magn:    0.0002    constr:    0.0000
     atom:   38    charge:    3.1200    magn:    0.0000    constr:    0.0000
     atom:   39    charge:    2.0839    magn:    0.0002    constr:    0.0000
     atom:   40    charge:    2.0757    magn:   -0.0003    constr:    0.0000
     atom:   41    charge:    2.0870    magn:   -0.0000    constr:    0.0000
     atom:   42    charge:    3.1151    magn:   -0.0002    constr:    0.0000
     atom:   43    charge:    2.0805    magn:    0.0030    constr:    0.0000
     atom:   44    charge:    2.0852    magn:    0.0008    constr:    0.0000
     atom:   45    charge:    2.0860    magn:    0.0004    constr:    0.0000
     atom:   46    charge:    3.1148    magn:   -0.0007    constr:    0.0000
     atom:   47    charge:    2.0807    magn:    0.0046    constr:    0.0000
     atom:   48    charge:    2.0841    magn:    0.0134    constr:    0.0000
     atom:   49    charge:    2.0529    magn:    0.2388    constr:    0.0000
     atom:   50    charge:    0.6703    magn:    0.0551    constr:    0.0000
     atom:   51    charge:    0.4221    magn:    0.0010    constr:    0.0000
     atom:   52    charge:    0.4226    magn:    0.0008    constr:    0.0000
     atom:   53    charge:    0.3616    magn:    0.0219    constr:    0.0000
     atom:   54    charge:    0.4231    magn:    0.0007    constr:    0.0000

     total cpu time spent up to now is     1045.4 secs

     total energy              =   -3021.14912979 Ry
     Harris-Foulkes estimate   =   -3021.15057108 Ry
     estimated scf accuracy    <       0.00892149 Ry

     total magnetization       =     1.05 Bohr mag/cell
     absolute magnetization    =     1.22 Bohr mag/cell

     iteration #  2     ecut=    40.42 Ry     beta=0.10
     Davidson diagonalization with overlap
     c_bands:  1 eigenvalues not converged
     c_bands:  1 eigenvalues not converged
     ethr =  2.24E-06,  avg # of iterations =  7.0

     negative rho (up, down):  1.189E-02 1.196E-02
 
     Magnetic moment per site:
     atom:    1    charge:    3.1244    magn:   -0.0003    constr:    0.0000
     atom:    2    charge:    2.0897    magn:    0.0003    constr:    0.0000
     atom:    3    charge:    3.1198    magn:   -0.0000    constr:    0.0000
     atom:    4    charge:    2.0867    magn:   -0.0001    constr:    0.0000
     atom:    5    charge:    3.1161    magn:   -0.0002    constr:    0.0000
     atom:    6    charge:    2.0795    magn:    0.0020    constr:    0.0000
     atom:    7    charge:    3.1167    magn:   -0.0052    constr:    0.0000
     atom:    8    charge:    2.0794    magn:    0.0247    constr:    0.0000
     atom:    9    charge:    3.1244    magn:   -0.0003    constr:    0.0000
     atom:   10    charge:    2.0898    magn:    0.0003    constr:    0.0000
     atom:   11    charge:    3.1198    magn:   -0.0000    constr:    0.0000
     atom:   12    charge:    2.0871    magn:   -0.0000    constr:    0.0000
     atom:   13    charge:    3.1150    magn:   -0.0002    constr:    0.0000
     atom:   14    charge:    2.0939    magn:    0.0022    constr:    0.0000
     atom:   15    charge:    3.1184    magn:   -0.0008    constr:    0.0000
     atom:   16    charge:    2.0829    magn:    0.0046    constr:    0.0000
     atom:   17    charge:    2.0624    magn:    0.0018    constr:    0.0000
     atom:   18    charge:    3.1239    magn:   -0.0001    constr:    0.0000
     atom:   19    charge:    2.0876    magn:    0.0001    constr:    0.0000
     atom:   20    charge:    2.0847    magn:    0.0002    constr:    0.0000
     atom:   21    charge:    2.0847    magn:    0.0002    constr:    0.0000
     atom:   22    charge:    3.1199    magn:    0.0000    constr:    0.0000
     atom:   23    charge:    2.0908    magn:    0.0002    constr:    0.0000
     atom:   24    charge:    2.0754    magn:   -0.0002    constr:    0.0000
     atom:   25    charge:    2.0868    magn:    0.0000    constr:    0.0000
     atom:   26    charge:    3.1127    magn:   -0.0002    constr:    0.0000
     atom:   27    charge:    2.0803    magn:    0.0024    constr:    0.0000
     atom:   28    charge:    2.0839    magn:    0.0006    constr:    0.0000
     atom:   29    charge:    2.0860    magn:    0.0008    constr:    0.0000
     atom:   30    charge:    3.1171    magn:   -0.0008    constr:    0.0000
     atom:   31    charge:    2.0825    magn:    0.0006    constr:    0.0000
     atom:   32    charge:    2.0829    magn:    0.0064    constr:    0.0000
     atom:   33    charge:    2.0624    magn:    0.0018    constr:    0.0000
     atom:   34    charge:    3.1239    magn:   -0.0001    constr:    0.0000
     atom:   35    charge:    2.0876    magn:    0.0001    constr:    0.0000
     atom:   36    charge:    2.0847    magn:    0.0002    constr:    0.0000
     atom:   37    charge:    2.0847    magn:    0.0002    constr:    0.0000
     atom:   38    charge:    3.1200    magn:    0.0000    constr:    0.0000
     atom:   39    charge:    2.0839    magn:    0.0002    constr:    0.0000
     atom:   40    charge:    2.0756    magn:   -0.0003    constr:    0.0000
     atom:   41    charge:    2.0870    magn:   -0.0000    constr:    0.0000
     atom:   42    charge:    3.1151    magn:   -0.0002    constr:    0.0000
     atom:   43    charge:    2.0803    magn:    0.0030    constr:    0.0000
     atom:   44    charge:    2.0851    magn:    0.0008    constr:    0.0000
     atom:   45    charge:    2.0858    magn:    0.0004    constr:    0.0000
     atom:   46    charge:    3.1148    magn:   -0.0007    constr:    0.0000
     atom:   47    charge:    2.0806    magn:    0.0046    constr:    0.0000
     atom:   48    charge:    2.0840    magn:    0.0134    constr:    0.0000
     atom:   49    charge:    2.0530    magn:    0.2387    constr:    0.0000
     atom:   50    charge:    0.6700    magn:    0.0552    constr:    0.0000
     atom:   51    charge:    0.4221    magn:    0.0010    constr:    0.0000
     atom:   52    charge:    0.4226    magn:    0.0008    constr:    0.0000
     atom:   53    charge:    0.3615    magn:    0.0220    constr:    0.0000
     atom:   54    charge:    0.4231    magn:    0.0007    constr:    0.0000

     total cpu time spent up to now is     1351.4 secs

     total energy              =   -3021.14916685 Ry
     Harris-Foulkes estimate   =   -3021.15097701 Ry
     estimated scf accuracy    <       0.03002379 Ry

     total magnetization       =     1.08 Bohr mag/cell
     absolute magnetization    =     1.24 Bohr mag/cell

     iteration #  3     ecut=    40.42 Ry     beta=0.10
     Davidson diagonalization with overlap
     ethr =  2.24E-06,  avg # of iterations =  6.2

     negative rho (up, down):  1.189E-02 1.196E-02
 
     Magnetic moment per site:
     atom:    1    charge:    3.1244    magn:   -0.0003    constr:    0.0000
     atom:    2    charge:    2.0897    magn:    0.0003    constr:    0.0000
     atom:    3    charge:    3.1198    magn:   -0.0000    constr:    0.0000
     atom:    4    charge:    2.0867    magn:   -0.0001    constr:    0.0000
     atom:    5    charge:    3.1161    magn:   -0.0002    constr:    0.0000
     atom:    6    charge:    2.0795    magn:    0.0021    constr:    0.0000
     atom:    7    charge:    3.1168    magn:   -0.0050    constr:    0.0000
     atom:    8    charge:    2.0794    magn:    0.0244    constr:    0.0000
     atom:    9    charge:    3.1244    magn:   -0.0003    constr:    0.0000
     atom:   10    charge:    2.0899    magn:    0.0003    constr:    0.0000
     atom:   11    charge:    3.1198    magn:   -0.0000    constr:    0.0000
     atom:   12    charge:    2.0870    magn:   -0.0000    constr:    0.0000
     atom:   13    charge:    3.1150    magn:   -0.0002    constr:    0.0000
     atom:   14    charge:    2.0939    magn:    0.0022    constr:    0.0000
     atom:   15    charge:    3.1185    magn:   -0.0008    constr:    0.0000
     atom:   16    charge:    2.0829    magn:    0.0046    constr:    0.0000
     atom:   17    charge:    2.0627    magn:    0.0016    constr:    0.0000
     atom:   18    charge:    3.1240    magn:   -0.0001    constr:    0.0000
     atom:   19    charge:    2.0875    magn:    0.0001    constr:    0.0000
     atom:   20    charge:    2.0847    magn:    0.0002    constr:    0.0000
     atom:   21    charge:    2.0847    magn:    0.0002    constr:    0.0000
     atom:   22    charge:    3.1199    magn:    0.0000    constr:    0.0000
     atom:   23    charge:    2.0908    magn:    0.0002    constr:    0.0000
     atom:   24    charge:    2.0753    magn:   -0.0002    constr:    0.0000
     atom:   25    charge:    2.0867    magn:    0.0000    constr:    0.0000
     atom:   26    charge:    3.1127    magn:   -0.0002    constr:    0.0000
     atom:   27    charge:    2.0802    magn:    0.0025    constr:    0.0000
     atom:   28    charge:    2.0838    magn:    0.0006    constr:    0.0000
     atom:   29    charge:    2.0860    magn:    0.0008    constr:    0.0000
     atom:   30    charge:    3.1171    magn:   -0.0008    constr:    0.0000
     atom:   31    charge:    2.0826    magn:    0.0006    constr:    0.0000
     atom:   32    charge:    2.0829    magn:    0.0064    constr:    0.0000
     atom:   33    charge:    2.0627    magn:    0.0016    constr:    0.0000
     atom:   34    charge:    3.1239    magn:   -0.0001    constr:    0.0000
     atom:   35    charge:    2.0875    magn:    0.0001    constr:    0.0000
     atom:   36    charge:    2.0847    magn:    0.0002    constr:    0.0000
     atom:   37    charge:    2.0847    magn:    0.0002    constr:    0.0000
     atom:   38    charge:    3.1200    magn:    0.0000    constr:    0.0000
     atom:   39    charge:    2.0839    magn:    0.0002    constr:    0.0000
     atom:   40    charge:    2.0756    magn:   -0.0002    constr:    0.0000
     atom:   41    charge:    2.0870    magn:   -0.0000    constr:    0.0000
     atom:   42    charge:    3.1151    magn:   -0.0002    constr:    0.0000
     atom:   43    charge:    2.0802    magn:    0.0030    constr:    0.0000
     atom:   44    charge:    2.0850    magn:    0.0008    constr:    0.0000
     atom:   45    charge:    2.0858    magn:    0.0004    constr:    0.0000
     atom:   46    charge:    3.1148    magn:   -0.0007    constr:    0.0000
     atom:   47    charge:    2.0807    magn:    0.0045    constr:    0.0000
     atom:   48    charge:    2.0842    magn:    0.0131    constr:    0.0000
     atom:   49    charge:    2.0538    magn:    0.2372    constr:    0.0000
     atom:   50    charge:    0.6684    magn:    0.0559    constr:    0.0000
     atom:   51    charge:    0.4223    magn:    0.0012    constr:    0.0000
     atom:   52    charge:    0.4226    magn:    0.0008    constr:    0.0000
     atom:   53    charge:    0.3609    magn:    0.0227    constr:    0.0000
     atom:   54    charge:    0.4231    magn:    0.0007    constr:    0.0000

     total cpu time spent up to now is     1643.5 secs

     total energy              =   -3021.14959114 Ry
     Harris-Foulkes estimate   =   -3021.14999657 Ry
     estimated scf accuracy    <       0.00157428 Ry

     total magnetization       =     1.06 Bohr mag/cell
     absolute magnetization    =     1.23 Bohr mag/cell

     iteration #  4     ecut=    40.42 Ry     beta=0.10
     Davidson diagonalization with overlap
     ethr =  3.96E-07,  avg # of iterations =  5.2

     negative rho (up, down):  1.189E-02 1.196E-02
 
     Magnetic moment per site:
     atom:    1    charge:    3.1244    magn:   -0.0003    constr:    0.0000
     atom:    2    charge:    2.0897    magn:    0.0003    constr:    0.0000
     atom:    3    charge:    3.1198    magn:   -0.0000    constr:    0.0000
     atom:    4    charge:    2.0867    magn:   -0.0001    constr:    0.0000
     atom:    5    charge:    3.1161    magn:   -0.0002    constr:    0.0000
     atom:    6    charge:    2.0795    magn:    0.0021    constr:    0.0000
     atom:    7    charge:    3.1168    magn:   -0.0050    constr:    0.0000
     atom:    8    charge:    2.0794    magn:    0.0243    constr:    0.0000
     atom:    9    charge:    3.1244    magn:   -0.0003    constr:    0.0000
     atom:   10    charge:    2.0899    magn:    0.0003    constr:    0.0000
     atom:   11    charge:    3.1198    magn:   -0.0000    constr:    0.0000
     atom:   12    charge:    2.0871    magn:   -0.0000    constr:    0.0000
     atom:   13    charge:    3.1150    magn:   -0.0002    constr:    0.0000
     atom:   14    charge:    2.0939    magn:    0.0022    constr:    0.0000
     atom:   15    charge:    3.1185    magn:   -0.0008    constr:    0.0000
     atom:   16    charge:    2.0829    magn:    0.0046    constr:    0.0000
     atom:   17    charge:    2.0626    magn:    0.0016    constr:    0.0000
     atom:   18    charge:    3.1240    magn:   -0.0001    constr:    0.0000
     atom:   19    charge:    2.0875    magn:    0.0001    constr:    0.0000
     atom:   20    charge:    2.0847    magn:    0.0001    constr:    0.0000
     atom:   21    charge:    2.0847    magn:    0.0001    constr:    0.0000
     atom:   22    charge:    3.1199    magn:    0.0000    constr:    0.0000
     atom:   23    charge:    2.0908    magn:    0.0002    constr:    0.0000
     atom:   24    charge:    2.0754    magn:   -0.0001    constr:    0.0000
     atom:   25    charge:    2.0867    magn:    0.0000    constr:    0.0000
     atom:   26    charge:    3.1127    magn:   -0.0002    constr:    0.0000
     atom:   27    charge:    2.0802    magn:    0.0025    constr:    0.0000
     atom:   28    charge:    2.0838    magn:    0.0006    constr:    0.0000
     atom:   29    charge:    2.0860    magn:    0.0008    constr:    0.0000
     atom:   30    charge:    3.1171    magn:   -0.0008    constr:    0.0000
     atom:   31    charge:    2.0826    magn:    0.0006    constr:    0.0000
     atom:   32    charge:    2.0829    magn:    0.0064    constr:    0.0000
     atom:   33    charge:    2.0626    magn:    0.0016    constr:    0.0000
     atom:   34    charge:    3.1239    magn:   -0.0001    constr:    0.0000
     atom:   35    charge:    2.0876    magn:    0.0001    constr:    0.0000
     atom:   36    charge:    2.0847    magn:    0.0001    constr:    0.0000
     atom:   37    charge:    2.0847    magn:    0.0001    constr:    0.0000
     atom:   38    charge:    3.1200    magn:    0.0000    constr:    0.0000
     atom:   39    charge:    2.0839    magn:    0.0002    constr:    0.0000
     atom:   40    charge:    2.0756    magn:   -0.0002    constr:    0.0000
     atom:   41    charge:    2.0870    magn:   -0.0000    constr:    0.0000
     atom:   42    charge:    3.1151    magn:   -0.0002    constr:    0.0000
     atom:   43    charge:    2.0802    magn:    0.0030    constr:    0.0000
     atom:   44    charge:    2.0851    magn:    0.0009    constr:    0.0000
     atom:   45    charge:    2.0858    magn:    0.0004    constr:    0.0000
     atom:   46    charge:    3.1148    magn:   -0.0007    constr:    0.0000
     atom:   47    charge:    2.0807    magn:    0.0045    constr:    0.0000
     atom:   48    charge:    2.0841    magn:    0.0131    constr:    0.0000
     atom:   49    charge:    2.0535    magn:    0.2370    constr:    0.0000
     atom:   50    charge:    0.6684    magn:    0.0560    constr:    0.0000
     atom:   51    charge:    0.4223    magn:    0.0013    constr:    0.0000
     atom:   52    charge:    0.4226    magn:    0.0007    constr:    0.0000
     atom:   53    charge:    0.3609    magn:    0.0228    constr:    0.0000
     atom:   54    charge:    0.4231    magn:    0.0007    constr:    0.0000

     total cpu time spent up to now is     1923.8 secs

     total energy              =   -3021.14974293 Ry
     Harris-Foulkes estimate   =   -3021.14978003 Ry
     estimated scf accuracy    <       0.00075025 Ry

     total magnetization       =     1.06 Bohr mag/cell
     absolute magnetization    =     1.23 Bohr mag/cell

     iteration #  5     ecut=    40.42 Ry     beta=0.10
     Davidson diagonalization with overlap
     ethr =  1.89E-07,  avg # of iterations =  1.0

     negative rho (up, down):  1.189E-02 1.196E-02
 
     Magnetic moment per site:
     atom:    1    charge:    3.1244    magn:   -0.0003    constr:    0.0000
     atom:    2    charge:    2.0897    magn:    0.0003    constr:    0.0000
     atom:    3    charge:    3.1198    magn:   -0.0000    constr:    0.0000
     atom:    4    charge:    2.0867    magn:   -0.0001    constr:    0.0000
     atom:    5    charge:    3.1161    magn:   -0.0002    constr:    0.0000
     atom:    6    charge:    2.0795    magn:    0.0021    constr:    0.0000
     atom:    7    charge:    3.1167    magn:   -0.0049    constr:    0.0000
     atom:    8    charge:    2.0793    magn:    0.0242    constr:    0.0000
     atom:    9    charge:    3.1244    magn:   -0.0003    constr:    0.0000
     atom:   10    charge:    2.0898    magn:    0.0003    constr:    0.0000
     atom:   11    charge:    3.1198    magn:   -0.0000    constr:    0.0000
     atom:   12    charge:    2.0871    magn:   -0.0000    constr:    0.0000
     atom:   13    charge:    3.1150    magn:   -0.0002    constr:    0.0000
     atom:   14    charge:    2.0939    magn:    0.0022    constr:    0.0000
     atom:   15    charge:    3.1184    magn:   -0.0008    constr:    0.0000
     atom:   16    charge:    2.0829    magn:    0.0046    constr:    0.0000
     atom:   17    charge:    2.0624    magn:    0.0015    constr:    0.0000
     atom:   18    charge:    3.1240    magn:   -0.0001    constr:    0.0000
     atom:   19    charge:    2.0875    magn:    0.0001    constr:    0.0000
     atom:   20    charge:    2.0847    magn:    0.0001    constr:    0.0000
     atom:   21    charge:    2.0847    magn:    0.0001    constr:    0.0000
     atom:   22    charge:    3.1199    magn:    0.0000    constr:    0.0000
     atom:   23    charge:    2.0908    magn:    0.0002    constr:    0.0000
     atom:   24    charge:    2.0754    magn:   -0.0001    constr:    0.0000
     atom:   25    charge:    2.0868    magn:    0.0000    constr:    0.0000
     atom:   26    charge:    3.1127    magn:   -0.0002    constr:    0.0000
     atom:   27    charge:    2.0802    magn:    0.0025    constr:    0.0000
     atom:   28    charge:    2.0839    magn:    0.0006    constr:    0.0000
     atom:   29    charge:    2.0860    magn:    0.0008    constr:    0.0000
     atom:   30    charge:    3.1171    magn:   -0.0008    constr:    0.0000
     atom:   31    charge:    2.0827    magn:    0.0006    constr:    0.0000
     atom:   32    charge:    2.0829    magn:    0.0064    constr:    0.0000
     atom:   33    charge:    2.0624    magn:    0.0015    constr:    0.0000
     atom:   34    charge:    3.1240    magn:   -0.0001    constr:    0.0000
     atom:   35    charge:    2.0875    magn:    0.0001    constr:    0.0000
     atom:   36    charge:    2.0847    magn:    0.0001    constr:    0.0000
     atom:   37    charge:    2.0847    magn:    0.0001    constr:    0.0000
     atom:   38    charge:    3.1200    magn:    0.0000    constr:    0.0000
     atom:   39    charge:    2.0839    magn:    0.0002    constr:    0.0000
     atom:   40    charge:    2.0757    magn:   -0.0002    constr:    0.0000
     atom:   41    charge:    2.0870    magn:   -0.0000    constr:    0.0000
     atom:   42    charge:    3.1151    magn:   -0.0002    constr:    0.0000
     atom:   43    charge:    2.0803    magn:    0.0030    constr:    0.0000
     atom:   44    charge:    2.0851    magn:    0.0009    constr:    0.0000
     atom:   45    charge:    2.0858    magn:    0.0004    constr:    0.0000
     atom:   46    charge:    3.1147    magn:   -0.0007    constr:    0.0000
     atom:   47    charge:    2.0809    magn:    0.0045    constr:    0.0000
     atom:   48    charge:    2.0838    magn:    0.0130    constr:    0.0000
     atom:   49    charge:    2.0527    magn:    0.2365    constr:    0.0000
     atom:   50    charge:    0.6688    magn:    0.0563    constr:    0.0000
     atom:   51    charge:    0.4222    magn:    0.0013    constr:    0.0000
     atom:   52    charge:    0.4226    magn:    0.0007    constr:    0.0000
     atom:   53    charge:    0.3608    magn:    0.0227    constr:    0.0000
     atom:   54    charge:    0.4230    magn:    0.0006    constr:    0.0000

     total cpu time spent up to now is     2124.6 secs

     total energy              =   -3021.14972974 Ry
     Harris-Foulkes estimate   =   -3021.14975626 Ry
     estimated scf accuracy    <       0.00027363 Ry

     total magnetization       =     1.06 Bohr mag/cell
     absolute magnetization    =     1.23 Bohr mag/cell

     iteration #  6     ecut=    40.42 Ry     beta=0.10
     Davidson diagonalization with overlap
     ethr =  6.88E-08,  avg # of iterations =  2.0

     negative rho (up, down):  1.189E-02 1.196E-02
 
     Magnetic moment per site:
     atom:    1    charge:    3.1244    magn:   -0.0002    constr:    0.0000
     atom:    2    charge:    2.0897    magn:    0.0002    constr:    0.0000
     atom:    3    charge:    3.1198    magn:   -0.0000    constr:    0.0000
     atom:    4    charge:    2.0867    magn:   -0.0001    constr:    0.0000
     atom:    5    charge:    3.1161    magn:   -0.0002    constr:    0.0000
     atom:    6    charge:    2.0795    magn:    0.0021    constr:    0.0000
     atom:    7    charge:    3.1165    magn:   -0.0048    constr:    0.0000
     atom:    8    charge:    2.0793    magn:    0.0241    constr:    0.0000
     atom:    9    charge:    3.1244    magn:   -0.0002    constr:    0.0000
     atom:   10    charge:    2.0898    magn:    0.0002    constr:    0.0000
     atom:   11    charge:    3.1198    magn:   -0.0000    constr:    0.0000
     atom:   12    charge:    2.0870    magn:   -0.0000    constr:    0.0000
     atom:   13    charge:    3.1150    magn:   -0.0002    constr:    0.0000
     atom:   14    charge:    2.0939    magn:    0.0022    constr:    0.0000
     atom:   15    charge:    3.1184    magn:   -0.0008    constr:    0.0000
     atom:   16    charge:    2.0828    magn:    0.0045    constr:    0.0000
     atom:   17    charge:    2.0625    magn:    0.0013    constr:    0.0000
     atom:   18    charge:    3.1240    magn:   -0.0001    constr:    0.0000
     atom:   19    charge:    2.0875    magn:    0.0001    constr:    0.0000
     atom:   20    charge:    2.0847    magn:    0.0001    constr:    0.0000
     atom:   21    charge:    2.0847    magn:    0.0001    constr:    0.0000
     atom:   22    charge:    3.1199    magn:    0.0000    constr:    0.0000
     atom:   23    charge:    2.0908    magn:    0.0002    constr:    0.0000
     atom:   24    charge:    2.0753    magn:   -0.0001    constr:    0.0000
     atom:   25    charge:    2.0867    magn:    0.0000    constr:    0.0000
     atom:   26    charge:    3.1127    magn:   -0.0002    constr:    0.0000
     atom:   27    charge:    2.0802    magn:    0.0025    constr:    0.0000
     atom:   28    charge:    2.0839    magn:    0.0007    constr:    0.0000
     atom:   29    charge:    2.0860    magn:    0.0008    constr:    0.0000
     atom:   30    charge:    3.1171    magn:   -0.0008    constr:    0.0000
     atom:   31    charge:    2.0827    magn:    0.0006    constr:    0.0000
     atom:   32    charge:    2.0829    magn:    0.0063    constr:    0.0000
     atom:   33    charge:    2.0625    magn:    0.0013    constr:    0.0000
     atom:   34    charge:    3.1239    magn:   -0.0001    constr:    0.0000
     atom:   35    charge:    2.0875    magn:    0.0000    constr:    0.0000
     atom:   36    charge:    2.0847    magn:    0.0001    constr:    0.0000
     atom:   37    charge:    2.0847    magn:    0.0001    constr:    0.0000
     atom:   38    charge:    3.1200    magn:    0.0000    constr:    0.0000
     atom:   39    charge:    2.0839    magn:    0.0002    constr:    0.0000
     atom:   40    charge:    2.0756    magn:   -0.0002    constr:    0.0000
     atom:   41    charge:    2.0870    magn:   -0.0000    constr:    0.0000
     atom:   42    charge:    3.1151    magn:   -0.0002    constr:    0.0000
     atom:   43    charge:    2.0803    magn:    0.0030    constr:    0.0000
     atom:   44    charge:    2.0851    magn:    0.0009    constr:    0.0000
     atom:   45    charge:    2.0858    magn:    0.0005    constr:    0.0000
     atom:   46    charge:    3.1147    magn:   -0.0007    constr:    0.0000
     atom:   47    charge:    2.0808    magn:    0.0045    constr:    0.0000
     atom:   48    charge:    2.0836    magn:    0.0128    constr:    0.0000
     atom:   49    charge:    2.0522    magn:    0.2357    constr:    0.0000
     atom:   50    charge:    0.6692    magn:    0.0568    constr:    0.0000
     atom:   51    charge:    0.4220    magn:    0.0014    constr:    0.0000
     atom:   52    charge:    0.4226    magn:    0.0006    constr:    0.0000
     atom:   53    charge:    0.3608    magn:    0.0227    constr:    0.0000
     atom:   54    charge:    0.4230    magn:    0.0006    constr:    0.0000

     total cpu time spent up to now is     2344.0 secs

     total energy              =   -3021.14972193 Ry
     Harris-Foulkes estimate   =   -3021.14974492 Ry
     estimated scf accuracy    <       0.00024966 Ry

     total magnetization       =     1.06 Bohr mag/cell
     absolute magnetization    =     1.23 Bohr mag/cell

     iteration #  7     ecut=    40.42 Ry     beta=0.10
     Davidson diagonalization with overlap
     ethr =  6.27E-08,  avg # of iterations =  3.1

     negative rho (up, down):  1.189E-02 1.196E-02
 
     Magnetic moment per site:
     atom:    1    charge:    3.1244    magn:   -0.0002    constr:    0.0000
     atom:    2    charge:    2.0897    magn:    0.0002    constr:    0.0000
     atom:    3    charge:    3.1198    magn:   -0.0000    constr:    0.0000
     atom:    4    charge:    2.0867    magn:   -0.0001    constr:    0.0000
     atom:    5    charge:    3.1161    magn:   -0.0002    constr:    0.0000
     atom:    6    charge:    2.0795    magn:    0.0021    constr:    0.0000
     atom:    7    charge:    3.1165    magn:   -0.0048    constr:    0.0000
     atom:    8    charge:    2.0793    magn:    0.0241    constr:    0.0000
     atom:    9    charge:    3.1244    magn:   -0.0002    constr:    0.0000
     atom:   10    charge:    2.0898    magn:    0.0002    constr:    0.0000
     atom:   11    charge:    3.1198    magn:   -0.0000    constr:    0.0000
     atom:   12    charge:    2.0870    magn:   -0.0000    constr:    0.0000
     atom:   13    charge:    3.1150    magn:   -0.0002    constr:    0.0000
     atom:   14    charge:    2.0939    magn:    0.0022    constr:    0.0000
     atom:   15    charge:    3.1184    magn:   -0.0008    constr:    0.0000
     atom:   16    charge:    2.0828    magn:    0.0045    constr:    0.0000
     atom:   17    charge:    2.0624    magn:    0.0012    constr:    0.0000
     atom:   18    charge:    3.1239    magn:   -0.0001    constr:    0.0000
     atom:   19    charge:    2.0876    magn:    0.0000    constr:    0.0000
     atom:   20    charge:    2.0847    magn:    0.0001    constr:    0.0000
     atom:   21    charge:    2.0847    magn:    0.0001    constr:    0.0000
     atom:   22    charge:    3.1199    magn:    0.0000    constr:    0.0000
     atom:   23    charge:    2.0908    magn:    0.0002    constr:    0.0000
     atom:   24    charge:    2.0754    magn:   -0.0001    constr:    0.0000
     atom:   25    charge:    2.0867    magn:    0.0000    constr:    0.0000
     atom:   26    charge:    3.1127    magn:   -0.0002    constr:    0.0000
     atom:   27    charge:    2.0803    magn:    0.0026    constr:    0.0000
     atom:   28    charge:    2.0839    magn:    0.0007    constr:    0.0000
     atom:   29    charge:    2.0860    magn:    0.0008    constr:    0.0000
     atom:   30    charge:    3.1171    magn:   -0.0008    constr:    0.0000
     atom:   31    charge:    2.0826    magn:    0.0006    constr:    0.0000
     atom:   32    charge:    2.0829    magn:    0.0063    constr:    0.0000
     atom:   33    charge:    2.0624    magn:    0.0012    constr:    0.0000
     atom:   34    charge:    3.1239    magn:   -0.0000    constr:    0.0000
     atom:   35    charge:    2.0876    magn:    0.0000    constr:    0.0000
     atom:   36    charge:    2.0847    magn:    0.0001    constr:    0.0000
     atom:   37    charge:    2.0847    magn:    0.0001    constr:    0.0000
     atom:   38    charge:    3.1200    magn:    0.0000    constr:    0.0000
     atom:   39    charge:    2.0839    magn:    0.0002    constr:    0.0000
     atom:   40    charge:    2.0756    magn:   -0.0001    constr:    0.0000
     atom:   41    charge:    2.0870    magn:   -0.0000    constr:    0.0000
     atom:   42    charge:    3.1151    magn:   -0.0002    constr:    0.0000
     atom:   43    charge:    2.0803    magn:    0.0030    constr:    0.0000
     atom:   44    charge:    2.0851    magn:    0.0009    constr:    0.0000
     atom:   45    charge:    2.0858    magn:    0.0005    constr:    0.0000
     atom:   46    charge:    3.1147    magn:   -0.0007    constr:    0.0000
     atom:   47    charge:    2.0807    magn:    0.0045    constr:    0.0000
     atom:   48    charge:    2.0836    magn:    0.0128    constr:    0.0000
     atom:   49    charge:    2.0520    magn:    0.2353    constr:    0.0000
     atom:   50    charge:    0.6696    magn:    0.0570    constr:    0.0000
     atom:   51    charge:    0.4219    magn:    0.0014    constr:    0.0000
     atom:   52    charge:    0.4226    magn:    0.0005    constr:    0.0000
     atom:   53    charge:    0.3608    magn:    0.0226    constr:    0.0000
     atom:   54    charge:    0.4229    magn:    0.0006    constr:    0.0000

     total cpu time spent up to now is     2580.7 secs

     total energy              =   -3021.14973298 Ry
     Harris-Foulkes estimate   =   -3021.14975023 Ry
     estimated scf accuracy    <       0.00025362 Ry

     total magnetization       =     1.06 Bohr mag/cell
     absolute magnetization    =     1.23 Bohr mag/cell

     iteration #  8     ecut=    40.42 Ry     beta=0.10
     Davidson diagonalization with overlap
     ethr =  6.27E-08,  avg # of iterations =  1.0

     negative rho (up, down):  1.189E-02 1.196E-02
 
     Magnetic moment per site:
     atom:    1    charge:    3.1244    magn:   -0.0002    constr:    0.0000
     atom:    2    charge:    2.0897    magn:    0.0002    constr:    0.0000
     atom:    3    charge:    3.1198    magn:   -0.0000    constr:    0.0000
     atom:    4    charge:    2.0867    magn:   -0.0001    constr:    0.0000
     atom:    5    charge:    3.1161    magn:   -0.0002    constr:    0.0000
     atom:    6    charge:    2.0795    magn:    0.0021    constr:    0.0000
     atom:    7    charge:    3.1166    magn:   -0.0048    constr:    0.0000
     atom:    8    charge:    2.0793    magn:    0.0241    constr:    0.0000
     atom:    9    charge:    3.1244    magn:   -0.0002    constr:    0.0000
     atom:   10    charge:    2.0898    magn:    0.0002    constr:    0.0000
     atom:   11    charge:    3.1198    magn:   -0.0000    constr:    0.0000
     atom:   12    charge:    2.0870    magn:   -0.0000    constr:    0.0000
     atom:   13    charge:    3.1150    magn:   -0.0002    constr:    0.0000
     atom:   14    charge:    2.0939    magn:    0.0022    constr:    0.0000
     atom:   15    charge:    3.1184    magn:   -0.0008    constr:    0.0000
     atom:   16    charge:    2.0828    magn:    0.0045    constr:    0.0000
     atom:   17    charge:    2.0624    magn:    0.0011    constr:    0.0000
     atom:   18    charge:    3.1239    magn:   -0.0000    constr:    0.0000
     atom:   19    charge:    2.0875    magn:    0.0000    constr:    0.0000
     atom:   20    charge:    2.0847    magn:    0.0001    constr:    0.0000
     atom:   21    charge:    2.0847    magn:    0.0001    constr:    0.0000
     atom:   22    charge:    3.1199    magn:    0.0000    constr:    0.0000
     atom:   23    charge:    2.0908    magn:    0.0002    constr:    0.0000
     atom:   24    charge:    2.0754    magn:   -0.0001    constr:    0.0000
     atom:   25    charge:    2.0867    magn:    0.0000    constr:    0.0000
     atom:   26    charge:    3.1127    magn:   -0.0003    constr:    0.0000
     atom:   27    charge:    2.0803    magn:    0.0026    constr:    0.0000
     atom:   28    charge:    2.0839    magn:    0.0007    constr:    0.0000
     atom:   29    charge:    2.0860    magn:    0.0009    constr:    0.0000
     atom:   30    charge:    3.1171    magn:   -0.0008    constr:    0.0000
     atom:   31    charge:    2.0825    magn:    0.0006    constr:    0.0000
     atom:   32    charge:    2.0829    magn:    0.0063    constr:    0.0000
     atom:   33    charge:    2.0624    magn:    0.0011    constr:    0.0000
     atom:   34    charge:    3.1239    magn:   -0.0000    constr:    0.0000
     atom:   35    charge:    2.0876    magn:    0.0000    constr:    0.0000
     atom:   36    charge:    2.0847    magn:    0.0001    constr:    0.0000
     atom:   37    charge:    2.0847    magn:    0.0001    constr:    0.0000
     atom:   38    charge:    3.1200    magn:    0.0000    constr:    0.0000
     atom:   39    charge:    2.0839    magn:    0.0002    constr:    0.0000
     atom:   40    charge:    2.0756    magn:   -0.0001    constr:    0.0000
     atom:   41    charge:    2.0870    magn:   -0.0000    constr:    0.0000
     atom:   42    charge:    3.1151    magn:   -0.0002    constr:    0.0000
     atom:   43    charge:    2.0803    magn:    0.0030    constr:    0.0000
     atom:   44    charge:    2.0851    magn:    0.0009    constr:    0.0000
     atom:   45    charge:    2.0858    magn:    0.0005    constr:    0.0000
     atom:   46    charge:    3.1147    magn:   -0.0007    constr:    0.0000
     atom:   47    charge:    2.0806    magn:    0.0045    constr:    0.0000
     atom:   48    charge:    2.0837    magn:    0.0127    constr:    0.0000
     atom:   49    charge:    2.0520    magn:    0.2352    constr:    0.0000
     atom:   50    charge:    0.6698    magn:    0.0571    constr:    0.0000
     atom:   51    charge:    0.4218    magn:    0.0014    constr:    0.0000
     atom:   52    charge:    0.4226    magn:    0.0005    constr:    0.0000
     atom:   53    charge:    0.3608    magn:    0.0226    constr:    0.0000
     atom:   54    charge:    0.4229    magn:    0.0005    constr:    0.0000

     total cpu time spent up to now is     2780.9 secs

     total energy              =   -3021.14974349 Ry
     Harris-Foulkes estimate   =   -3021.14974529 Ry
     estimated scf accuracy    <       0.00002131 Ry

     total magnetization       =     1.06 Bohr mag/cell
     absolute magnetization    =     1.22 Bohr mag/cell

     iteration #  9     ecut=    40.42 Ry     beta=0.10
     Davidson diagonalization with overlap
     ethr =  5.35E-09,  avg # of iterations =  3.0

     negative rho (up, down):  1.189E-02 1.196E-02
 
     Magnetic moment per site:
     atom:    1    charge:    3.1244    magn:   -0.0002    constr:    0.0000
     atom:    2    charge:    2.0897    magn:    0.0002    constr:    0.0000
     atom:    3    charge:    3.1198    magn:   -0.0000    constr:    0.0000
     atom:    4    charge:    2.0867    magn:   -0.0001    constr:    0.0000
     atom:    5    charge:    3.1161    magn:   -0.0002    constr:    0.0000
     atom:    6    charge:    2.0795    magn:    0.0021    constr:    0.0000
     atom:    7    charge:    3.1166    magn:   -0.0047    constr:    0.0000
     atom:    8    charge:    2.0793    magn:    0.0240    constr:    0.0000
     atom:    9    charge:    3.1244    magn:   -0.0002    constr:    0.0000
     atom:   10    charge:    2.0898    magn:    0.0002    constr:    0.0000
     atom:   11    charge:    3.1198    magn:   -0.0000    constr:    0.0000
     atom:   12    charge:    2.0870    magn:   -0.0000    constr:    0.0000
     atom:   13    charge:    3.1150    magn:   -0.0002    constr:    0.0000
     atom:   14    charge:    2.0939    magn:    0.0022    constr:    0.0000
     atom:   15    charge:    3.1184    magn:   -0.0008    constr:    0.0000
     atom:   16    charge:    2.0828    magn:    0.0045    constr:    0.0000
     atom:   17    charge:    2.0624    magn:    0.0011    constr:    0.0000
     atom:   18    charge:    3.1239    magn:   -0.0000    constr:    0.0000
     atom:   19    charge:    2.0875    magn:    0.0000    constr:    0.0000
     atom:   20    charge:    2.0847    magn:    0.0001    constr:    0.0000
     atom:   21    charge:    2.0847    magn:    0.0001    constr:    0.0000
     atom:   22    charge:    3.1199    magn:    0.0000    constr:    0.0000
     atom:   23    charge:    2.0908    magn:    0.0002    constr:    0.0000
     atom:   24    charge:    2.0754    magn:   -0.0000    constr:    0.0000
     atom:   25    charge:    2.0867    magn:    0.0000    constr:    0.0000
     atom:   26    charge:    3.1127    magn:   -0.0003    constr:    0.0000
     atom:   27    charge:    2.0802    magn:    0.0026    constr:    0.0000
     atom:   28    charge:    2.0839    magn:    0.0007    constr:    0.0000
     atom:   29    charge:    2.0860    magn:    0.0009    constr:    0.0000
     atom:   30    charge:    3.1171    magn:   -0.0008    constr:    0.0000
     atom:   31    charge:    2.0825    magn:    0.0006    constr:    0.0000
     atom:   32    charge:    2.0829    magn:    0.0063    constr:    0.0000
     atom:   33    charge:    2.0624    magn:    0.0011    constr:    0.0000
     atom:   34    charge:    3.1239    magn:   -0.0000    constr:    0.0000
     atom:   35    charge:    2.0876    magn:    0.0000    constr:    0.0000
     atom:   36    charge:    2.0847    magn:    0.0001    constr:    0.0000
     atom:   37    charge:    2.0847    magn:    0.0001    constr:    0.0000
     atom:   38    charge:    3.1200    magn:    0.0000    constr:    0.0000
     atom:   39    charge:    2.0839    magn:    0.0002    constr:    0.0000
     atom:   40    charge:    2.0756    magn:   -0.0001    constr:    0.0000
     atom:   41    charge:    2.0870    magn:   -0.0000    constr:    0.0000
     atom:   42    charge:    3.1151    magn:   -0.0002    constr:    0.0000
     atom:   43    charge:    2.0803    magn:    0.0030    constr:    0.0000
     atom:   44    charge:    2.0851    magn:    0.0010    constr:    0.0000
     atom:   45    charge:    2.0858    magn:    0.0005    constr:    0.0000
     atom:   46    charge:    3.1147    magn:   -0.0007    constr:    0.0000
     atom:   47    charge:    2.0807    magn:    0.0045    constr:    0.0000
     atom:   48    charge:    2.0837    magn:    0.0127    constr:    0.0000
     atom:   49    charge:    2.0520    magn:    0.2351    constr:    0.0000
     atom:   50    charge:    0.6697    magn:    0.0571    constr:    0.0000
     atom:   51    charge:    0.4217    magn:    0.0014    constr:    0.0000
     atom:   52    charge:    0.4226    magn:    0.0005    constr:    0.0000
     atom:   53    charge:    0.3608    magn:    0.0225    constr:    0.0000
     atom:   54    charge:    0.4230    magn:    0.0005    constr:    0.0000

     total cpu time spent up to now is     3018.7 secs

     total energy              =   -3021.14974510 Ry
     Harris-Foulkes estimate   =   -3021.14974547 Ry
     estimated scf accuracy    <       0.00000655 Ry

     total magnetization       =     1.06 Bohr mag/cell
     absolute magnetization    =     1.22 Bohr mag/cell

     iteration # 10     ecut=    40.42 Ry     beta=0.10
     Davidson diagonalization with overlap
     ethr =  1.65E-09,  avg # of iterations =  1.6

     negative rho (up, down):  1.189E-02 1.196E-02
 
     Magnetic moment per site:
     atom:    1    charge:    3.1244    magn:   -0.0002    constr:    0.0000
     atom:    2    charge:    2.0897    magn:    0.0001    constr:    0.0000
     atom:    3    charge:    3.1198    magn:   -0.0000    constr:    0.0000
     atom:    4    charge:    2.0867    magn:   -0.0001    constr:    0.0000
     atom:    5    charge:    3.1161    magn:   -0.0003    constr:    0.0000
     atom:    6    charge:    2.0795    magn:    0.0021    constr:    0.0000
     atom:    7    charge:    3.1167    magn:   -0.0047    constr:    0.0000
     atom:    8    charge:    2.0793    magn:    0.0240    constr:    0.0000
     atom:    9    charge:    3.1244    magn:   -0.0002    constr:    0.0000
     atom:   10    charge:    2.0898    magn:    0.0002    constr:    0.0000
     atom:   11    charge:    3.1198    magn:   -0.0000    constr:    0.0000
     atom:   12    charge:    2.0870    magn:   -0.0000    constr:    0.0000
     atom:   13    charge:    3.1150    magn:   -0.0002    constr:    0.0000
     atom:   14    charge:    2.0939    magn:    0.0022    constr:    0.0000
     atom:   15    charge:    3.1184    magn:   -0.0008    constr:    0.0000
     atom:   16    charge:    2.0828    magn:    0.0045    constr:    0.0000
     atom:   17    charge:    2.0624    magn:    0.0009    constr:    0.0000
     atom:   18    charge:    3.1239    magn:   -0.0000    constr:    0.0000
     atom:   19    charge:    2.0875    magn:    0.0000    constr:    0.0000
     atom:   20    charge:    2.0847    magn:    0.0001    constr:    0.0000
     atom:   21    charge:    2.0847    magn:    0.0001    constr:    0.0000
     atom:   22    charge:    3.1199    magn:    0.0000    constr:    0.0000
     atom:   23    charge:    2.0908    magn:    0.0003    constr:    0.0000
     atom:   24    charge:    2.0754    magn:   -0.0000    constr:    0.0000
     atom:   25    charge:    2.0867    magn:    0.0000    constr:    0.0000
     atom:   26    charge:    3.1127    magn:   -0.0003    constr:    0.0000
     atom:   27    charge:    2.0802    magn:    0.0026    constr:    0.0000
     atom:   28    charge:    2.0839    magn:    0.0008    constr:    0.0000
     atom:   29    charge:    2.0860    magn:    0.0009    constr:    0.0000
     atom:   30    charge:    3.1171    magn:   -0.0008    constr:    0.0000
     atom:   31    charge:    2.0825    magn:    0.0006    constr:    0.0000
     atom:   32    charge:    2.0829    magn:    0.0063    constr:    0.0000
     atom:   33    charge:    2.0624    magn:    0.0010    constr:    0.0000
     atom:   34    charge:    3.1239    magn:   -0.0000    constr:    0.0000
     atom:   35    charge:    2.0876    magn:    0.0000    constr:    0.0000
     atom:   36    charge:    2.0847    magn:    0.0001    constr:    0.0000
     atom:   37    charge:    2.0847    magn:    0.0001    constr:    0.0000
     atom:   38    charge:    3.1200    magn:    0.0000    constr:    0.0000
     atom:   39    charge:    2.0839    magn:    0.0002    constr:    0.0000
     atom:   40    charge:    2.0756    magn:   -0.0001    constr:    0.0000
     atom:   41    charge:    2.0870    magn:   -0.0000    constr:    0.0000
     atom:   42    charge:    3.1151    magn:   -0.0002    constr:    0.0000
     atom:   43    charge:    2.0803    magn:    0.0031    constr:    0.0000
     atom:   44    charge:    2.0851    magn:    0.0010    constr:    0.0000
     atom:   45    charge:    2.0858    magn:    0.0005    constr:    0.0000
     atom:   46    charge:    3.1147    magn:   -0.0007    constr:    0.0000
     atom:   47    charge:    2.0807    magn:    0.0045    constr:    0.0000
     atom:   48    charge:    2.0838    magn:    0.0126    constr:    0.0000
     atom:   49    charge:    2.0520    magn:    0.2348    constr:    0.0000
     atom:   50    charge:    0.6698    magn:    0.0573    constr:    0.0000
     atom:   51    charge:    0.4217    magn:    0.0014    constr:    0.0000
     atom:   52    charge:    0.4227    magn:    0.0005    constr:    0.0000
     atom:   53    charge:    0.3607    magn:    0.0225    constr:    0.0000
     atom:   54    charge:    0.4230    magn:    0.0005    constr:    0.0000

     total cpu time spent up to now is     3228.6 secs

     total energy              =   -3021.14974546 Ry
     Harris-Foulkes estimate   =   -3021.14974530 Ry
     estimated scf accuracy    <       0.00000177 Ry

     total magnetization       =     1.06 Bohr mag/cell
     absolute magnetization    =     1.22 Bohr mag/cell

     iteration # 11     ecut=    40.42 Ry     beta=0.10
     Davidson diagonalization with overlap
     ethr =  4.45E-10,  avg # of iterations =  3.4

     negative rho (up, down):  1.189E-02 1.196E-02
 
     Magnetic moment per site:
     atom:    1    charge:    3.1244    magn:   -0.0001    constr:    0.0000
     atom:    2    charge:    2.0897    magn:    0.0001    constr:    0.0000
     atom:    3    charge:    3.1198    magn:   -0.0000    constr:    0.0000
     atom:    4    charge:    2.0867    magn:   -0.0001    constr:    0.0000
     atom:    5    charge:    3.1161    magn:   -0.0003    constr:    0.0000
     atom:    6    charge:    2.0795    magn:    0.0021    constr:    0.0000
     atom:    7    charge:    3.1167    magn:   -0.0046    constr:    0.0000
     atom:    8    charge:    2.0793    magn:    0.0239    constr:    0.0000
     atom:    9    charge:    3.1244    magn:   -0.0001    constr:    0.0000
     atom:   10    charge:    2.0898    magn:    0.0001    constr:    0.0000
     atom:   11    charge:    3.1198    magn:   -0.0000    constr:    0.0000
     atom:   12    charge:    2.0870    magn:   -0.0000    constr:    0.0000
     atom:   13    charge:    3.1150    magn:   -0.0002    constr:    0.0000
     atom:   14    charge:    2.0939    magn:    0.0022    constr:    0.0000
     atom:   15    charge:    3.1184    magn:   -0.0008    constr:    0.0000
     atom:   16    charge:    2.0828    magn:    0.0045    constr:    0.0000
     atom:   17    charge:    2.0625    magn:    0.0007    constr:    0.0000
     atom:   18    charge:    3.1240    magn:   -0.0000    constr:    0.0000
     atom:   19    charge:    2.0875    magn:    0.0000    constr:    0.0000
     atom:   20    charge:    2.0847    magn:    0.0000    constr:    0.0000
     atom:   21    charge:    2.0847    magn:    0.0000    constr:    0.0000
     atom:   22    charge:    3.1199    magn:    0.0000    constr:    0.0000
     atom:   23    charge:    2.0908    magn:    0.0003    constr:    0.0000
     atom:   24    charge:    2.0753    magn:    0.0000    constr:    0.0000
     atom:   25    charge:    2.0867    magn:    0.0000    constr:    0.0000
     atom:   26    charge:    3.1127    magn:   -0.0003    constr:    0.0000
     atom:   27    charge:    2.0802    magn:    0.0026    constr:    0.0000
     atom:   28    charge:    2.0839    magn:    0.0008    constr:    0.0000
     atom:   29    charge:    2.0860    magn:    0.0009    constr:    0.0000
     atom:   30    charge:    3.1171    magn:   -0.0008    constr:    0.0000
     atom:   31    charge:    2.0826    magn:    0.0006    constr:    0.0000
     atom:   32    charge:    2.0829    magn:    0.0063    constr:    0.0000
     atom:   33    charge:    2.0625    magn:    0.0007    constr:    0.0000
     atom:   34    charge:    3.1239    magn:   -0.0000    constr:    0.0000
     atom:   35    charge:    2.0875    magn:    0.0000    constr:    0.0000
     atom:   36    charge:    2.0847    magn:    0.0000    constr:    0.0000
     atom:   37    charge:    2.0847    magn:    0.0000    constr:    0.0000
     atom:   38    charge:    3.1200    magn:    0.0000    constr:    0.0000
     atom:   39    charge:    2.0839    magn:    0.0002    constr:    0.0000
     atom:   40    charge:    2.0756    magn:   -0.0001    constr:    0.0000
     atom:   41    charge:    2.0870    magn:   -0.0000    constr:    0.0000
     atom:   42    charge:    3.1151    magn:   -0.0003    constr:    0.0000
     atom:   43    charge:    2.0803    magn:    0.0031    constr:    0.0000
     atom:   44    charge:    2.0850    magn:    0.0010    constr:    0.0000
     atom:   45    charge:    2.0858    magn:    0.0005    constr:    0.0000
     atom:   46    charge:    3.1148    magn:   -0.0007    constr:    0.0000
     atom:   47    charge:    2.0807    magn:    0.0044    constr:    0.0000
     atom:   48    charge:    2.0837    magn:    0.0126    constr:    0.0000
     atom:   49    charge:    2.0521    magn:    0.2346    constr:    0.0000
     atom:   50    charge:    0.6697    magn:    0.0574    constr:    0.0000
     atom:   51    charge:    0.4218    magn:    0.0013    constr:    0.0000
     atom:   52    charge:    0.4226    magn:    0.0005    constr:    0.0000
     atom:   53    charge:    0.3607    magn:    0.0224    constr:    0.0000
     atom:   54    charge:    0.4230    magn:    0.0005    constr:    0.0000

     total cpu time spent up to now is     3481.9 secs

     End of self-consistent calculation

 ------ SPIN UP ------------


          k = 0.0000 0.0000 0.0000 ( 34665 PWs)   bands (ev):

   -58.2937 -58.2586 -57.3750 -57.3693 -57.3363 -57.2985 -57.2469 -57.0769
   -57.0515 -57.0463 -57.0079 -56.9096 -56.8870 -56.8744 -56.7910 -56.7525
   -34.7389 -34.5623 -34.5335 -34.5002 -34.4053 -34.3484 -33.8700 -33.8575
   -33.7392 -33.6665 -33.6246 -33.5815 -33.5496 -33.5425 -33.5365 -33.5301
   -33.5181 -33.5035 -33.4782 -33.4764 -33.4620 -33.4600 -33.4578 -33.4380
   -33.3290 -33.3259 -33.3189 -33.3160 -33.3024 -33.2751 -33.2701 -33.2504
   -33.2294 -33.2248 -33.2242 -33.2147 -33.1885 -33.1641 -33.1309 -33.1282
   -33.0910 -33.0690 -33.0383 -33.0186 -33.0050 -32.9798 -32.9366 -32.8724
   -18.4589 -18.0253 -17.8007 -17.7014 -17.5398 -17.5194 -17.4739 -17.3733
   -17.3459 -17.2469 -17.0339 -17.0134 -17.0057 -16.9756 -16.9146 -16.8434
   -16.8251 -16.7868 -16.7291 -16.6944 -16.6773 -16.6441 -16.5823 -16.5775
   -16.4549 -16.4068 -16.3886 -16.3482 -16.3142 -16.1373 -16.0772 -15.5890
   -15.5281 -11.2139  -6.0375  -5.4856  -5.2714  -5.1918  -5.0830  -4.9870
    -4.9709  -4.9438  -4.8682  -4.7223  -4.6391  -4.5892  -4.5748  -4.4996
    -4.4182  -4.4027  -4.3414  -4.3051  -4.2243  -4.2082  -4.1890  -4.1313
    -4.0199  -4.0130  -3.9700  -3.8966  -3.8810  -3.8748  -3.8720  -3.8220
    -3.7656  -3.7454  -3.7358  -3.6855  -3.6199  -3.5721  -3.5312  -3.5174
    -3.5109  -3.4097  -3.3975  -3.3495  -3.2620  -3.2225  -3.1769  -3.0763
    -2.9119  -2.8855  -2.8390  -2.7933  -2.7345  -2.6828  -2.6615  -2.6521
    -2.6219  -2.5260  -2.4741  -2.4273  -2.3666  -2.3201  -2.2359  -2.2185
    -2.2131  -2.1486  -2.0597  -2.0299  -1.9855  -1.9479  -1.9182  -1.8875
    -1.8423  -1.7255  -1.6807  -1.6558  -1.6285  -1.6190  -1.5739  -1.4899
    -1.4088  -1.3547  -1.3409  -1.3259  -1.3045  -1.2567  -1.2106  -1.1589
    -1.1485  -1.0998  -1.0958  -1.0752  -1.0469  -0.9671  -0.8617  -0.8145
    -0.7970  -0.6820  -0.6752  -0.6130  -0.5412  -0.4993  -0.4715  -0.1746
     1.0372   1.1340   1.4288   1.7077   1.8156   1.9333   1.9815   2.0275
     2.0575   2.1455   2.2220   2.2428   2.2888   2.4078   2.4830   2.4963
     2.5042   2.5313   2.6332   2.6783   2.6834   2.6989   2.7224   2.8390
     2.8543   2.8989   2.9134   2.9646   2.9806   3.0338   3.0419   3.0638
     3.1175   3.1724   3.2112   3.2116   3.2598   3.2678   3.4233   3.4558
     3.4894   3.5327   3.6099   3.6379   3.6815   3.7264   3.8406   3.9677
     4.1155   4.1467   4.3382   4.4843   4.6058   4.7184   4.7963   4.8455
     5.0964   5.1450   5.2171   5.3635   5.4068   5.4152   5.4257   5.4450
     5.4497   5.5351   5.5664   5.6738   5.7307   5.7426   5.9168   5.9190
     5.9669   6.0867   6.1066   6.1488   6.2262   6.3085   6.4338   6.5017
     6.5532   6.5632   6.7928   6.8240   7.2109   7.9152   8.1554   8.1865
     8.3337   8.3969   8.6203   8.7104   8.7612   8.9661   9.1422   9.2311
     9.2802   9.4371   9.6097

          k = 0.0000 0.0280 0.0000 ( 34717 PWs)   bands (ev):

   -58.2913 -58.2610 -57.3732 -57.3676 -57.3386 -57.2995 -57.2465 -57.0767
   -57.0514 -57.0447 -57.0099 -56.9073 -56.8872 -56.8767 -56.7885 -56.7550
   -34.7135 -34.5603 -34.5354 -34.4940 -34.4118 -34.3755 -33.8446 -33.8321
   -33.7184 -33.6602 -33.6184 -33.5790 -33.5563 -33.5389 -33.5308 -33.5228
   -33.5174 -33.5055 -33.5021 -33.4850 -33.4769 -33.4604 -33.4517 -33.4317
   -33.3224 -33.3168 -33.3041 -33.3010 -33.2987 -33.2916 -33.2677 -33.2487
   -33.2342 -33.2266 -33.2249 -33.2139 -33.1905 -33.1901 -33.1372 -33.1222
   -33.1030 -33.0655 -33.0445 -33.0185 -33.0047 -32.9846 -32.9640 -32.9011
   -18.4006 -17.9656 -17.7507 -17.6712 -17.5957 -17.4952 -17.4249 -17.3613
   -17.3147 -17.2776 -17.0848 -16.9929 -16.9842 -16.9649 -16.9166 -16.8650
   -16.7856 -16.7623 -16.7495 -16.7242 -16.6945 -16.6686 -16.6068 -16.5556
   -16.4690 -16.4321 -16.3953 -16.3715 -16.3464 -16.1562 -16.1189 -15.6030
   -15.5536 -11.2149  -5.9521  -5.4014  -5.1921  -5.1213  -5.0141  -4.9652
    -4.9185  -4.9038  -4.7972  -4.7187  -4.6577  -4.6429  -4.5158  -4.5048
    -4.4056  -4.3656  -4.3519  -4.3120  -4.2466  -4.2045  -4.1888  -4.1674
    -4.0883  -4.0572  -4.0066  -3.9925  -3.9670  -3.9598  -3.9107  -3.8481
    -3.8038  -3.7716  -3.7427  -3.7247  -3.7005  -3.6596  -3.5463  -3.4281
    -3.3926  -3.3116  -3.2966  -3.2896  -3.2573  -3.1137  -3.0933  -2.9341
    -2.8933  -2.8715  -2.7919  -2.7367  -2.7328  -2.7100  -2.6783  -2.6402
    -2.5862  -2.5063  -2.4470  -2.4314  -2.4048  -2.2679  -2.2439  -2.2111
    -2.2007  -2.1417  -2.1328  -2.0169  -1.9734  -1.9458  -1.9143  -1.9016
    -1.8612  -1.7561  -1.7460  -1.7068  -1.6673  -1.5978  -1.5709  -1.5603
    -1.4898  -1.4495  -1.3785  -1.3686  -1.3638  -1.3468  -1.2729  -1.2587
    -1.2233  -1.1634  -1.1211  -1.0581  -0.9819  -0.9415  -0.9110  -0.8853
    -0.8647  -0.8250  -0.7176  -0.5879  -0.5619  -0.5481  -0.5274  -0.2156
     1.1698   1.1750   1.4301   1.8438   1.8883   1.9052   1.9380   2.0142
     2.0734   2.0914   2.3122   2.3206   2.3533   2.4706   2.5064   2.5269
     2.5343   2.5564   2.5612   2.6095   2.7266   2.7438   2.8136   2.8261
     2.8476   2.9122   2.9487   2.9770   2.9937   3.0065   3.0274   3.0785
     3.0988   3.1346   3.1880   3.2471   3.2595   3.3391   3.4481   3.4887
     3.5239   3.5558   3.5759   3.6000   3.6549   3.6791   3.7990   3.9197
     4.0698   4.2140   4.2945   4.5378   4.7166   4.7197   4.8264   4.9207
     5.1232   5.1854   5.2658   5.3146   5.3845   5.4239   5.4469   5.4877
     5.5195   5.5229   5.5604   5.6734   5.7154   5.7257   5.8340   5.8956
     5.9546   6.0043   6.0360   6.0633   6.1933   6.2616   6.4004   6.4451
     6.4630   6.5573   6.7284   6.8263   7.3157   7.4625   7.9849   8.0557
     8.3453   8.5034   8.5156   8.6898   8.7698   8.9860   9.1047   9.3044
     9.3605   9.4402   9.5108

          k = 0.0000 0.0560 0.0000 ( 34721 PWs)   bands (ev):

   -58.2850 -58.2674 -57.3698 -57.3625 -57.3450 -57.3018 -57.2457 -57.0762
   -57.0519 -57.0401 -57.0149 -56.9008 -56.8877 -56.8832 -56.7818 -56.7618
   -34.6436 -34.5550 -34.5406 -34.4768 -34.4486 -34.4294 -33.7748 -33.7627
   -33.6677 -33.6433 -33.6017 -33.5795 -33.5788 -33.5727 -33.5581 -33.5548
   -33.5267 -33.5173 -33.5004 -33.4815 -33.4585 -33.4538 -33.4500 -33.3974
   -33.3569 -33.3126 -33.3099 -33.2941 -33.2691 -33.2592 -33.2440 -33.2438
   -33.2427 -33.2343 -33.2313 -33.2125 -33.2073 -33.1994 -33.1551 -33.1228
   -33.1060 -33.0627 -33.0611 -33.0379 -33.0180 -33.0047 -32.9966 -32.9715
   -18.2394 -17.8009 -17.7794 -17.6208 -17.5885 -17.3978 -17.3788 -17.3612
   -17.2941 -17.2522 -17.2181 -17.0320 -16.9766 -16.9085 -16.9046 -16.8877
   -16.8282 -16.8038 -16.7157 -16.6921 -16.6866 -16.6611 -16.6083 -16.5482
   -16.5014 -16.4962 -16.4386 -16.4276 -16.4019 -16.2225 -16.1992 -15.6315
   -15.6073 -11.2167  -5.7127  -5.1686  -5.0335  -4.9776  -4.9565  -4.9305
    -4.8362  -4.8197  -4.8028  -4.7597  -4.7208  -4.5409  -4.4951  -4.4526
    -4.3812  -4.3798  -4.3382  -4.3072  -4.2930  -4.2746  -4.2362  -4.2006
    -4.1958  -4.1790  -4.1180  -4.0471  -4.0045  -3.9690  -3.9533  -3.8964
    -3.8700  -3.8043  -3.7577  -3.7410  -3.6394  -3.5345  -3.4002  -3.3927
    -3.3529  -3.2744  -3.2348  -3.1257  -3.0769  -3.0590  -3.0276  -2.9986
    -2.9552  -2.9453  -2.8139  -2.7846  -2.7268  -2.6826  -2.6377  -2.5448
    -2.4706  -2.4622  -2.4291  -2.3418  -2.2891  -2.2838  -2.2086  -2.1747
    -2.1405  -2.1256  -2.1066  -2.0735  -2.0409  -1.9969  -1.9819  -1.9568
    -1.9199  -1.8785  -1.8673  -1.8480  -1.7982  -1.7382  -1.6435  -1.5942
    -1.5829  -1.5647  -1.4989  -1.4601  -1.4404  -1.4333  -1.4180  -1.3636
    -1.2788  -1.2579  -1.2011  -1.1719  -1.0761  -0.9821  -0.9600  -0.9308
    -0.8465  -0.8227  -0.7241  -0.7034  -0.6082  -0.5691  -0.5519  -0.3190
     1.2988   1.4405   1.5131   1.7345   1.8110   1.9040   1.9747   2.0732
     2.1537   2.2892   2.2940   2.3460   2.4301   2.4992   2.5187   2.5446
     2.5855   2.6252   2.6756   2.7213   2.7657   2.7831   2.8139   2.8621
     2.8781   2.8967   2.9065   2.9762   3.0228   3.0411   3.0501   3.0766
     3.1379   3.1710   3.1941   3.2727   3.3210   3.3524   3.3994   3.4460
     3.4843   3.4997   3.5761   3.6232   3.6868   3.6981   3.7369   3.8137
     3.9367   4.1718   4.3367   4.6654   4.7553   4.8561   4.9473   5.0847
     5.0912   5.1879   5.2951   5.3465   5.4148   5.4502   5.4836   5.5127
     5.5134   5.5742   5.5937   5.6603   5.6659   5.7659   5.7854   5.8157
     5.8409   5.8803   5.9009   5.9446   6.1301   6.1675   6.3046   6.3707
     6.4348   6.4525   6.7293   6.7583   6.9915   7.1944   7.6057   7.7394
     8.1931   8.3722   8.6941   8.8245   8.8331   8.8830   9.1712   9.3340
     9.4056   9.5908   9.7007

          k = 0.0000-0.0840 0.0000 ( 34678 PWs)   bands (ev):

   -58.2769 -58.2755 -57.3682 -57.3562 -57.3518 -57.3030 -57.2453 -57.0760
   -57.0522 -57.0368 -57.0183 -56.8924 -56.8917 -56.8880 -56.7751 -56.7685
   -34.5487 -34.5477 -34.5467 -34.5462 -34.4538 -34.4526 -33.6909 -33.6778
   -33.6742 -33.6352 -33.6338 -33.6282 -33.5966 -33.5806 -33.5765 -33.5656
   -33.5252 -33.5191 -33.4999 -33.4907 -33.4554 -33.4487 -33.3869 -33.3711
   -33.3677 -33.3517 -33.3137 -33.3094 -33.2909 -33.2613 -33.2481 -33.2392
   -33.2379 -33.2374 -33.2125 -33.2123 -33.1647 -33.1376 -33.1367 -33.1307
   -33.1171 -33.1147 -33.0840 -33.0833 -33.0184 -33.0103 -33.0074 -33.0012
   -18.0144 -18.0136 -17.5810 -17.5718 -17.4978 -17.4752 -17.4749 -17.3839
   -17.2469 -17.2060 -17.1188 -17.0912 -17.0609 -17.0262 -16.8827 -16.8336
   -16.7967 -16.7962 -16.7948 -16.6632 -16.6015 -16.5983 -16.5918 -16.5677
   -16.5345 -16.5107 -16.4959 -16.4639 -16.4550 -16.2647 -16.2411 -15.6408
   -15.6408 -11.2176  -5.3731  -5.3729  -4.9466  -4.8768  -4.8758  -4.8626
    -4.8403  -4.7589  -4.7474  -4.7079  -4.6470  -4.5928  -4.5553  -4.5487
    -4.4796  -4.4579  -4.4347  -4.3805  -4.3645  -4.2542  -4.2420  -4.2344
    -4.1474  -4.1059  -4.0556  -4.0236  -3.9816  -3.8966  -3.8745  -3.8688
    -3.7784  -3.7395  -3.7281  -3.6646  -3.6577  -3.6376  -3.6124  -3.4007
    -3.3498  -3.3372  -3.1406  -3.0660  -3.0601  -3.0238  -2.9192  -2.9157
    -2.9069  -2.8383  -2.8155  -2.7805  -2.7622  -2.6817  -2.6583  -2.6318
    -2.5116  -2.4915  -2.4090  -2.3929  -2.3847  -2.3625  -2.2986  -2.2314
    -2.2156  -2.1543  -2.1077  -2.0439  -1.9929  -1.9684  -1.9643  -1.9594
    -1.9550  -1.9302  -1.8246  -1.7864  -1.7664  -1.7165  -1.6803  -1.6442
    -1.6282  -1.5978  -1.5799  -1.5053  -1.4958  -1.4535  -1.4340  -1.4101
    -1.3710  -1.3199  -1.2646  -1.1666  -1.1259  -1.1042  -1.0776  -1.0295
    -0.8256  -0.8028  -0.6061  -0.5970  -0.5914  -0.5836  -0.5340  -0.4853
     1.4950   1.4977   1.6472   1.6478   1.7269   1.7277   2.0979   2.0987
     2.1625   2.2174   2.3879   2.4229   2.4594   2.5053   2.5530   2.5599
     2.6679   2.6794   2.6886   2.7026   2.7541   2.7656   2.8220   2.8255
     2.9252   2.9603   3.0040   3.0316   3.0365   3.0397   3.0459   3.0495
     3.0568   3.2378   3.2472   3.2783   3.3106   3.3520   3.3783   3.4086
     3.4452   3.4604   3.5160   3.6376   3.7068   3.7468   3.7616   3.8026
     3.8581   4.0490   4.3892   4.7699   4.8454   4.8785   4.8792   5.0649
     5.1570   5.2363   5.3271   5.3431   5.3783   5.4211   5.4815   5.5552
     5.5781   5.6092   5.6127   5.6996   5.7120   5.7314   5.7426   5.7564
     5.7798   5.8202   5.8543   5.9541   6.0350   6.1699   6.2731   6.3860
     6.4697   6.4863   6.5876   6.6064   6.9262   6.9777   7.4435   7.6086
[...]
    -1.7172  -1.4976  -1.4543  -1.4430  -1.4231  -1.3854  -1.3075  -1.1412
    -1.1323  -1.0752  -1.0584  -1.0420  -0.9568  -0.8992  -0.8591  -0.7745
    -0.7215  -0.7145  -0.6846  -0.6577  -0.5847  -0.5614  -0.5480   0.3297
     1.6139   1.6174   1.6300   1.6353   1.9777   1.9786   2.1075   2.1084
     2.2918   2.3123   2.3256   2.4074   2.4303   2.5007   2.5858   2.6466
     2.6685   2.7131   2.7967   2.8298   2.8866   2.9386   2.9606   2.9887
     3.0033   3.0115   3.0524   3.1106   3.1255   3.2217   3.2473   3.2568
     3.2725   3.2960   3.3535   3.3996   3.4129   3.4184   3.4736   3.4858
     3.4958   3.5239   3.5380   3.5909   3.6485   3.6649   3.7891   3.8891
     3.9238   3.9356   4.1527   4.1531   4.6026   4.6329   4.6553   4.7408
     4.8958   4.9117   4.9441   5.0948   5.1734   5.1783   5.1979   5.4588
     5.6860   5.6949   5.7065   5.9387   5.9440   5.9782   6.0277   6.0305
     6.1052   6.1184   6.1859   6.2769   6.2832   6.2895   6.3960   6.4734
     6.5109   6.6182   7.0537   7.2127   7.3207   7.3797   7.5526   7.5893
     7.7109   7.7624   7.9153   8.1065   8.2889   8.3354   8.4436   8.8643
     9.0013   9.0583   9.2075

          k =-0.0253 0.0280 0.0000 ( 34687 PWs)   bands (ev):

   -58.2915 -58.2612 -57.3729 -57.3679 -57.3386 -57.2996 -57.2473 -57.0806
   -57.0525 -57.0461 -57.0111 -56.9088 -56.9080 -56.8775 -56.7920 -56.7585
   -34.7140 -34.5605 -34.5356 -34.4934 -34.4119 -34.3757 -33.8448 -33.8341
   -33.7193 -33.6526 -33.6183 -33.5793 -33.5534 -33.5394 -33.5359 -33.5270
   -33.5186 -33.5063 -33.5047 -33.4846 -33.4778 -33.4549 -33.4534 -33.4344
   -33.3233 -33.3144 -33.3067 -33.3047 -33.2996 -33.2927 -33.2692 -33.2504
   -33.2391 -33.2267 -33.2264 -33.2173 -33.2002 -33.1906 -33.1535 -33.1229
   -33.1200 -33.0687 -33.0452 -33.0280 -33.0089 -32.9878 -32.9648 -32.9037
   -18.3567 -17.9268 -17.7622 -17.7192 -17.5092 -17.5023 -17.3614 -17.3543
   -17.3312 -17.3008 -17.0971 -17.0542 -16.9698 -16.9247 -16.8585 -16.8168
   -16.7781 -16.7356 -16.7185 -16.6548 -16.6484 -16.5683 -16.5298 -16.4709
   -16.4467 -16.3916 -16.3511 -16.3333 -16.1445 -16.1107 -15.8966 -15.5985
   -15.5499 -10.7973  -5.8276  -5.2954  -5.1294  -5.1109  -4.9800  -4.9383
    -4.8998  -4.8104  -4.6847  -4.6635  -4.6222  -4.5224  -4.4843  -4.4276
    -4.3948  -4.2995  -4.2760  -4.2372  -4.1898  -4.1691  -4.1281  -4.1137
    -4.0816  -4.0443  -4.0100  -3.9794  -3.9427  -3.8997  -3.8687  -3.7858
    -3.7742  -3.7100  -3.6889  -3.6282  -3.6049  -3.5995  -3.4984  -3.3812
    -3.3326  -3.3069  -3.2846  -3.2498  -3.2112  -3.1693  -3.0994  -3.0826
    -2.9071  -2.8695  -2.8092  -2.7643  -2.7081  -2.6738  -2.6605  -2.6035
    -2.5748  -2.4956  -2.4862  -2.4288  -2.3974  -2.3446  -2.2743  -2.2521
    -2.2007  -2.1791  -2.0908  -2.0289  -1.9479  -1.9274  -1.9034  -1.8372
    -1.8257  -1.7773  -1.7319  -1.6727  -1.6216  -1.5811  -1.5487  -1.4979
    -1.4636  -1.4222  -1.3934  -1.3690  -1.3492  -1.3325  -1.3008  -1.2777
    -1.1915  -1.1128  -1.0534  -0.9972  -0.9731  -0.9400  -0.9157  -0.8716
    -0.8294  -0.8069  -0.6189  -0.5967  -0.5726  -0.5090  -0.2511   0.3548
     1.1658   1.2594   1.4434   1.8327   1.8722   1.9393   1.9759   2.0438
     2.0548   2.2041   2.3149   2.3606   2.4020   2.4452   2.4685   2.5182
     2.5383   2.5626   2.6033   2.6635   2.7114   2.7358   2.7909   2.8463
     2.8908   2.9280   2.9444   2.9879   3.0051   3.0289   3.0547   3.1080
     3.1847   3.2053   3.2478   3.2724   3.3083   3.3492   3.4438   3.4789
     3.5089   3.5707   3.6251   3.6557   3.6772   3.7579   3.8320   3.8790
     4.0258   4.2221   4.2981   4.4497   4.6385   4.7363   4.8581   4.8753
     5.0149   5.0388   5.1270   5.2116   5.2539   5.3680   5.4739   5.5619
     5.6525   5.7082   5.7227   5.8168   5.8632   5.8973   5.9230   5.9458
     5.9798   6.0033   6.0756   6.1257   6.1893   6.2943   6.4120   6.4620
     6.4757   6.5894   6.7577   6.8149   7.3735   7.4951   7.7840   7.8876
     8.0847   8.2207   8.4897   8.5320   8.7784   8.8836   9.0729   9.3102
     9.3715   9.5225   9.6103

          k =-0.0253 0.0560 0.0000 ( 34699 PWs)   bands (ev):

   -58.2851 -58.2676 -57.3696 -57.3626 -57.3450 -57.3019 -57.2466 -57.0801
   -57.0530 -57.0414 -57.0161 -56.9093 -56.9016 -56.8840 -56.7853 -56.7653
   -34.6440 -34.5552 -34.5408 -34.4764 -34.4488 -34.4293 -33.7750 -33.7649
   -33.6686 -33.6373 -33.6016 -33.5780 -33.5739 -33.5729 -33.5615 -33.5548
   -33.5284 -33.5181 -33.5051 -33.4827 -33.4702 -33.4521 -33.4421 -33.4001
   -33.3582 -33.3113 -33.3080 -33.2981 -33.2710 -33.2615 -33.2454 -33.2451
   -33.2441 -33.2350 -33.2316 -33.2178 -33.2100 -33.2018 -33.1687 -33.1497
   -33.1067 -33.0659 -33.0618 -33.0386 -33.0250 -33.0113 -32.9998 -32.9742
   -18.1990 -17.7891 -17.7665 -17.5977 -17.5873 -17.4429 -17.3802 -17.3564
   -17.2349 -17.2278 -17.1904 -17.0443 -16.9347 -16.9058 -16.8677 -16.8269
   -16.7839 -16.7302 -16.7196 -16.7043 -16.6707 -16.5841 -16.5345 -16.5178
   -16.4864 -16.4275 -16.3979 -16.3927 -16.2076 -16.1912 -15.8954 -15.6273
   -15.6037 -10.7993  -5.5924  -5.0681  -5.0112  -4.9425  -4.9099  -4.8043
    -4.7821  -4.7443  -4.6745  -4.6598  -4.5124  -4.4957  -4.4325  -4.3823
    -4.3643  -4.3559  -4.3076  -4.2635  -4.2369  -4.2267  -4.1939  -4.1630
    -4.1199  -4.1106  -4.0459  -4.0164  -3.9817  -3.9551  -3.9183  -3.8769
    -3.8191  -3.7865  -3.6984  -3.6330  -3.5851  -3.5257  -3.4497  -3.3712
    -3.3544  -3.2800  -3.1745  -3.1478  -3.1117  -3.0989  -3.0468  -3.0113
    -2.9703  -2.9140  -2.8309  -2.7804  -2.7491  -2.6914  -2.5966  -2.5776
    -2.5119  -2.4975  -2.4448  -2.3785  -2.3629  -2.3050  -2.2868  -2.2457
    -2.1763  -2.1227  -2.1078  -2.0759  -2.0358  -1.9941  -1.9720  -1.9356
    -1.9183  -1.8929  -1.8798  -1.8333  -1.7551  -1.6890  -1.6766  -1.5798
    -1.5597  -1.5312  -1.5056  -1.4720  -1.4323  -1.4000  -1.3708  -1.3127
    -1.2763  -1.2090  -1.1436  -1.0212  -0.9920  -0.9572  -0.9243  -0.8437
    -0.7514  -0.7233  -0.6918  -0.6271  -0.5962  -0.5425  -0.3484   0.3353
     1.3001   1.4820   1.5773   1.7714   1.7867   1.9250   1.9918   2.0720
     2.2785   2.2897   2.3561   2.3924   2.4290   2.5013   2.5361   2.5619
     2.5865   2.6098   2.6677   2.7190   2.7349   2.7782   2.8208   2.8706
     2.8961   2.9310   2.9757   3.0205   3.0466   3.0599   3.0699   3.1235
     3.1724   3.2124   3.2317   3.3027   3.3312   3.3598   3.3911   3.4712
     3.5228   3.5477   3.6252   3.6458   3.6789   3.7396   3.7585   3.8120
     3.9085   4.1124   4.4053   4.5142   4.7295   4.8727   4.9234   4.9745
     5.0093   5.1034   5.2008   5.2209   5.3485   5.4010   5.4477   5.5418
     5.5774   5.6125   5.6650   5.7230   5.7525   5.8173   5.8340   5.8738
     5.9393   5.9528   5.9872   6.1036   6.1461   6.2223   6.3395   6.4408
     6.4611   6.4850   6.7283   6.7798   7.0676   7.2812   7.6651   7.8247
     8.0855   8.2289   8.3153   8.4857   8.7663   8.8929   9.0132   9.1738
     9.3712   9.5496   9.6403

          k =-0.0506 0.0280 0.0000 ( 34685 PWs)   bands (ev):

   -58.2915 -58.2612 -57.3720 -57.3688 -57.3386 -57.2996 -57.2473 -57.0806
   -57.0521 -57.0464 -57.0111 -56.9087 -56.9080 -56.8775 -56.7920 -56.7585
   -34.7147 -34.5605 -34.5356 -34.4918 -34.4118 -34.3757 -33.8452 -33.8382
   -33.7196 -33.6330 -33.6182 -33.5794 -33.5586 -33.5412 -33.5399 -33.5323
   -33.5188 -33.5137 -33.5036 -33.4845 -33.4779 -33.4545 -33.4426 -33.4355
   -33.3235 -33.3084 -33.3064 -33.3045 -33.2943 -33.2923 -33.2694 -33.2524
   -33.2489 -33.2265 -33.2257 -33.2202 -33.2004 -33.1900 -33.1494 -33.1229
   -33.1203 -33.0688 -33.0452 -33.0349 -33.0073 -32.9878 -32.9648 -32.9037
   -18.2483 -17.8503 -17.8370 -17.6866 -17.5735 -17.4417 -17.4239 -17.3304
   -17.3029 -17.2364 -17.1658 -17.0716 -16.9823 -16.9373 -16.9085 -16.8820
   -16.7956 -16.7530 -16.7418 -16.6819 -16.6192 -16.5351 -16.5085 -16.4752
   -16.4466 -16.3925 -16.3750 -16.3383 -16.1409 -16.1111 -15.8975 -15.5967
   -15.5500 -10.7971  -5.5262  -5.1731  -5.1403  -5.1061  -4.9348  -4.8556
    -4.7534  -4.6953  -4.6684  -4.6386  -4.5875  -4.5729  -4.5187  -4.3934
    -4.3502  -4.3091  -4.2281  -4.2035  -4.1672  -4.1526  -4.1345  -4.0499
    -4.0357  -4.0007  -3.9637  -3.9181  -3.8730  -3.8253  -3.8000  -3.7696
    -3.7094  -3.6627  -3.6462  -3.6191  -3.5803  -3.5244  -3.4752  -3.4447
    -3.3701  -3.3566  -3.2980  -3.2516  -3.1905  -3.1373  -3.1048  -3.0441
    -2.9956  -2.9664  -2.8894  -2.8227  -2.7446  -2.6846  -2.6756  -2.6539
    -2.6031  -2.5805  -2.5680  -2.5115  -2.5031  -2.3803  -2.3274  -2.3191
    -2.2571  -2.1884  -2.1718  -2.1452  -2.0669  -1.9975  -1.9904  -1.9307
    -1.9105  -1.8803  -1.7975  -1.7083  -1.6957  -1.6709  -1.6019  -1.5729
    -1.5102  -1.4640  -1.4413  -1.3818  -1.3654  -1.3155  -1.2989  -1.2474
    -1.2315  -1.1072  -1.0443  -1.0216  -0.9973  -0.9432  -0.9117  -0.8642
    -0.8146  -0.7834  -0.7082  -0.6683  -0.6470  -0.5225  -0.3773   0.3402
     1.1527   1.3527   1.4778   1.5786   1.9468   1.9570   1.9790   2.0709
     2.1377   2.2126   2.2674   2.3432   2.4184   2.4531   2.5413   2.5591
     2.6058   2.6642   2.7005   2.7141   2.7680   2.8416   2.8642   2.8951
     2.9531   2.9592   2.9933   2.9977   3.0041   3.1149   3.1222   3.1510
     3.1985   3.2277   3.3012   3.3221   3.3684   3.3953   3.4196   3.4681
     3.4818   3.5596   3.6143   3.6794   3.7549   3.7918   3.8118   3.9121
     3.9688   4.0736   4.1220   4.4195   4.5236   4.6688   4.7612   4.8217
     4.8545   4.9270   4.9790   5.3008   5.3414   5.4233   5.5393   5.5718
     5.6526   5.7797   5.7997   5.8668   5.9079   5.9259   5.9576   6.0654
     6.1066   6.1766   6.2629   6.3450   6.3959   6.4034   6.4551   6.5025
     6.5541   6.5638   6.7211   6.9139   7.0583   7.2188   7.5608   7.6041
     7.7193   8.2099   8.4060   8.4729   8.8693   8.9328   9.0596   9.2140
     9.4228   9.6022   9.6806

          k =-0.0506 0.0560 0.0000 ( 34596 PWs)   bands (ev):

   -58.2851 -58.2676 -57.3692 -57.3630 -57.3450 -57.3019 -57.2465 -57.0801
   -57.0528 -57.0416 -57.0161 -56.9093 -56.9016 -56.8840 -56.7853 -56.7653
   -34.6446 -34.5552 -34.5408 -34.4751 -34.4490 -34.4289 -33.7753 -33.7695
   -33.6688 -33.6215 -33.6014 -33.5772 -33.5755 -33.5727 -33.5559 -33.5548
   -33.5317 -33.5185 -33.5171 -33.4830 -33.4794 -33.4522 -33.4305 -33.4017
   -33.3585 -33.3111 -33.2962 -33.2940 -33.2735 -33.2637 -33.2466 -33.2450
   -33.2437 -33.2348 -33.2312 -33.2278 -33.2106 -33.2022 -33.1680 -33.1455
   -33.1067 -33.0659 -33.0618 -33.0385 -33.0292 -33.0120 -32.9998 -32.9740
   -18.0958 -17.8069 -17.6885 -17.6011 -17.5852 -17.5448 -17.3676 -17.3565
   -17.2059 -17.1936 -17.1047 -17.0823 -16.9648 -16.8993 -16.8548 -16.8301
   -16.8109 -16.7948 -16.7493 -16.7230 -16.7083 -16.6147 -16.5839 -16.4938
   -16.4833 -16.4250 -16.4082 -16.3985 -16.2069 -16.1876 -15.8954 -15.6260
   -15.6041 -10.7990  -5.2897  -4.9793  -4.9287  -4.9205  -4.7709  -4.7633
    -4.7039  -4.6274  -4.5139  -4.4940  -4.4881  -4.4053  -4.3911  -4.3681
    -4.3486  -4.3150  -4.2969  -4.2361  -4.1882  -4.1635  -4.1559  -4.1049
    -4.0903  -4.0603  -4.0345  -3.9874  -3.9688  -3.8940  -3.8772  -3.8160
    -3.7677  -3.7144  -3.6748  -3.6372  -3.5984  -3.5516  -3.4949  -3.4241
    -3.3868  -3.3080  -3.2497  -3.2186  -3.1241  -3.1203  -3.0686  -3.0415
    -2.9837  -2.9655  -2.9458  -2.8931  -2.7885  -2.7517  -2.7369  -2.6940
    -2.6171  -2.5755  -2.5336  -2.4926  -2.4657  -2.4018  -2.3768  -2.3572
    -2.3385  -2.2772  -2.1826  -2.1600  -2.1349  -2.1160  -2.0911  -2.0361
    -2.0008  -1.9591  -1.9324  -1.8603  -1.8369  -1.7693  -1.7182  -1.6438
    -1.5543  -1.5366  -1.5265  -1.4857  -1.4337  -1.3729  -1.3403  -1.2942
    -1.2318  -1.1632  -1.0642  -1.0100  -0.9764  -0.8905  -0.8402  -0.8330
    -0.7801  -0.6944  -0.6809  -0.6592  -0.6435  -0.5406  -0.4623   0.3373
     1.3207   1.5103   1.6591   1.6808   1.8655   2.0165   2.0451   2.0809
     2.2564   2.2694   2.3732   2.3899   2.4463   2.4748   2.5615   2.5983
     2.6636   2.7086   2.7430   2.7576   2.8248   2.8557   2.8843   2.9165
     2.9474   2.9642   3.0200   3.0548   3.0856   3.1269   3.1582   3.2036
     3.2087   3.2630   3.2977   3.3378   3.3467   3.3901   3.4286   3.4800
     3.4932   3.5621   3.5901   3.6537   3.6801   3.7561   3.8159   3.8527
     3.8947   3.9718   4.1654   4.5159   4.6100   4.6289   4.7676   4.8353
     4.9018   4.9782   5.0231   5.2000   5.3149   5.3891   5.4245   5.4569
     5.6070   5.6274   5.6812   5.7297   5.8920   5.9099   6.0002   6.0187
     6.0800   6.1213   6.1798   6.2140   6.3131   6.3482   6.4183   6.4362
     6.5519   6.6239   6.7595   6.8182   7.1759   7.3493   7.4915   7.6136
     7.9283   8.0074   8.0981   8.3669   8.6021   8.7137   8.7969   9.0353
     9.1821   9.3299   9.4324

     the Fermi energy is    -0.2780 ev

!    total energy              =   -3021.14974551 Ry
     Harris-Foulkes estimate   =   -3021.14974567 Ry
     estimated scf accuracy    <       0.00000052 Ry

     The total energy is the sum of the following terms:

     one-electron contribution =  -40440.54201821 Ry
     hartree contribution      =   20291.76933927 Ry
     xc contribution           =    -553.20274980 Ry
     ewald contribution        =   17680.84544374 Ry
     smearing contrib. (-TS)   =      -0.01976051 Ry

     total magnetization       =     1.06 Bohr mag/cell
     absolute magnetization    =     1.22 Bohr mag/cell

     convergence has been achieved in  11 iterations

     Forces acting on atoms (Ry/au):


     negative rho (up, down):  1.189E-02 1.196E-02
     atom    1 type  1   force =     0.00018567   -0.00089548   -0.10467654
     atom    2 type  2   force =     0.00014475    0.00068642    0.04006291
     atom    3 type  1   force =     0.00074998   -0.00174777   -0.02050617
     atom    4 type  2   force =    -0.00326961    0.00312684   -0.00320760
     atom    5 type  1   force =     0.00034683    0.00004963    0.00036839
     atom    6 type  2   force =    -0.00012472   -0.00008406    0.00019199
     atom    7 type  1   force =    -0.00054609   -0.00052367   -0.00026745
     atom    8 type  2   force =    -0.00022349   -0.00032504   -0.00040020
     atom    9 type  1   force =    -0.00003328    0.00057046   -0.10481173
     atom   10 type  2   force =     0.00034945   -0.00021002    0.03603466
     atom   11 type  1   force =     0.00068037    0.00184122    0.00265240
     atom   12 type  2   force =    -0.00519837   -0.00266509   -0.00517111
     atom   13 type  1   force =     0.00041518    0.00012228   -0.00021228
     atom   14 type  2   force =     0.00013463   -0.00007781   -0.00017051
     atom   15 type  1   force =    -0.00016977    0.00010975   -0.00025053
     atom   16 type  2   force =    -0.00024956    0.00001063   -0.00032875
     atom   17 type  2   force =     0.00000984   -0.00001014    0.06648321
     atom   18 type  1   force =     0.00005794    0.00003424    0.13152919
     atom   19 type  2   force =     0.00017817   -0.00052505   -0.08520546
     atom   20 type  2   force =    -0.05792556    0.00014608   -0.03605397
     atom   21 type  2   force =     0.05781716   -0.00004555   -0.03601572
     atom   22 type  1   force =    -0.00043037    0.00075230    0.08020380
     atom   23 type  2   force =     0.00019793   -0.00004546    0.00004305
     atom   24 type  2   force =     0.00064226    0.00186215   -0.03468101
     atom   25 type  2   force =     0.00414441    0.00333020   -0.00507561
     atom   26 type  1   force =     0.00040792   -0.00004386    0.00005582
     atom   27 type  2   force =    -0.00010007   -0.00011775    0.00011029
     atom   28 type  2   force =     0.00002837   -0.00018638   -0.00002549
     atom   29 type  2   force =     0.00003283   -0.00006647    0.00007018
     atom   30 type  1   force =     0.00000831   -0.00015576   -0.00019446
     atom   31 type  2   force =     0.00008464   -0.00002188    0.00013699
     atom   32 type  2   force =    -0.00006069   -0.00002113    0.00009453
     atom   33 type  2   force =    -0.00016528    0.00005260    0.06621866
     atom   34 type  1   force =     0.00007814   -0.00003047    0.13131254
     atom   35 type  2   force =     0.00019013   -0.00012618   -0.08481579
     atom   36 type  2   force =    -0.05782032    0.00006754   -0.03566730
     atom   37 type  2   force =     0.05799195   -0.00017153   -0.03606462
     atom   38 type  1   force =    -0.00037404   -0.00019906    0.07987479
     atom   39 type  2   force =     0.00007601   -0.00026625   -0.00008931
     atom   40 type  2   force =     0.00049133    0.00124469   -0.03528580
     atom   41 type  2   force =     0.00589139   -0.00243217   -0.00720091
     atom   42 type  1   force =     0.00024462   -0.00006518    0.00001756
     atom   43 type  2   force =    -0.00019551   -0.00010433    0.00009123
     atom   44 type  2   force =    -0.00002082   -0.00015902   -0.00003026
     atom   45 type  2   force =     0.00003435   -0.00017125    0.00004814
     atom   46 type  1   force =    -0.00019529   -0.00008863   -0.00032639
     atom   47 type  2   force =    -0.00014510   -0.00019783    0.00033655
     atom   48 type  2   force =    -0.00004620    0.00019916    0.00025035
     atom   49 type  2   force =     0.00101583    0.00236225    0.00084002
     atom   50 type  3   force =    -0.00213765   -0.00333703   -0.00467072
     atom   51 type  4   force =    -0.00039971    0.00006214   -0.00043196
     atom   52 type  4   force =    -0.00154410   -0.00166670   -0.00116662
     atom   53 type  4   force =     0.00015204    0.00161852    0.00685699
     atom   54 type  4   force =    -0.00140682   -0.00146511   -0.00088001

     Total force =     0.342453     Total SCF correction =     0.003143
 !ASE

     Writing output data file calc.save
 
     init_run     :     66.33s CPU     78.27s WALL (       1 calls)
     electrons    :   2957.08s CPU   3403.39s WALL (       1 calls)
     forces       :     48.60s CPU     50.68s WALL (       1 calls)

     Called by init_run:
     wfcinit      :     58.20s CPU     69.44s WALL (       1 calls)
     potinit      :      1.35s CPU      1.63s WALL (       1 calls)

     Called by electrons:
     c_bands      :   2612.46s CPU   2996.18s WALL (      11 calls)
     sum_band     :    295.82s CPU    352.33s WALL (      11 calls)
     v_of_rho     :     12.27s CPU     14.92s WALL (      12 calls)
     newd         :     40.07s CPU     43.75s WALL (      12 calls)
     mix_rho      :      0.49s CPU      0.64s WALL (      11 calls)
     vdW_energy   :      2.72s CPU      3.08s WALL (      13 calls)
     vdW_ffts     :      3.12s CPU      4.09s WALL (      26 calls)
     vdW_v        :      1.28s CPU      1.46s WALL (      13 calls)

     Called by c_bands:
     init_us_2    :      6.84s CPU      7.41s WALL (     960 calls)
     cegterg      :   2569.31s CPU   2950.68s WALL (     440 calls)

     Called by *egterg:
     h_psi        :    947.92s CPU   1236.14s WALL (    2420 calls)
     s_psi        :    165.80s CPU    170.73s WALL (    2420 calls)
     g_psi        :      4.82s CPU      4.98s WALL (    1940 calls)
     cdiaghg      :    900.32s CPU    923.57s WALL (    2380 calls)

     Called by h_psi:
     add_vuspsi   :    167.31s CPU    172.75s WALL (    2420 calls)

     General routines
     calbec       :    243.74s CPU    250.12s WALL (    2900 calls)
     fft          :      6.58s CPU      8.43s WALL (    1029 calls)
     ffts         :      0.05s CPU      0.07s WALL (      46 calls)
     fftw         :    520.79s CPU    844.97s WALL (  781276 calls)
     interpolate  :      0.33s CPU      0.54s WALL (      46 calls)
     davcio       :      0.11s CPU      2.46s WALL (      40 calls)
 
     Parallel routines
     fft_scatter  :    256.55s CPU    435.56s WALL (  782351 calls)
 
     PWSCF        : 51m13.19s CPU    58m56.52s WALL

 
   This run was terminated on:  22:34:37  26Feb2018            

=------------------------------------------------------------------------------=
   JOB DONE.
=------------------------------------------------------------------------------=
