  python dir          : /home/vossj/suncat/lib/python2.7/site-packages/espresso
  espresso dir        : /home/vossj/suncat/esdld/espresso-dynpy-beef/bin
  pseudo dir          : /home/alatimer/bin/psp/esp_psp_w_gbrvRu/
  ase-espresso py git : ffa2778-git



     Program PWSCF v.5.1rc2 (svn rev. ) starts on 11Feb2018 at  1:27: 0 

     This program is part of the open-source Quantum ESPRESSO suite
     for quantum simulation of materials; please cite
         "P. Giannozzi et al., J. Phys.:Condens. Matter 21 395502 (2009);
          URL http://www.quantum-espresso.org", 
     in publications or presentations arising from this work. More details at
     http://www.quantum-espresso.org/quote

     Parallel version (MPI), running on    16 processors
     R & G space division:  proc/nbgrp/npool/nimage =      16
     Reading input from pw.inp
     Message from routine read_cards :
     DEPRECATED: no units specified in CELL_PARAMETERS card

     Current dimensions of program PWSCF are:
     Max number of different atomic species (ntypx) = 10
     Max number of k-points (npk) =  40000
     Max angular momentum in pseudopotentials (lmaxx) =  3

     **************************************************************************
     Initializing libbeef V0.1.1 with the BEEF-vdW functional.
     Citation: Wellendorff et al., PRB 85, 235149 (2012).
     **************************************************************************


     IMPORTANT: XC functional enforced from input :
     Exchange-correlation      = BEEF ( 1  4 27 13 2)
     Any further DFT definition will be discarded
     Please, verify this is what you really want


     Subspace diagonalization in iterative solution of the eigenvalue problem:
     a serial algorithm will be used

 
     Parallelization info
     --------------------
     sticks:   dense  smooth     PW     G-vecs:    dense   smooth      PW
     Min         281     112     31                68535    17318    2565
     Max         282     113     32                68545    17369    2582
     Sum        4501    1795    503              1096637   277353   41113
 
     Generating pointlists ...
     new r_m :   0.4125 (alat units)  0.7795 (a.u.) for type    1
     new r_m :   0.3933 (alat units)  0.7433 (a.u.) for type    2
     new r_m :   0.3933 (alat units)  0.7433 (a.u.) for type    3


     bravais-lattice index     =            0
     lattice parameter (alat)  =       1.8897  a.u.
     unit-cell volume          =    7990.9933 (a.u.)^3
     number of atoms/cell      =           50
     number of atomic types    =            3
     number of electrons       =       391.00
     number of Kohn-Sham states=          295
     kinetic-energy cutoff     =      40.4243  Ry
     charge density cutoff     =     404.2426  Ry
     convergence threshold     =      7.3E-07
     mixing beta               =       0.1000
     number of iterations used =           10  plain     mixing
     Exchange-correlation      = BEEF ( 1  4 27 13 2)
     nstep                     =           50


     celldm(1)=   1.889726  celldm(2)=   0.000000  celldm(3)=   0.000000
     celldm(4)=   0.000000  celldm(5)=   0.000000  celldm(6)=   0.000000

     crystal axes: (cart. coord. in units of alat)
               a(1) = (   6.590708   0.000000   0.000000 )  
               a(2) = (   0.000000   5.950229   0.000000 )  
               a(3) = (   0.000000   0.000000  30.195235 )  

     reciprocal axes: (cart. coord. in units 2 pi/alat)
               b(1) = (  0.151729  0.000000  0.000000 )  
               b(2) = (  0.000000  0.168061  0.000000 )  
               b(3) = (  0.000000  0.000000  0.033118 )  


     PseudoPot. # 1 for Ti read from file:
     /home/alatimer/bin/psp/esp_psp_w_gbrvRu/Ti.UPF
     MD5 check sum: 8e4df49b7f0d34bbd5052bf3f5ea0213
     Pseudo is Ultrasoft, Zval = 12.0
     Generated by new atomic code, or converted to UPF format
     Using radial grid of  851 points,  6 beta functions with: 
                l(1) =   0
                l(2) =   0
                l(3) =   1
                l(4) =   1
                l(5) =   2
                l(6) =   2
     Q(r) pseudized with  8 coefficients,  rinner =    1.000   1.000   1.000
                                                       1.000   1.000

     PseudoPot. # 2 for  O read from file:
     /home/alatimer/bin/psp/esp_psp_w_gbrvRu/O.UPF
     MD5 check sum: e057bbcf3229fb5d8c36c0c92f9568b4
     Pseudo is Ultrasoft + core correction, Zval =  6.0
     Generated using "atomic" code by A. Dal Corso  v.5.0.2 svn rev. 9415
     Using radial grid of 1095 points,  4 beta functions with: 
                l(1) =   0
                l(2) =   0
                l(3) =   1
                l(4) =   1
     Q(r) pseudized with 0 coefficients 


     PseudoPot. # 3 for  H read from file:
     /home/alatimer/bin/psp/esp_psp_w_gbrvRu/H.UPF
     MD5 check sum: bd57da0722753ddfd9833a65b40bb853
     Pseudo is Ultrasoft, Zval =  1.0
     Generated using "atomic" code by A. Dal Corso  v.5.0.2 svn rev. 9415
     Using radial grid of  929 points,  2 beta functions with: 
                l(1) =   0
                l(2) =   0
     Q(r) pseudized with 0 coefficients 


     vdW kernel table read from file vdW_kernel_table
     MD5 check sum: 095c7af220d748ca6e76c0b4c6cfb241

     atomic species   valence    mass     pseudopotential
        Ti1           12.00    47.88000     Ti( 1.00)
        O1             6.00    15.99940      O( 1.00)
        H1             1.00     1.00794      H( 1.00)

     Starting magnetic structure 
     atomic species   magnetization
        Ti1          0.250
        O1           0.500
        H1           0.000

      2 Sym. Ops. (no inversion) found ( 1 have fractional translation)



   Cartesian axes

     site n.     atom                  positions (alat units)
         1           Ti1 tau(   1) = (   1.6476770   0.7437786   2.6545865  )
         2           O1  tau(   2) = (   1.6476770   2.2313359   3.9361215  )
         3           Ti1 tau(   3) = (   1.6476770   2.2313359   5.9499405  )
         4           O1  tau(   4) = (   0.3661420   0.7437786   5.9499405  )
         5           Ti1 tau(   5) = (   1.6423058   0.7993178   9.2289010  )
         6           O1  tau(   6) = (   1.6406404   2.2313359  10.4535548  )
         7           Ti1 tau(   7) = (   1.6373334   2.2313359  13.0586656  )
         8           O1  tau(   8) = (   0.3716334   0.7231912  12.7369480  )
         9           Ti1 tau(   9) = (   1.6476770   3.7188931   2.6545865  )
        10           O1  tau(  10) = (   1.6476770   5.2064503   3.9361215  )
        11           Ti1 tau(  11) = (   1.6476770   5.2064503   5.9499405  )
        12           O1  tau(  12) = (   0.3661420   3.7188931   5.9499405  )
        13           Ti1 tau(  13) = (   1.6423059   3.6633529   9.2289023  )
        14           O1  tau(  14) = (   1.6396028   5.2064504  10.5374954  )
        15           Ti1 tau(  15) = (   1.6366369   5.2064504  12.3426698  )
        16           O1  tau(  16) = (   0.3716333   3.7394800  12.7369475  )
        17           O1  tau(  17) = (   1.6476770   2.2313359   1.3730516  )
        18           Ti1 tau(  18) = (   4.9430310   2.2313359   2.6545865  )
        19           O1  tau(  19) = (   4.9430310   2.2313359   4.6684056  )
        20           O1  tau(  20) = (   6.2245660   0.7437786   2.6545865  )
        21           O1  tau(  21) = (   3.6614961   0.7437786   2.6545865  )
        22           Ti1 tau(  22) = (   4.9430310   0.7437786   5.9499405  )
        23           O1  tau(  23) = (   1.6444126   2.2313359   7.9291264  )
        24           O1  tau(  24) = (   4.9430310   2.2313359   7.2314755  )
        25           O1  tau(  25) = (   2.9292120   0.7437786   5.9499405  )
        26           Ti1 tau(  26) = (   4.9374203   2.2313360   9.4425711  )
        27           O1  tau(  27) = (   4.9384755   2.2313359  11.2756104  )
        28           O1  tau(  28) = (   6.2333856   0.7395591   9.2701299  )
        29           O1  tau(  29) = (   3.6424277   0.7403199   9.2676498  )
        30           Ti1 tau(  30) = (   4.9388558   0.7382018  12.7898683  )
        31           O1  tau(  31) = (   4.8884434   2.2313358  13.8602379  )
        32           O1  tau(  32) = (   2.8718067   0.7224686  12.6922084  )
        33           O1  tau(  33) = (   1.6476770   5.2064503   1.3730516  )
        34           Ti1 tau(  34) = (   4.9430310   5.2064503   2.6545865  )
        35           O1  tau(  35) = (   4.9430310   5.2064503   4.6684056  )
        36           O1  tau(  36) = (   6.2245660   3.7188931   2.6545865  )
        37           O1  tau(  37) = (   3.6614961   3.7188931   2.6545865  )
        38           Ti1 tau(  38) = (   4.9430310   3.7188931   5.9499405  )
        39           O1  tau(  39) = (   1.6444418   5.2064506   7.9393866  )
        40           O1  tau(  40) = (   4.9430310   5.2064503   7.2314755  )
        41           O1  tau(  41) = (   2.9292120   3.7188931   5.9499405  )
        42           Ti1 tau(  42) = (   4.9387790   5.2064503   9.4241858  )
        43           O1  tau(  43) = (   4.9379278   5.2064504  11.2756977  )
        44           O1  tau(  44) = (   6.2333855   3.7231127   9.2701299  )
        45           O1  tau(  45) = (   3.6424278   3.7223520   9.2676499  )
        46           Ti1 tau(  46) = (   4.9388558   3.7244696  12.7898683  )
        47           O1  tau(  47) = (   4.8902929   5.2064502  13.8618696  )
        48           O1  tau(  48) = (   2.8718066   3.7402036  12.6922086  )
        49           O1  tau(  49) = (   1.7618258   2.2313358  14.8494317  )
        50           H1  tau(  50) = (   2.6007197   2.2313366  15.3028018  )

     number of k points=    32  Fermi-Dirac smearing, width (Ry)=  0.0073
                       cart. coord. in units 2pi/alat
        k(    1) = (   0.0000000   0.0000000   0.0000000), wk =   0.0277778
        k(    2) = (   0.0000000   0.0280101   0.0000000), wk =   0.0555556
        k(    3) = (   0.0000000   0.0560203   0.0000000), wk =   0.0555556
        k(    4) = (   0.0000000  -0.0840304   0.0000000), wk =   0.0277778
        k(    5) = (   0.0252881   0.0000000   0.0000000), wk =   0.0555556
        k(    6) = (   0.0252881   0.0280101   0.0000000), wk =   0.1111111
        k(    7) = (   0.0252881   0.0560203   0.0000000), wk =   0.1111111
        k(    8) = (   0.0252881  -0.0840304   0.0000000), wk =   0.0555556
        k(    9) = (   0.0505763   0.0000000   0.0000000), wk =   0.0555556
        k(   10) = (   0.0505763   0.0280101   0.0000000), wk =   0.1111111
        k(   11) = (   0.0505763   0.0560203   0.0000000), wk =   0.1111111
        k(   12) = (   0.0505763  -0.0840304   0.0000000), wk =   0.0555556
        k(   13) = (  -0.0758644   0.0000000   0.0000000), wk =   0.0277778
        k(   14) = (  -0.0758644   0.0280101   0.0000000), wk =   0.0555556
        k(   15) = (  -0.0758644   0.0560203   0.0000000), wk =   0.0555556
        k(   16) = (  -0.0758644  -0.0840304   0.0000000), wk =   0.0277778
        k(   17) = (   0.0000000   0.0000000   0.0000000), wk =   0.0277778
        k(   18) = (   0.0000000   0.0280101   0.0000000), wk =   0.0555556
        k(   19) = (   0.0000000   0.0560203   0.0000000), wk =   0.0555556
        k(   20) = (   0.0000000  -0.0840304   0.0000000), wk =   0.0277778
        k(   21) = (   0.0252881   0.0000000   0.0000000), wk =   0.0555556
        k(   22) = (   0.0252881   0.0280101   0.0000000), wk =   0.1111111
        k(   23) = (   0.0252881   0.0560203   0.0000000), wk =   0.1111111
        k(   24) = (   0.0252881  -0.0840304   0.0000000), wk =   0.0555556
        k(   25) = (   0.0505763   0.0000000   0.0000000), wk =   0.0555556
        k(   26) = (   0.0505763   0.0280101   0.0000000), wk =   0.1111111
        k(   27) = (   0.0505763   0.0560203   0.0000000), wk =   0.1111111
        k(   28) = (   0.0505763  -0.0840304   0.0000000), wk =   0.0555556
        k(   29) = (  -0.0758644   0.0000000   0.0000000), wk =   0.0277778
        k(   30) = (  -0.0758644   0.0280101   0.0000000), wk =   0.0555556
        k(   31) = (  -0.0758644   0.0560203   0.0000000), wk =   0.0555556
        k(   32) = (  -0.0758644  -0.0840304   0.0000000), wk =   0.0277778

     Dense  grid:  1096637 G-vectors     FFT dimensions: (  80,  72, 375)

     Smooth grid:   277353 G-vectors     FFT dimensions: (  54,  45, 240)

     Largest allocated arrays     est. size (Mb)     dimensions
        Kohn-Sham Wavefunctions         9.81 Mb     (    2180,  295)
        NL pseudopotentials            18.43 Mb     (    2180,  554)
        Each V/rho on FFT grid          4.22 Mb     (  138240,   2)
        Each G-vector array             0.52 Mb     (   68538)
        G-vector shells                 0.25 Mb     (   33046)
     Largest temporary arrays     est. size (Mb)     dimensions
        Auxiliary wavefunctions        39.25 Mb     (    2180, 1180)
        Each subspace H/S matrix       21.25 Mb     (    1180, 1180)
        Each <psi_i|beta_j> matrix      2.49 Mb     (     554,  295)
        Arrays for rho mixing          21.09 Mb     (  138240,   10)

     Check: negative/imaginary core charge=   -0.000049    0.000000

     The initial density is read from file :
     ./calc.save/charge-density.dat


     negative rho (up, down):  1.350E-02 1.350E-02


     ************************************************************************
     *
     * You are using vdW-DF for exchange-correlation in this calculation.
     * Please cite the following three references that made this development
     * possible:
     *
     *   M. Dion, H. Rydberg, E. Schroder, D. C. Langreth, and
     *   B. I. Lundqvist, Phys. Rev. Lett. 92, 246401 (2004).
     *
     *   T. Thonhauser, V. R. Cooper, S. Li, A. Puzder, P. Hyldgaard, and
     *   D. C. Langreth, Phys. Rev. B 76, 125112 (2007).
     *
     *   G. Roman-Perez and J. M. Soler, Phys. Rev. Lett. 103, 096102 (2009).
     *
     *
     * If you are using vdW-DF2, please also cite:
     *
     *   K. Lee, E. D. Murray, L. Kong, B. I. Lundqvist, and
     *   D. C. Langreth, Phys. Rev. B 82, 081101(R) (2010).
     *
     *
     * If you are calculating the stress with vdW-DF, please also cite:
     *
     *   R. Sabatini, E. Kucukbenli, B. Kolb, T. Thonhauser, and
     *   S. de Gironcoli, J. Phys.: Condens. Matter 24, 424209 (2012).
     *
     ************************************************************************

     Carrying out vdW-DF run using the following parameters:

     Nqs =      20    Nr_points =    1024   r_max =   100.000
     q_mesh =
               0.00001000     0.04494208     0.09755937     0.15916263
               0.23128650     0.31572767     0.41458969     0.53033537
               0.66584808     0.82450364     1.01025438     1.22772762
               1.48234092     1.78043706     2.12944203     2.53805004
               3.01644009     3.57652955     4.23227104     5.00000000

     Gradients computed in reciprocal space

     ************************************************************************


     Starting wfc are  293 randomized atomic wfcs +    2 random wfc

     total cpu time spent up to now is       59.6 secs

     Self-consistent Calculation

     iteration #  1     ecut=    40.42 Ry     beta=0.10
     Davidson diagonalization with overlap
     c_bands:  1 eigenvalues not converged
     c_bands:  1 eigenvalues not converged
     ethr =  1.00E-05,  avg # of iterations = 16.9

     Threshold (ethr) on eigenvalues was too large:
     Diagonalizing with lowered threshold

     Davidson diagonalization with overlap
     ethr =  8.54E-07,  avg # of iterations =  1.0

     negative rho (up, down):  1.351E-02 1.351E-02
 
     Magnetic moment per site:
     atom:    1    charge:    3.1244    magn:   -0.0002    constr:    0.0000
     atom:    2    charge:    1.8808    magn:    0.0002    constr:    0.0000
     atom:    3    charge:    3.1200    magn:    0.0000    constr:    0.0000
     atom:    4    charge:    1.8855    magn:   -0.0000    constr:    0.0000
     atom:    5    charge:    3.1144    magn:    0.0001    constr:    0.0000
     atom:    6    charge:    1.8762    magn:   -0.0002    constr:    0.0000
     atom:    7    charge:    3.1162    magn:    0.0000    constr:    0.0000
     atom:    8    charge:    1.8815    magn:   -0.0001    constr:    0.0000
     atom:    9    charge:    3.1244    magn:   -0.0002    constr:    0.0000
     atom:   10    charge:    1.8809    magn:    0.0002    constr:    0.0000
     atom:   11    charge:    3.1198    magn:    0.0000    constr:    0.0000
     atom:   12    charge:    1.8855    magn:   -0.0000    constr:    0.0000
     atom:   13    charge:    3.1144    magn:    0.0001    constr:    0.0000
     atom:   14    charge:    1.8894    magn:   -0.0000    constr:    0.0000
     atom:   15    charge:    3.1165    magn:    0.0000    constr:    0.0000
     atom:   16    charge:    1.8815    magn:   -0.0001    constr:    0.0000
     atom:   17    charge:    1.8543    magn:    0.0010    constr:    0.0000
     atom:   18    charge:    3.1239    magn:    0.0000    constr:    0.0000
     atom:   19    charge:    1.8763    magn:    0.0000    constr:    0.0000
     atom:   20    charge:    1.8831    magn:    0.0000    constr:    0.0000
     atom:   21    charge:    1.8831    magn:    0.0000    constr:    0.0000
     atom:   22    charge:    3.1199    magn:    0.0000    constr:    0.0000
     atom:   23    charge:    1.8897    magn:   -0.0001    constr:    0.0000
     atom:   24    charge:    1.8735    magn:   -0.0002    constr:    0.0000
     atom:   25    charge:    1.8855    magn:   -0.0000    constr:    0.0000
     atom:   26    charge:    3.1143    magn:    0.0001    constr:    0.0000
     atom:   27    charge:    1.8744    magn:   -0.0003    constr:    0.0000
     atom:   28    charge:    1.8837    magn:   -0.0002    constr:    0.0000
     atom:   29    charge:    1.8818    magn:   -0.0002    constr:    0.0000
     atom:   30    charge:    3.1193    magn:    0.0000    constr:    0.0000
     atom:   31    charge:    1.8815    magn:   -0.0000    constr:    0.0000
     atom:   32    charge:    1.8820    magn:   -0.0001    constr:    0.0000
     atom:   33    charge:    1.8543    magn:    0.0010    constr:    0.0000
     atom:   34    charge:    3.1239    magn:    0.0000    constr:    0.0000
     atom:   35    charge:    1.8763    magn:    0.0000    constr:    0.0000
     atom:   36    charge:    1.8831    magn:    0.0000    constr:    0.0000
     atom:   37    charge:    1.8831    magn:    0.0000    constr:    0.0000
     atom:   38    charge:    3.1199    magn:    0.0000    constr:    0.0000
     atom:   39    charge:    1.8823    magn:   -0.0001    constr:    0.0000
     atom:   40    charge:    1.8739    magn:   -0.0002    constr:    0.0000
     atom:   41    charge:    1.8855    magn:   -0.0000    constr:    0.0000
     atom:   42    charge:    3.1217    magn:    0.0001    constr:    0.0000
     atom:   43    charge:    1.8743    magn:   -0.0002    constr:    0.0000
     atom:   44    charge:    1.8837    magn:   -0.0002    constr:    0.0000
     atom:   45    charge:    1.8818    magn:   -0.0002    constr:    0.0000
     atom:   46    charge:    3.1193    magn:    0.0000    constr:    0.0000
     atom:   47    charge:    1.8809    magn:   -0.0001    constr:    0.0000
     atom:   48    charge:    1.8820    magn:   -0.0001    constr:    0.0000
     atom:   49    charge:    1.8953    magn:    0.0000    constr:    0.0000
     atom:   50    charge:    0.3932    magn:   -0.0000    constr:    0.0000

     total cpu time spent up to now is      973.0 secs

     total energy              =   -3005.52918932 Ry
     Harris-Foulkes estimate   =   -3005.52969885 Ry
     estimated scf accuracy    <       0.00334039 Ry

     total magnetization       =     0.00 Bohr mag/cell
     absolute magnetization    =     0.01 Bohr mag/cell

     iteration #  2     ecut=    40.42 Ry     beta=0.10
     Davidson diagonalization with overlap
     ethr =  8.54E-07,  avg # of iterations =  4.2

     negative rho (up, down):  1.351E-02 1.351E-02
 
     Magnetic moment per site:
     atom:    1    charge:    3.1244    magn:   -0.0002    constr:    0.0000
     atom:    2    charge:    1.8809    magn:    0.0002    constr:    0.0000
     atom:    3    charge:    3.1200    magn:    0.0000    constr:    0.0000
     atom:    4    charge:    1.8855    magn:   -0.0000    constr:    0.0000
     atom:    5    charge:    3.1144    magn:    0.0001    constr:    0.0000
     atom:    6    charge:    1.8761    magn:   -0.0002    constr:    0.0000
     atom:    7    charge:    3.1163    magn:    0.0000    constr:    0.0000
     atom:    8    charge:    1.8815    magn:   -0.0001    constr:    0.0000
     atom:    9    charge:    3.1244    magn:   -0.0002    constr:    0.0000
     atom:   10    charge:    1.8810    magn:    0.0002    constr:    0.0000
     atom:   11    charge:    3.1198    magn:    0.0000    constr:    0.0000
     atom:   12    charge:    1.8855    magn:   -0.0000    constr:    0.0000
     atom:   13    charge:    3.1144    magn:    0.0001    constr:    0.0000
     atom:   14    charge:    1.8893    magn:   -0.0000    constr:    0.0000
     atom:   15    charge:    3.1165    magn:    0.0000    constr:    0.0000
     atom:   16    charge:    1.8815    magn:   -0.0001    constr:    0.0000
     atom:   17    charge:    1.8547    magn:    0.0010    constr:    0.0000
     atom:   18    charge:    3.1239    magn:    0.0000    constr:    0.0000
     atom:   19    charge:    1.8763    magn:    0.0000    constr:    0.0000
     atom:   20    charge:    1.8832    magn:    0.0000    constr:    0.0000
     atom:   21    charge:    1.8832    magn:    0.0000    constr:    0.0000
     atom:   22    charge:    3.1199    magn:    0.0000    constr:    0.0000
     atom:   23    charge:    1.8897    magn:   -0.0001    constr:    0.0000
     atom:   24    charge:    1.8735    magn:   -0.0002    constr:    0.0000
     atom:   25    charge:    1.8855    magn:   -0.0000    constr:    0.0000
     atom:   26    charge:    3.1144    magn:    0.0001    constr:    0.0000
     atom:   27    charge:    1.8743    magn:   -0.0003    constr:    0.0000
     atom:   28    charge:    1.8836    magn:   -0.0002    constr:    0.0000
     atom:   29    charge:    1.8817    magn:   -0.0002    constr:    0.0000
     atom:   30    charge:    3.1193    magn:    0.0000    constr:    0.0000
     atom:   31    charge:    1.8815    magn:   -0.0000    constr:    0.0000
     atom:   32    charge:    1.8819    magn:   -0.0001    constr:    0.0000
     atom:   33    charge:    1.8547    magn:    0.0010    constr:    0.0000
     atom:   34    charge:    3.1239    magn:    0.0000    constr:    0.0000
     atom:   35    charge:    1.8763    magn:    0.0000    constr:    0.0000
     atom:   36    charge:    1.8832    magn:    0.0000    constr:    0.0000
     atom:   37    charge:    1.8832    magn:    0.0000    constr:    0.0000
     atom:   38    charge:    3.1199    magn:    0.0000    constr:    0.0000
     atom:   39    charge:    1.8823    magn:   -0.0001    constr:    0.0000
     atom:   40    charge:    1.8739    magn:   -0.0002    constr:    0.0000
     atom:   41    charge:    1.8855    magn:   -0.0000    constr:    0.0000
     atom:   42    charge:    3.1217    magn:    0.0001    constr:    0.0000
     atom:   43    charge:    1.8742    magn:   -0.0002    constr:    0.0000
     atom:   44    charge:    1.8836    magn:   -0.0002    constr:    0.0000
     atom:   45    charge:    1.8817    magn:   -0.0002    constr:    0.0000
     atom:   46    charge:    3.1193    magn:    0.0000    constr:    0.0000
     atom:   47    charge:    1.8808    magn:   -0.0001    constr:    0.0000
     atom:   48    charge:    1.8819    magn:   -0.0001    constr:    0.0000
     atom:   49    charge:    1.8956    magn:    0.0000    constr:    0.0000
     atom:   50    charge:    0.3932    magn:   -0.0000    constr:    0.0000

     total cpu time spent up to now is     1175.8 secs

     total energy              =   -3005.52916208 Ry
     Harris-Foulkes estimate   =   -3005.52980464 Ry
     estimated scf accuracy    <       0.01105400 Ry

     total magnetization       =     0.00 Bohr mag/cell
     absolute magnetization    =     0.01 Bohr mag/cell

     iteration #  3     ecut=    40.42 Ry     beta=0.10
     Davidson diagonalization with overlap
     ethr =  8.54E-07,  avg # of iterations =  1.6

     negative rho (up, down):  1.351E-02 1.351E-02
 
     Magnetic moment per site:
     atom:    1    charge:    3.1244    magn:   -0.0002    constr:    0.0000
     atom:    2    charge:    1.8809    magn:    0.0002    constr:    0.0000
     atom:    3    charge:    3.1200    magn:    0.0000    constr:    0.0000
     atom:    4    charge:    1.8856    magn:   -0.0000    constr:    0.0000
     atom:    5    charge:    3.1144    magn:    0.0001    constr:    0.0000
     atom:    6    charge:    1.8760    magn:   -0.0001    constr:    0.0000
     atom:    7    charge:    3.1164    magn:    0.0000    constr:    0.0000
     atom:    8    charge:    1.8814    magn:   -0.0001    constr:    0.0000
     atom:    9    charge:    3.1244    magn:   -0.0002    constr:    0.0000
     atom:   10    charge:    1.8810    magn:    0.0002    constr:    0.0000
     atom:   11    charge:    3.1198    magn:    0.0000    constr:    0.0000
     atom:   12    charge:    1.8856    magn:   -0.0000    constr:    0.0000
     atom:   13    charge:    3.1144    magn:    0.0001    constr:    0.0000
     atom:   14    charge:    1.8893    magn:   -0.0000    constr:    0.0000
     atom:   15    charge:    3.1165    magn:    0.0000    constr:    0.0000
     atom:   16    charge:    1.8814    magn:   -0.0001    constr:    0.0000
     atom:   17    charge:    1.8548    magn:    0.0009    constr:    0.0000
     atom:   18    charge:    3.1239    magn:    0.0000    constr:    0.0000
     atom:   19    charge:    1.8763    magn:    0.0000    constr:    0.0000
     atom:   20    charge:    1.8832    magn:    0.0000    constr:    0.0000
     atom:   21    charge:    1.8832    magn:    0.0000    constr:    0.0000
     atom:   22    charge:    3.1199    magn:    0.0000    constr:    0.0000
     atom:   23    charge:    1.8897    magn:   -0.0001    constr:    0.0000
     atom:   24    charge:    1.8735    magn:   -0.0002    constr:    0.0000
     atom:   25    charge:    1.8855    magn:   -0.0000    constr:    0.0000
     atom:   26    charge:    3.1144    magn:    0.0001    constr:    0.0000
     atom:   27    charge:    1.8742    magn:   -0.0002    constr:    0.0000
     atom:   28    charge:    1.8836    magn:   -0.0002    constr:    0.0000
     atom:   29    charge:    1.8817    magn:   -0.0002    constr:    0.0000
     atom:   30    charge:    3.1193    magn:    0.0000    constr:    0.0000
     atom:   31    charge:    1.8814    magn:   -0.0000    constr:    0.0000
     atom:   32    charge:    1.8819    magn:   -0.0001    constr:    0.0000
     atom:   33    charge:    1.8547    magn:    0.0009    constr:    0.0000
     atom:   34    charge:    3.1239    magn:    0.0000    constr:    0.0000
     atom:   35    charge:    1.8763    magn:    0.0000    constr:    0.0000
     atom:   36    charge:    1.8832    magn:    0.0000    constr:    0.0000
     atom:   37    charge:    1.8832    magn:    0.0000    constr:    0.0000
     atom:   38    charge:    3.1199    magn:    0.0000    constr:    0.0000
     atom:   39    charge:    1.8823    magn:   -0.0001    constr:    0.0000
     atom:   40    charge:    1.8739    magn:   -0.0002    constr:    0.0000
     atom:   41    charge:    1.8855    magn:   -0.0000    constr:    0.0000
     atom:   42    charge:    3.1217    magn:    0.0001    constr:    0.0000
     atom:   43    charge:    1.8741    magn:   -0.0002    constr:    0.0000
     atom:   44    charge:    1.8836    magn:   -0.0002    constr:    0.0000
     atom:   45    charge:    1.8817    magn:   -0.0002    constr:    0.0000
     atom:   46    charge:    3.1193    magn:    0.0000    constr:    0.0000
     atom:   47    charge:    1.8807    magn:   -0.0001    constr:    0.0000
     atom:   48    charge:    1.8819    magn:   -0.0001    constr:    0.0000
     atom:   49    charge:    1.8976    magn:    0.0000    constr:    0.0000
     atom:   50    charge:    0.3935    magn:   -0.0000    constr:    0.0000

     total cpu time spent up to now is     1342.4 secs

     total energy              =   -3005.52933666 Ry
     Harris-Foulkes estimate   =   -3005.52947563 Ry
     estimated scf accuracy    <       0.00077154 Ry

     total magnetization       =     0.00 Bohr mag/cell
     absolute magnetization    =     0.01 Bohr mag/cell

     iteration #  4     ecut=    40.42 Ry     beta=0.10
     Davidson diagonalization with overlap
     ethr =  1.97E-07,  avg # of iterations =  2.0

     negative rho (up, down):  1.352E-02 1.352E-02
 
     Magnetic moment per site:
     atom:    1    charge:    3.1244    magn:   -0.0002    constr:    0.0000
     atom:    2    charge:    1.8809    magn:    0.0002    constr:    0.0000
     atom:    3    charge:    3.1200    magn:    0.0000    constr:    0.0000
     atom:    4    charge:    1.8855    magn:   -0.0000    constr:    0.0000
     atom:    5    charge:    3.1144    magn:    0.0001    constr:    0.0000
     atom:    6    charge:    1.8760    magn:   -0.0001    constr:    0.0000
     atom:    7    charge:    3.1164    magn:    0.0000    constr:    0.0000
     atom:    8    charge:    1.8815    magn:   -0.0001    constr:    0.0000
     atom:    9    charge:    3.1244    magn:   -0.0002    constr:    0.0000
     atom:   10    charge:    1.8810    magn:    0.0002    constr:    0.0000
     atom:   11    charge:    3.1198    magn:    0.0000    constr:    0.0000
     atom:   12    charge:    1.8855    magn:   -0.0000    constr:    0.0000
     atom:   13    charge:    3.1144    magn:    0.0001    constr:    0.0000
     atom:   14    charge:    1.8893    magn:   -0.0000    constr:    0.0000
     atom:   15    charge:    3.1165    magn:    0.0000    constr:    0.0000
     atom:   16    charge:    1.8815    magn:   -0.0001    constr:    0.0000
     atom:   17    charge:    1.8548    magn:    0.0009    constr:    0.0000
     atom:   18    charge:    3.1239    magn:    0.0000    constr:    0.0000
     atom:   19    charge:    1.8763    magn:    0.0000    constr:    0.0000
     atom:   20    charge:    1.8832    magn:    0.0000    constr:    0.0000
     atom:   21    charge:    1.8832    magn:    0.0000    constr:    0.0000
     atom:   22    charge:    3.1199    magn:    0.0000    constr:    0.0000
     atom:   23    charge:    1.8897    magn:   -0.0001    constr:    0.0000
     atom:   24    charge:    1.8735    magn:   -0.0001    constr:    0.0000
     atom:   25    charge:    1.8855    magn:   -0.0000    constr:    0.0000
     atom:   26    charge:    3.1143    magn:    0.0001    constr:    0.0000
     atom:   27    charge:    1.8742    magn:   -0.0002    constr:    0.0000
     atom:   28    charge:    1.8836    magn:   -0.0002    constr:    0.0000
     atom:   29    charge:    1.8817    magn:   -0.0002    constr:    0.0000
     atom:   30    charge:    3.1193    magn:    0.0000    constr:    0.0000
     atom:   31    charge:    1.8814    magn:   -0.0000    constr:    0.0000
     atom:   32    charge:    1.8819    magn:   -0.0001    constr:    0.0000
     atom:   33    charge:    1.8548    magn:    0.0009    constr:    0.0000
     atom:   34    charge:    3.1239    magn:    0.0000    constr:    0.0000
     atom:   35    charge:    1.8763    magn:    0.0000    constr:    0.0000
     atom:   36    charge:    1.8832    magn:    0.0000    constr:    0.0000
     atom:   37    charge:    1.8832    magn:    0.0000    constr:    0.0000
     atom:   38    charge:    3.1199    magn:    0.0000    constr:    0.0000
     atom:   39    charge:    1.8823    magn:   -0.0001    constr:    0.0000
     atom:   40    charge:    1.8739    magn:   -0.0002    constr:    0.0000
     atom:   41    charge:    1.8855    magn:   -0.0000    constr:    0.0000
     atom:   42    charge:    3.1217    magn:    0.0001    constr:    0.0000
     atom:   43    charge:    1.8742    magn:   -0.0002    constr:    0.0000
     atom:   44    charge:    1.8836    magn:   -0.0002    constr:    0.0000
     atom:   45    charge:    1.8817    magn:   -0.0002    constr:    0.0000
     atom:   46    charge:    3.1193    magn:    0.0000    constr:    0.0000
     atom:   47    charge:    1.8808    magn:   -0.0001    constr:    0.0000
     atom:   48    charge:    1.8819    magn:   -0.0001    constr:    0.0000
     atom:   49    charge:    1.8977    magn:    0.0000    constr:    0.0000
     atom:   50    charge:    0.3938    magn:   -0.0000    constr:    0.0000

     total cpu time spent up to now is     1517.8 secs

     total energy              =   -3005.52936761 Ry
     Harris-Foulkes estimate   =   -3005.52938357 Ry
     estimated scf accuracy    <       0.00026589 Ry

     total magnetization       =     0.00 Bohr mag/cell
     absolute magnetization    =     0.01 Bohr mag/cell

     iteration #  5     ecut=    40.42 Ry     beta=0.10
     Davidson diagonalization with overlap
     ethr =  6.80E-08,  avg # of iterations =  2.0

     negative rho (up, down):  1.352E-02 1.352E-02
 
     Magnetic moment per site:
     atom:    1    charge:    3.1244    magn:   -0.0001    constr:    0.0000
     atom:    2    charge:    1.8809    magn:    0.0001    constr:    0.0000
     atom:    3    charge:    3.1200    magn:    0.0000    constr:    0.0000
     atom:    4    charge:    1.8855    magn:   -0.0000    constr:    0.0000
     atom:    5    charge:    3.1144    magn:    0.0000    constr:    0.0000
     atom:    6    charge:    1.8760    magn:   -0.0001    constr:    0.0000
     atom:    7    charge:    3.1164    magn:    0.0000    constr:    0.0000
     atom:    8    charge:    1.8816    magn:   -0.0000    constr:    0.0000
     atom:    9    charge:    3.1244    magn:   -0.0001    constr:    0.0000
     atom:   10    charge:    1.8810    magn:    0.0002    constr:    0.0000
     atom:   11    charge:    3.1198    magn:    0.0000    constr:    0.0000
     atom:   12    charge:    1.8855    magn:   -0.0000    constr:    0.0000
     atom:   13    charge:    3.1144    magn:    0.0000    constr:    0.0000
     atom:   14    charge:    1.8894    magn:   -0.0000    constr:    0.0000
     atom:   15    charge:    3.1166    magn:    0.0000    constr:    0.0000
     atom:   16    charge:    1.8816    magn:   -0.0000    constr:    0.0000
     atom:   17    charge:    1.8548    magn:    0.0008    constr:    0.0000
     atom:   18    charge:    3.1240    magn:    0.0000    constr:    0.0000
     atom:   19    charge:    1.8763    magn:    0.0000    constr:    0.0000
     atom:   20    charge:    1.8832    magn:    0.0000    constr:    0.0000
     atom:   21    charge:    1.8832    magn:    0.0000    constr:    0.0000
     atom:   22    charge:    3.1199    magn:    0.0000    constr:    0.0000
     atom:   23    charge:    1.8897    magn:   -0.0000    constr:    0.0000
     atom:   24    charge:    1.8735    magn:   -0.0001    constr:    0.0000
     atom:   25    charge:    1.8855    magn:   -0.0000    constr:    0.0000
     atom:   26    charge:    3.1143    magn:    0.0001    constr:    0.0000
     atom:   27    charge:    1.8742    magn:   -0.0002    constr:    0.0000
     atom:   28    charge:    1.8836    magn:   -0.0001    constr:    0.0000
     atom:   29    charge:    1.8817    magn:   -0.0001    constr:    0.0000
     atom:   30    charge:    3.1193    magn:    0.0000    constr:    0.0000
     atom:   31    charge:    1.8815    magn:   -0.0000    constr:    0.0000
     atom:   32    charge:    1.8819    magn:   -0.0000    constr:    0.0000
     atom:   33    charge:    1.8548    magn:    0.0008    constr:    0.0000
     atom:   34    charge:    3.1239    magn:    0.0000    constr:    0.0000
     atom:   35    charge:    1.8763    magn:    0.0000    constr:    0.0000
     atom:   36    charge:    1.8832    magn:    0.0000    constr:    0.0000
     atom:   37    charge:    1.8832    magn:    0.0000    constr:    0.0000
     atom:   38    charge:    3.1199    magn:    0.0000    constr:    0.0000
     atom:   39    charge:    1.8823    magn:   -0.0001    constr:    0.0000
     atom:   40    charge:    1.8739    magn:   -0.0001    constr:    0.0000
     atom:   41    charge:    1.8855    magn:   -0.0000    constr:    0.0000
     atom:   42    charge:    3.1217    magn:    0.0001    constr:    0.0000
     atom:   43    charge:    1.8742    magn:   -0.0002    constr:    0.0000
     atom:   44    charge:    1.8836    magn:   -0.0001    constr:    0.0000
     atom:   45    charge:    1.8817    magn:   -0.0001    constr:    0.0000
     atom:   46    charge:    3.1193    magn:    0.0000    constr:    0.0000
     atom:   47    charge:    1.8811    magn:   -0.0000    constr:    0.0000
     atom:   48    charge:    1.8819    magn:   -0.0000    constr:    0.0000
     atom:   49    charge:    1.8974    magn:    0.0000    constr:    0.0000
     atom:   50    charge:    0.3943    magn:   -0.0000    constr:    0.0000

     total cpu time spent up to now is     1690.2 secs

     total energy              =   -3005.52936638 Ry
     Harris-Foulkes estimate   =   -3005.52937199 Ry
     estimated scf accuracy    <       0.00013779 Ry

     total magnetization       =     0.00 Bohr mag/cell
     absolute magnetization    =     0.01 Bohr mag/cell

     iteration #  6     ecut=    40.42 Ry     beta=0.10
     Davidson diagonalization with overlap
     ethr =  3.52E-08,  avg # of iterations =  3.0

     negative rho (up, down):  1.352E-02 1.352E-02
 
     Magnetic moment per site:
     atom:    1    charge:    3.1244    magn:   -0.0001    constr:    0.0000
     atom:    2    charge:    1.8809    magn:    0.0001    constr:    0.0000
     atom:    3    charge:    3.1200    magn:   -0.0000    constr:    0.0000
     atom:    4    charge:    1.8855    magn:   -0.0000    constr:    0.0000
     atom:    5    charge:    3.1144    magn:    0.0000    constr:    0.0000
     atom:    6    charge:    1.8760    magn:   -0.0001    constr:    0.0000
     atom:    7    charge:    3.1162    magn:    0.0000    constr:    0.0000
     atom:    8    charge:    1.8816    magn:   -0.0000    constr:    0.0000
     atom:    9    charge:    3.1244    magn:   -0.0001    constr:    0.0000
     atom:   10    charge:    1.8810    magn:    0.0001    constr:    0.0000
     atom:   11    charge:    3.1198    magn:    0.0000    constr:    0.0000
     atom:   12    charge:    1.8855    magn:   -0.0000    constr:    0.0000
     atom:   13    charge:    3.1144    magn:    0.0000    constr:    0.0000
     atom:   14    charge:    1.8893    magn:   -0.0000    constr:    0.0000
     atom:   15    charge:    3.1166    magn:    0.0000    constr:    0.0000
     atom:   16    charge:    1.8816    magn:   -0.0000    constr:    0.0000
     atom:   17    charge:    1.8548    magn:    0.0007    constr:    0.0000
     atom:   18    charge:    3.1239    magn:   -0.0000    constr:    0.0000
     atom:   19    charge:    1.8763    magn:    0.0000    constr:    0.0000
     atom:   20    charge:    1.8832    magn:    0.0000    constr:    0.0000
     atom:   21    charge:    1.8832    magn:    0.0000    constr:    0.0000
     atom:   22    charge:    3.1199    magn:    0.0000    constr:    0.0000
     atom:   23    charge:    1.8897    magn:   -0.0000    constr:    0.0000
     atom:   24    charge:    1.8735    magn:   -0.0001    constr:    0.0000
     atom:   25    charge:    1.8855    magn:   -0.0000    constr:    0.0000
     atom:   26    charge:    3.1143    magn:    0.0001    constr:    0.0000
     atom:   27    charge:    1.8742    magn:   -0.0001    constr:    0.0000
     atom:   28    charge:    1.8836    magn:   -0.0001    constr:    0.0000
     atom:   29    charge:    1.8817    magn:   -0.0001    constr:    0.0000
     atom:   30    charge:    3.1193    magn:    0.0000    constr:    0.0000
     atom:   31    charge:    1.8816    magn:   -0.0000    constr:    0.0000
     atom:   32    charge:    1.8819    magn:   -0.0000    constr:    0.0000
     atom:   33    charge:    1.8548    magn:    0.0007    constr:    0.0000
     atom:   34    charge:    3.1239    magn:   -0.0000    constr:    0.0000
     atom:   35    charge:    1.8763    magn:    0.0000    constr:    0.0000
     atom:   36    charge:    1.8832    magn:    0.0000    constr:    0.0000
     atom:   37    charge:    1.8832    magn:    0.0000    constr:    0.0000
     atom:   38    charge:    3.1199    magn:    0.0000    constr:    0.0000
     atom:   39    charge:    1.8823    magn:   -0.0001    constr:    0.0000
     atom:   40    charge:    1.8739    magn:   -0.0001    constr:    0.0000
     atom:   41    charge:    1.8855    magn:   -0.0000    constr:    0.0000
     atom:   42    charge:    3.1217    magn:    0.0001    constr:    0.0000
     atom:   43    charge:    1.8742    magn:   -0.0001    constr:    0.0000
     atom:   44    charge:    1.8836    magn:   -0.0001    constr:    0.0000
     atom:   45    charge:    1.8817    magn:   -0.0001    constr:    0.0000
     atom:   46    charge:    3.1193    magn:    0.0000    constr:    0.0000
     atom:   47    charge:    1.8811    magn:   -0.0000    constr:    0.0000
     atom:   48    charge:    1.8819    magn:   -0.0000    constr:    0.0000
     atom:   49    charge:    1.8971    magn:    0.0000    constr:    0.0000
     atom:   50    charge:    0.3945    magn:   -0.0000    constr:    0.0000

     total cpu time spent up to now is     1878.5 secs

     total energy              =   -3005.52937629 Ry
     Harris-Foulkes estimate   =   -3005.52937442 Ry
     estimated scf accuracy    <       0.00002912 Ry

     total magnetization       =     0.00 Bohr mag/cell
     absolute magnetization    =     0.01 Bohr mag/cell

     iteration #  7     ecut=    40.42 Ry     beta=0.10
     Davidson diagonalization with overlap
     ethr =  7.45E-09,  avg # of iterations =  2.0

     negative rho (up, down):  1.352E-02 1.352E-02
 
     Magnetic moment per site:
     atom:    1    charge:    3.1244    magn:   -0.0001    constr:    0.0000
     atom:    2    charge:    1.8809    magn:    0.0001    constr:    0.0000
     atom:    3    charge:    3.1200    magn:   -0.0000    constr:    0.0000
     atom:    4    charge:    1.8855    magn:   -0.0000    constr:    0.0000
     atom:    5    charge:    3.1144    magn:    0.0000    constr:    0.0000
     atom:    6    charge:    1.8761    magn:   -0.0001    constr:    0.0000
     atom:    7    charge:    3.1162    magn:    0.0000    constr:    0.0000
     atom:    8    charge:    1.8816    magn:   -0.0000    constr:    0.0000
     atom:    9    charge:    3.1244    magn:   -0.0001    constr:    0.0000
     atom:   10    charge:    1.8810    magn:    0.0001    constr:    0.0000
     atom:   11    charge:    3.1198    magn:    0.0000    constr:    0.0000
     atom:   12    charge:    1.8855    magn:   -0.0000    constr:    0.0000
     atom:   13    charge:    3.1144    magn:    0.0000    constr:    0.0000
     atom:   14    charge:    1.8893    magn:   -0.0000    constr:    0.0000
     atom:   15    charge:    3.1165    magn:    0.0000    constr:    0.0000
     atom:   16    charge:    1.8816    magn:   -0.0000    constr:    0.0000
     atom:   17    charge:    1.8547    magn:    0.0006    constr:    0.0000
     atom:   18    charge:    3.1239    magn:   -0.0000    constr:    0.0000
     atom:   19    charge:    1.8763    magn:    0.0000    constr:    0.0000
     atom:   20    charge:    1.8832    magn:    0.0000    constr:    0.0000
     atom:   21    charge:    1.8832    magn:    0.0000    constr:    0.0000
     atom:   22    charge:    3.1199    magn:    0.0000    constr:    0.0000
     atom:   23    charge:    1.8897    magn:   -0.0000    constr:    0.0000
     atom:   24    charge:    1.8735    magn:   -0.0001    constr:    0.0000
     atom:   25    charge:    1.8855    magn:   -0.0000    constr:    0.0000
     atom:   26    charge:    3.1143    magn:    0.0000    constr:    0.0000
     atom:   27    charge:    1.8742    magn:   -0.0001    constr:    0.0000
     atom:   28    charge:    1.8836    magn:   -0.0001    constr:    0.0000
     atom:   29    charge:    1.8817    magn:   -0.0001    constr:    0.0000
     atom:   30    charge:    3.1193    magn:    0.0000    constr:    0.0000
     atom:   31    charge:    1.8816    magn:   -0.0000    constr:    0.0000
     atom:   32    charge:    1.8819    magn:   -0.0000    constr:    0.0000
     atom:   33    charge:    1.8547    magn:    0.0007    constr:    0.0000
     atom:   34    charge:    3.1239    magn:   -0.0000    constr:    0.0000
     atom:   35    charge:    1.8763    magn:    0.0000    constr:    0.0000
     atom:   36    charge:    1.8832    magn:    0.0000    constr:    0.0000
     atom:   37    charge:    1.8832    magn:    0.0000    constr:    0.0000
     atom:   38    charge:    3.1199    magn:    0.0000    constr:    0.0000
     atom:   39    charge:    1.8823    magn:   -0.0001    constr:    0.0000
     atom:   40    charge:    1.8739    magn:   -0.0001    constr:    0.0000
     atom:   41    charge:    1.8855    magn:   -0.0000    constr:    0.0000
     atom:   42    charge:    3.1217    magn:    0.0000    constr:    0.0000
     atom:   43    charge:    1.8742    magn:   -0.0001    constr:    0.0000
     atom:   44    charge:    1.8836    magn:   -0.0001    constr:    0.0000
     atom:   45    charge:    1.8817    magn:   -0.0001    constr:    0.0000
     atom:   46    charge:    3.1193    magn:    0.0000    constr:    0.0000
     atom:   47    charge:    1.8810    magn:   -0.0000    constr:    0.0000
     atom:   48    charge:    1.8819    magn:   -0.0000    constr:    0.0000
     atom:   49    charge:    1.8968    magn:    0.0000    constr:    0.0000
     atom:   50    charge:    0.3946    magn:   -0.0000    constr:    0.0000

     total cpu time spent up to now is     2051.1 secs

     total energy              =   -3005.52937701 Ry
     Harris-Foulkes estimate   =   -3005.52937820 Ry
     estimated scf accuracy    <       0.00001546 Ry

     total magnetization       =     0.00 Bohr mag/cell
     absolute magnetization    =     0.01 Bohr mag/cell

     iteration #  8     ecut=    40.42 Ry     beta=0.10
     Davidson diagonalization with overlap
     ethr =  3.95E-09,  avg # of iterations =  2.0

     negative rho (up, down):  1.352E-02 1.352E-02
 
     Magnetic moment per site:
     atom:    1    charge:    3.1244    magn:   -0.0001    constr:    0.0000
     atom:    2    charge:    1.8809    magn:    0.0001    constr:    0.0000
     atom:    3    charge:    3.1200    magn:   -0.0000    constr:    0.0000
     atom:    4    charge:    1.8855    magn:   -0.0000    constr:    0.0000
     atom:    5    charge:    3.1144    magn:    0.0000    constr:    0.0000
     atom:    6    charge:    1.8761    magn:   -0.0001    constr:    0.0000
     atom:    7    charge:    3.1162    magn:    0.0000    constr:    0.0000
     atom:    8    charge:    1.8815    magn:   -0.0000    constr:    0.0000
     atom:    9    charge:    3.1244    magn:   -0.0001    constr:    0.0000
     atom:   10    charge:    1.8810    magn:    0.0001    constr:    0.0000
     atom:   11    charge:    3.1198    magn:    0.0000    constr:    0.0000
     atom:   12    charge:    1.8855    magn:   -0.0000    constr:    0.0000
     atom:   13    charge:    3.1144    magn:    0.0000    constr:    0.0000
     atom:   14    charge:    1.8894    magn:   -0.0000    constr:    0.0000
     atom:   15    charge:    3.1165    magn:    0.0000    constr:    0.0000
     atom:   16    charge:    1.8815    magn:   -0.0000    constr:    0.0000
     atom:   17    charge:    1.8548    magn:    0.0006    constr:    0.0000
     atom:   18    charge:    3.1239    magn:   -0.0000    constr:    0.0000
     atom:   19    charge:    1.8763    magn:    0.0000    constr:    0.0000
     atom:   20    charge:    1.8832    magn:    0.0000    constr:    0.0000
     atom:   21    charge:    1.8832    magn:    0.0000    constr:    0.0000
     atom:   22    charge:    3.1199    magn:    0.0000    constr:    0.0000
     atom:   23    charge:    1.8897    magn:   -0.0000    constr:    0.0000
     atom:   24    charge:    1.8735    magn:   -0.0001    constr:    0.0000
     atom:   25    charge:    1.8855    magn:   -0.0000    constr:    0.0000
     atom:   26    charge:    3.1143    magn:    0.0000    constr:    0.0000
     atom:   27    charge:    1.8742    magn:   -0.0001    constr:    0.0000
     atom:   28    charge:    1.8836    magn:   -0.0001    constr:    0.0000
     atom:   29    charge:    1.8817    magn:   -0.0001    constr:    0.0000
     atom:   30    charge:    3.1193    magn:    0.0000    constr:    0.0000
     atom:   31    charge:    1.8815    magn:   -0.0000    constr:    0.0000
     atom:   32    charge:    1.8819    magn:   -0.0000    constr:    0.0000
     atom:   33    charge:    1.8547    magn:    0.0006    constr:    0.0000
     atom:   34    charge:    3.1239    magn:   -0.0000    constr:    0.0000
     atom:   35    charge:    1.8763    magn:    0.0000    constr:    0.0000
     atom:   36    charge:    1.8832    magn:    0.0000    constr:    0.0000
     atom:   37    charge:    1.8832    magn:    0.0000    constr:    0.0000
     atom:   38    charge:    3.1199    magn:    0.0000    constr:    0.0000
     atom:   39    charge:    1.8823    magn:   -0.0001    constr:    0.0000
     atom:   40    charge:    1.8739    magn:   -0.0001    constr:    0.0000
     atom:   41    charge:    1.8855    magn:   -0.0000    constr:    0.0000
     atom:   42    charge:    3.1217    magn:    0.0000    constr:    0.0000
     atom:   43    charge:    1.8742    magn:   -0.0001    constr:    0.0000
     atom:   44    charge:    1.8836    magn:   -0.0001    constr:    0.0000
     atom:   45    charge:    1.8817    magn:   -0.0001    constr:    0.0000
     atom:   46    charge:    3.1193    magn:    0.0000    constr:    0.0000
     atom:   47    charge:    1.8810    magn:   -0.0000    constr:    0.0000
     atom:   48    charge:    1.8819    magn:   -0.0000    constr:    0.0000
     atom:   49    charge:    1.8968    magn:    0.0000    constr:    0.0000
     atom:   50    charge:    0.3947    magn:   -0.0000    constr:    0.0000

     total cpu time spent up to now is     2224.2 secs

     total energy              =   -3005.52937773 Ry
     Harris-Foulkes estimate   =   -3005.52937856 Ry
     estimated scf accuracy    <       0.00001229 Ry

     total magnetization       =     0.00 Bohr mag/cell
     absolute magnetization    =     0.01 Bohr mag/cell

     iteration #  9     ecut=    40.42 Ry     beta=0.10
     Davidson diagonalization with overlap
     ethr =  3.14E-09,  avg # of iterations =  2.0

     negative rho (up, down):  1.352E-02 1.352E-02
 
     Magnetic moment per site:
     atom:    1    charge:    3.1244    magn:   -0.0001    constr:    0.0000
     atom:    2    charge:    1.8809    magn:    0.0001    constr:    0.0000
     atom:    3    charge:    3.1200    magn:   -0.0000    constr:    0.0000
     atom:    4    charge:    1.8855    magn:   -0.0000    constr:    0.0000
     atom:    5    charge:    3.1144    magn:    0.0000    constr:    0.0000
     atom:    6    charge:    1.8761    magn:   -0.0001    constr:    0.0000
     atom:    7    charge:    3.1163    magn:    0.0000    constr:    0.0000
     atom:    8    charge:    1.8815    magn:   -0.0000    constr:    0.0000
     atom:    9    charge:    3.1244    magn:   -0.0001    constr:    0.0000
     atom:   10    charge:    1.8810    magn:    0.0001    constr:    0.0000
     atom:   11    charge:    3.1198    magn:    0.0000    constr:    0.0000
     atom:   12    charge:    1.8855    magn:   -0.0000    constr:    0.0000
     atom:   13    charge:    3.1144    magn:    0.0000    constr:    0.0000
     atom:   14    charge:    1.8894    magn:   -0.0000    constr:    0.0000
     atom:   15    charge:    3.1165    magn:    0.0000    constr:    0.0000
     atom:   16    charge:    1.8815    magn:   -0.0000    constr:    0.0000
     atom:   17    charge:    1.8547    magn:    0.0005    constr:    0.0000
     atom:   18    charge:    3.1239    magn:   -0.0000    constr:    0.0000
     atom:   19    charge:    1.8763    magn:    0.0000    constr:    0.0000
     atom:   20    charge:    1.8832    magn:    0.0000    constr:    0.0000
     atom:   21    charge:    1.8832    magn:    0.0000    constr:    0.0000
     atom:   22    charge:    3.1199    magn:    0.0000    constr:    0.0000
     atom:   23    charge:    1.8897    magn:   -0.0000    constr:    0.0000
     atom:   24    charge:    1.8735    magn:   -0.0001    constr:    0.0000
     atom:   25    charge:    1.8855    magn:   -0.0000    constr:    0.0000
     atom:   26    charge:    3.1143    magn:    0.0000    constr:    0.0000
     atom:   27    charge:    1.8742    magn:   -0.0001    constr:    0.0000
     atom:   28    charge:    1.8836    magn:   -0.0001    constr:    0.0000
     atom:   29    charge:    1.8817    magn:   -0.0001    constr:    0.0000
     atom:   30    charge:    3.1193    magn:    0.0000    constr:    0.0000
     atom:   31    charge:    1.8815    magn:   -0.0000    constr:    0.0000
     atom:   32    charge:    1.8819    magn:   -0.0000    constr:    0.0000
     atom:   33    charge:    1.8547    magn:    0.0006    constr:    0.0000
     atom:   34    charge:    3.1239    magn:   -0.0000    constr:    0.0000
     atom:   35    charge:    1.8763    magn:    0.0000    constr:    0.0000
     atom:   36    charge:    1.8832    magn:    0.0000    constr:    0.0000
     atom:   37    charge:    1.8832    magn:    0.0000    constr:    0.0000
     atom:   38    charge:    3.1199    magn:    0.0000    constr:    0.0000
     atom:   39    charge:    1.8823    magn:   -0.0000    constr:    0.0000
     atom:   40    charge:    1.8739    magn:   -0.0001    constr:    0.0000
     atom:   41    charge:    1.8855    magn:   -0.0000    constr:    0.0000
     atom:   42    charge:    3.1217    magn:    0.0000    constr:    0.0000
     atom:   43    charge:    1.8742    magn:   -0.0001    constr:    0.0000
     atom:   44    charge:    1.8836    magn:   -0.0001    constr:    0.0000
     atom:   45    charge:    1.8817    magn:   -0.0001    constr:    0.0000
     atom:   46    charge:    3.1193    magn:    0.0000    constr:    0.0000
     atom:   47    charge:    1.8809    magn:   -0.0000    constr:    0.0000
     atom:   48    charge:    1.8819    magn:   -0.0000    constr:    0.0000
     atom:   49    charge:    1.8967    magn:    0.0000    constr:    0.0000
     atom:   50    charge:    0.3948    magn:   -0.0000    constr:    0.0000

     total cpu time spent up to now is     2394.9 secs

     total energy              =   -3005.52937827 Ry
     Harris-Foulkes estimate   =   -3005.52937850 Ry
     estimated scf accuracy    <       0.00000237 Ry

     total magnetization       =     0.00 Bohr mag/cell
     absolute magnetization    =     0.01 Bohr mag/cell

     iteration # 10     ecut=    40.42 Ry     beta=0.10
     Davidson diagonalization with overlap
     ethr =  6.07E-10,  avg # of iterations =  2.0

     negative rho (up, down):  1.352E-02 1.352E-02
 
     Magnetic moment per site:
     atom:    1    charge:    3.1244    magn:   -0.0001    constr:    0.0000
     atom:    2    charge:    1.8809    magn:    0.0001    constr:    0.0000
     atom:    3    charge:    3.1200    magn:   -0.0000    constr:    0.0000
     atom:    4    charge:    1.8855    magn:   -0.0000    constr:    0.0000
     atom:    5    charge:    3.1144    magn:    0.0000    constr:    0.0000
     atom:    6    charge:    1.8761    magn:   -0.0001    constr:    0.0000
     atom:    7    charge:    3.1163    magn:    0.0000    constr:    0.0000
     atom:    8    charge:    1.8815    magn:   -0.0000    constr:    0.0000
     atom:    9    charge:    3.1244    magn:   -0.0001    constr:    0.0000
     atom:   10    charge:    1.8810    magn:    0.0001    constr:    0.0000
     atom:   11    charge:    3.1198    magn:    0.0000    constr:    0.0000
     atom:   12    charge:    1.8855    magn:   -0.0000    constr:    0.0000
     atom:   13    charge:    3.1144    magn:    0.0000    constr:    0.0000
     atom:   14    charge:    1.8894    magn:   -0.0000    constr:    0.0000
     atom:   15    charge:    3.1165    magn:    0.0000    constr:    0.0000
     atom:   16    charge:    1.8815    magn:   -0.0000    constr:    0.0000
     atom:   17    charge:    1.8547    magn:    0.0005    constr:    0.0000
     atom:   18    charge:    3.1239    magn:   -0.0000    constr:    0.0000
     atom:   19    charge:    1.8763    magn:    0.0000    constr:    0.0000
     atom:   20    charge:    1.8832    magn:    0.0000    constr:    0.0000
     atom:   21    charge:    1.8832    magn:    0.0000    constr:    0.0000
     atom:   22    charge:    3.1199    magn:    0.0000    constr:    0.0000
     atom:   23    charge:    1.8897    magn:   -0.0000    constr:    0.0000
     atom:   24    charge:    1.8735    magn:   -0.0000    constr:    0.0000
     atom:   25    charge:    1.8855    magn:   -0.0000    constr:    0.0000
     atom:   26    charge:    3.1143    magn:    0.0000    constr:    0.0000
     atom:   27    charge:    1.8742    magn:   -0.0001    constr:    0.0000
     atom:   28    charge:    1.8836    magn:   -0.0001    constr:    0.0000
     atom:   29    charge:    1.8817    magn:   -0.0001    constr:    0.0000
     atom:   30    charge:    3.1193    magn:    0.0000    constr:    0.0000
     atom:   31    charge:    1.8815    magn:   -0.0000    constr:    0.0000
     atom:   32    charge:    1.8819    magn:   -0.0000    constr:    0.0000
     atom:   33    charge:    1.8547    magn:    0.0005    constr:    0.0000
     atom:   34    charge:    3.1239    magn:   -0.0000    constr:    0.0000
     atom:   35    charge:    1.8763    magn:    0.0000    constr:    0.0000
     atom:   36    charge:    1.8832    magn:    0.0000    constr:    0.0000
     atom:   37    charge:    1.8832    magn:    0.0000    constr:    0.0000
     atom:   38    charge:    3.1199    magn:    0.0000    constr:    0.0000
     atom:   39    charge:    1.8823    magn:   -0.0000    constr:    0.0000
     atom:   40    charge:    1.8739    magn:   -0.0001    constr:    0.0000
     atom:   41    charge:    1.8855    magn:   -0.0000    constr:    0.0000
     atom:   42    charge:    3.1217    magn:    0.0000    constr:    0.0000
     atom:   43    charge:    1.8742    magn:   -0.0001    constr:    0.0000
     atom:   44    charge:    1.8836    magn:   -0.0001    constr:    0.0000
     atom:   45    charge:    1.8817    magn:   -0.0001    constr:    0.0000
     atom:   46    charge:    3.1193    magn:    0.0000    constr:    0.0000
     atom:   47    charge:    1.8809    magn:   -0.0000    constr:    0.0000
     atom:   48    charge:    1.8819    magn:   -0.0000    constr:    0.0000
     atom:   49    charge:    1.8967    magn:   -0.0000    constr:    0.0000
     atom:   50    charge:    0.3948    magn:   -0.0000    constr:    0.0000

     total cpu time spent up to now is     2570.9 secs

     total energy              =   -3005.52937848 Ry
     Harris-Foulkes estimate   =   -3005.52937852 Ry
     estimated scf accuracy    <       0.00000096 Ry

     total magnetization       =     0.00 Bohr mag/cell
     absolute magnetization    =     0.01 Bohr mag/cell

     iteration # 11     ecut=    40.42 Ry     beta=0.10
     Davidson diagonalization with overlap
     ethr =  2.45E-10,  avg # of iterations =  1.0

     negative rho (up, down):  1.352E-02 1.352E-02
 
     Magnetic moment per site:
     atom:    1    charge:    3.1244    magn:   -0.0001    constr:    0.0000
     atom:    2    charge:    1.8809    magn:    0.0001    constr:    0.0000
     atom:    3    charge:    3.1200    magn:   -0.0000    constr:    0.0000
     atom:    4    charge:    1.8855    magn:    0.0000    constr:    0.0000
     atom:    5    charge:    3.1144    magn:    0.0000    constr:    0.0000
     atom:    6    charge:    1.8761    magn:   -0.0000    constr:    0.0000
     atom:    7    charge:    3.1163    magn:    0.0000    constr:    0.0000
     atom:    8    charge:    1.8816    magn:   -0.0000    constr:    0.0000
     atom:    9    charge:    3.1244    magn:   -0.0001    constr:    0.0000
     atom:   10    charge:    1.8810    magn:    0.0001    constr:    0.0000
     atom:   11    charge:    3.1198    magn:   -0.0000    constr:    0.0000
     atom:   12    charge:    1.8855    magn:    0.0000    constr:    0.0000
     atom:   13    charge:    3.1144    magn:    0.0000    constr:    0.0000
     atom:   14    charge:    1.8893    magn:   -0.0000    constr:    0.0000
     atom:   15    charge:    3.1165    magn:    0.0000    constr:    0.0000
     atom:   16    charge:    1.8816    magn:   -0.0000    constr:    0.0000
     atom:   17    charge:    1.8547    magn:    0.0004    constr:    0.0000
     atom:   18    charge:    3.1239    magn:   -0.0000    constr:    0.0000
     atom:   19    charge:    1.8763    magn:    0.0000    constr:    0.0000
     atom:   20    charge:    1.8832    magn:    0.0000    constr:    0.0000
     atom:   21    charge:    1.8832    magn:    0.0000    constr:    0.0000
     atom:   22    charge:    3.1199    magn:    0.0000    constr:    0.0000
     atom:   23    charge:    1.8897    magn:   -0.0000    constr:    0.0000
     atom:   24    charge:    1.8735    magn:   -0.0000    constr:    0.0000
     atom:   25    charge:    1.8855    magn:    0.0000    constr:    0.0000
     atom:   26    charge:    3.1143    magn:    0.0000    constr:    0.0000
     atom:   27    charge:    1.8742    magn:   -0.0001    constr:    0.0000
     atom:   28    charge:    1.8836    magn:   -0.0000    constr:    0.0000
     atom:   29    charge:    1.8817    magn:   -0.0000    constr:    0.0000
     atom:   30    charge:    3.1193    magn:    0.0000    constr:    0.0000
     atom:   31    charge:    1.8815    magn:   -0.0000    constr:    0.0000
     atom:   32    charge:    1.8819    magn:   -0.0000    constr:    0.0000
     atom:   33    charge:    1.8547    magn:    0.0004    constr:    0.0000
     atom:   34    charge:    3.1239    magn:   -0.0000    constr:    0.0000
     atom:   35    charge:    1.8763    magn:    0.0000    constr:    0.0000
     atom:   36    charge:    1.8832    magn:    0.0000    constr:    0.0000
     atom:   37    charge:    1.8832    magn:    0.0000    constr:    0.0000
     atom:   38    charge:    3.1199    magn:    0.0000    constr:    0.0000
     atom:   39    charge:    1.8823    magn:   -0.0000    constr:    0.0000
     atom:   40    charge:    1.8739    magn:   -0.0000    constr:    0.0000
     atom:   41    charge:    1.8855    magn:    0.0000    constr:    0.0000
     atom:   42    charge:    3.1217    magn:    0.0000    constr:    0.0000
     atom:   43    charge:    1.8742    magn:   -0.0001    constr:    0.0000
     atom:   44    charge:    1.8836    magn:   -0.0000    constr:    0.0000
     atom:   45    charge:    1.8817    magn:   -0.0000    constr:    0.0000
     atom:   46    charge:    3.1193    magn:    0.0000    constr:    0.0000
     atom:   47    charge:    1.8810    magn:   -0.0000    constr:    0.0000
     atom:   48    charge:    1.8819    magn:   -0.0000    constr:    0.0000
     atom:   49    charge:    1.8967    magn:   -0.0000    constr:    0.0000
     atom:   50    charge:    0.3947    magn:   -0.0000    constr:    0.0000

     total cpu time spent up to now is     2729.8 secs

     End of self-consistent calculation

 ------ SPIN UP ------------


          k = 0.0000 0.0000 0.0000 ( 34665 PWs)   bands (ev):

   -58.5213 -58.4862 -57.6104 -57.5809 -57.5747 -57.4982 -57.4846 -57.4450
   -57.3463 -57.3165 -57.2792 -57.2436 -57.1340 -57.0988 -57.0292 -56.9913
   -34.9661 -34.7902 -34.7614 -34.7276 -34.6326 -34.5757 -34.1096 -34.0654
   -34.0270 -33.8843 -33.8634 -33.8049 -33.7836 -33.7778 -33.7684 -33.7596
   -33.7541 -33.7359 -33.7164 -33.7103 -33.7074 -33.6870 -33.6761 -33.6720
   -33.6656 -33.6536 -33.6499 -33.6087 -33.5659 -33.5627 -33.5527 -33.5170
   -33.5118 -33.5047 -33.4749 -33.4610 -33.4493 -33.4483 -33.4274 -33.4002
   -33.3524 -33.3065 -33.2627 -33.2624 -33.2427 -33.2181 -33.1610 -33.1102
   -18.6849 -18.3406 -18.2570 -18.0262 -17.9267 -17.7591 -17.7447 -17.6447
   -17.6070 -17.5836 -17.4722 -17.2761 -17.2344 -17.2276 -17.1634 -17.0655
   -17.0442 -17.0230 -16.9549 -16.9135 -16.8651 -16.8297 -16.8231 -16.7995
   -16.7059 -16.6436 -16.6293 -16.5265 -16.5119 -16.3622 -16.2982 -15.8140
   -15.7536  -6.2629  -6.0137  -5.7086  -5.5121  -5.4306  -5.3285  -5.2026
    -5.1801  -5.0932  -4.9622  -4.8707  -4.8149  -4.8023  -4.7303  -4.6559
    -4.6278  -4.5591  -4.5456  -4.4326  -4.4298  -4.3733  -4.3579  -4.2636
    -4.2399  -4.1853  -4.1228  -4.1102  -4.1034  -4.0915  -4.0093  -3.9935
    -3.9253  -3.8541  -3.8478  -3.7579  -3.7491  -3.7429  -3.6352  -3.6298
    -3.5988  -3.4860  -3.4635  -3.4244  -3.3125  -3.1434  -3.1055  -3.0526
    -2.9876  -2.9732  -2.9107  -2.8970  -2.8926  -2.7838  -2.7674  -2.7507
    -2.6602  -2.6068  -2.5230  -2.4470  -2.4438  -2.4106  -2.3515  -2.3004
    -2.2476  -2.2024  -2.1856  -2.1376  -2.0963  -2.0895  -1.9429  -1.8593
    -1.8435  -1.8390  -1.8293  -1.7265  -1.6380  -1.5819  -1.5704  -1.5350
    -1.5313  -1.5165  -1.4665  -1.3815  -1.3608  -1.3407  -1.3238  -1.3009
    -1.2915  -1.1733  -1.0830  -1.0035  -0.9677  -0.8969  -0.8858  -0.8333
    -0.7664  -0.7314  -0.6812  -0.3875   0.8103   0.9076   1.2007   1.4831
     1.5908   1.6769   1.7064   1.7989   1.8310   1.9080   1.9411   2.0083
     2.0140   2.1597   2.1740   2.2455   2.2713   2.3000   2.3806   2.4045
     2.4526   2.4596   2.4961   2.5092   2.5914   2.6147   2.6595   2.7056
     2.7322   2.7391   2.7865   2.8170   2.8443   2.8633   2.8708   2.9826
     2.9973   3.0220   3.1973   3.1990   3.2266   3.2375   3.3360   3.3949
     3.4305   3.4878   3.5824   3.7327   3.8668   3.8810   4.0675   4.2597
     4.3906   4.4770   4.4916   4.6361   4.7881   4.9121   4.9529   5.0467
     5.1752   5.1888   5.2190   5.2359   5.3247   5.3286   5.3690   5.4458
     5.4667   5.5178   5.6788   5.7000   5.7926   5.8667   5.8920   5.8974
     5.9931   6.0268   6.2133   6.2772   6.3309   6.4151   6.5713   6.5991
     7.1093   7.8024   7.9804   8.0159   8.2129   8.2840   8.5664   8.7191
     8.8073   9.0659   9.2016   9.2348   9.3677   9.4959   9.6368

          k = 0.0000 0.0280 0.0000 ( 34717 PWs)   bands (ev):

   -58.5190 -58.4886 -57.6080 -57.5800 -57.5770 -57.4992 -57.4825 -57.4472
   -57.3448 -57.3179 -57.2770 -57.2458 -57.1317 -57.1011 -57.0267 -56.9939
   -34.9407 -34.7882 -34.7633 -34.7213 -34.6391 -34.6028 -34.0841 -34.0402
   -34.0038 -33.8783 -33.8572 -33.8012 -33.7863 -33.7776 -33.7569 -33.7561
   -33.7537 -33.7438 -33.7198 -33.7107 -33.7037 -33.6991 -33.6928 -33.6811
   -33.6639 -33.6534 -33.6499 -33.6053 -33.5857 -33.5365 -33.5279 -33.5216
   -33.5079 -33.5022 -33.4732 -33.4619 -33.4529 -33.4511 -33.4465 -33.4265
   -33.3464 -33.3029 -33.2688 -33.2610 -33.2441 -33.2229 -33.1884 -33.1389
   -18.6265 -18.3371 -18.1989 -17.9772 -17.8965 -17.8215 -17.7154 -17.5953
   -17.5938 -17.5522 -17.5029 -17.3281 -17.2055 -17.2052 -17.1543 -17.0964
   -17.0030 -16.9978 -16.9845 -16.9451 -16.8850 -16.8421 -16.8286 -16.7979
   -16.7193 -16.6688 -16.6331 -16.5536 -16.5456 -16.3817 -16.3382 -15.8281
   -15.7791  -6.1775  -6.0129  -5.6242  -5.4322  -5.3591  -5.2584  -5.1520
    -5.1236  -5.0235  -4.9453  -4.8850  -4.8733  -4.7461  -4.7394  -4.6427
    -4.6044  -4.5782  -4.5298  -4.4743  -4.4127  -4.4028  -4.3922  -4.3268
    -4.2825  -4.2268  -4.2046  -4.1901  -4.1807  -4.1363  -4.0574  -4.0156
    -3.9701  -3.9329  -3.9157  -3.7988  -3.6590  -3.6361  -3.5585  -3.5220
    -3.5145  -3.4818  -3.3593  -3.3324  -3.1629  -3.1285  -3.0976  -3.0249
    -2.9585  -2.9545  -2.9345  -2.9170  -2.8753  -2.7654  -2.7324  -2.6862
    -2.6714  -2.6305  -2.4833  -2.4712  -2.4238  -2.4063  -2.3701  -2.3409
    -2.2465  -2.2041  -2.1478  -2.1436  -2.1248  -2.0484  -1.9794  -1.9730
    -1.9277  -1.8426  -1.7851  -1.7786  -1.7252  -1.6885  -1.6494  -1.5982
    -1.5826  -1.5772  -1.5158  -1.4857  -1.4482  -1.3928  -1.3815  -1.2685
    -1.2059  -1.1557  -1.1301  -1.0929  -1.0491  -1.0276  -0.9391  -0.8167
    -0.7865  -0.7619  -0.7456  -0.4290   0.9430   0.9475   1.2021   1.6127
     1.6712   1.6783   1.7106   1.7878   1.7944   1.8712   2.0058   2.0768
     2.0858   2.1862   2.2554   2.2766   2.3035   2.3114   2.3276   2.3472
     2.4387   2.4791   2.4974   2.6030   2.6054   2.6426   2.6632   2.7228
     2.7660   2.7743   2.7783   2.7910   2.8447   2.8644   2.9242   2.9512
     2.9746   3.0372   3.1805   3.2233   3.2519   3.2888   3.3310   3.3418
     3.4115   3.4344   3.5432   3.6819   3.8217   3.9499   4.0256   4.3196
     4.4928   4.4930   4.5021   4.7096   4.8034   4.9530   5.0021   5.0674
     5.0883   5.1847   5.2193   5.2812   5.3088   5.3218   5.4279   5.4669
     5.4789   5.4845   5.5971   5.6601   5.7214   5.7912   5.8106   5.8978
     5.9120   6.0297   6.1829   6.2193   6.2372   6.3735   6.5496   6.6166
     7.2288   7.2624   7.8384   8.1375   8.1998   8.3230   8.5964   8.7381
     8.8454   8.9936   9.1792   9.2557   9.3427   9.3614   9.5124

          k = 0.0000 0.0560 0.0000 ( 34721 PWs)   bands (ev):

   -58.5126 -58.4950 -57.6016 -57.5838 -57.5778 -57.5011 -57.4773 -57.4524
   -57.3412 -57.3216 -57.2710 -57.2518 -57.1252 -57.1076 -57.0198 -57.0008
   -34.8709 -34.7830 -34.7685 -34.7042 -34.6759 -34.6567 -34.0139 -33.9716
   -33.9440 -33.8622 -33.8404 -33.8174 -33.8053 -33.7948 -33.7924 -33.7667
   -33.7575 -33.7532 -33.7203 -33.7119 -33.6937 -33.6928 -33.6885 -33.6816
   -33.6672 -33.6626 -33.6303 -33.6223 -33.5956 -33.5326 -33.5032 -33.4974
   -33.4970 -33.4934 -33.4820 -33.4685 -33.4650 -33.4586 -33.4558 -33.4440
   -33.3303 -33.2999 -33.2854 -33.2623 -33.2571 -33.2476 -33.2355 -33.2093
   -18.4653 -18.3326 -18.0353 -18.0051 -17.8484 -17.8138 -17.6291 -17.6060
   -17.5865 -17.4907 -17.4721 -17.4366 -17.2557 -17.1527 -17.1257 -17.1135
   -17.0545 -17.0080 -16.9415 -16.9277 -16.9082 -16.8732 -16.7945 -16.7805
   -16.7428 -16.7380 -16.6533 -16.6361 -16.6100 -16.4446 -16.4196 -15.8568
   -15.8329  -6.0116  -5.9381  -5.3907  -5.2595  -5.2119  -5.1722  -5.0727
    -5.0615  -5.0283  -4.9724  -4.9495  -4.7640  -4.7257  -4.6930  -4.6113
    -4.6050  -4.5628  -4.5583  -4.5215  -4.5076  -4.4502  -4.4354  -4.4288
    -4.4055  -4.3409  -4.2810  -4.2323  -4.1895  -4.1575  -4.1161  -4.0487
    -4.0335  -3.8765  -3.7667  -3.6242  -3.6175  -3.5960  -3.4974  -3.4786
    -3.3742  -3.2995  -3.2905  -3.2660  -3.2293  -3.1750  -3.1662  -3.0526
    -3.0095  -2.9610  -2.9048  -2.8781  -2.8003  -2.6955  -2.6889  -2.6416
    -2.5234  -2.5130  -2.5070  -2.4407  -2.3852  -2.3682  -2.3470  -2.3374
    -2.2816  -2.2682  -2.2347  -2.2036  -2.1824  -2.1610  -2.0808  -2.0783
    -2.0685  -2.0103  -1.8917  -1.8208  -1.7999  -1.7800  -1.7659  -1.7073
    -1.6676  -1.6662  -1.6408  -1.5944  -1.5724  -1.4887  -1.4452  -1.3866
    -1.2988  -1.2032  -1.1861  -1.1492  -1.0576  -1.0519  -0.9270  -0.9228
    -0.8303  -0.7938  -0.7685  -0.5322   1.0710   1.2135   1.2859   1.5079
     1.5841   1.6773   1.7449   1.8536   1.9362   2.0440   2.0643   2.0850
     2.1467   2.2069   2.2433   2.2858   2.3300   2.4024   2.4129   2.4568
     2.5039   2.5143   2.5543   2.6171   2.6224   2.6544   2.6670   2.7059
     2.7471   2.7521   2.8021   2.8418   2.8785   2.9101   2.9500   3.0080
     3.0544   3.0556   3.1385   3.1651   3.1898   3.2473   3.2682   3.3413
     3.4418   3.4532   3.4940   3.5659   3.6898   3.9142   4.0795   4.4562
     4.5288   4.5531   4.6564   4.8188   4.8649   4.9126   5.0692   5.0948
     5.1400   5.1781   5.2249   5.2808   5.3017   5.3450   5.3703   5.4116
     5.4299   5.5175   5.5728   5.6127   5.6285   5.6506   5.6575   5.7555
     5.8872   5.9689   6.0821   6.2071   6.2398   6.2640   6.5504   6.5581
     6.8566   7.2021   7.5806   7.6222   8.1538   8.3986   8.6459   8.6876
     8.8339   9.0333   9.2033   9.3811   9.5959   9.6878   9.7168

          k = 0.0000-0.0840 0.0000 ( 34678 PWs)   bands (ev):

   -58.5047 -58.5030 -57.5928 -57.5925 -57.5768 -57.5022 -57.4736 -57.4562
   -57.3388 -57.3240 -57.2655 -57.2574 -57.1164 -57.1164 -57.0112 -57.0095
   -34.7767 -34.7753 -34.7743 -34.7733 -34.6813 -34.6797 -33.9173 -33.9163
   -33.8992 -33.8963 -33.8476 -33.8386 -33.8208 -33.8173 -33.8172 -33.7885
   -33.7860 -33.7516 -33.7126 -33.7097 -33.7049 -33.6847 -33.6836 -33.6711
   -33.6671 -33.6372 -33.6000 -33.5965 -33.5921 -33.5701 -33.5558 -33.5393
   -33.4937 -33.4840 -33.4786 -33.4784 -33.4621 -33.4621 -33.3617 -33.3613
   -33.3581 -33.3484 -33.3081 -33.3078 -33.2529 -33.2526 -33.2491 -33.2420
   -18.3308 -18.2404 -18.2393 -17.8175 -17.8015 -17.7244 -17.7003 -17.7003
   -17.6311 -17.4671 -17.4127 -17.3022 -17.2985 -17.2687 -17.2196 -17.0448
   -17.0204 -17.0171 -17.0168 -16.8534 -16.8366 -16.8362 -16.8290 -16.7964
   -16.7510 -16.7037 -16.6994 -16.6904 -16.6871 -16.4828 -16.4654 -15.8663
   -15.8663  -6.0112  -5.5985  -5.5985  -5.1021  -5.1010  -5.0762  -5.0666
    -4.9849  -4.9825  -4.9265  -4.8901  -4.8502  -4.8099  -4.7564  -4.6989
    -4.6929  -4.6614  -4.6208  -4.6015  -4.4840  -4.4812  -4.4222  -4.4185
    -4.3403  -4.2899  -4.2344  -4.1989  -4.1165  -4.1007  -4.0006  -3.9979
    -3.9086  -3.8852  -3.8699  -3.8428  -3.6223  -3.5656  -3.4884  -3.4756
    -3.2928  -3.2858  -3.2626  -3.1587  -3.1389  -3.1321  -3.0522  -3.0493
    -2.9889  -2.9772  -2.9266  -2.8846  -2.8595  -2.7558  -2.7010  -2.6526
    -2.6185  -2.6034  -2.5960  -2.5665  -2.4731  -2.4158  -2.3754  -2.2770
    -2.2744  -2.2066  -2.1957  -2.1945  -2.1943  -2.1901  -2.1440  -2.0083
    -2.0077  -1.9663  -1.9368  -1.9222  -1.8582  -1.7760  -1.7658  -1.7320
    -1.7315  -1.6730  -1.6570  -1.6420  -1.6328  -1.5892  -1.5369  -1.3928
    -1.3641  -1.3313  -1.3072  -1.2745  -1.0581  -1.0051  -0.8274  -0.8178
    -0.8095  -0.8043  -0.7311  -0.7070   1.2691   1.2706   1.4201   1.4205
     1.5002   1.5013   1.8684   1.8703   1.9303   1.9706   2.1244   2.2031
     2.2379   2.2497   2.2681   2.3064   2.3799   2.4315   2.4439   2.4496
     2.4827   2.5077   2.5681   2.5846   2.6045   2.7307   2.7368   2.7503
     2.7840   2.8012   2.8059   2.8107   2.8133   2.9284   3.0004   3.0178
     3.0282   3.0710   3.1237   3.1397   3.1775   3.1880   3.2844   3.2949
     3.4337   3.4997   3.5283   3.5484   3.5678   3.8226   4.1386   4.5603
     4.6147   4.6282   4.6520   4.6529   4.9308   4.9550   5.0908   5.1181
     5.1346   5.1798   5.2378   5.2559   5.3465   5.3634   5.4029   5.4537
     5.4628   5.4915   5.4919   5.4977   5.5576   5.5928   5.6361   5.7153
     5.8234   5.8983   6.1040   6.1824   6.2720   6.3012   6.4994   6.6276
     6.8298   6.8720   7.4008   7.4101   8.1145   8.1675   8.8869   9.0568
     9.1678   9.1698   9.3016   9.4093   9.4639   9.5280   9.7055

          k = 0.0253 0.0000 0.0000 ( 34707 PWs)   bands (ev):

   -58.5213 -58.4862 -57.6103 -57.5809 -57.5747 -57.4982 -57.4846 -57.4450
   -57.3463 -57.3165 -57.2792 -57.2436 -57.1340 -57.0988 -57.0293 -56.9913
   -34.9665 -34.7902 -34.7614 -34.7268 -34.6326 -34.5758 -34.1098 -34.0676
   -34.0271 -33.8759 -33.8633 -33.8050 -33.7877 -33.7755 -33.7688 -33.7661
   -33.7542 -33.7369 -33.7163 -33.7121 -33.7020 -33.6871 -33.6762 -33.6720
   -33.6658 -33.6532 -33.6451 -33.6072 -33.5659 -33.5638 -33.5527 -33.5178
   -33.5155 -33.5045 -33.4761 -33.4610 -33.4488 -33.4482 -33.4274 -33.4003
   -33.3524 -33.3065 -33.2650 -33.2627 -33.2416 -33.2181 -33.1611 -33.1103
   -18.6404 -18.3381 -18.2206 -18.0053 -18.0009 -17.7739 -17.6638 -17.6120
   -17.6063 -17.5824 -17.5364 -17.3162 -17.2724 -17.2099 -17.1705 -17.1229
   -17.0670 -16.9745 -16.9577 -16.9535 -16.8509 -16.8230 -16.8117 -16.7463
   -16.6980 -16.6733 -16.6299 -16.5520 -16.5095 -16.3604 -16.2981 -15.8129
   -15.7534  -6.1381  -6.0117  -5.6049  -5.4426  -5.4203  -5.2891  -5.2621
    -5.1877  -5.0714  -4.9646  -4.9179  -4.7988  -4.7982  -4.7310  -4.7083
    -4.6358  -4.5379  -4.4748  -4.4642  -4.4120  -4.3708  -4.3138  -4.2386
    -4.2336  -4.1896  -4.1455  -4.1254  -4.0673  -4.0535  -4.0133  -3.8702
    -3.8531  -3.8156  -3.7686  -3.7367  -3.7340  -3.6842  -3.6295  -3.5502
    -3.5196  -3.4926  -3.4845  -3.4789  -3.3727  -3.2278  -3.1032  -3.0529
    -3.0380  -2.9774  -2.9709  -2.9261  -2.8557  -2.8307  -2.7757  -2.7720
    -2.7377  -2.6295  -2.6100  -2.5217  -2.4825  -2.4457  -2.4110  -2.2905
    -2.2469  -2.2230  -2.1439  -2.0839  -2.0587  -2.0504  -1.9646  -1.8663
    -1.8331  -1.7747  -1.7744  -1.7231  -1.7025  -1.6749  -1.6432  -1.5691
    -1.5586  -1.5267  -1.4900  -1.4531  -1.4217  -1.3747  -1.3189  -1.3008
    -1.2631  -1.2197  -1.1461  -1.1008  -1.0417  -1.0073  -0.8674  -0.8534
    -0.8215  -0.8011  -0.7673  -0.4488   0.8928   0.9071   1.1997   1.5619
     1.6050   1.6995   1.7155   1.7972   1.8426   1.9186   1.9793   1.9811
     2.1110   2.1160   2.1908   2.2610   2.2664   2.3044   2.3839   2.4140
     2.4622   2.4798   2.5253   2.5791   2.6109   2.6146   2.6339   2.6670
     2.7057   2.7334   2.8016   2.8568   2.8823   2.9164   2.9780   2.9902
     3.0079   3.0862   3.1817   3.1948   3.2153   3.3069   3.3510   3.3719
     3.4690   3.5303   3.5311   3.6856   3.8161   3.9330   4.0095   4.2115
     4.3702   4.4196   4.5163   4.6098   4.7177   4.7607   4.8368   4.8409
     5.0574   5.1023   5.2202   5.3312   5.4578   5.4977   5.5381   5.6753
     5.6822   5.7082   5.7301   5.7776   5.8258   5.8273   5.8496   5.9796
     5.9925   6.0030   6.2294   6.2853   6.3309   6.4654   6.5427   6.5755
     7.1635   7.5696   7.7049   7.9840   8.0304   8.1618   8.2771   8.5710
     8.7158   8.9897   9.0878   9.3597   9.5675   9.5961   9.9314

          k = 0.0253 0.0280 0.0000 ( 34687 PWs)   bands (ev):

   -58.5190 -58.4886 -57.6080 -57.5800 -57.5770 -57.4992 -57.4825 -57.4472
   -57.3448 -57.3179 -57.2770 -57.2458 -57.1317 -57.1011 -57.0267 -56.9939
   -34.9411 -34.7882 -34.7633 -34.7206 -34.6390 -34.6028 -34.0843 -34.0424
   -34.0039 -33.8702 -33.8572 -33.8013 -33.7830 -33.7779 -33.7637 -33.7610
   -33.7538 -33.7435 -33.7206 -33.7135 -33.6992 -33.6986 -33.6924 -33.6812
   -33.6639 -33.6495 -33.6474 -33.6038 -33.5857 -33.5393 -33.5278 -33.5184
   -33.5135 -33.5020 -33.4742 -33.4618 -33.4531 -33.4505 -33.4466 -33.4264
   -33.3465 -33.3030 -33.2688 -33.2632 -33.2430 -33.2229 -33.1884 -33.1389
   -18.5830 -18.3355 -18.1632 -17.9878 -17.9540 -17.7359 -17.7314 -17.5866
   -17.5806 -17.5486 -17.5380 -17.3341 -17.2878 -17.1869 -17.1499 -17.1043
   -17.0434 -17.0020 -16.9615 -16.9442 -16.8899 -16.8774 -16.7838 -16.7721
   -16.7162 -16.6940 -16.6340 -16.5748 -16.5458 -16.3801 -16.3384 -15.8271
   -15.7792  -6.0531  -6.0107  -5.5213  -5.3688  -5.3450  -5.2061  -5.1908
    -5.1301  -5.0196  -4.9113  -4.8946  -4.8537  -4.7539  -4.7148  -4.6590
    -4.6251  -4.5278  -4.4978  -4.4575  -4.3996  -4.3871  -4.3563  -4.3331
    -4.3040  -4.2711  -4.2100  -4.1663  -4.1409  -4.1121  -4.0212  -3.9940
    -3.9394  -3.8852  -3.8370  -3.7682  -3.6277  -3.5745  -3.5451  -3.5311
    -3.4816  -3.4529  -3.4220  -3.3408  -3.3109  -3.1516  -3.1090  -3.0507
    -2.9963  -2.9501  -2.9303  -2.8981  -2.8435  -2.8213  -2.7304  -2.7197
    -2.7027  -2.6700  -2.5723  -2.5229  -2.5040  -2.4391  -2.4196  -2.3309
    -2.2676  -2.2354  -2.1569  -2.1488  -2.0666  -2.0539  -2.0058  -1.9846
    -1.9642  -1.8475  -1.8016  -1.7750  -1.7583  -1.7098  -1.6559  -1.6271
    -1.5930  -1.5736  -1.5668  -1.5490  -1.5111  -1.4460  -1.3612  -1.3212
    -1.2134  -1.1507  -1.1335  -1.1279  -1.1042  -1.0570  -1.0071  -0.8732
    -0.8242  -0.8023  -0.7390  -0.4784   0.9381   1.0323   1.2158   1.6073
[...]
    -4.3266  -4.2928  -4.2229  -4.1842  -4.1740  -4.1567  -4.0530  -4.0450
    -3.9818  -3.9456  -3.7164  -3.7021  -3.6506  -3.6165  -3.5687  -3.5574
    -3.4634  -3.4406  -3.3700  -3.3393  -3.3305  -3.3141  -3.2358  -3.1409
    -3.0881  -3.0832  -3.0282  -3.0211  -2.9880  -2.9552  -2.9320  -2.8436
    -2.8122  -2.7554  -2.6541  -2.6243  -2.6197  -2.5502  -2.5210  -2.5018
    -2.4788  -2.4404  -2.3409  -2.3352  -2.2824  -2.2668  -2.2488  -2.1930
    -2.1916  -2.0923  -2.0590  -1.9974  -1.9733  -1.8508  -1.7823  -1.7264
    -1.6998  -1.6850  -1.6648  -1.5901  -1.4213  -1.4049  -1.3389  -1.3103
    -1.3028  -1.2733  -1.1479  -1.1190  -1.0893  -0.9866  -0.9215  -0.9079
    -0.8259  -0.8205  -0.7644  -0.7631   1.3236   1.3249   1.4455   1.4469
     1.7323   1.7324   1.8396   1.8411   2.0155   2.0161   2.1135   2.2099
     2.2659   2.2722   2.3728   2.4276   2.4388   2.4406   2.5046   2.5543
     2.5554   2.5733   2.6302   2.6384   2.7344   2.7386   2.7707   2.7814
     2.8245   2.8592   2.9160   2.9690   2.9875   2.9894   3.0179   3.0439
     3.0530   3.1417   3.1749   3.1833   3.2248   3.2549   3.3221   3.3262
     3.3812   3.3814   3.4730   3.5985   3.6492   3.6620   4.1082   4.1085
     4.2804   4.5511   4.5523   4.6491   4.7178   4.7544   4.8120   4.8162
     4.9172   4.9462   4.9849   4.9920   5.4059   5.4477   5.4612   5.5905
     5.6777   5.6946   5.7425   5.7538   5.7699   5.8240   5.8403   5.9242
     5.9684   6.0622   6.1934   6.2305   6.3231   6.3526   6.6827   6.8951
     7.1467   7.1687   7.6145   7.6225   7.9564   7.9685   8.0495   8.1329
     8.4496   8.4588   8.5651   8.7008   9.1575   9.1858   9.3076

          k =-0.0759 0.0000 0.0000 ( 34758 PWs)   bands (ev):

   -58.5213 -58.4863 -57.6101 -57.5811 -57.5746 -57.4982 -57.4845 -57.4449
   -57.3462 -57.3164 -57.2791 -57.2434 -57.1345 -57.0992 -57.0292 -56.9913
   -34.9677 -34.7902 -34.7615 -34.7244 -34.6329 -34.5759 -34.1104 -34.0739
   -34.0275 -33.8631 -33.8308 -33.8076 -33.8050 -33.7992 -33.7694 -33.7687
   -33.7541 -33.7399 -33.7160 -33.7157 -33.6871 -33.6824 -33.6763 -33.6720
   -33.6664 -33.6518 -33.6323 -33.6026 -33.5666 -33.5657 -33.5529 -33.5381
   -33.5117 -33.5035 -33.4799 -33.4608 -33.4476 -33.4474 -33.4274 -33.4005
   -33.3528 -33.3064 -33.2732 -33.2632 -33.2380 -33.2181 -33.1617 -33.1105
   -18.4564 -18.3327 -18.1339 -18.0745 -17.9709 -17.8705 -17.6866 -17.6043
   -17.5816 -17.5314 -17.4434 -17.4026 -17.2608 -17.2557 -17.2413 -17.2256
   -17.1455 -17.0528 -16.9944 -16.9691 -16.8349 -16.8233 -16.7837 -16.6814
   -16.6716 -16.6462 -16.6328 -16.6035 -16.5102 -16.3581 -16.2983 -15.8078
   -15.7508  -6.0053  -5.6479  -5.5652  -5.4793  -5.4087  -5.1540  -5.1287
    -5.0751  -5.0144  -4.9861  -4.8219  -4.7642  -4.7551  -4.7475  -4.6213
    -4.6098  -4.4738  -4.4381  -4.3839  -4.2969  -4.2902  -4.2124  -4.2118
    -4.1298  -4.1147  -4.0935  -4.0000  -3.9836  -3.9786  -3.9491  -3.8656
    -3.8210  -3.8036  -3.7983  -3.7735  -3.7116  -3.7045  -3.6617  -3.6294
    -3.5320  -3.5032  -3.4837  -3.3285  -3.2408  -3.2307  -3.1929  -3.1486
    -3.0972  -3.0108  -3.0071  -2.9410  -2.9392  -2.9094  -2.9015  -2.8514
    -2.8138  -2.7570  -2.6826  -2.6764  -2.5957  -2.5548  -2.5004  -2.4685
    -2.3634  -2.3398  -2.2679  -2.1727  -2.1509  -1.9993  -1.9797  -1.9507
    -1.9378  -1.9194  -1.8406  -1.8243  -1.7033  -1.6891  -1.6883  -1.6288
    -1.5783  -1.5340  -1.4704  -1.4477  -1.3954  -1.3919  -1.3810  -1.3695
    -1.3522  -1.2879  -1.2659  -1.1268  -1.1162  -1.0798  -0.9277  -0.9205
    -0.9059  -0.8999  -0.8866  -0.7115   0.8536   1.0683   1.1914   1.1977
     1.5726   1.7018   1.7384   1.7888   1.8339   1.8693   1.9677   2.1104
     2.1360   2.2569   2.3220   2.3452   2.3855   2.4178   2.4448   2.4550
     2.4926   2.4961   2.6100   2.6540   2.7039   2.7180   2.7550   2.8021
     2.8187   2.8306   2.9319   2.9510   2.9545   2.9550   2.9738   3.0216
     3.0278   3.0844   3.1335   3.1709   3.2236   3.2889   3.3575   3.4207
     3.5162   3.6011   3.6165   3.6395   3.7465   3.7480   3.7896   4.1457
     4.1635   4.2963   4.3593   4.4869   4.6116   4.7995   4.8735   4.9097
     4.9641   5.2621   5.3375   5.4877   5.5179   5.5810   5.5952   5.6710
     5.6989   5.7526   5.8195   5.9325   5.9901   6.0948   6.1385   6.2746
     6.2881   6.3072   6.3292   6.3302   6.3602   6.4751   6.4918   6.5852
     6.6909   6.8270   7.2487   7.4220   8.0222   8.1357   8.1968   8.5646
     8.7943   8.9002   9.1093   9.1972   9.4032   9.7819   9.9090

          k =-0.0759 0.0280 0.0000 ( 34680 PWs)   bands (ev):

   -58.5190 -58.4886 -57.6077 -57.5802 -57.5770 -57.4992 -57.4824 -57.4470
   -57.3448 -57.3179 -57.2769 -57.2457 -57.1321 -57.1016 -57.0267 -56.9938
   -34.9422 -34.7883 -34.7634 -34.7182 -34.6390 -34.6030 -34.0848 -34.0489
   -34.0042 -33.8570 -33.8260 -33.8072 -33.8014 -33.7808 -33.7715 -33.7705
   -33.7540 -33.7428 -33.7232 -33.7209 -33.6992 -33.6917 -33.6813 -33.6810
   -33.6640 -33.6485 -33.6321 -33.5993 -33.5857 -33.5442 -33.5318 -33.5280
   -33.5119 -33.5011 -33.4776 -33.4615 -33.4536 -33.4494 -33.4471 -33.4259
   -33.3469 -33.3030 -33.2702 -33.2693 -33.2402 -33.2229 -33.1889 -33.1389
   -18.4000 -18.3315 -18.1083 -18.0255 -17.9253 -17.8612 -17.6614 -17.6552
   -17.5413 -17.5336 -17.4175 -17.3795 -17.2943 -17.2158 -17.2090 -17.1937
   -17.1261 -17.0407 -17.0223 -16.9816 -16.8716 -16.8624 -16.7996 -16.6989
   -16.6983 -16.6917 -16.6377 -16.6181 -16.5484 -16.3784 -16.3392 -15.8223
   -15.7771  -6.0042  -5.5515  -5.4213  -5.4065  -5.3376  -5.0522  -5.0329
    -4.9931  -4.8908  -4.8855  -4.8661  -4.8353  -4.7389  -4.6475  -4.5654
    -4.5611  -4.4909  -4.4593  -4.4392  -4.3684  -4.3429  -4.3393  -4.2141
    -4.1753  -4.1640  -4.1465  -4.0458  -4.0169  -3.9801  -3.9367  -3.9272
    -3.8618  -3.8587  -3.7700  -3.7562  -3.7106  -3.6561  -3.6354  -3.6045
    -3.5582  -3.4546  -3.3896  -3.3002  -3.2358  -3.1933  -3.1490  -3.1268
    -3.0810  -3.0567  -3.0269  -2.9868  -2.9390  -2.9083  -2.8880  -2.8215
    -2.7995  -2.7576  -2.7266  -2.7070  -2.6002  -2.5804  -2.4723  -2.4289
    -2.3929  -2.3384  -2.2980  -2.2820  -2.2491  -2.1906  -2.1574  -2.0593
    -2.0238  -1.9373  -1.8974  -1.8475  -1.8104  -1.7961  -1.7349  -1.7009
    -1.6283  -1.5974  -1.5567  -1.5335  -1.4217  -1.3735  -1.3482  -1.3023
    -1.2916  -1.2201  -1.1702  -1.1207  -1.0783  -1.0496  -1.0314  -0.9231
    -0.9006  -0.8595  -0.8511  -0.6697   0.9228   1.1444   1.2389   1.2670
     1.6656   1.7667   1.7713   1.8008   1.8872   1.9297   1.9684   2.1044
     2.1744   2.2856   2.3236   2.3321   2.4332   2.4447   2.4688   2.5031
     2.5166   2.5347   2.6736   2.7094   2.7146   2.7316   2.7534   2.7640
     2.7782   2.8291   2.9176   2.9462   2.9618   2.9623   2.9820   3.0260
     3.0673   3.0914   3.1957   3.2038   3.2167   3.3211   3.3546   3.4114
     3.4812   3.5721   3.5892   3.6143   3.6844   3.7126   3.7656   4.1669
     4.2116   4.2905   4.3565   4.6069   4.6150   4.6322   4.8983   4.9063
     4.9753   5.2808   5.3370   5.3372   5.3955   5.4681   5.5869   5.6065
     5.6446   5.6832   5.7814   5.9748   6.0095   6.0458   6.1406   6.1751
     6.2074   6.2493   6.2527   6.3658   6.4331   6.4444   6.5156   6.6043
     6.8188   6.9572   7.3673   7.3907   7.5485   8.1333   8.2384   8.6052
     9.0270   9.0962   9.1979   9.3323   9.3434   9.3737   9.4798

          k =-0.0759 0.0560 0.0000 ( 34616 PWs)   bands (ev):

   -58.5126 -58.4951 -57.6012 -57.5835 -57.5782 -57.5012 -57.4772 -57.4523
   -57.3412 -57.3215 -57.2709 -57.2517 -57.1257 -57.1081 -57.0198 -57.0008
   -34.8721 -34.7830 -34.7686 -34.7016 -34.6764 -34.6559 -34.0145 -33.9815
   -33.9443 -33.8402 -33.8239 -33.8145 -33.8071 -33.7939 -33.7935 -33.7756
   -33.7601 -33.7492 -33.7327 -33.7203 -33.7198 -33.6940 -33.6823 -33.6782
   -33.6675 -33.6302 -33.6256 -33.6224 -33.5912 -33.5300 -33.5154 -33.5007
   -33.4992 -33.4916 -33.4808 -33.4715 -33.4699 -33.4587 -33.4553 -33.4423
   -33.3307 -33.2999 -33.2859 -33.2630 -33.2627 -33.2463 -33.2354 -33.2091
   -18.3293 -18.2446 -18.0408 -17.9209 -17.8453 -17.8112 -17.8072 -17.5996
   -17.5794 -17.4295 -17.4049 -17.3384 -17.2249 -17.1865 -17.1265 -17.1164
   -17.0838 -17.0682 -17.0493 -17.0348 -16.9581 -16.9282 -16.8512 -16.8069
   -16.7385 -16.7236 -16.6535 -16.6469 -16.6387 -16.4455 -16.4125 -15.8522
   -15.8314  -6.0025  -5.2807  -5.2160  -5.1572  -5.0283  -5.0180  -5.0114
    -4.9311  -4.7820  -4.7215  -4.6482  -4.6300  -4.6087  -4.5895  -4.5494
    -4.5220  -4.5108  -4.4371  -4.4113  -4.3859  -4.3585  -4.3279  -4.2943
    -4.2902  -4.2721  -4.2510  -4.1961  -4.1365  -4.0623  -3.9774  -3.9384
    -3.8496  -3.8230  -3.8083  -3.7777  -3.7434  -3.6912  -3.5714  -3.5179
    -3.4691  -3.4241  -3.3826  -3.3671  -3.3355  -3.2924  -3.2794  -3.2127
    -3.1703  -3.1680  -2.9906  -2.9341  -2.9318  -2.9085  -2.9009  -2.8368
    -2.8050  -2.7872  -2.7551  -2.7169  -2.6589  -2.6361  -2.6034  -2.5604
    -2.4675  -2.4433  -2.4121  -2.3657  -2.3370  -2.3236  -2.2462  -2.1428
    -2.1301  -2.0909  -2.0679  -1.9207  -1.9086  -1.7962  -1.7767  -1.7600
    -1.7447  -1.6763  -1.6313  -1.5385  -1.4933  -1.4116  -1.3335  -1.2743
    -1.2288  -1.2144  -1.1682  -1.0664  -0.9956  -0.9476  -0.9312  -0.9144
    -0.8757  -0.8579  -0.8204  -0.7478   1.1244   1.2932   1.3437   1.4797
     1.6825   1.8393   1.8557   1.8806   1.9062   2.0114   2.0935   2.1256
     2.1978   2.2607   2.3292   2.3860   2.4615   2.4658   2.5119   2.5786
     2.6023   2.6465   2.6571   2.6847   2.6929   2.7309   2.8097   2.8177
     2.8502   2.8744   2.9370   2.9592   3.0100   3.0247   3.0371   3.0607
     3.0849   3.1413   3.1667   3.1900   3.2633   3.2742   3.2816   3.3881
     3.4289   3.4736   3.5750   3.5930   3.6359   3.6695   3.7679   4.2280
     4.2488   4.2961   4.3762   4.3997   4.6910   4.7320   4.7934   4.8572
     4.9752   5.0264   5.0745   5.1447   5.3808   5.4469   5.4766   5.6010
     5.6336   5.7690   5.8061   5.8666   5.9044   5.9287   5.9466   6.0910
     6.0944   6.1467   6.2897   6.3056   6.3852   6.4972   6.6296   6.8529
     6.9368   7.1399   7.3106   7.6354   7.8027   7.9350   8.1984   8.3065
     8.4910   8.5148   8.6302   8.7693   9.0610   9.2746   9.4316

          k =-0.0759-0.0840 0.0000 ( 34556 PWs)   bands (ev):

   -58.5047 -58.5030 -57.5924 -57.5924 -57.5772 -57.5022 -57.4734 -57.4561
   -57.3388 -57.3239 -57.2654 -57.2572 -57.1169 -57.1169 -57.0111 -57.0094
   -34.7767 -34.7760 -34.7746 -34.7743 -34.6795 -34.6780 -33.9175 -33.9170
   -33.9116 -33.8965 -33.8592 -33.8170 -33.8170 -33.8053 -33.7891 -33.7863
   -33.7806 -33.7717 -33.7402 -33.7096 -33.7049 -33.6856 -33.6842 -33.6770
   -33.6677 -33.6371 -33.5973 -33.5791 -33.5780 -33.5706 -33.5584 -33.5335
   -33.4963 -33.4934 -33.4891 -33.4781 -33.4633 -33.4633 -33.3620 -33.3616
   -33.3576 -33.3478 -33.3085 -33.3081 -33.2553 -33.2542 -33.2492 -33.2419
   -18.3283 -18.0295 -18.0291 -17.9592 -17.9572 -17.7162 -17.6730 -17.6720
   -17.6700 -17.4003 -17.2724 -17.2640 -17.2617 -17.1715 -17.1647 -17.1109
   -17.0707 -17.0242 -17.0082 -16.9946 -16.9929 -16.9898 -16.9845 -16.7847
   -16.7625 -16.7486 -16.7463 -16.6569 -16.6547 -16.4789 -16.4543 -15.8636
   -15.8635  -6.0017  -5.0998  -5.0900  -5.0215  -5.0194  -4.8875  -4.8873
    -4.8840  -4.8782  -4.6338  -4.6292  -4.6249  -4.5620  -4.4997  -4.4289
    -4.4266  -4.4252  -4.3915  -4.3775  -4.3629  -4.3517  -4.3338  -4.2847
    -4.2814  -4.2527  -4.2509  -4.2347  -4.1249  -4.0711  -4.0081  -3.9879
    -3.9536  -3.8784  -3.8649  -3.8622  -3.7461  -3.6673  -3.6561  -3.6525
    -3.5286  -3.5260  -3.3721  -3.3699  -3.3597  -3.3244  -3.2550  -3.2203
    -3.1539  -3.1262  -3.0707  -3.0607  -3.0277  -3.0132  -2.9938  -2.9143
    -2.8674  -2.7758  -2.7382  -2.6955  -2.6536  -2.6235  -2.5894  -2.5681
    -2.5444  -2.4662  -2.4402  -2.4338  -2.4056  -2.3505  -2.2953  -2.2625
    -2.1487  -2.0790  -2.0657  -2.0544  -1.9361  -1.8682  -1.8557  -1.7119
    -1.6696  -1.6435  -1.6312  -1.6060  -1.3638  -1.3233  -1.3070  -1.2959
    -1.2661  -1.2196  -1.1404  -1.0516  -0.9944  -0.9607  -0.9474  -0.9113
    -0.8883  -0.8526  -0.7853  -0.7719   1.3873   1.3913   1.4029   1.4086
     1.7507   1.7514   1.8792   1.8811   2.0311   2.0883   2.0910   2.1450
     2.2176   2.2467   2.3411   2.4137   2.4212   2.4899   2.5240   2.5758
     2.5863   2.6188   2.7430   2.7457   2.7571   2.7736   2.7912   2.8205
     2.8692   2.8941   2.9361   3.0249   3.0280   3.0312   3.0536   3.0691
     3.1457   3.1796   3.1803   3.2188   3.2432   3.2675   3.2821   3.2846
     3.3480   3.3730   3.5237   3.6012   3.6727   3.6737   3.9265   3.9270
     4.3246   4.4101   4.4362   4.4958   4.6135   4.6460   4.6873   4.7564
     4.9442   4.9623   4.9710   4.9820   5.4564   5.4599   5.4781   5.6924
     5.7185   5.7208   5.7890   5.8032   5.8811   5.8849   5.9304   6.0269
     6.0718   6.0791   6.1546   6.2218   6.2809   6.3791   6.8310   7.1371
     7.4117   7.4221   7.4823   7.5445   7.7177   7.7182   7.8571   7.9435
     8.2801   8.2806   8.4523   8.5921   9.0616   9.0870   9.1926

     the Fermi energy is    -0.5032 ev

!    total energy              =   -3005.52937851 Ry
     Harris-Foulkes estimate   =   -3005.52937852 Ry
     estimated scf accuracy    <       0.00000013 Ry

     The total energy is the sum of the following terms:

     one-electron contribution =  -41017.06553156 Ry
     hartree contribution      =   20574.11827514 Ry
     xc contribution           =    -546.74600471 Ry
     ewald contribution        =   17984.18354342 Ry
     smearing contrib. (-TS)   =      -0.01966079 Ry

     total magnetization       =     0.00 Bohr mag/cell
     absolute magnetization    =     0.01 Bohr mag/cell

     convergence has been achieved in  11 iterations

     Forces acting on atoms (Ry/au):


     negative rho (up, down):  1.352E-02 1.352E-02
     atom    1 type  1   force =     0.00002097   -0.00109802   -0.10420314
     atom    2 type  2   force =     0.00004216    0.00000000    0.03811804
     atom    3 type  1   force =    -0.00011281    0.00000000   -0.02281821
     atom    4 type  2   force =    -0.00614294    0.00312143   -0.00582062
     atom    5 type  1   force =     0.00029760    0.00042009   -0.00079332
     atom    6 type  2   force =    -0.00036369    0.00000000   -0.00020900
     atom    7 type  1   force =    -0.00019749    0.00000000   -0.00248187
     atom    8 type  2   force =     0.00020728    0.00031482   -0.00018759
     atom    9 type  1   force =     0.00002097    0.00109802   -0.10420314
     atom   10 type  2   force =     0.00002760    0.00000000    0.03427093
     atom   11 type  1   force =    -0.00011192    0.00000000    0.01131484
     atom   12 type  2   force =    -0.00614294   -0.00312143   -0.00582062
     atom   13 type  1   force =     0.00029760   -0.00042009   -0.00079332
     atom   14 type  2   force =    -0.00072676    0.00000000   -0.00101502
     atom   15 type  1   force =     0.00035638    0.00000000    0.00129381
     atom   16 type  2   force =     0.00020728   -0.00031482   -0.00018759
     atom   17 type  2   force =     0.00004406    0.00000000    0.06641902
     atom   18 type  1   force =     0.00014104    0.00000000    0.13058781
     atom   19 type  2   force =    -0.00015481    0.00000000   -0.08412748
     atom   20 type  2   force =    -0.05788158    0.00015478   -0.03631608
     atom   21 type  2   force =     0.05803319    0.00017034   -0.03622381
     atom   22 type  1   force =    -0.00003544    0.00087220    0.07794838
     atom   23 type  2   force =    -0.00015833    0.00000000    0.00133294
     atom   24 type  2   force =    -0.00017391    0.00000000   -0.03626893
     atom   25 type  2   force =     0.00592975    0.00307808   -0.00550843
     atom   26 type  1   force =    -0.00035252    0.00000000    0.00029561
     atom   27 type  2   force =     0.00034256    0.00000000    0.00146174
     atom   28 type  2   force =    -0.00017645    0.00033619   -0.00037822
     atom   29 type  2   force =    -0.00034447    0.00015296    0.00006863
     atom   30 type  1   force =     0.00008255    0.00048756    0.00078238
     atom   31 type  2   force =    -0.00049432    0.00000000   -0.00017477
     atom   32 type  2   force =     0.00034422   -0.00025833    0.00002941
     atom   33 type  2   force =    -0.00000790    0.00000000    0.06644406
     atom   34 type  1   force =     0.00011611    0.00000000    0.13039541
     atom   35 type  2   force =    -0.00012823    0.00000000   -0.08357794
     atom   36 type  2   force =    -0.05788158   -0.00015478   -0.03631608
     atom   37 type  2   force =     0.05803319   -0.00017034   -0.03622381
     atom   38 type  1   force =    -0.00003544   -0.00087220    0.07794838
     atom   39 type  2   force =    -0.00007609    0.00000000   -0.00025376
     atom   40 type  2   force =     0.00008320    0.00000000   -0.03527613
     atom   41 type  2   force =     0.00592975   -0.00307808   -0.00550843
     atom   42 type  1   force =    -0.00054404    0.00000000    0.00095718
     atom   43 type  2   force =     0.00040130    0.00000000    0.00161933
     atom   44 type  2   force =    -0.00017645   -0.00033619   -0.00037822
     atom   45 type  2   force =    -0.00034447   -0.00015296    0.00006863
     atom   46 type  1   force =     0.00008255   -0.00048756    0.00078238
     atom   47 type  2   force =     0.00161516    0.00000000    0.00038210
     atom   48 type  2   force =     0.00034422    0.00025833    0.00002941
     atom   49 type  2   force =    -0.02438920    0.00000000   -0.01300792
     atom   50 type  3   force =     0.02415311    0.00000000    0.01552305

     Total force =     0.342461     Total SCF correction =     0.001400
 !ASE

     Writing output data file calc.save
 
     init_run     :     51.31s CPU     59.20s WALL (       1 calls)
     electrons    :   2316.19s CPU   2670.60s WALL (       1 calls)
     forces       :     42.77s CPU     43.88s WALL (       1 calls)

     Called by init_run:
     wfcinit      :     43.98s CPU     51.28s WALL (       1 calls)
     potinit      :      1.31s CPU      1.54s WALL (       1 calls)

     Called by electrons:
     c_bands      :   2000.04s CPU   2302.78s WALL (      12 calls)
     sum_band     :    267.16s CPU    313.46s WALL (      12 calls)
     v_of_rho     :     12.22s CPU     14.52s WALL (      12 calls)
     newd         :     40.29s CPU     43.42s WALL (      12 calls)
     mix_rho      :      0.40s CPU      0.61s WALL (      12 calls)
     vdW_energy   :      2.72s CPU      3.08s WALL (      13 calls)
     vdW_ffts     :      3.17s CPU      3.91s WALL (      26 calls)
     vdW_v        :      1.26s CPU      1.41s WALL (      13 calls)

     Called by c_bands:
     init_us_2    :      5.69s CPU      6.10s WALL (     832 calls)
     cegterg      :   1963.45s CPU   2264.65s WALL (     384 calls)

     Called by *egterg:
     h_psi        :    799.34s CPU   1037.67s WALL (    1691 calls)
     s_psi        :    134.65s CPU    137.94s WALL (    1691 calls)
     g_psi        :      3.96s CPU      4.07s WALL (    1275 calls)
     cdiaghg      :    580.77s CPU    590.07s WALL (    1627 calls)

     Called by h_psi:
     add_vuspsi   :    135.88s CPU    139.10s WALL (    1691 calls)

     General routines
     calbec       :    200.54s CPU    204.00s WALL (    2107 calls)
     fft          :      6.56s CPU      8.18s WALL (    1037 calls)
     ffts         :      0.06s CPU      0.07s WALL (      48 calls)
     fftw         :    452.67s CPU    723.94s WALL (  658718 calls)
     interpolate  :      0.42s CPU      0.59s WALL (      48 calls)
     davcio       :      0.01s CPU      1.16s WALL (      32 calls)
 
     Parallel routines
     fft_scatter  :    229.60s CPU    376.84s WALL (  659803 calls)
 
     PWSCF        : 40m11.38s CPU    46m16.53s WALL

 
   This run was terminated on:   2:13:16  11Feb2018            

=------------------------------------------------------------------------------=
   JOB DONE.
=------------------------------------------------------------------------------=
