  python dir          : /home/vossj/suncat/lib/python2.7/site-packages/espresso
  espresso dir        : /home/vossj/suncat/esdld/espresso-dynpy-beef/bin
  pseudo dir          : /home/alatimer/bin/psp/esp_psp_w_gbrvRu/
  ase-espresso py git : ffa2778-git



     Program PWSCF v.5.1rc2 (svn rev. ) starts on 10Feb2018 at 23:12: 2 

     This program is part of the open-source Quantum ESPRESSO suite
     for quantum simulation of materials; please cite
         "P. Giannozzi et al., J. Phys.:Condens. Matter 21 395502 (2009);
          URL http://www.quantum-espresso.org", 
     in publications or presentations arising from this work. More details at
     http://www.quantum-espresso.org/quote

     Parallel version (MPI), running on    16 processors
     R & G space division:  proc/nbgrp/npool/nimage =      16
     Reading input from pw.inp
     Message from routine read_cards :
     DEPRECATED: no units specified in CELL_PARAMETERS card

     Current dimensions of program PWSCF are:
     Max number of different atomic species (ntypx) = 10
     Max number of k-points (npk) =  40000
     Max angular momentum in pseudopotentials (lmaxx) =  3

     **************************************************************************
     Initializing libbeef V0.1.1 with the BEEF-vdW functional.
     Citation: Wellendorff et al., PRB 85, 235149 (2012).
     **************************************************************************


     IMPORTANT: XC functional enforced from input :
     Exchange-correlation      = BEEF ( 1  4 27 13 2)
     Any further DFT definition will be discarded
     Please, verify this is what you really want


     Subspace diagonalization in iterative solution of the eigenvalue problem:
     a serial algorithm will be used

 
     Parallelization info
     --------------------
     sticks:   dense  smooth     PW     G-vecs:    dense   smooth      PW
     Min         281     112     31                68535    17318    2565
     Max         282     113     32                68545    17369    2582
     Sum        4501    1795    503              1096637   277353   41113
 
     Generating pointlists ...
     new r_m :   0.4125 (alat units)  0.7795 (a.u.) for type    1
     new r_m :   0.4101 (alat units)  0.7751 (a.u.) for type    2
     new r_m :   0.4101 (alat units)  0.7751 (a.u.) for type    3


     bravais-lattice index     =            0
     lattice parameter (alat)  =       1.8897  a.u.
     unit-cell volume          =    7990.9933 (a.u.)^3
     number of atoms/cell      =           50
     number of atomic types    =            3
     number of electrons       =       391.00
     number of Kohn-Sham states=          295
     kinetic-energy cutoff     =      40.4243  Ry
     charge density cutoff     =     404.2426  Ry
     convergence threshold     =      7.3E-07
     mixing beta               =       0.1000
     number of iterations used =           10  plain     mixing
     Exchange-correlation      = BEEF ( 1  4 27 13 2)
     nstep                     =           50


     celldm(1)=   1.889726  celldm(2)=   0.000000  celldm(3)=   0.000000
     celldm(4)=   0.000000  celldm(5)=   0.000000  celldm(6)=   0.000000

     crystal axes: (cart. coord. in units of alat)
               a(1) = (   6.590708   0.000000   0.000000 )  
               a(2) = (   0.000000   5.950229   0.000000 )  
               a(3) = (   0.000000   0.000000  30.195235 )  

     reciprocal axes: (cart. coord. in units 2 pi/alat)
               b(1) = (  0.151729  0.000000  0.000000 )  
               b(2) = (  0.000000  0.168061  0.000000 )  
               b(3) = (  0.000000  0.000000  0.033118 )  


     PseudoPot. # 1 for Ti read from file:
     /home/alatimer/bin/psp/esp_psp_w_gbrvRu/Ti.UPF
     MD5 check sum: 8e4df49b7f0d34bbd5052bf3f5ea0213
     Pseudo is Ultrasoft, Zval = 12.0
     Generated by new atomic code, or converted to UPF format
     Using radial grid of  851 points,  6 beta functions with: 
                l(1) =   0
                l(2) =   0
                l(3) =   1
                l(4) =   1
                l(5) =   2
                l(6) =   2
     Q(r) pseudized with  8 coefficients,  rinner =    1.000   1.000   1.000
                                                       1.000   1.000

     PseudoPot. # 2 for  O read from file:
     /home/alatimer/bin/psp/esp_psp_w_gbrvRu/O.UPF
     MD5 check sum: e057bbcf3229fb5d8c36c0c92f9568b4
     Pseudo is Ultrasoft + core correction, Zval =  6.0
     Generated using "atomic" code by A. Dal Corso  v.5.0.2 svn rev. 9415
     Using radial grid of 1095 points,  4 beta functions with: 
                l(1) =   0
                l(2) =   0
                l(3) =   1
                l(4) =   1
     Q(r) pseudized with 0 coefficients 


     PseudoPot. # 3 for  H read from file:
     /home/alatimer/bin/psp/esp_psp_w_gbrvRu/H.UPF
     MD5 check sum: bd57da0722753ddfd9833a65b40bb853
     Pseudo is Ultrasoft, Zval =  1.0
     Generated using "atomic" code by A. Dal Corso  v.5.0.2 svn rev. 9415
     Using radial grid of  929 points,  2 beta functions with: 
                l(1) =   0
                l(2) =   0
     Q(r) pseudized with 0 coefficients 


     vdW kernel table read from file vdW_kernel_table
     MD5 check sum: 095c7af220d748ca6e76c0b4c6cfb241

     atomic species   valence    mass     pseudopotential
        Ti1           12.00    47.88000     Ti( 1.00)
        O1             6.00    15.99940      O( 1.00)
        H1             1.00     1.00794      H( 1.00)

     Starting magnetic structure 
     atomic species   magnetization
        Ti1          0.250
        O1           0.500
        H1           0.000

      2 Sym. Ops. (no inversion) found ( 1 have fractional translation)



   Cartesian axes

     site n.     atom                  positions (alat units)
         1           Ti1 tau(   1) = (   1.6476770   0.7437786   2.6545865  )
         2           O1  tau(   2) = (   1.6476770   2.2313359   3.9361215  )
         3           Ti1 tau(   3) = (   1.6476770   2.2313359   5.9499405  )
         4           O1  tau(   4) = (   0.3661420   0.7437786   5.9499405  )
         5           Ti1 tau(   5) = (   1.6423058   0.7993178   9.2289010  )
         6           O1  tau(   6) = (   1.6406404   2.2313359  10.4535548  )
         7           Ti1 tau(   7) = (   1.6373334   2.2313359  13.0586656  )
         8           O1  tau(   8) = (   0.3716334   0.7231912  12.7369480  )
         9           Ti1 tau(   9) = (   1.6476770   3.7188931   2.6545865  )
        10           O1  tau(  10) = (   1.6476770   5.2064503   3.9361215  )
        11           Ti1 tau(  11) = (   1.6476770   5.2064503   5.9499405  )
        12           O1  tau(  12) = (   0.3661420   3.7188931   5.9499405  )
        13           Ti1 tau(  13) = (   1.6423059   3.6633529   9.2289023  )
        14           O1  tau(  14) = (   1.6396028   5.2064504  10.5374954  )
        15           Ti1 tau(  15) = (   1.6366369   5.2064504  12.3426698  )
        16           O1  tau(  16) = (   0.3716333   3.7394800  12.7369475  )
        17           O1  tau(  17) = (   1.6476770   2.2313359   1.3730516  )
        18           Ti1 tau(  18) = (   4.9430310   2.2313359   2.6545865  )
        19           O1  tau(  19) = (   4.9430310   2.2313359   4.6684056  )
        20           O1  tau(  20) = (   6.2245660   0.7437786   2.6545865  )
        21           O1  tau(  21) = (   3.6614961   0.7437786   2.6545865  )
        22           Ti1 tau(  22) = (   4.9430310   0.7437786   5.9499405  )
        23           O1  tau(  23) = (   1.6444126   2.2313359   7.9291264  )
        24           O1  tau(  24) = (   4.9430310   2.2313359   7.2314755  )
        25           O1  tau(  25) = (   2.9292120   0.7437786   5.9499405  )
        26           Ti1 tau(  26) = (   4.9374203   2.2313360   9.4425711  )
        27           O1  tau(  27) = (   4.9384755   2.2313359  11.2756104  )
        28           O1  tau(  28) = (   6.2333856   0.7395591   9.2701299  )
        29           O1  tau(  29) = (   3.6424277   0.7403199   9.2676498  )
        30           Ti1 tau(  30) = (   4.9388558   0.7382018  12.7898683  )
        31           O1  tau(  31) = (   4.8884434   2.2313358  13.8602379  )
        32           O1  tau(  32) = (   2.8718067   0.7224686  12.6922084  )
        33           O1  tau(  33) = (   1.6476770   5.2064503   1.3730516  )
        34           Ti1 tau(  34) = (   4.9430310   5.2064503   2.6545865  )
        35           O1  tau(  35) = (   4.9430310   5.2064503   4.6684056  )
        36           O1  tau(  36) = (   6.2245660   3.7188931   2.6545865  )
        37           O1  tau(  37) = (   3.6614961   3.7188931   2.6545865  )
        38           Ti1 tau(  38) = (   4.9430310   3.7188931   5.9499405  )
        39           O1  tau(  39) = (   1.6444418   5.2064506   7.9393866  )
        40           O1  tau(  40) = (   4.9430310   5.2064503   7.2314755  )
        41           O1  tau(  41) = (   2.9292120   3.7188931   5.9499405  )
        42           Ti1 tau(  42) = (   4.9387790   5.2064503   9.4241858  )
        43           O1  tau(  43) = (   4.9379278   5.2064504  11.2756977  )
        44           O1  tau(  44) = (   6.2333855   3.7231127   9.2701299  )
        45           O1  tau(  45) = (   3.6424278   3.7223520   9.2676499  )
        46           Ti1 tau(  46) = (   4.9388558   3.7244696  12.7898683  )
        47           O1  tau(  47) = (   4.8902929   5.2064502  13.8618696  )
        48           O1  tau(  48) = (   2.8718066   3.7402036  12.6922086  )
        49           O1  tau(  49) = (   1.7618258   2.2313358  14.8494317  )
        50           H1  tau(  50) = (   2.6307197   2.2313366  15.3328018  )

     number of k points=    32  Fermi-Dirac smearing, width (Ry)=  0.0073
                       cart. coord. in units 2pi/alat
        k(    1) = (   0.0000000   0.0000000   0.0000000), wk =   0.0277778
        k(    2) = (   0.0000000   0.0280101   0.0000000), wk =   0.0555556
        k(    3) = (   0.0000000   0.0560203   0.0000000), wk =   0.0555556
        k(    4) = (   0.0000000  -0.0840304   0.0000000), wk =   0.0277778
        k(    5) = (   0.0252881   0.0000000   0.0000000), wk =   0.0555556
        k(    6) = (   0.0252881   0.0280101   0.0000000), wk =   0.1111111
        k(    7) = (   0.0252881   0.0560203   0.0000000), wk =   0.1111111
        k(    8) = (   0.0252881  -0.0840304   0.0000000), wk =   0.0555556
        k(    9) = (   0.0505763   0.0000000   0.0000000), wk =   0.0555556
        k(   10) = (   0.0505763   0.0280101   0.0000000), wk =   0.1111111
        k(   11) = (   0.0505763   0.0560203   0.0000000), wk =   0.1111111
        k(   12) = (   0.0505763  -0.0840304   0.0000000), wk =   0.0555556
        k(   13) = (  -0.0758644   0.0000000   0.0000000), wk =   0.0277778
        k(   14) = (  -0.0758644   0.0280101   0.0000000), wk =   0.0555556
        k(   15) = (  -0.0758644   0.0560203   0.0000000), wk =   0.0555556
        k(   16) = (  -0.0758644  -0.0840304   0.0000000), wk =   0.0277778
        k(   17) = (   0.0000000   0.0000000   0.0000000), wk =   0.0277778
        k(   18) = (   0.0000000   0.0280101   0.0000000), wk =   0.0555556
        k(   19) = (   0.0000000   0.0560203   0.0000000), wk =   0.0555556
        k(   20) = (   0.0000000  -0.0840304   0.0000000), wk =   0.0277778
        k(   21) = (   0.0252881   0.0000000   0.0000000), wk =   0.0555556
        k(   22) = (   0.0252881   0.0280101   0.0000000), wk =   0.1111111
        k(   23) = (   0.0252881   0.0560203   0.0000000), wk =   0.1111111
        k(   24) = (   0.0252881  -0.0840304   0.0000000), wk =   0.0555556
        k(   25) = (   0.0505763   0.0000000   0.0000000), wk =   0.0555556
        k(   26) = (   0.0505763   0.0280101   0.0000000), wk =   0.1111111
        k(   27) = (   0.0505763   0.0560203   0.0000000), wk =   0.1111111
        k(   28) = (   0.0505763  -0.0840304   0.0000000), wk =   0.0555556
        k(   29) = (  -0.0758644   0.0000000   0.0000000), wk =   0.0277778
        k(   30) = (  -0.0758644   0.0280101   0.0000000), wk =   0.0555556
        k(   31) = (  -0.0758644   0.0560203   0.0000000), wk =   0.0555556
        k(   32) = (  -0.0758644  -0.0840304   0.0000000), wk =   0.0277778

     Dense  grid:  1096637 G-vectors     FFT dimensions: (  80,  72, 375)

     Smooth grid:   277353 G-vectors     FFT dimensions: (  54,  45, 240)

     Largest allocated arrays     est. size (Mb)     dimensions
        Kohn-Sham Wavefunctions         9.81 Mb     (    2180,  295)
        NL pseudopotentials            18.43 Mb     (    2180,  554)
        Each V/rho on FFT grid          4.22 Mb     (  138240,   2)
        Each G-vector array             0.52 Mb     (   68538)
        G-vector shells                 0.25 Mb     (   33046)
     Largest temporary arrays     est. size (Mb)     dimensions
        Auxiliary wavefunctions        39.25 Mb     (    2180, 1180)
        Each subspace H/S matrix       21.25 Mb     (    1180, 1180)
        Each <psi_i|beta_j> matrix      2.49 Mb     (     554,  295)
        Arrays for rho mixing          21.09 Mb     (  138240,   10)

     Check: negative/imaginary core charge=   -0.000049    0.000000

     The initial density is read from file :
     ./calc.save/charge-density.dat


     negative rho (up, down):  1.350E-02 1.350E-02


     ************************************************************************
     *
     * You are using vdW-DF for exchange-correlation in this calculation.
     * Please cite the following three references that made this development
     * possible:
     *
     *   M. Dion, H. Rydberg, E. Schroder, D. C. Langreth, and
     *   B. I. Lundqvist, Phys. Rev. Lett. 92, 246401 (2004).
     *
     *   T. Thonhauser, V. R. Cooper, S. Li, A. Puzder, P. Hyldgaard, and
     *   D. C. Langreth, Phys. Rev. B 76, 125112 (2007).
     *
     *   G. Roman-Perez and J. M. Soler, Phys. Rev. Lett. 103, 096102 (2009).
     *
     *
     * If you are using vdW-DF2, please also cite:
     *
     *   K. Lee, E. D. Murray, L. Kong, B. I. Lundqvist, and
     *   D. C. Langreth, Phys. Rev. B 82, 081101(R) (2010).
     *
     *
     * If you are calculating the stress with vdW-DF, please also cite:
     *
     *   R. Sabatini, E. Kucukbenli, B. Kolb, T. Thonhauser, and
     *   S. de Gironcoli, J. Phys.: Condens. Matter 24, 424209 (2012).
     *
     ************************************************************************

     Carrying out vdW-DF run using the following parameters:

     Nqs =      20    Nr_points =    1024   r_max =   100.000
     q_mesh =
               0.00001000     0.04494208     0.09755937     0.15916263
               0.23128650     0.31572767     0.41458969     0.53033537
               0.66584808     0.82450364     1.01025438     1.22772762
               1.48234092     1.78043706     2.12944203     2.53805004
               3.01644009     3.57652955     4.23227104     5.00000000

     Gradients computed in reciprocal space

     ************************************************************************


     Starting wfc are  293 randomized atomic wfcs +    2 random wfc

     total cpu time spent up to now is       57.9 secs

     Self-consistent Calculation

     iteration #  1     ecut=    40.42 Ry     beta=0.10
     Davidson diagonalization with overlap
     c_bands:  1 eigenvalues not converged
     c_bands:  1 eigenvalues not converged
     ethr =  1.00E-05,  avg # of iterations = 16.9

     negative rho (up, down):  1.350E-02 1.350E-02
 
     Magnetic moment per site:
     atom:    1    charge:    3.1244    magn:   -0.0002    constr:    0.0000
     atom:    2    charge:    2.0634    magn:    0.0002    constr:    0.0000
     atom:    3    charge:    3.1200    magn:    0.0000    constr:    0.0000
     atom:    4    charge:    2.0623    magn:   -0.0000    constr:    0.0000
     atom:    5    charge:    3.1144    magn:    0.0001    constr:    0.0000
     atom:    6    charge:    2.0539    magn:   -0.0002    constr:    0.0000
     atom:    7    charge:    3.1168    magn:    0.0000    constr:    0.0000
     atom:    8    charge:    2.0567    magn:   -0.0001    constr:    0.0000
     atom:    9    charge:    3.1244    magn:   -0.0002    constr:    0.0000
     atom:   10    charge:    2.0636    magn:    0.0002    constr:    0.0000
     atom:   11    charge:    3.1198    magn:    0.0000    constr:    0.0000
     atom:   12    charge:    2.0623    magn:   -0.0000    constr:    0.0000
     atom:   13    charge:    3.1144    magn:    0.0001    constr:    0.0000
     atom:   14    charge:    2.0703    magn:   -0.0000    constr:    0.0000
     atom:   15    charge:    3.1165    magn:    0.0000    constr:    0.0000
     atom:   16    charge:    2.0567    magn:   -0.0001    constr:    0.0000
     atom:   17    charge:    2.0364    magn:    0.0011    constr:    0.0000
     atom:   18    charge:    3.1239    magn:    0.0000    constr:    0.0000
     atom:   19    charge:    2.0608    magn:    0.0000    constr:    0.0000
     atom:   20    charge:    2.0606    magn:    0.0000    constr:    0.0000
     atom:   21    charge:    2.0606    magn:    0.0000    constr:    0.0000
     atom:   22    charge:    3.1199    magn:    0.0000    constr:    0.0000
     atom:   23    charge:    2.0663    magn:   -0.0001    constr:    0.0000
     atom:   24    charge:    2.0503    magn:   -0.0002    constr:    0.0000
     atom:   25    charge:    2.0623    magn:   -0.0000    constr:    0.0000
     atom:   26    charge:    3.1143    magn:    0.0001    constr:    0.0000
     atom:   27    charge:    2.0576    magn:   -0.0003    constr:    0.0000
     atom:   28    charge:    2.0593    magn:   -0.0002    constr:    0.0000
     atom:   29    charge:    2.0596    magn:   -0.0002    constr:    0.0000
     atom:   30    charge:    3.1193    magn:    0.0000    constr:    0.0000
     atom:   31    charge:    2.0572    magn:   -0.0000    constr:    0.0000
     atom:   32    charge:    2.0569    magn:   -0.0001    constr:    0.0000
     atom:   33    charge:    2.0364    magn:    0.0011    constr:    0.0000
     atom:   34    charge:    3.1239    magn:    0.0000    constr:    0.0000
     atom:   35    charge:    2.0608    magn:    0.0000    constr:    0.0000
     atom:   36    charge:    2.0606    magn:    0.0000    constr:    0.0000
     atom:   37    charge:    2.0606    magn:    0.0000    constr:    0.0000
     atom:   38    charge:    3.1199    magn:    0.0000    constr:    0.0000
     atom:   39    charge:    2.0563    magn:   -0.0001    constr:    0.0000
     atom:   40    charge:    2.0508    magn:   -0.0002    constr:    0.0000
     atom:   41    charge:    2.0623    magn:   -0.0000    constr:    0.0000
     atom:   42    charge:    3.1217    magn:    0.0001    constr:    0.0000
     atom:   43    charge:    2.0573    magn:   -0.0003    constr:    0.0000
     atom:   44    charge:    2.0593    magn:   -0.0002    constr:    0.0000
     atom:   45    charge:    2.0596    magn:   -0.0002    constr:    0.0000
     atom:   46    charge:    3.1193    magn:    0.0000    constr:    0.0000
     atom:   47    charge:    2.0568    magn:   -0.0001    constr:    0.0000
     atom:   48    charge:    2.0569    magn:   -0.0001    constr:    0.0000
     atom:   49    charge:    2.0647    magn:    0.0000    constr:    0.0000
     atom:   50    charge:    0.3959    magn:   -0.0000    constr:    0.0000

     total cpu time spent up to now is      800.9 secs

     total energy              =   -3005.52863004 Ry
     Harris-Foulkes estimate   =   -3005.52952206 Ry
     estimated scf accuracy    <       0.00572603 Ry

     total magnetization       =     0.00 Bohr mag/cell
     absolute magnetization    =     0.01 Bohr mag/cell

     iteration #  2     ecut=    40.42 Ry     beta=0.10
     Davidson diagonalization with overlap
     ethr =  1.46E-06,  avg # of iterations =  2.4

     negative rho (up, down):  1.350E-02 1.350E-02
 
     Magnetic moment per site:
     atom:    1    charge:    3.1244    magn:   -0.0002    constr:    0.0000
     atom:    2    charge:    2.0634    magn:    0.0002    constr:    0.0000
     atom:    3    charge:    3.1200    magn:    0.0000    constr:    0.0000
     atom:    4    charge:    2.0623    magn:   -0.0000    constr:    0.0000
     atom:    5    charge:    3.1144    magn:    0.0001    constr:    0.0000
     atom:    6    charge:    2.0540    magn:   -0.0002    constr:    0.0000
     atom:    7    charge:    3.1169    magn:    0.0000    constr:    0.0000
     atom:    8    charge:    2.0568    magn:   -0.0001    constr:    0.0000
     atom:    9    charge:    3.1244    magn:   -0.0002    constr:    0.0000
     atom:   10    charge:    2.0635    magn:    0.0002    constr:    0.0000
     atom:   11    charge:    3.1198    magn:    0.0000    constr:    0.0000
     atom:   12    charge:    2.0623    magn:   -0.0000    constr:    0.0000
     atom:   13    charge:    3.1144    magn:    0.0001    constr:    0.0000
     atom:   14    charge:    2.0704    magn:   -0.0000    constr:    0.0000
     atom:   15    charge:    3.1165    magn:    0.0000    constr:    0.0000
     atom:   16    charge:    2.0568    magn:   -0.0001    constr:    0.0000
     atom:   17    charge:    2.0360    magn:    0.0011    constr:    0.0000
     atom:   18    charge:    3.1239    magn:    0.0000    constr:    0.0000
     atom:   19    charge:    2.0608    magn:    0.0000    constr:    0.0000
     atom:   20    charge:    2.0606    magn:    0.0000    constr:    0.0000
     atom:   21    charge:    2.0606    magn:    0.0000    constr:    0.0000
     atom:   22    charge:    3.1199    magn:    0.0000    constr:    0.0000
     atom:   23    charge:    2.0663    magn:   -0.0001    constr:    0.0000
     atom:   24    charge:    2.0504    magn:   -0.0002    constr:    0.0000
     atom:   25    charge:    2.0623    magn:   -0.0000    constr:    0.0000
     atom:   26    charge:    3.1143    magn:    0.0001    constr:    0.0000
     atom:   27    charge:    2.0577    magn:   -0.0003    constr:    0.0000
     atom:   28    charge:    2.0593    magn:   -0.0002    constr:    0.0000
     atom:   29    charge:    2.0597    magn:   -0.0002    constr:    0.0000
     atom:   30    charge:    3.1193    magn:    0.0000    constr:    0.0000
     atom:   31    charge:    2.0573    magn:   -0.0000    constr:    0.0000
     atom:   32    charge:    2.0570    magn:   -0.0001    constr:    0.0000
     atom:   33    charge:    2.0360    magn:    0.0011    constr:    0.0000
     atom:   34    charge:    3.1239    magn:    0.0000    constr:    0.0000
     atom:   35    charge:    2.0608    magn:    0.0000    constr:    0.0000
     atom:   36    charge:    2.0606    magn:    0.0000    constr:    0.0000
     atom:   37    charge:    2.0606    magn:    0.0000    constr:    0.0000
     atom:   38    charge:    3.1199    magn:    0.0000    constr:    0.0000
     atom:   39    charge:    2.0563    magn:   -0.0001    constr:    0.0000
     atom:   40    charge:    2.0508    magn:   -0.0002    constr:    0.0000
     atom:   41    charge:    2.0623    magn:   -0.0000    constr:    0.0000
     atom:   42    charge:    3.1217    magn:    0.0001    constr:    0.0000
     atom:   43    charge:    2.0574    magn:   -0.0002    constr:    0.0000
     atom:   44    charge:    2.0593    magn:   -0.0002    constr:    0.0000
     atom:   45    charge:    2.0597    magn:   -0.0002    constr:    0.0000
     atom:   46    charge:    3.1193    magn:    0.0000    constr:    0.0000
     atom:   47    charge:    2.0569    magn:   -0.0001    constr:    0.0000
     atom:   48    charge:    2.0570    magn:   -0.0001    constr:    0.0000
     atom:   49    charge:    2.0635    magn:    0.0000    constr:    0.0000
     atom:   50    charge:    0.3959    magn:   -0.0000    constr:    0.0000

     total cpu time spent up to now is      973.9 secs

     total energy              =   -3005.52851693 Ry
     Harris-Foulkes estimate   =   -3005.52893350 Ry
     estimated scf accuracy    <       0.00382411 Ry

     total magnetization       =     0.00 Bohr mag/cell
     absolute magnetization    =     0.01 Bohr mag/cell

     iteration #  3     ecut=    40.42 Ry     beta=0.10
     Davidson diagonalization with overlap
     ethr =  9.78E-07,  avg # of iterations =  1.2

     negative rho (up, down):  1.350E-02 1.350E-02
 
     Magnetic moment per site:
     atom:    1    charge:    3.1244    magn:   -0.0002    constr:    0.0000
     atom:    2    charge:    2.0634    magn:    0.0002    constr:    0.0000
     atom:    3    charge:    3.1200    magn:    0.0000    constr:    0.0000
     atom:    4    charge:    2.0623    magn:   -0.0000    constr:    0.0000
     atom:    5    charge:    3.1144    magn:    0.0001    constr:    0.0000
     atom:    6    charge:    2.0539    magn:   -0.0002    constr:    0.0000
     atom:    7    charge:    3.1169    magn:    0.0000    constr:    0.0000
     atom:    8    charge:    2.0568    magn:   -0.0001    constr:    0.0000
     atom:    9    charge:    3.1244    magn:   -0.0002    constr:    0.0000
     atom:   10    charge:    2.0635    magn:    0.0002    constr:    0.0000
     atom:   11    charge:    3.1198    magn:    0.0000    constr:    0.0000
     atom:   12    charge:    2.0623    magn:   -0.0000    constr:    0.0000
     atom:   13    charge:    3.1144    magn:    0.0001    constr:    0.0000
     atom:   14    charge:    2.0703    magn:   -0.0000    constr:    0.0000
     atom:   15    charge:    3.1166    magn:    0.0000    constr:    0.0000
     atom:   16    charge:    2.0568    magn:   -0.0001    constr:    0.0000
     atom:   17    charge:    2.0363    magn:    0.0010    constr:    0.0000
     atom:   18    charge:    3.1239    magn:    0.0000    constr:    0.0000
     atom:   19    charge:    2.0607    magn:    0.0000    constr:    0.0000
     atom:   20    charge:    2.0606    magn:    0.0000    constr:    0.0000
     atom:   21    charge:    2.0606    magn:    0.0000    constr:    0.0000
     atom:   22    charge:    3.1199    magn:    0.0000    constr:    0.0000
     atom:   23    charge:    2.0663    magn:   -0.0001    constr:    0.0000
     atom:   24    charge:    2.0503    magn:   -0.0002    constr:    0.0000
     atom:   25    charge:    2.0623    magn:   -0.0000    constr:    0.0000
     atom:   26    charge:    3.1143    magn:    0.0001    constr:    0.0000
     atom:   27    charge:    2.0576    magn:   -0.0003    constr:    0.0000
     atom:   28    charge:    2.0593    magn:   -0.0002    constr:    0.0000
     atom:   29    charge:    2.0596    magn:   -0.0002    constr:    0.0000
     atom:   30    charge:    3.1193    magn:    0.0000    constr:    0.0000
     atom:   31    charge:    2.0574    magn:   -0.0000    constr:    0.0000
     atom:   32    charge:    2.0570    magn:   -0.0001    constr:    0.0000
     atom:   33    charge:    2.0362    magn:    0.0010    constr:    0.0000
     atom:   34    charge:    3.1239    magn:    0.0000    constr:    0.0000
     atom:   35    charge:    2.0608    magn:    0.0000    constr:    0.0000
     atom:   36    charge:    2.0606    magn:    0.0000    constr:    0.0000
     atom:   37    charge:    2.0606    magn:    0.0000    constr:    0.0000
     atom:   38    charge:    3.1199    magn:    0.0000    constr:    0.0000
     atom:   39    charge:    2.0563    magn:   -0.0001    constr:    0.0000
     atom:   40    charge:    2.0507    magn:   -0.0002    constr:    0.0000
     atom:   41    charge:    2.0623    magn:   -0.0000    constr:    0.0000
     atom:   42    charge:    3.1217    magn:    0.0001    constr:    0.0000
     atom:   43    charge:    2.0574    magn:   -0.0002    constr:    0.0000
     atom:   44    charge:    2.0593    magn:   -0.0002    constr:    0.0000
     atom:   45    charge:    2.0596    magn:   -0.0002    constr:    0.0000
     atom:   46    charge:    3.1193    magn:    0.0000    constr:    0.0000
     atom:   47    charge:    2.0570    magn:   -0.0001    constr:    0.0000
     atom:   48    charge:    2.0570    magn:   -0.0001    constr:    0.0000
     atom:   49    charge:    2.0614    magn:    0.0000    constr:    0.0000
     atom:   50    charge:    0.3959    magn:   -0.0000    constr:    0.0000

     total cpu time spent up to now is     1128.8 secs

     total energy              =   -3005.52847183 Ry
     Harris-Foulkes estimate   =   -3005.52886688 Ry
     estimated scf accuracy    <       0.00493805 Ry

     total magnetization       =     0.00 Bohr mag/cell
     absolute magnetization    =     0.01 Bohr mag/cell

     iteration #  4     ecut=    40.42 Ry     beta=0.10
     Davidson diagonalization with overlap
     ethr =  9.78E-07,  avg # of iterations =  2.0

     negative rho (up, down):  1.349E-02 1.349E-02
 
     Magnetic moment per site:
     atom:    1    charge:    3.1244    magn:   -0.0002    constr:    0.0000
     atom:    2    charge:    2.0634    magn:    0.0002    constr:    0.0000
     atom:    3    charge:    3.1200    magn:    0.0000    constr:    0.0000
     atom:    4    charge:    2.0623    magn:   -0.0000    constr:    0.0000
     atom:    5    charge:    3.1144    magn:    0.0001    constr:    0.0000
     atom:    6    charge:    2.0539    magn:   -0.0002    constr:    0.0000
     atom:    7    charge:    3.1166    magn:    0.0000    constr:    0.0000
     atom:    8    charge:    2.0568    magn:   -0.0001    constr:    0.0000
     atom:    9    charge:    3.1244    magn:   -0.0002    constr:    0.0000
     atom:   10    charge:    2.0635    magn:    0.0002    constr:    0.0000
     atom:   11    charge:    3.1198    magn:    0.0000    constr:    0.0000
     atom:   12    charge:    2.0623    magn:   -0.0000    constr:    0.0000
     atom:   13    charge:    3.1144    magn:    0.0001    constr:    0.0000
     atom:   14    charge:    2.0703    magn:   -0.0000    constr:    0.0000
     atom:   15    charge:    3.1165    magn:    0.0000    constr:    0.0000
     atom:   16    charge:    2.0568    magn:   -0.0001    constr:    0.0000
     atom:   17    charge:    2.0362    magn:    0.0010    constr:    0.0000
     atom:   18    charge:    3.1239    magn:    0.0000    constr:    0.0000
     atom:   19    charge:    2.0608    magn:    0.0000    constr:    0.0000
     atom:   20    charge:    2.0606    magn:    0.0000    constr:    0.0000
     atom:   21    charge:    2.0606    magn:    0.0000    constr:    0.0000
     atom:   22    charge:    3.1199    magn:    0.0000    constr:    0.0000
     atom:   23    charge:    2.0663    magn:   -0.0001    constr:    0.0000
     atom:   24    charge:    2.0503    magn:   -0.0002    constr:    0.0000
     atom:   25    charge:    2.0623    magn:   -0.0000    constr:    0.0000
     atom:   26    charge:    3.1143    magn:    0.0001    constr:    0.0000
     atom:   27    charge:    2.0576    magn:   -0.0002    constr:    0.0000
     atom:   28    charge:    2.0593    magn:   -0.0002    constr:    0.0000
     atom:   29    charge:    2.0596    magn:   -0.0002    constr:    0.0000
     atom:   30    charge:    3.1193    magn:    0.0000    constr:    0.0000
     atom:   31    charge:    2.0574    magn:   -0.0000    constr:    0.0000
     atom:   32    charge:    2.0569    magn:   -0.0001    constr:    0.0000
     atom:   33    charge:    2.0362    magn:    0.0010    constr:    0.0000
     atom:   34    charge:    3.1239    magn:    0.0000    constr:    0.0000
     atom:   35    charge:    2.0608    magn:    0.0000    constr:    0.0000
     atom:   36    charge:    2.0606    magn:    0.0000    constr:    0.0000
     atom:   37    charge:    2.0606    magn:    0.0000    constr:    0.0000
     atom:   38    charge:    3.1199    magn:    0.0000    constr:    0.0000
     atom:   39    charge:    2.0563    magn:   -0.0001    constr:    0.0000
     atom:   40    charge:    2.0508    magn:   -0.0002    constr:    0.0000
     atom:   41    charge:    2.0623    magn:   -0.0000    constr:    0.0000
     atom:   42    charge:    3.1217    magn:    0.0001    constr:    0.0000
     atom:   43    charge:    2.0573    magn:   -0.0002    constr:    0.0000
     atom:   44    charge:    2.0593    magn:   -0.0002    constr:    0.0000
     atom:   45    charge:    2.0596    magn:   -0.0002    constr:    0.0000
     atom:   46    charge:    3.1193    magn:    0.0000    constr:    0.0000
     atom:   47    charge:    2.0570    magn:   -0.0001    constr:    0.0000
     atom:   48    charge:    2.0569    magn:   -0.0001    constr:    0.0000
     atom:   49    charge:    2.0609    magn:    0.0000    constr:    0.0000
     atom:   50    charge:    0.3958    magn:   -0.0000    constr:    0.0000

     total cpu time spent up to now is     1295.3 secs

     total energy              =   -3005.52860209 Ry
     Harris-Foulkes estimate   =   -3005.52863297 Ry
     estimated scf accuracy    <       0.00037745 Ry

     total magnetization       =     0.00 Bohr mag/cell
     absolute magnetization    =     0.01 Bohr mag/cell

     iteration #  5     ecut=    40.42 Ry     beta=0.10
     Davidson diagonalization with overlap
     ethr =  9.65E-08,  avg # of iterations =  2.0

     negative rho (up, down):  1.349E-02 1.349E-02
 
     Magnetic moment per site:
     atom:    1    charge:    3.1244    magn:   -0.0002    constr:    0.0000
     atom:    2    charge:    2.0634    magn:    0.0002    constr:    0.0000
     atom:    3    charge:    3.1200    magn:    0.0000    constr:    0.0000
     atom:    4    charge:    2.0623    magn:   -0.0000    constr:    0.0000
     atom:    5    charge:    3.1144    magn:    0.0000    constr:    0.0000
     atom:    6    charge:    2.0539    magn:   -0.0001    constr:    0.0000
     atom:    7    charge:    3.1162    magn:    0.0000    constr:    0.0000
     atom:    8    charge:    2.0568    magn:   -0.0001    constr:    0.0000
     atom:    9    charge:    3.1244    magn:   -0.0002    constr:    0.0000
     atom:   10    charge:    2.0635    magn:    0.0002    constr:    0.0000
     atom:   11    charge:    3.1198    magn:    0.0000    constr:    0.0000
     atom:   12    charge:    2.0623    magn:   -0.0000    constr:    0.0000
     atom:   13    charge:    3.1144    magn:    0.0000    constr:    0.0000
     atom:   14    charge:    2.0703    magn:   -0.0000    constr:    0.0000
     atom:   15    charge:    3.1165    magn:    0.0000    constr:    0.0000
     atom:   16    charge:    2.0568    magn:   -0.0001    constr:    0.0000
     atom:   17    charge:    2.0362    magn:    0.0009    constr:    0.0000
     atom:   18    charge:    3.1239    magn:    0.0000    constr:    0.0000
     atom:   19    charge:    2.0608    magn:    0.0000    constr:    0.0000
     atom:   20    charge:    2.0606    magn:    0.0000    constr:    0.0000
     atom:   21    charge:    2.0606    magn:    0.0000    constr:    0.0000
     atom:   22    charge:    3.1199    magn:    0.0000    constr:    0.0000
     atom:   23    charge:    2.0663    magn:   -0.0001    constr:    0.0000
     atom:   24    charge:    2.0503    magn:   -0.0001    constr:    0.0000
     atom:   25    charge:    2.0623    magn:   -0.0000    constr:    0.0000
     atom:   26    charge:    3.1143    magn:    0.0001    constr:    0.0000
     atom:   27    charge:    2.0576    magn:   -0.0002    constr:    0.0000
     atom:   28    charge:    2.0593    magn:   -0.0002    constr:    0.0000
     atom:   29    charge:    2.0596    magn:   -0.0002    constr:    0.0000
     atom:   30    charge:    3.1193    magn:    0.0000    constr:    0.0000
     atom:   31    charge:    2.0572    magn:   -0.0000    constr:    0.0000
     atom:   32    charge:    2.0568    magn:   -0.0001    constr:    0.0000
     atom:   33    charge:    2.0362    magn:    0.0009    constr:    0.0000
     atom:   34    charge:    3.1239    magn:    0.0000    constr:    0.0000
     atom:   35    charge:    2.0608    magn:    0.0000    constr:    0.0000
     atom:   36    charge:    2.0606    magn:    0.0000    constr:    0.0000
     atom:   37    charge:    2.0606    magn:    0.0000    constr:    0.0000
     atom:   38    charge:    3.1199    magn:    0.0000    constr:    0.0000
     atom:   39    charge:    2.0563    magn:   -0.0001    constr:    0.0000
     atom:   40    charge:    2.0508    magn:   -0.0002    constr:    0.0000
     atom:   41    charge:    2.0623    magn:   -0.0000    constr:    0.0000
     atom:   42    charge:    3.1217    magn:    0.0001    constr:    0.0000
     atom:   43    charge:    2.0574    magn:   -0.0002    constr:    0.0000
     atom:   44    charge:    2.0593    magn:   -0.0002    constr:    0.0000
     atom:   45    charge:    2.0596    magn:   -0.0002    constr:    0.0000
     atom:   46    charge:    3.1193    magn:    0.0000    constr:    0.0000
     atom:   47    charge:    2.0568    magn:   -0.0001    constr:    0.0000
     atom:   48    charge:    2.0568    magn:   -0.0001    constr:    0.0000
     atom:   49    charge:    2.0611    magn:    0.0000    constr:    0.0000
     atom:   50    charge:    0.3955    magn:   -0.0000    constr:    0.0000

     total cpu time spent up to now is     1462.3 secs

     total energy              =   -3005.52859728 Ry
     Harris-Foulkes estimate   =   -3005.52861195 Ry
     estimated scf accuracy    <       0.00021576 Ry

     total magnetization       =     0.00 Bohr mag/cell
     absolute magnetization    =     0.01 Bohr mag/cell

     iteration #  6     ecut=    40.42 Ry     beta=0.10
     Davidson diagonalization with overlap
     ethr =  5.52E-08,  avg # of iterations =  2.0

     negative rho (up, down):  1.349E-02 1.349E-02
 
     Magnetic moment per site:
     atom:    1    charge:    3.1244    magn:   -0.0001    constr:    0.0000
     atom:    2    charge:    2.0634    magn:    0.0002    constr:    0.0000
     atom:    3    charge:    3.1200    magn:    0.0000    constr:    0.0000
     atom:    4    charge:    2.0623    magn:   -0.0000    constr:    0.0000
     atom:    5    charge:    3.1144    magn:    0.0000    constr:    0.0000
     atom:    6    charge:    2.0540    magn:   -0.0001    constr:    0.0000
     atom:    7    charge:    3.1161    magn:    0.0000    constr:    0.0000
     atom:    8    charge:    2.0567    magn:   -0.0000    constr:    0.0000
     atom:    9    charge:    3.1244    magn:   -0.0001    constr:    0.0000
     atom:   10    charge:    2.0635    magn:    0.0002    constr:    0.0000
     atom:   11    charge:    3.1198    magn:    0.0000    constr:    0.0000
     atom:   12    charge:    2.0623    magn:   -0.0000    constr:    0.0000
     atom:   13    charge:    3.1144    magn:    0.0000    constr:    0.0000
     atom:   14    charge:    2.0704    magn:   -0.0000    constr:    0.0000
     atom:   15    charge:    3.1165    magn:    0.0000    constr:    0.0000
     atom:   16    charge:    2.0567    magn:   -0.0000    constr:    0.0000
     atom:   17    charge:    2.0362    magn:    0.0008    constr:    0.0000
     atom:   18    charge:    3.1239    magn:   -0.0000    constr:    0.0000
     atom:   19    charge:    2.0608    magn:    0.0000    constr:    0.0000
     atom:   20    charge:    2.0606    magn:    0.0000    constr:    0.0000
     atom:   21    charge:    2.0606    magn:    0.0000    constr:    0.0000
     atom:   22    charge:    3.1199    magn:    0.0000    constr:    0.0000
     atom:   23    charge:    2.0663    magn:   -0.0000    constr:    0.0000
     atom:   24    charge:    2.0503    magn:   -0.0001    constr:    0.0000
     atom:   25    charge:    2.0623    magn:   -0.0000    constr:    0.0000
     atom:   26    charge:    3.1144    magn:    0.0001    constr:    0.0000
     atom:   27    charge:    2.0577    magn:   -0.0002    constr:    0.0000
     atom:   28    charge:    2.0593    magn:   -0.0001    constr:    0.0000
     atom:   29    charge:    2.0596    magn:   -0.0001    constr:    0.0000
     atom:   30    charge:    3.1193    magn:    0.0000    constr:    0.0000
     atom:   31    charge:    2.0568    magn:   -0.0000    constr:    0.0000
     atom:   32    charge:    2.0567    magn:   -0.0000    constr:    0.0000
     atom:   33    charge:    2.0362    magn:    0.0008    constr:    0.0000
     atom:   34    charge:    3.1239    magn:   -0.0000    constr:    0.0000
     atom:   35    charge:    2.0608    magn:    0.0000    constr:    0.0000
     atom:   36    charge:    2.0606    magn:    0.0000    constr:    0.0000
     atom:   37    charge:    2.0606    magn:    0.0000    constr:    0.0000
     atom:   38    charge:    3.1199    magn:    0.0000    constr:    0.0000
     atom:   39    charge:    2.0563    magn:   -0.0001    constr:    0.0000
     atom:   40    charge:    2.0507    magn:   -0.0001    constr:    0.0000
     atom:   41    charge:    2.0623    magn:   -0.0000    constr:    0.0000
     atom:   42    charge:    3.1217    magn:    0.0001    constr:    0.0000
     atom:   43    charge:    2.0574    magn:   -0.0002    constr:    0.0000
     atom:   44    charge:    2.0593    magn:   -0.0001    constr:    0.0000
     atom:   45    charge:    2.0596    magn:   -0.0001    constr:    0.0000
     atom:   46    charge:    3.1193    magn:    0.0000    constr:    0.0000
     atom:   47    charge:    2.0566    magn:   -0.0000    constr:    0.0000
     atom:   48    charge:    2.0567    magn:   -0.0000    constr:    0.0000
     atom:   49    charge:    2.0619    magn:    0.0000    constr:    0.0000
     atom:   50    charge:    0.3952    magn:   -0.0000    constr:    0.0000

     total cpu time spent up to now is     1628.8 secs

     total energy              =   -3005.52860174 Ry
     Harris-Foulkes estimate   =   -3005.52860391 Ry
     estimated scf accuracy    <       0.00008951 Ry

     total magnetization       =     0.00 Bohr mag/cell
     absolute magnetization    =     0.01 Bohr mag/cell

     iteration #  7     ecut=    40.42 Ry     beta=0.10
     Davidson diagonalization with overlap
     ethr =  2.29E-08,  avg # of iterations =  2.0

     negative rho (up, down):  1.349E-02 1.349E-02
 
     Magnetic moment per site:
     atom:    1    charge:    3.1244    magn:   -0.0001    constr:    0.0000
     atom:    2    charge:    2.0634    magn:    0.0001    constr:    0.0000
     atom:    3    charge:    3.1200    magn:   -0.0000    constr:    0.0000
     atom:    4    charge:    2.0623    magn:   -0.0000    constr:    0.0000
     atom:    5    charge:    3.1144    magn:    0.0000    constr:    0.0000
     atom:    6    charge:    2.0540    magn:   -0.0001    constr:    0.0000
     atom:    7    charge:    3.1162    magn:    0.0000    constr:    0.0000
     atom:    8    charge:    2.0567    magn:   -0.0000    constr:    0.0000
     atom:    9    charge:    3.1244    magn:   -0.0001    constr:    0.0000
     atom:   10    charge:    2.0635    magn:    0.0001    constr:    0.0000
     atom:   11    charge:    3.1198    magn:    0.0000    constr:    0.0000
     atom:   12    charge:    2.0623    magn:   -0.0000    constr:    0.0000
     atom:   13    charge:    3.1144    magn:    0.0000    constr:    0.0000
     atom:   14    charge:    2.0703    magn:   -0.0000    constr:    0.0000
     atom:   15    charge:    3.1165    magn:    0.0000    constr:    0.0000
     atom:   16    charge:    2.0567    magn:   -0.0000    constr:    0.0000
     atom:   17    charge:    2.0362    magn:    0.0007    constr:    0.0000
     atom:   18    charge:    3.1239    magn:   -0.0000    constr:    0.0000
     atom:   19    charge:    2.0608    magn:    0.0000    constr:    0.0000
     atom:   20    charge:    2.0606    magn:    0.0000    constr:    0.0000
     atom:   21    charge:    2.0606    magn:    0.0000    constr:    0.0000
     atom:   22    charge:    3.1199    magn:    0.0000    constr:    0.0000
     atom:   23    charge:    2.0663    magn:   -0.0000    constr:    0.0000
     atom:   24    charge:    2.0503    magn:   -0.0001    constr:    0.0000
     atom:   25    charge:    2.0623    magn:   -0.0000    constr:    0.0000
     atom:   26    charge:    3.1143    magn:    0.0000    constr:    0.0000
     atom:   27    charge:    2.0577    magn:   -0.0002    constr:    0.0000
     atom:   28    charge:    2.0593    magn:   -0.0001    constr:    0.0000
     atom:   29    charge:    2.0596    magn:   -0.0001    constr:    0.0000
     atom:   30    charge:    3.1193    magn:    0.0000    constr:    0.0000
     atom:   31    charge:    2.0568    magn:   -0.0000    constr:    0.0000
     atom:   32    charge:    2.0567    magn:   -0.0000    constr:    0.0000
     atom:   33    charge:    2.0362    magn:    0.0007    constr:    0.0000
     atom:   34    charge:    3.1239    magn:   -0.0000    constr:    0.0000
     atom:   35    charge:    2.0608    magn:    0.0000    constr:    0.0000
     atom:   36    charge:    2.0606    magn:    0.0000    constr:    0.0000
     atom:   37    charge:    2.0606    magn:    0.0000    constr:    0.0000
     atom:   38    charge:    3.1199    magn:    0.0000    constr:    0.0000
     atom:   39    charge:    2.0563    magn:   -0.0001    constr:    0.0000
     atom:   40    charge:    2.0507    magn:   -0.0001    constr:    0.0000
     atom:   41    charge:    2.0623    magn:   -0.0000    constr:    0.0000
     atom:   42    charge:    3.1217    magn:    0.0000    constr:    0.0000
     atom:   43    charge:    2.0574    magn:   -0.0001    constr:    0.0000
     atom:   44    charge:    2.0593    magn:   -0.0001    constr:    0.0000
     atom:   45    charge:    2.0596    magn:   -0.0001    constr:    0.0000
     atom:   46    charge:    3.1193    magn:    0.0000    constr:    0.0000
     atom:   47    charge:    2.0567    magn:   -0.0000    constr:    0.0000
     atom:   48    charge:    2.0567    magn:   -0.0000    constr:    0.0000
     atom:   49    charge:    2.0623    magn:    0.0000    constr:    0.0000
     atom:   50    charge:    0.3951    magn:   -0.0000    constr:    0.0000

     total cpu time spent up to now is     1796.6 secs

     total energy              =   -3005.52860667 Ry
     Harris-Foulkes estimate   =   -3005.52860634 Ry
     estimated scf accuracy    <       0.00002508 Ry

     total magnetization       =     0.00 Bohr mag/cell
     absolute magnetization    =     0.01 Bohr mag/cell

     iteration #  8     ecut=    40.42 Ry     beta=0.10
     Davidson diagonalization with overlap
     ethr =  6.41E-09,  avg # of iterations =  2.0

     negative rho (up, down):  1.349E-02 1.349E-02
 
     Magnetic moment per site:
     atom:    1    charge:    3.1244    magn:   -0.0001    constr:    0.0000
     atom:    2    charge:    2.0634    magn:    0.0001    constr:    0.0000
     atom:    3    charge:    3.1200    magn:   -0.0000    constr:    0.0000
     atom:    4    charge:    2.0623    magn:   -0.0000    constr:    0.0000
     atom:    5    charge:    3.1144    magn:    0.0000    constr:    0.0000
     atom:    6    charge:    2.0539    magn:   -0.0001    constr:    0.0000
     atom:    7    charge:    3.1163    magn:    0.0000    constr:    0.0000
     atom:    8    charge:    2.0568    magn:   -0.0000    constr:    0.0000
     atom:    9    charge:    3.1244    magn:   -0.0001    constr:    0.0000
     atom:   10    charge:    2.0635    magn:    0.0001    constr:    0.0000
     atom:   11    charge:    3.1198    magn:    0.0000    constr:    0.0000
     atom:   12    charge:    2.0623    magn:   -0.0000    constr:    0.0000
     atom:   13    charge:    3.1144    magn:    0.0000    constr:    0.0000
     atom:   14    charge:    2.0703    magn:   -0.0000    constr:    0.0000
     atom:   15    charge:    3.1165    magn:    0.0000    constr:    0.0000
     atom:   16    charge:    2.0568    magn:   -0.0000    constr:    0.0000
     atom:   17    charge:    2.0362    magn:    0.0007    constr:    0.0000
     atom:   18    charge:    3.1239    magn:   -0.0000    constr:    0.0000
     atom:   19    charge:    2.0608    magn:    0.0000    constr:    0.0000
     atom:   20    charge:    2.0606    magn:    0.0000    constr:    0.0000
     atom:   21    charge:    2.0606    magn:    0.0000    constr:    0.0000
     atom:   22    charge:    3.1199    magn:    0.0000    constr:    0.0000
     atom:   23    charge:    2.0663    magn:   -0.0000    constr:    0.0000
     atom:   24    charge:    2.0503    magn:   -0.0001    constr:    0.0000
     atom:   25    charge:    2.0623    magn:   -0.0000    constr:    0.0000
     atom:   26    charge:    3.1143    magn:    0.0000    constr:    0.0000
     atom:   27    charge:    2.0576    magn:   -0.0001    constr:    0.0000
     atom:   28    charge:    2.0593    magn:   -0.0001    constr:    0.0000
     atom:   29    charge:    2.0596    magn:   -0.0001    constr:    0.0000
     atom:   30    charge:    3.1193    magn:    0.0000    constr:    0.0000
     atom:   31    charge:    2.0569    magn:   -0.0000    constr:    0.0000
     atom:   32    charge:    2.0568    magn:   -0.0000    constr:    0.0000
     atom:   33    charge:    2.0362    magn:    0.0007    constr:    0.0000
     atom:   34    charge:    3.1239    magn:   -0.0000    constr:    0.0000
     atom:   35    charge:    2.0608    magn:    0.0000    constr:    0.0000
     atom:   36    charge:    2.0606    magn:    0.0000    constr:    0.0000
     atom:   37    charge:    2.0606    magn:    0.0000    constr:    0.0000
     atom:   38    charge:    3.1199    magn:    0.0000    constr:    0.0000
     atom:   39    charge:    2.0563    magn:   -0.0001    constr:    0.0000
     atom:   40    charge:    2.0508    magn:   -0.0001    constr:    0.0000
     atom:   41    charge:    2.0623    magn:   -0.0000    constr:    0.0000
     atom:   42    charge:    3.1217    magn:    0.0000    constr:    0.0000
     atom:   43    charge:    2.0574    magn:   -0.0001    constr:    0.0000
     atom:   44    charge:    2.0593    magn:   -0.0001    constr:    0.0000
     atom:   45    charge:    2.0596    magn:   -0.0001    constr:    0.0000
     atom:   46    charge:    3.1193    magn:    0.0000    constr:    0.0000
     atom:   47    charge:    2.0567    magn:   -0.0000    constr:    0.0000
     atom:   48    charge:    2.0568    magn:   -0.0000    constr:    0.0000
     atom:   49    charge:    2.0626    magn:    0.0000    constr:    0.0000
     atom:   50    charge:    0.3950    magn:   -0.0000    constr:    0.0000

     total cpu time spent up to now is     1963.2 secs

     total energy              =   -3005.52860773 Ry
     Harris-Foulkes estimate   =   -3005.52860802 Ry
     estimated scf accuracy    <       0.00000746 Ry

     total magnetization       =     0.00 Bohr mag/cell
     absolute magnetization    =     0.01 Bohr mag/cell

     iteration #  9     ecut=    40.42 Ry     beta=0.10
     Davidson diagonalization with overlap
     ethr =  1.91E-09,  avg # of iterations =  2.0

     negative rho (up, down):  1.349E-02 1.349E-02
 
     Magnetic moment per site:
     atom:    1    charge:    3.1244    magn:   -0.0001    constr:    0.0000
     atom:    2    charge:    2.0634    magn:    0.0001    constr:    0.0000
     atom:    3    charge:    3.1200    magn:   -0.0000    constr:    0.0000
     atom:    4    charge:    2.0623    magn:   -0.0000    constr:    0.0000
     atom:    5    charge:    3.1144    magn:    0.0000    constr:    0.0000
     atom:    6    charge:    2.0539    magn:   -0.0001    constr:    0.0000
     atom:    7    charge:    3.1163    magn:    0.0000    constr:    0.0000
     atom:    8    charge:    2.0568    magn:   -0.0000    constr:    0.0000
     atom:    9    charge:    3.1244    magn:   -0.0001    constr:    0.0000
     atom:   10    charge:    2.0635    magn:    0.0001    constr:    0.0000
     atom:   11    charge:    3.1198    magn:    0.0000    constr:    0.0000
     atom:   12    charge:    2.0623    magn:   -0.0000    constr:    0.0000
     atom:   13    charge:    3.1144    magn:    0.0000    constr:    0.0000
     atom:   14    charge:    2.0703    magn:   -0.0000    constr:    0.0000
     atom:   15    charge:    3.1165    magn:    0.0000    constr:    0.0000
     atom:   16    charge:    2.0568    magn:   -0.0000    constr:    0.0000
     atom:   17    charge:    2.0362    magn:    0.0006    constr:    0.0000
     atom:   18    charge:    3.1239    magn:   -0.0000    constr:    0.0000
     atom:   19    charge:    2.0607    magn:    0.0000    constr:    0.0000
     atom:   20    charge:    2.0606    magn:    0.0000    constr:    0.0000
     atom:   21    charge:    2.0606    magn:    0.0000    constr:    0.0000
     atom:   22    charge:    3.1199    magn:    0.0000    constr:    0.0000
     atom:   23    charge:    2.0663    magn:   -0.0000    constr:    0.0000
     atom:   24    charge:    2.0503    magn:   -0.0001    constr:    0.0000
     atom:   25    charge:    2.0623    magn:   -0.0000    constr:    0.0000
     atom:   26    charge:    3.1143    magn:    0.0000    constr:    0.0000
     atom:   27    charge:    2.0576    magn:   -0.0001    constr:    0.0000
     atom:   28    charge:    2.0593    magn:   -0.0001    constr:    0.0000
     atom:   29    charge:    2.0596    magn:   -0.0001    constr:    0.0000
     atom:   30    charge:    3.1193    magn:    0.0000    constr:    0.0000
     atom:   31    charge:    2.0570    magn:   -0.0000    constr:    0.0000
     atom:   32    charge:    2.0568    magn:   -0.0000    constr:    0.0000
     atom:   33    charge:    2.0362    magn:    0.0006    constr:    0.0000
     atom:   34    charge:    3.1239    magn:   -0.0000    constr:    0.0000
     atom:   35    charge:    2.0608    magn:    0.0000    constr:    0.0000
     atom:   36    charge:    2.0606    magn:    0.0000    constr:    0.0000
     atom:   37    charge:    2.0606    magn:    0.0000    constr:    0.0000
     atom:   38    charge:    3.1199    magn:    0.0000    constr:    0.0000
     atom:   39    charge:    2.0563    magn:   -0.0001    constr:    0.0000
     atom:   40    charge:    2.0508    magn:   -0.0001    constr:    0.0000
     atom:   41    charge:    2.0623    magn:   -0.0000    constr:    0.0000
     atom:   42    charge:    3.1217    magn:    0.0000    constr:    0.0000
     atom:   43    charge:    2.0574    magn:   -0.0001    constr:    0.0000
     atom:   44    charge:    2.0593    magn:   -0.0001    constr:    0.0000
     atom:   45    charge:    2.0596    magn:   -0.0001    constr:    0.0000
     atom:   46    charge:    3.1193    magn:    0.0000    constr:    0.0000
     atom:   47    charge:    2.0568    magn:   -0.0000    constr:    0.0000
     atom:   48    charge:    2.0568    magn:   -0.0000    constr:    0.0000
     atom:   49    charge:    2.0627    magn:    0.0000    constr:    0.0000
     atom:   50    charge:    0.3950    magn:   -0.0000    constr:    0.0000

     total cpu time spent up to now is     2131.0 secs

     total energy              =   -3005.52860791 Ry
     Harris-Foulkes estimate   =   -3005.52860838 Ry
     estimated scf accuracy    <       0.00000490 Ry

     total magnetization       =     0.00 Bohr mag/cell
     absolute magnetization    =     0.01 Bohr mag/cell

     iteration # 10     ecut=    40.42 Ry     beta=0.10
     Davidson diagonalization with overlap
     ethr =  1.25E-09,  avg # of iterations =  2.0

     negative rho (up, down):  1.350E-02 1.349E-02
 
     Magnetic moment per site:
     atom:    1    charge:    3.1244    magn:   -0.0001    constr:    0.0000
     atom:    2    charge:    2.0634    magn:    0.0001    constr:    0.0000
     atom:    3    charge:    3.1200    magn:   -0.0000    constr:    0.0000
     atom:    4    charge:    2.0623    magn:   -0.0000    constr:    0.0000
     atom:    5    charge:    3.1144    magn:    0.0000    constr:    0.0000
     atom:    6    charge:    2.0539    magn:   -0.0001    constr:    0.0000
     atom:    7    charge:    3.1163    magn:    0.0000    constr:    0.0000
     atom:    8    charge:    2.0568    magn:   -0.0000    constr:    0.0000
     atom:    9    charge:    3.1244    magn:   -0.0001    constr:    0.0000
     atom:   10    charge:    2.0635    magn:    0.0001    constr:    0.0000
     atom:   11    charge:    3.1198    magn:    0.0000    constr:    0.0000
     atom:   12    charge:    2.0623    magn:   -0.0000    constr:    0.0000
     atom:   13    charge:    3.1144    magn:    0.0000    constr:    0.0000
     atom:   14    charge:    2.0703    magn:   -0.0000    constr:    0.0000
     atom:   15    charge:    3.1165    magn:    0.0000    constr:    0.0000
     atom:   16    charge:    2.0568    magn:   -0.0000    constr:    0.0000
     atom:   17    charge:    2.0362    magn:    0.0006    constr:    0.0000
     atom:   18    charge:    3.1239    magn:   -0.0000    constr:    0.0000
     atom:   19    charge:    2.0608    magn:    0.0000    constr:    0.0000
     atom:   20    charge:    2.0606    magn:    0.0000    constr:    0.0000
     atom:   21    charge:    2.0606    magn:    0.0000    constr:    0.0000
     atom:   22    charge:    3.1199    magn:    0.0000    constr:    0.0000
     atom:   23    charge:    2.0663    magn:   -0.0000    constr:    0.0000
     atom:   24    charge:    2.0503    magn:   -0.0001    constr:    0.0000
     atom:   25    charge:    2.0623    magn:   -0.0000    constr:    0.0000
     atom:   26    charge:    3.1143    magn:    0.0000    constr:    0.0000
     atom:   27    charge:    2.0576    magn:   -0.0001    constr:    0.0000
     atom:   28    charge:    2.0593    magn:   -0.0001    constr:    0.0000
     atom:   29    charge:    2.0596    magn:   -0.0001    constr:    0.0000
     atom:   30    charge:    3.1193    magn:    0.0000    constr:    0.0000
     atom:   31    charge:    2.0570    magn:   -0.0000    constr:    0.0000
     atom:   32    charge:    2.0568    magn:   -0.0000    constr:    0.0000
     atom:   33    charge:    2.0362    magn:    0.0006    constr:    0.0000
     atom:   34    charge:    3.1239    magn:   -0.0000    constr:    0.0000
     atom:   35    charge:    2.0608    magn:    0.0000    constr:    0.0000
     atom:   36    charge:    2.0606    magn:    0.0000    constr:    0.0000
     atom:   37    charge:    2.0606    magn:    0.0000    constr:    0.0000
     atom:   38    charge:    3.1199    magn:    0.0000    constr:    0.0000
     atom:   39    charge:    2.0563    magn:   -0.0000    constr:    0.0000
     atom:   40    charge:    2.0508    magn:   -0.0001    constr:    0.0000
     atom:   41    charge:    2.0623    magn:   -0.0000    constr:    0.0000
     atom:   42    charge:    3.1217    magn:    0.0000    constr:    0.0000
     atom:   43    charge:    2.0574    magn:   -0.0001    constr:    0.0000
     atom:   44    charge:    2.0593    magn:   -0.0001    constr:    0.0000
     atom:   45    charge:    2.0596    magn:   -0.0001    constr:    0.0000
     atom:   46    charge:    3.1193    magn:    0.0000    constr:    0.0000
     atom:   47    charge:    2.0568    magn:   -0.0000    constr:    0.0000
     atom:   48    charge:    2.0568    magn:   -0.0000    constr:    0.0000
     atom:   49    charge:    2.0627    magn:   -0.0000    constr:    0.0000
     atom:   50    charge:    0.3950    magn:   -0.0000    constr:    0.0000

     total cpu time spent up to now is     2299.6 secs

     total energy              =   -3005.52860823 Ry
     Harris-Foulkes estimate   =   -3005.52860829 Ry
     estimated scf accuracy    <       0.00000135 Ry

     total magnetization       =     0.00 Bohr mag/cell
     absolute magnetization    =     0.01 Bohr mag/cell

     iteration # 11     ecut=    40.42 Ry     beta=0.10
     Davidson diagonalization with overlap
     ethr =  3.45E-10,  avg # of iterations =  2.0

     negative rho (up, down):  1.350E-02 1.349E-02
 
     Magnetic moment per site:
     atom:    1    charge:    3.1244    magn:   -0.0001    constr:    0.0000
     atom:    2    charge:    2.0634    magn:    0.0001    constr:    0.0000
     atom:    3    charge:    3.1200    magn:   -0.0000    constr:    0.0000
     atom:    4    charge:    2.0623    magn:    0.0000    constr:    0.0000
     atom:    5    charge:    3.1144    magn:    0.0000    constr:    0.0000
     atom:    6    charge:    2.0539    magn:   -0.0000    constr:    0.0000
     atom:    7    charge:    3.1163    magn:    0.0000    constr:    0.0000
     atom:    8    charge:    2.0568    magn:   -0.0000    constr:    0.0000
     atom:    9    charge:    3.1244    magn:   -0.0001    constr:    0.0000
     atom:   10    charge:    2.0635    magn:    0.0001    constr:    0.0000
     atom:   11    charge:    3.1198    magn:   -0.0000    constr:    0.0000
     atom:   12    charge:    2.0623    magn:    0.0000    constr:    0.0000
     atom:   13    charge:    3.1144    magn:    0.0000    constr:    0.0000
     atom:   14    charge:    2.0703    magn:   -0.0000    constr:    0.0000
     atom:   15    charge:    3.1165    magn:    0.0000    constr:    0.0000
     atom:   16    charge:    2.0568    magn:   -0.0000    constr:    0.0000
     atom:   17    charge:    2.0362    magn:    0.0004    constr:    0.0000
     atom:   18    charge:    3.1239    magn:   -0.0000    constr:    0.0000
     atom:   19    charge:    2.0608    magn:    0.0000    constr:    0.0000
     atom:   20    charge:    2.0606    magn:    0.0000    constr:    0.0000
     atom:   21    charge:    2.0606    magn:    0.0000    constr:    0.0000
     atom:   22    charge:    3.1199    magn:    0.0000    constr:    0.0000
     atom:   23    charge:    2.0663    magn:   -0.0000    constr:    0.0000
     atom:   24    charge:    2.0503    magn:   -0.0000    constr:    0.0000
     atom:   25    charge:    2.0623    magn:    0.0000    constr:    0.0000
     atom:   26    charge:    3.1143    magn:    0.0000    constr:    0.0000
     atom:   27    charge:    2.0576    magn:   -0.0001    constr:    0.0000
     atom:   28    charge:    2.0593    magn:   -0.0001    constr:    0.0000
     atom:   29    charge:    2.0596    magn:   -0.0001    constr:    0.0000
     atom:   30    charge:    3.1193    magn:    0.0000    constr:    0.0000
     atom:   31    charge:    2.0570    magn:   -0.0000    constr:    0.0000
     atom:   32    charge:    2.0568    magn:   -0.0000    constr:    0.0000
     atom:   33    charge:    2.0362    magn:    0.0004    constr:    0.0000
     atom:   34    charge:    3.1239    magn:   -0.0000    constr:    0.0000
     atom:   35    charge:    2.0608    magn:    0.0000    constr:    0.0000
     atom:   36    charge:    2.0606    magn:    0.0000    constr:    0.0000
     atom:   37    charge:    2.0606    magn:    0.0000    constr:    0.0000
     atom:   38    charge:    3.1199    magn:    0.0000    constr:    0.0000
     atom:   39    charge:    2.0563    magn:   -0.0000    constr:    0.0000
     atom:   40    charge:    2.0507    magn:   -0.0000    constr:    0.0000
     atom:   41    charge:    2.0623    magn:    0.0000    constr:    0.0000
     atom:   42    charge:    3.1217    magn:    0.0000    constr:    0.0000
     atom:   43    charge:    2.0574    magn:   -0.0001    constr:    0.0000
     atom:   44    charge:    2.0593    magn:   -0.0001    constr:    0.0000
     atom:   45    charge:    2.0596    magn:   -0.0001    constr:    0.0000
     atom:   46    charge:    3.1193    magn:    0.0000    constr:    0.0000
     atom:   47    charge:    2.0568    magn:   -0.0000    constr:    0.0000
     atom:   48    charge:    2.0568    magn:   -0.0000    constr:    0.0000
     atom:   49    charge:    2.0627    magn:   -0.0000    constr:    0.0000
     atom:   50    charge:    0.3950    magn:   -0.0000    constr:    0.0000

     total cpu time spent up to now is     2469.3 secs

     End of self-consistent calculation

 ------ SPIN UP ------------


          k = 0.0000 0.0000 0.0000 ( 34665 PWs)   bands (ev):

   -58.5084 -58.4733 -57.5972 -57.5676 -57.5615 -57.4850 -57.4716 -57.4320
   -57.3278 -57.3002 -57.2665 -57.2309 -57.1210 -57.0858 -57.0186 -56.9807
   -34.9532 -34.7773 -34.7485 -34.7146 -34.6197 -34.5628 -34.0964 -34.0522
   -34.0139 -33.8711 -33.8502 -33.7917 -33.7708 -33.7646 -33.7552 -33.7463
   -33.7407 -33.7193 -33.7032 -33.6970 -33.6944 -33.6732 -33.6629 -33.6584
   -33.6524 -33.6368 -33.6356 -33.5883 -33.5528 -33.5522 -33.5397 -33.5008
   -33.4991 -33.4922 -33.4619 -33.4486 -33.4363 -33.4356 -33.4101 -33.3875
   -33.3394 -33.2959 -33.2511 -33.2497 -33.2316 -33.2076 -33.1480 -33.0999
   -18.6720 -18.2490 -18.0905 -18.0033 -17.9139 -17.7447 -17.7319 -17.6237
   -17.5939 -17.5704 -17.4594 -17.2627 -17.2211 -17.2145 -17.1502 -17.0522
   -17.0323 -17.0099 -16.9418 -16.9004 -16.8503 -16.8152 -16.8109 -16.7862
   -16.6929 -16.6305 -16.6170 -16.5121 -16.4987 -16.3523 -16.2888 -15.8011
   -15.7407  -6.2501  -5.8828  -5.6951  -5.4988  -5.4168  -5.3148  -5.1896
    -5.1658  -5.0804  -4.9490  -4.8576  -4.8021  -4.7893  -4.7173  -4.6429
    -4.6146  -4.5460  -4.5325  -4.4196  -4.4166  -4.3626  -4.3449  -4.2507
    -4.2263  -4.1723  -4.1096  -4.0963  -4.0904  -4.0783  -3.9964  -3.9802
    -3.9119  -3.8396  -3.8337  -3.7449  -3.7356  -3.7301  -3.6214  -3.6204
    -3.5854  -3.4730  -3.4512  -3.4110  -3.2998  -3.1293  -3.0923  -3.0382
    -2.9736  -2.9602  -2.8979  -2.8853  -2.8791  -2.7672  -2.7534  -2.7379
    -2.6470  -2.5940  -2.5081  -2.4341  -2.4306  -2.3947  -2.3379  -2.2897
    -2.2347  -2.1752  -2.1725  -2.1238  -2.0808  -2.0764  -1.9297  -1.8458
    -1.8304  -1.8255  -1.8159  -1.7118  -1.6243  -1.5684  -1.5565  -1.5247
    -1.5202  -1.5029  -1.4522  -1.3687  -1.3480  -1.3253  -1.3112  -1.2862
    -1.2789  -1.1594  -1.0698  -0.9871  -0.9548  -0.8837  -0.8729  -0.8203
    -0.7536  -0.7186  -0.6682  -0.3742   0.8232   0.9205   1.2135   1.4962
     1.6037   1.6898   1.7193   1.8118   1.8438   1.9227   1.9544   2.0215
     2.0280   2.1727   2.1871   2.2589   2.2842   2.3133   2.3933   2.4172
     2.4653   2.4713   2.5090   2.5223   2.6027   2.6275   2.6726   2.7188
     2.7490   2.7504   2.8001   2.8300   2.8569   2.8764   2.8852   2.9953
     3.0104   3.0349   3.2073   3.2120   3.2391   3.2508   3.3486   3.4078
     3.4464   3.5007   3.5943   3.7451   3.8776   3.8923   4.0784   4.2712
     4.4023   4.4817   4.5045   4.6475   4.7925   4.9252   4.9618   5.0634
     5.1883   5.2017   5.2319   5.2471   5.3335   5.3379   5.3447   5.4586
     5.4788   5.5268   5.6919   5.7107   5.7856   5.8798   5.9051   5.9103
     5.9994   6.0425   6.2254   6.2894   6.3439   6.4057   6.5812   6.6101
     7.1034   7.7728   7.9910   8.0149   8.1753   8.2211   8.5756   8.7194
     8.7956   9.0641   9.1813   9.2246   9.3436   9.4628   9.6044

          k = 0.0000 0.0280 0.0000 ( 34717 PWs)   bands (ev):

   -58.5060 -58.4757 -57.5948 -57.5668 -57.5638 -57.4859 -57.4695 -57.4341
   -57.3262 -57.3019 -57.2643 -57.2332 -57.1187 -57.0881 -57.0161 -56.9833
   -34.9278 -34.7753 -34.7504 -34.7084 -34.6262 -34.5899 -34.0709 -34.0269
   -33.9907 -33.8651 -33.8440 -33.7880 -33.7731 -33.7645 -33.7437 -33.7433
   -33.7401 -33.7306 -33.7035 -33.6975 -33.6907 -33.6856 -33.6796 -33.6678
   -33.6498 -33.6403 -33.6320 -33.5848 -33.5726 -33.5260 -33.5149 -33.5057
   -33.4952 -33.4897 -33.4603 -33.4495 -33.4402 -33.4381 -33.4292 -33.4138
   -33.3335 -33.2924 -33.2559 -33.2497 -33.2329 -33.2125 -33.1754 -33.1285
   -18.6137 -18.1898 -18.0816 -17.9591 -17.8837 -17.8086 -17.7012 -17.5809
   -17.5756 -17.5390 -17.4901 -17.3147 -17.1923 -17.1920 -17.1410 -17.0834
   -16.9909 -16.9848 -16.9714 -16.9320 -16.8704 -16.8275 -16.8154 -16.7855
   -16.7063 -16.6558 -16.6209 -16.5401 -16.5314 -16.3720 -16.3289 -15.8152
   -15.7662  -6.1647  -5.8815  -5.6109  -5.4190  -5.3455  -5.2448  -5.1389
    -5.1095  -5.0106  -4.9324  -4.8720  -4.8603  -4.7331  -4.7263  -4.6296
    -4.5913  -4.5650  -4.5166  -4.4611  -4.3996  -4.3896  -4.3810  -4.3138
    -4.2693  -4.2136  -4.1918  -4.1765  -4.1675  -4.1231  -4.0441  -4.0022
    -3.9570  -3.9196  -3.9005  -3.7857  -3.6463  -3.6230  -3.5477  -3.5090
    -3.5015  -3.4689  -3.3464  -3.3196  -3.1502  -3.1162  -3.0846  -3.0098
    -2.9449  -2.9409  -2.9203  -2.9031  -2.8623  -2.7507  -2.7185  -2.6718
    -2.6585  -2.6175  -2.4696  -2.4579  -2.4095  -2.3933  -2.3569  -2.3267
    -2.2257  -2.1917  -2.1332  -2.1301  -2.1112  -2.0318  -1.9662  -1.9594
    -1.9145  -1.8292  -1.7720  -1.7656  -1.7113  -1.6766  -1.6334  -1.5892
    -1.5691  -1.5644  -1.5017  -1.4711  -1.4346  -1.3775  -1.3657  -1.2564
    -1.1932  -1.1429  -1.1149  -1.0798  -1.0362  -1.0124  -0.9258  -0.8040
    -0.7737  -0.7490  -0.7325  -0.4157   0.9559   0.9604   1.2149   1.6256
     1.6843   1.6911   1.7235   1.8006   1.8073   1.8845   2.0208   2.0905
     2.0990   2.1993   2.2685   2.2895   2.3163   2.3246   2.3404   2.3603
     2.4503   2.4912   2.5101   2.6164   2.6182   2.6575   2.6762   2.7358
     2.7792   2.7873   2.7916   2.8037   2.8576   2.8773   2.9398   2.9637
     2.9870   3.0491   3.1930   3.2364   3.2666   3.3018   3.3420   3.3543
     3.4252   3.4473   3.5553   3.6941   3.8340   3.9602   4.0368   4.3316
     4.4961   4.5059   4.5141   4.7211   4.8089   4.9659   5.0119   5.0841
     5.1012   5.1974   5.2322   5.2926   5.3220   5.3337   5.4357   5.4406
     5.4884   5.4960   5.6083   5.6726   5.7307   5.8044   5.8235   5.8918
     5.9274   6.0378   6.1954   6.2314   6.2486   6.3791   6.5431   6.6264
     7.2219   7.2723   7.7559   8.0902   8.2073   8.3311   8.5753   8.7227
     8.8442   8.9798   9.1723   9.2486   9.3344   9.3514   9.5076

          k = 0.0000 0.0560 0.0000 ( 34721 PWs)   bands (ev):

   -58.4997 -58.4821 -57.5884 -57.5706 -57.5646 -57.4879 -57.4642 -57.4394
   -57.3221 -57.3060 -57.2583 -57.2392 -57.1122 -57.0946 -57.0092 -56.9902
   -34.8580 -34.7701 -34.7556 -34.6913 -34.6630 -34.6438 -34.0007 -33.9583
   -33.9309 -33.8489 -33.8272 -33.8042 -33.7921 -33.7816 -33.7792 -33.7534
   -33.7438 -33.7400 -33.7070 -33.6987 -33.6807 -33.6783 -33.6758 -33.6674
   -33.6513 -33.6495 -33.6140 -33.6083 -33.5748 -33.5173 -33.4906 -33.4843
   -33.4809 -33.4800 -33.4698 -33.4556 -33.4523 -33.4456 -33.4428 -33.4331
   -33.3173 -33.2894 -33.2724 -33.2493 -33.2458 -33.2365 -33.2250 -33.1989
   -18.4525 -18.0773 -18.0197 -17.9923 -17.8340 -17.8010 -17.6158 -17.5927
   -17.5737 -17.4773 -17.4578 -17.4205 -17.2423 -17.1395 -17.1125 -17.1003
   -17.0398 -16.9947 -16.9288 -16.9147 -16.8949 -16.8608 -16.7815 -16.7659
   -16.7299 -16.7249 -16.6403 -16.6237 -16.5954 -16.4359 -16.4099 -15.8439
   -15.8200  -5.9253  -5.8796  -5.3774  -5.2466  -5.1989  -5.1588  -5.0593
    -5.0487  -5.0154  -4.9583  -4.9364  -4.7508  -4.7124  -4.6798  -4.5981
    -4.5919  -4.5497  -4.5452  -4.5085  -4.4945  -4.4366  -4.4223  -4.4156
    -4.3924  -4.3277  -4.2677  -4.2201  -4.1771  -4.1438  -4.1032  -4.0347
    -4.0202  -3.8629  -3.7534  -3.6112  -3.6043  -3.5832  -3.4846  -3.4656
    -3.3636  -3.2864  -3.2780  -3.2538  -3.2166  -3.1619  -3.1526  -3.0384
    -2.9966  -2.9460  -2.8913  -2.8645  -2.7832  -2.6824  -2.6759  -2.6297
    -2.5105  -2.4985  -2.4934  -2.4240  -2.3715  -2.3548  -2.3344  -2.3241
    -2.2674  -2.2540  -2.2213  -2.1891  -2.1696  -2.1476  -2.0677  -2.0652
    -2.0547  -1.9945  -1.8787  -1.8094  -1.7866  -1.7667  -1.7464  -1.6940
    -1.6564  -1.6543  -1.6278  -1.5802  -1.5576  -1.4755  -1.4266  -1.3733
    -1.2866  -1.1903  -1.1671  -1.1360  -1.0445  -1.0387  -0.9142  -0.9101
    -0.8175  -0.7807  -0.7557  -0.5190   1.0839   1.2263   1.2988   1.5208
     1.5969   1.6902   1.7576   1.8667   1.9494   2.0570   2.0771   2.0980
     2.1595   2.2228   2.2560   2.2985   2.3429   2.4156   2.4252   2.4700
     2.5168   2.5285   2.5674   2.6307   2.6355   2.6674   2.6800   2.7188
     2.7596   2.7652   2.8152   2.8547   2.8914   2.9231   2.9638   3.0219
     3.0672   3.0683   3.1509   3.1783   3.2057   3.2605   3.2809   3.3536
     3.4540   3.4649   3.5049   3.5775   3.7021   3.9258   4.0918   4.4692
     4.5417   4.5539   4.6678   4.8288   4.8778   4.9229   5.0821   5.1062
     5.1564   5.1907   5.2377   5.2937   5.3149   5.3567   5.3823   5.4244
     5.4417   5.5283   5.5860   5.6241   5.6413   5.6607   5.6728   5.7196
     5.9000   5.9766   6.0927   6.2049   6.2446   6.2697   6.5562   6.5681
     6.8377   7.1467   7.5697   7.6063   8.1320   8.3917   8.6541   8.6724
     8.8064   9.0145   9.2039   9.3657   9.5951   9.6764   9.7069

          k = 0.0000-0.0840 0.0000 ( 34678 PWs)   bands (ev):

   -58.4917 -58.4900 -57.5796 -57.5793 -57.5636 -57.4890 -57.4605 -57.4431
   -57.3188 -57.3093 -57.2528 -57.2447 -57.1034 -57.1034 -57.0006 -56.9989
   -34.7639 -34.7624 -34.7614 -34.7604 -34.6683 -34.6668 -33.9041 -33.9031
   -33.8859 -33.8832 -33.8344 -33.8253 -33.8076 -33.8041 -33.8040 -33.7750
   -33.7728 -33.7384 -33.6994 -33.6964 -33.6915 -33.6717 -33.6694 -33.6580
   -33.6495 -33.6239 -33.5838 -33.5810 -33.5794 -33.5522 -33.5371 -33.5247
   -33.4811 -33.4713 -33.4659 -33.4658 -33.4492 -33.4491 -33.3487 -33.3483
   -33.3478 -33.3380 -33.2951 -33.2948 -33.2419 -33.2413 -33.2384 -33.2315
   -18.2275 -18.2265 -18.0715 -17.8042 -17.7882 -17.7110 -17.6876 -17.6876
   -17.6179 -17.4539 -17.3987 -17.2890 -17.2844 -17.2546 -17.2032 -17.0316
   -17.0072 -17.0039 -17.0035 -16.8406 -16.8235 -16.8233 -16.8160 -16.7833
   -16.7379 -16.6891 -16.6870 -16.6780 -16.6725 -16.4741 -16.4561 -15.8534
   -15.8534  -5.8791  -5.5857  -5.5857  -5.0892  -5.0881  -5.0630  -5.0533
    -4.9718  -4.9694  -4.9132  -4.8769  -4.8370  -4.7966  -4.7423  -4.6848
    -4.6798  -4.6483  -4.6078  -4.5881  -4.4707  -4.4682  -4.4091  -4.4050
    -4.3278  -4.2769  -4.2207  -4.1846  -4.1044  -4.0885  -3.9872  -3.9844
    -3.8956  -3.8722  -3.8570  -3.8299  -3.6093  -3.5521  -3.4750  -3.4617
    -3.2798  -3.2728  -3.2510  -3.1489  -3.1261  -3.1193  -3.0391  -3.0366
    -2.9745  -2.9643  -2.9126  -2.8722  -2.8434  -2.7412  -2.6886  -2.6355
    -2.6057  -2.5895  -2.5829  -2.5502  -2.4605  -2.4025  -2.3628  -2.2624
    -2.2602  -2.1928  -2.1831  -2.1822  -2.1813  -2.1771  -2.1310  -1.9950
    -1.9947  -1.9476  -1.9237  -1.9090  -1.8451  -1.7639  -1.7524  -1.7185
    -1.7131  -1.6599  -1.6416  -1.6289  -1.6197  -1.5771  -1.5238  -1.3803
    -1.3507  -1.3180  -1.2942  -1.2512  -1.0448  -0.9922  -0.8146  -0.8050
    -0.7965  -0.7915  -0.7182  -0.6937   1.2819   1.2835   1.4329   1.4333
     1.5130   1.5142   1.8811   1.8831   1.9433   1.9836   2.1373   2.2164
     2.2497   2.2628   2.2816   2.3193   2.3961   2.4451   2.4571   2.4624
     2.4958   2.5215   2.5814   2.5971   2.6173   2.7433   2.7499   2.7632
     2.7966   2.8143   2.8189   2.8236   2.8261   2.9408   3.0146   3.0307
     3.0412   3.0843   3.1403   3.1518   3.1906   3.2023   3.2973   3.3074
     3.4440   3.5119   3.5397   3.5592   3.5798   3.8347   4.1520   4.5732
     4.6117   4.6411   4.6649   4.6658   4.9434   4.9652   5.1032   5.1308
     5.1477   5.1928   5.2547   5.2695   5.3573   5.3766   5.4161   5.4665
     5.4765   5.5041   5.5047   5.5104   5.5672   5.6034   5.6483   5.7258
     5.8341   5.9068   6.0632   6.1894   6.2820   6.3106   6.4691   6.6167
     6.8120   6.8660   7.3747   7.4038   8.1096   8.1380   8.8821   9.0246
     9.1762   9.1782   9.2381   9.4003   9.4647   9.5232   9.7046

          k = 0.0253 0.0000 0.0000 ( 34707 PWs)   bands (ev):

   -58.5084 -58.4733 -57.5971 -57.5677 -57.5615 -57.4850 -57.4716 -57.4320
   -57.3278 -57.3002 -57.2666 -57.2309 -57.1210 -57.0858 -57.0186 -56.9807
   -34.9536 -34.7773 -34.7485 -34.7139 -34.6197 -34.5629 -34.0966 -34.0543
   -34.0140 -33.8627 -33.8501 -33.7918 -33.7750 -33.7623 -33.7557 -33.7529
   -33.7408 -33.7203 -33.7031 -33.6989 -33.6890 -33.6732 -33.6630 -33.6584
   -33.6526 -33.6350 -33.6321 -33.5868 -33.5533 -33.5528 -33.5396 -33.5051
   -33.4996 -33.4919 -33.4631 -33.4486 -33.4358 -33.4355 -33.4102 -33.3876
   -33.3394 -33.2959 -33.2538 -33.2497 -33.2304 -33.2077 -33.1481 -33.1000
   -18.6275 -18.2120 -18.0837 -17.9925 -17.9817 -17.7598 -17.6510 -17.5936
   -17.5932 -17.5674 -17.5235 -17.3030 -17.2591 -17.1968 -17.1572 -17.1099
   -17.0548 -16.9612 -16.9446 -16.9388 -16.8377 -16.8108 -16.7987 -16.7316
   -16.6850 -16.6603 -16.6176 -16.5376 -16.4962 -16.3506 -16.2888 -15.8000
   -15.7406  -6.1253  -5.8806  -5.5915  -5.4295  -5.4059  -5.2763  -5.2489
    -5.1747  -5.0571  -4.9514  -4.9048  -4.7859  -4.7851  -4.7180  -4.6952
    -4.6228  -4.5247  -4.4617  -4.4502  -4.3990  -4.3602  -4.3008  -4.2255
    -4.2207  -4.1765  -4.1323  -4.1123  -4.0541  -4.0396  -4.0006  -3.8563
    -3.8396  -3.8009  -3.7558  -3.7237  -3.7206  -3.6708  -3.6200  -3.5374
    -3.5059  -3.4797  -3.4714  -3.4661  -3.3593  -3.2147  -3.0894  -3.0397
    -3.0243  -2.9644  -2.9562  -2.9148  -2.8423  -2.8173  -2.7593  -2.7586
    -2.7242  -2.6148  -2.5971  -2.5072  -2.4696  -2.4306  -2.3970  -2.2734
    -2.2306  -2.2099  -2.1323  -2.0707  -2.0434  -2.0372  -1.9489  -1.8493
    -1.8193  -1.7613  -1.7612  -1.7084  -1.6897  -1.6610  -1.6298  -1.5557
    -1.5457  -1.5189  -1.4771  -1.4358  -1.4093  -1.3612  -1.3063  -1.2863
    -1.2503  -1.2049  -1.1330  -1.0878  -1.0291  -0.9914  -0.8545  -0.8405
    -0.8085  -0.7882  -0.7542  -0.4354   0.9057   0.9200   1.2126   1.5748
     1.6179   1.7126   1.7283   1.8102   1.8556   1.9318   1.9924   1.9949
     2.1260   2.1292   2.2038   2.2740   2.2799   2.3176   2.3968   2.4267
     2.4748   2.4914   2.5381   2.5908   2.6227   2.6274   2.6468   2.6801
     2.7189   2.7499   2.8150   2.8694   2.8952   2.9324   2.9908   3.0023
     3.0208   3.0989   3.1930   3.2078   3.2267   3.3199   3.3637   3.3845
     3.4817   3.5433   3.5463   3.6981   3.8282   3.9429   4.0208   4.2244
     4.3816   4.4315   4.5212   4.6231   4.7325   4.7717   4.8388   4.8544
     5.0672   5.1152   5.2318   5.3432   5.4324   5.5106   5.5415   5.6887
     5.6956   5.7192   5.7434   5.7909   5.8389   5.8404   5.8442   5.9935
     5.9972   6.0171   6.2414   6.2975   6.3439   6.4568   6.5517   6.5855
     7.1566   7.5641   7.6507   7.9783   8.0411   8.1604   8.2646   8.5804
     8.6597   8.9538   9.0842   9.3184   9.5339   9.5927   9.9259

          k = 0.0253 0.0280 0.0000 ( 34687 PWs)   bands (ev):

   -58.5060 -58.4757 -57.5948 -57.5668 -57.5638 -57.4860 -57.4695 -57.4341
   -57.3262 -57.3019 -57.2643 -57.2332 -57.1187 -57.0881 -57.0161 -56.9833
   -34.9282 -34.7754 -34.7504 -34.7076 -34.6261 -34.5899 -34.0711 -34.0292
   -33.9908 -33.8570 -33.8440 -33.7881 -33.7698 -33.7648 -33.7505 -33.7482
   -33.7402 -33.7303 -33.7044 -33.7002 -33.6858 -33.6854 -33.6791 -33.6678
   -33.6499 -33.6344 -33.6316 -33.5833 -33.5726 -33.5282 -33.5148 -33.5030
   -33.5008 -33.4894 -33.4612 -33.4494 -33.4404 -33.4376 -33.4293 -33.4137
   -33.3335 -33.2925 -33.2558 -33.2520 -33.2319 -33.2125 -33.1754 -33.1285
   -18.5701 -18.1548 -18.0768 -17.9750 -17.9376 -17.7230 -17.7176 -17.5736
   -17.5661 -17.5316 -17.5247 -17.3207 -17.2745 -17.1737 -17.1367 -17.0913
   -17.0309 -16.9892 -16.9470 -16.9311 -16.8768 -16.8642 -16.7701 -16.7586
   -16.7032 -16.6809 -16.6217 -16.5606 -16.5324 -16.3705 -16.3290 -15.8142
   -15.7663  -6.0403  -5.8792  -5.5080  -5.3557  -5.3311  -5.1933  -5.1776
    -5.1171  -5.0054  -4.8984  -4.8815  -4.8406  -4.7408  -4.7018  -4.6459
    -4.6119  -4.5148  -4.4846  -4.4443  -4.3867  -4.3750  -4.3433  -4.3200
    -4.2909  -4.2581  -4.1973  -4.1531  -4.1273  -4.0989  -4.0084  -3.9806
    -3.9264  -3.8702  -3.8238  -3.7548  -3.6156  -3.5633  -3.5323  -3.5181
    -3.4687  -3.4399  -3.4090  -3.3275  -3.2980  -3.1392  -3.0958  -3.0378
    -2.9831  -2.9357  -2.9156  -2.8841  -2.8303  -2.8068  -2.7172  -2.7063
    -2.6885  -2.6560  -2.5581  -2.5093  -2.4887  -2.4264  -2.4064  -2.3175
    -2.2508  -2.2180  -2.1442  -2.1357  -2.0540  -2.0407  -1.9906  -1.9697
    -1.9501  -1.8339  -1.7883  -1.7610  -1.7449  -1.6969  -1.6436  -1.6138
    -1.5788  -1.5616  -1.5534  -1.5361  -1.4972  -1.4321  -1.3439  -1.3082
    -1.2005  -1.1378  -1.1199  -1.1135  -1.0914  -1.0441  -0.9925  -0.8603
    -0.8114  -0.7893  -0.7259  -0.4650   0.9510   1.0451   1.2286   1.6201
     1.6525   1.7254   1.7633   1.8406   1.8505   1.9310   2.0768   2.1106
     2.1618   2.1749   2.2224   2.2824   2.3104   2.3173   2.3552   2.4150
[...]
    -4.3134  -4.2794  -4.2110  -4.1713  -4.1613  -4.1438  -4.0389  -4.0311
    -3.9689  -3.9326  -3.7034  -3.6890  -3.6372  -3.6033  -3.5552  -3.5442
    -3.4503  -3.4273  -3.3570  -3.3264  -3.3169  -3.3010  -3.2227  -3.1284
    -3.0748  -3.0712  -3.0156  -3.0086  -2.9750  -2.9420  -2.9210  -2.8309
    -2.7996  -2.7420  -2.6405  -2.6093  -2.6067  -2.5346  -2.5078  -2.4811
    -2.4655  -2.4271  -2.3282  -2.3205  -2.2686  -2.2526  -2.2356  -2.1784
    -2.1779  -2.0786  -2.0436  -1.9840  -1.9595  -1.8383  -1.7675  -1.7120
    -1.6868  -1.6728  -1.6526  -1.5759  -1.4086  -1.3919  -1.3226  -1.2977
    -1.2892  -1.2569  -1.1347  -1.1056  -1.0755  -0.9722  -0.9086  -0.8943
    -0.8126  -0.8074  -0.7512  -0.7498   1.3365   1.3378   1.4583   1.4598
     1.7452   1.7453   1.8523   1.8538   2.0284   2.0291   2.1267   2.2224
     2.2789   2.2851   2.3852   2.4413   2.4522   2.4537   2.5183   2.5692
     2.5693   2.5863   2.6432   2.6525   2.7473   2.7523   2.7837   2.7944
     2.8371   2.8720   2.9275   2.9817   3.0006   3.0022   3.0309   3.0568
     3.0659   3.1552   3.1881   3.1963   3.2378   3.2686   3.3366   3.3390
     3.3926   3.3947   3.4856   3.6105   3.6607   3.6737   4.1211   4.1214
     4.2940   4.5643   4.5654   4.6610   4.7171   4.7708   4.8255   4.8292
     4.9301   4.9580   4.9979   5.0002   5.4189   5.4602   5.4728   5.6020
     5.6906   5.7068   5.7544   5.7643   5.7822   5.8360   5.8484   5.9347
     5.9800   6.0741   6.2046   6.2413   6.3340   6.3477   6.5932   6.8798
     7.1321   7.1633   7.5889   7.6176   7.9470   7.9481   8.0419   8.1179
     8.4340   8.4504   8.5583   8.6830   9.1503   9.1715   9.3023

          k =-0.0759 0.0000 0.0000 ( 34758 PWs)   bands (ev):

   -58.5084 -58.4734 -57.5969 -57.5679 -57.5614 -57.4850 -57.4714 -57.4319
   -57.3278 -57.3002 -57.2664 -57.2308 -57.1215 -57.0862 -57.0186 -56.9806
   -34.9548 -34.7773 -34.7486 -34.7115 -34.6200 -34.5630 -34.0973 -34.0607
   -34.0144 -33.8499 -33.8176 -33.7943 -33.7918 -33.7864 -33.7562 -33.7555
   -33.7407 -33.7233 -33.7028 -33.7025 -33.6733 -33.6694 -33.6631 -33.6584
   -33.6532 -33.6336 -33.6193 -33.5820 -33.5557 -33.5527 -33.5399 -33.5254
   -33.4966 -33.4906 -33.4669 -33.4483 -33.4349 -33.4344 -33.4101 -33.3878
   -33.3398 -33.2959 -33.2620 -33.2502 -33.2268 -33.2076 -33.1487 -33.1002
   -18.4436 -18.1211 -18.0874 -18.0484 -17.9579 -17.8568 -17.6730 -17.5912
   -17.5689 -17.5186 -17.4301 -17.3844 -17.2493 -17.2427 -17.2271 -17.2123
   -17.1324 -17.0381 -16.9812 -16.9560 -16.8217 -16.8112 -16.7706 -16.6681
   -16.6586 -16.6315 -16.6205 -16.5897 -16.4971 -16.3485 -16.2889 -15.7949
   -15.7379  -5.8738  -5.6350  -5.5524  -5.4662  -5.3940  -5.1408  -5.1158
    -5.0619  -5.0013  -4.9728  -4.8089  -4.7500  -4.7422  -4.7347  -4.6076
    -4.5960  -4.4614  -4.4246  -4.3734  -4.2839  -4.2770  -4.1994  -4.1985
    -4.1166  -4.1017  -4.0805  -3.9868  -3.9704  -3.9661  -3.9351  -3.8529
    -3.8066  -3.7896  -3.7855  -3.7603  -3.6990  -3.6916  -3.6487  -3.6198
    -3.5179  -3.4902  -3.4706  -3.3153  -3.2278  -3.2173  -3.1798  -3.1340
    -3.0842  -2.9983  -2.9919  -2.9274  -2.9256  -2.8985  -2.8881  -2.8370
    -2.7981  -2.7433  -2.6687  -2.6601  -2.5828  -2.5406  -2.4880  -2.4468
    -2.3504  -2.3256  -2.2554  -2.1580  -2.1373  -1.9858  -1.9666  -1.9380
    -1.9256  -1.9067  -1.8253  -1.8117  -1.6932  -1.6763  -1.6751  -1.6160
    -1.5654  -1.5251  -1.4568  -1.4344  -1.3808  -1.3730  -1.3634  -1.3517
    -1.3382  -1.2752  -1.2528  -1.1147  -1.1030  -1.0656  -0.9149  -0.9076
    -0.8930  -0.8869  -0.8735  -0.6984   0.8664   1.0812   1.2042   1.2106
     1.5858   1.7147   1.7512   1.8017   1.8471   1.8824   1.9805   2.1236
     2.1485   2.2698   2.3352   2.3586   2.4005   2.4303   2.4581   2.4691
     2.5053   2.5091   2.6229   2.6672   2.7171   2.7332   2.7680   2.8154
     2.8317   2.8420   2.9440   2.9636   2.9676   2.9679   2.9868   3.0338
     3.0451   3.0948   3.1463   3.1839   3.2351   3.3010   3.3707   3.4334
     3.5290   3.6137   3.6294   3.6514   3.7577   3.7637   3.8026   4.1574
     4.1767   4.3112   4.3723   4.4987   4.6178   4.8124   4.8860   4.9197
     4.9635   5.2712   5.3499   5.4971   5.5271   5.5938   5.6085   5.6851
     5.7144   5.7619   5.8327   5.9070   5.9994   6.1077   6.1271   6.2878
     6.3000   6.3196   6.3422   6.3431   6.3600   6.4627   6.5048   6.5952
     6.6772   6.8188   7.2343   7.4143   8.0082   8.1290   8.2075   8.5745
     8.7279   8.8981   9.0798   9.2007   9.3250   9.7849   9.9126

          k =-0.0759 0.0280 0.0000 ( 34680 PWs)   bands (ev):

   -58.5061 -58.4757 -57.5945 -57.5670 -57.5638 -57.4860 -57.4693 -57.4340
   -57.3262 -57.3018 -57.2642 -57.2330 -57.1191 -57.0886 -57.0161 -56.9832
   -34.9293 -34.7754 -34.7505 -34.7053 -34.6261 -34.5901 -34.0716 -34.0357
   -33.9910 -33.8438 -33.8128 -33.7939 -33.7882 -33.7678 -33.7585 -33.7573
   -33.7403 -33.7296 -33.7076 -33.7069 -33.6856 -33.6785 -33.6680 -33.6679
   -33.6500 -33.6305 -33.6191 -33.5786 -33.5727 -33.5326 -33.5191 -33.5150
   -33.4974 -33.4884 -33.4646 -33.4491 -33.4409 -33.4365 -33.4298 -33.4132
   -33.3339 -33.2925 -33.2591 -33.2563 -33.2290 -33.2124 -33.1759 -33.1286
   -18.3872 -18.0955 -18.0763 -18.0085 -17.9122 -17.8477 -17.6478 -17.6423
   -17.5284 -17.5209 -17.4043 -17.3636 -17.2789 -17.2042 -17.1957 -17.1804
   -17.1130 -17.0261 -17.0091 -16.9685 -16.8584 -16.8498 -16.7865 -16.6855
   -16.6838 -16.6789 -16.6253 -16.6044 -16.5352 -16.3690 -16.3298 -15.8094
   -15.7641  -5.8721  -5.5387  -5.4085  -5.3934  -5.3233  -5.0393  -5.0197
    -4.9799  -4.8776  -4.8724  -4.8533  -4.8223  -4.7259  -4.6335  -4.5520
    -4.5472  -4.4780  -4.4456  -4.4270  -4.3556  -4.3302  -4.3270  -4.2010
    -4.1621  -4.1507  -4.1334  -4.0334  -4.0031  -3.9673  -3.9236  -3.9141
    -3.8478  -3.8452  -3.7568  -3.7426  -3.6978  -3.6433  -3.6221  -3.5915
    -3.5482  -3.4416  -3.3766  -3.2859  -3.2229  -3.1804  -3.1358  -3.1128
    -3.0678  -3.0441  -3.0138  -2.9744  -2.9241  -2.8955  -2.8750  -2.8072
    -2.7850  -2.7431  -2.7112  -2.6928  -2.5859  -2.5676  -2.4502  -2.4165
    -2.3780  -2.3260  -2.2845  -2.2687  -2.2351  -2.1778  -2.1430  -2.0454
    -2.0106  -1.9249  -1.8851  -1.8347  -1.7977  -1.7839  -1.7221  -1.6867
    -1.6171  -1.5838  -1.5423  -1.5232  -1.4038  -1.3597  -1.3303  -1.2896
    -1.2756  -1.2068  -1.1575  -1.1072  -1.0654  -1.0357  -1.0173  -0.9102
    -0.8878  -0.8465  -0.8381  -0.6566   0.9357   1.1572   1.2517   1.2798
     1.6788   1.7796   1.7842   1.8137   1.9001   1.9428   1.9815   2.1170
     2.1876   2.2985   2.3369   2.3450   2.4471   2.4594   2.4817   2.5163
     2.5297   2.5472   2.6884   2.7225   2.7281   2.7445   2.7665   2.7772
     2.7911   2.8420   2.9299   2.9587   2.9749   2.9753   2.9946   3.0381
     3.0825   3.1025   3.2096   3.2168   3.2297   3.3344   3.3661   3.4233
     3.4941   3.5851   3.6013   3.6267   3.6993   3.7238   3.7785   4.1801
     4.2242   4.3052   4.3695   4.6190   4.6273   4.6381   4.9082   4.9183
     4.9774   5.2910   5.3493   5.3497   5.4064   5.4827   5.6001   5.6194
     5.6570   5.6922   5.7913   5.9597   6.0165   6.0587   6.1474   6.1824
     6.1982   6.2618   6.2624   6.3770   6.4457   6.4504   6.5159   6.5942
     6.8048   6.9492   7.3513   7.4009   7.5411   8.1075   8.2260   8.5056
     9.0231   9.0843   9.2001   9.3303   9.3438   9.3764   9.4789

          k =-0.0759 0.0560 0.0000 ( 34616 PWs)   bands (ev):

   -58.4997 -58.4821 -57.5880 -57.5703 -57.5650 -57.4880 -57.4641 -57.4392
   -57.3220 -57.3060 -57.2582 -57.2390 -57.1127 -57.0951 -57.0092 -56.9901
   -34.8592 -34.7701 -34.7557 -34.6887 -34.6635 -34.6429 -34.0013 -33.9683
   -33.9311 -33.8270 -33.8107 -33.8013 -33.7939 -33.7807 -33.7803 -33.7624
   -33.7464 -33.7359 -33.7195 -33.7071 -33.7069 -33.6793 -33.6683 -33.6651
   -33.6518 -33.6139 -33.6126 -33.6084 -33.5701 -33.5151 -33.5027 -33.4881
   -33.4818 -33.4790 -33.4686 -33.4585 -33.4572 -33.4457 -33.4423 -33.4314
   -33.3177 -33.2894 -33.2729 -33.2519 -33.2497 -33.2352 -33.2249 -33.1987
   -18.2318 -18.0695 -18.0280 -17.9076 -17.8317 -17.7983 -17.7941 -17.5862
   -17.5664 -17.4162 -17.3921 -17.3252 -17.2089 -17.1725 -17.1130 -17.1039
   -17.0711 -17.0551 -17.0357 -17.0215 -16.9445 -16.9150 -16.8369 -16.7932
   -16.7253 -16.7105 -16.6403 -16.6337 -16.6262 -16.4369 -16.4028 -15.8393
   -15.8185  -5.8698  -5.2679  -5.2030  -5.1436  -5.0155  -5.0051  -4.9985
    -4.9182  -4.7687  -4.7082  -4.6349  -4.6169  -4.5954  -4.5765  -4.5365
    -4.5086  -4.4978  -4.4232  -4.3977  -4.3731  -4.3458  -4.3157  -4.2816
    -4.2770  -4.2583  -4.2381  -4.1824  -4.1239  -4.0492  -3.9637  -3.9242
    -3.8362  -3.8096  -3.7948  -3.7640  -3.7303  -3.6786  -3.5576  -3.5050
    -3.4560  -3.4111  -3.3719  -3.3544  -3.3222  -3.2804  -3.2669  -3.1994
    -3.1580  -3.1541  -2.9774  -2.9204  -2.9185  -2.8956  -2.8880  -2.8226
    -2.7922  -2.7745  -2.7413  -2.7028  -2.6454  -2.6212  -2.5874  -2.5466
    -2.4509  -2.4289  -2.3986  -2.3462  -2.3242  -2.3094  -2.2345  -2.1295
    -2.1180  -2.0775  -2.0544  -1.9075  -1.8947  -1.7810  -1.7636  -1.7473
    -1.7331  -1.6638  -1.6175  -1.5254  -1.4791  -1.3975  -1.3201  -1.2577
    -1.2164  -1.1991  -1.1548  -1.0530  -0.9813  -0.9330  -0.9183  -0.9014
    -0.8627  -0.8449  -0.8069  -0.7349   1.1372   1.3060   1.3566   1.4926
     1.6953   1.8521   1.8685   1.8937   1.9192   2.0244   2.1060   2.1387
     2.2108   2.2738   2.3419   2.3992   2.4742   2.4787   2.5261   2.5916
     2.6173   2.6597   2.6711   2.6977   2.7061   2.7448   2.8226   2.8304
     2.8634   2.8869   2.9501   2.9718   3.0228   3.0378   3.0496   3.0734
     3.0969   3.1538   3.1808   3.2032   3.2764   3.2872   3.2956   3.4013
     3.4414   3.4856   3.5887   3.6045   3.6481   3.6813   3.7808   4.2412
     4.2617   4.3097   4.3908   4.4129   4.6941   4.7451   4.8057   4.8684
     4.9795   5.0409   5.0872   5.1578   5.3926   5.4595   5.4897   5.6117
     5.6458   5.7795   5.8172   5.8787   5.9148   5.9305   5.9588   6.1024
     6.1074   6.1586   6.2972   6.3183   6.3952   6.4346   6.6398   6.8496
     6.9250   7.1224   7.3029   7.5820   7.7823   7.9107   8.1988   8.2913
     8.4833   8.5024   8.6227   8.7536   9.0496   9.2579   9.4266

          k =-0.0759-0.0840 0.0000 ( 34556 PWs)   bands (ev):

   -58.4918 -58.4901 -57.5792 -57.5792 -57.5640 -57.4890 -57.4604 -57.4430
   -57.3187 -57.3093 -57.2527 -57.2446 -57.1039 -57.1039 -57.0005 -56.9988
   -34.7639 -34.7631 -34.7617 -34.7614 -34.6666 -34.6651 -33.9043 -33.9039
   -33.8984 -33.8834 -33.8460 -33.8038 -33.8038 -33.7921 -33.7756 -33.7731
   -33.7673 -33.7584 -33.7269 -33.6964 -33.6916 -33.6726 -33.6699 -33.6640
   -33.6501 -33.6238 -33.5788 -33.5664 -33.5653 -33.5521 -33.5398 -33.5189
   -33.4836 -33.4808 -33.4764 -33.4655 -33.4503 -33.4503 -33.3490 -33.3486
   -33.3473 -33.3375 -33.2955 -33.2951 -33.2441 -33.2430 -33.2386 -33.2314
   -18.0675 -18.0166 -18.0163 -17.9464 -17.9444 -17.7025 -17.6596 -17.6590
   -17.6570 -17.3871 -17.2594 -17.2510 -17.2483 -17.1584 -17.1516 -17.0967
   -17.0573 -17.0098 -16.9927 -16.9814 -16.9797 -16.9766 -16.9709 -16.7715
   -16.7494 -16.7355 -16.7330 -16.6441 -16.6419 -16.4702 -16.4449 -15.8507
   -15.8506  -5.8688  -5.0869  -5.0772  -5.0085  -5.0064  -4.8747  -4.8745
    -4.8707  -4.8647  -4.6209  -4.6160  -4.6120  -4.5482  -4.4864  -4.4157
    -4.4137  -4.4122  -4.3784  -4.3638  -4.3496  -4.3388  -4.3208  -4.2721
    -4.2682  -4.2390  -4.2381  -4.2225  -4.1118  -4.0570  -3.9952  -3.9747
    -3.9397  -3.8643  -3.8517  -3.8490  -3.7331  -3.6538  -3.6424  -3.6393
    -3.5147  -3.5129  -3.3593  -3.3560  -3.3461  -3.3117  -3.2420  -3.2074
    -3.1404  -3.1156  -3.0578  -3.0476  -3.0169  -3.0015  -2.9805  -2.9021
    -2.8551  -2.7627  -2.7249  -2.6817  -2.6402  -2.6096  -2.5767  -2.5550
    -2.5226  -2.4510  -2.4271  -2.4190  -2.3890  -2.3373  -2.2789  -2.2495
    -2.1360  -2.0661  -2.0514  -2.0417  -1.9231  -1.8559  -1.8366  -1.6996
    -1.6586  -1.6303  -1.6170  -1.5917  -1.3512  -1.3091  -1.2950  -1.2821
    -1.2525  -1.2037  -1.1279  -1.0355  -0.9797  -0.9478  -0.9346  -0.8982
    -0.8753  -0.8382  -0.7724  -0.7587   1.4002   1.4041   1.4158   1.4215
     1.7635   1.7642   1.8920   1.8938   2.0442   2.1010   2.1041   2.1578
     2.2304   2.2598   2.3533   2.4269   2.4344   2.5026   2.5366   2.5927
     2.6005   2.6318   2.7573   2.7585   2.7704   2.7864   2.8039   2.8340
     2.8816   2.9060   2.9490   3.0377   3.0409   3.0437   3.0668   3.0818
     3.1576   3.1934   3.1935   3.2334   3.2566   3.2803   3.2945   3.2976
     3.3617   3.3846   3.5367   3.6139   3.6844   3.6852   3.9394   3.9399
     4.3383   4.4234   4.4494   4.5087   4.6300   4.6566   4.7004   4.7594
     4.9568   4.9747   4.9842   4.9881   5.4695   5.4722   5.4901   5.7035
     5.7312   5.7335   5.7973   5.8146   5.8932   5.8978   5.9381   6.0389
     6.0823   6.0897   6.1676   6.2341   6.2921   6.3903   6.6979   7.1220
     7.4105   7.4226   7.4673   7.5303   7.7047   7.7090   7.8501   7.9278
     8.2646   8.2720   8.4458   8.5727   9.0543   9.0721   9.1873

     the Fermi energy is    -0.4901 ev

!    total energy              =   -3005.52860826 Ry
     Harris-Foulkes estimate   =   -3005.52860829 Ry
     estimated scf accuracy    <       0.00000015 Ry

     The total energy is the sum of the following terms:

     one-electron contribution =  -41015.03514878 Ry
     hartree contribution      =   20573.26978557 Ry
     xc contribution           =    -546.70712248 Ry
     ewald contribution        =   17982.96353511 Ry
     smearing contrib. (-TS)   =      -0.01965768 Ry

     total magnetization       =     0.00 Bohr mag/cell
     absolute magnetization    =     0.01 Bohr mag/cell

     convergence has been achieved in  11 iterations

     Forces acting on atoms (Ry/au):


     negative rho (up, down):  1.350E-02 1.349E-02
     atom    1 type  1   force =     0.00001829   -0.00109905   -0.10416234
     atom    2 type  2   force =     0.00003635    0.00000000    0.03813585
     atom    3 type  1   force =    -0.00011550    0.00000000   -0.02281312
     atom    4 type  2   force =    -0.00614877    0.00312282   -0.00580332
     atom    5 type  1   force =     0.00029947    0.00039554   -0.00078036
     atom    6 type  2   force =    -0.00037266    0.00000000   -0.00020191
     atom    7 type  1   force =     0.00114953    0.00000000   -0.00091265
     atom    8 type  2   force =    -0.00005126    0.00016340   -0.00016277
     atom    9 type  1   force =     0.00001829    0.00109905   -0.10416234
     atom   10 type  2   force =     0.00002889    0.00000000    0.03429159
     atom   11 type  1   force =    -0.00011454    0.00000000    0.01132447
     atom   12 type  2   force =    -0.00614877   -0.00312282   -0.00580332
     atom   13 type  1   force =     0.00029947   -0.00039554   -0.00078036
     atom   14 type  2   force =    -0.00073288    0.00000000   -0.00110663
     atom   15 type  1   force =     0.00049562    0.00000000    0.00121683
     atom   16 type  2   force =    -0.00005126   -0.00016340   -0.00016277
     atom   17 type  2   force =     0.00004111    0.00000000    0.06639371
     atom   18 type  1   force =     0.00013940    0.00000000    0.13066074
     atom   19 type  2   force =    -0.00015896    0.00000000   -0.08411162
     atom   20 type  2   force =    -0.05789185    0.00015595   -0.03629914
     atom   21 type  2   force =     0.05803816    0.00016995   -0.03620902
     atom   22 type  1   force =    -0.00003932    0.00087020    0.07796594
     atom   23 type  2   force =    -0.00016070    0.00000000    0.00136507
     atom   24 type  2   force =    -0.00017567    0.00000000   -0.03626428
     atom   25 type  2   force =     0.00592999    0.00308057   -0.00549038
     atom   26 type  1   force =    -0.00036036    0.00000000    0.00023913
     atom   27 type  2   force =     0.00035307    0.00000000    0.00159195
     atom   28 type  2   force =    -0.00020107    0.00033845   -0.00036815
     atom   29 type  2   force =    -0.00031970    0.00015590    0.00008263
     atom   30 type  1   force =     0.00000520    0.00041079    0.00034416
     atom   31 type  2   force =    -0.00042389    0.00000000    0.00019199
     atom   32 type  2   force =     0.00056924   -0.00054634   -0.00017090
     atom   33 type  2   force =    -0.00000928    0.00000000    0.06641819
     atom   34 type  1   force =     0.00011359    0.00000000    0.13047057
     atom   35 type  2   force =    -0.00012743    0.00000000   -0.08356995
     atom   36 type  2   force =    -0.05789185   -0.00015595   -0.03629914
     atom   37 type  2   force =     0.05803816   -0.00016995   -0.03620902
     atom   38 type  1   force =    -0.00003932   -0.00087020    0.07796594
     atom   39 type  2   force =    -0.00007738    0.00000000   -0.00024131
     atom   40 type  2   force =     0.00007179    0.00000000   -0.03527364
     atom   41 type  2   force =     0.00592999   -0.00308057   -0.00549038
     atom   42 type  1   force =    -0.00055271    0.00000000    0.00089723
     atom   43 type  2   force =     0.00040836    0.00000000    0.00173397
     atom   44 type  2   force =    -0.00020107   -0.00033845   -0.00036815
     atom   45 type  2   force =    -0.00031970   -0.00015590    0.00008263
     atom   46 type  1   force =     0.00000520   -0.00041079    0.00034416
     atom   47 type  2   force =     0.00159960    0.00000000    0.00060941
     atom   48 type  2   force =     0.00056924    0.00054634   -0.00017090
     atom   49 type  2   force =     0.03867397    0.00000000    0.02349262
     atom   50 type  3   force =    -0.04014612    0.00000000   -0.02243095

     Total force =     0.346218     Total SCF correction =     0.001803
 !ASE

     Writing output data file calc.save
 
     init_run     :     49.15s CPU     57.52s WALL (       1 calls)
     electrons    :   2143.62s CPU   2411.71s WALL (       1 calls)
     forces       :     42.79s CPU     43.90s WALL (       1 calls)

     Called by init_run:
     wfcinit      :     41.95s CPU     49.54s WALL (       1 calls)
     potinit      :      1.32s CPU      1.62s WALL (       1 calls)

     Called by electrons:
     c_bands      :   1850.77s CPU   2072.28s WALL (      11 calls)
     sum_band     :    244.23s CPU    285.66s WALL (      11 calls)
     v_of_rho     :     12.42s CPU     14.73s WALL (      12 calls)
     newd         :     39.61s CPU     42.65s WALL (      12 calls)
     mix_rho      :      0.48s CPU      0.66s WALL (      11 calls)
     vdW_energy   :      2.71s CPU      3.02s WALL (      13 calls)
     vdW_ffts     :      3.43s CPU      4.27s WALL (      26 calls)
     vdW_v        :      1.22s CPU      1.40s WALL (      13 calls)

     Called by c_bands:
     init_us_2    :      5.25s CPU      5.67s WALL (     768 calls)
     cegterg      :   1817.30s CPU   2037.20s WALL (     352 calls)

     Called by *egterg:
     h_psi        :    732.05s CPU    896.00s WALL (    1551 calls)
     s_psi        :    124.89s CPU    129.22s WALL (    1551 calls)
     g_psi        :      3.73s CPU      3.80s WALL (    1167 calls)
     cdiaghg      :    544.57s CPU    555.00s WALL (    1519 calls)

     Called by h_psi:
     add_vuspsi   :    125.94s CPU    129.91s WALL (    1551 calls)

     General routines
     calbec       :    186.87s CPU    190.84s WALL (    1935 calls)
     fft          :      6.58s CPU      8.29s WALL (    1029 calls)
     ffts         :      0.04s CPU      0.06s WALL (      46 calls)
     fftw         :    413.32s CPU    604.45s WALL (  610010 calls)
     interpolate  :      0.33s CPU      0.50s WALL (      46 calls)
     davcio       :      0.14s CPU      2.18s WALL (      32 calls)
 
     Parallel routines
     fft_scatter  :    205.42s CPU    320.54s WALL (  611085 calls)
 
     PWSCF        : 37m16.55s CPU    41m56.73s WALL

 
   This run was terminated on:  23:53:58  10Feb2018            

=------------------------------------------------------------------------------=
   JOB DONE.
=------------------------------------------------------------------------------=
