  python dir          : /home/vossj/suncat/lib/python2.7/site-packages/espresso
  espresso dir        : /home/vossj/suncat/esdld/espresso-dynpy-beef/bin
  pseudo dir          : /home/alatimer/bin/psp/esp_psp_w_gbrvRu/
  ase-espresso py git : ffa2778-git



     Program PWSCF v.5.1rc2 (svn rev. ) starts on 12Feb2018 at 19:27:47 

     This program is part of the open-source Quantum ESPRESSO suite
     for quantum simulation of materials; please cite
         "P. Giannozzi et al., J. Phys.:Condens. Matter 21 395502 (2009);
          URL http://www.quantum-espresso.org", 
     in publications or presentations arising from this work. More details at
     http://www.quantum-espresso.org/quote

     Parallel version (MPI), running on    16 processors
     R & G space division:  proc/nbgrp/npool/nimage =      16
     Reading input from pw.inp
     Message from routine read_cards :
     DEPRECATED: no units specified in CELL_PARAMETERS card

     Current dimensions of program PWSCF are:
     Max number of different atomic species (ntypx) = 10
     Max number of k-points (npk) =  40000
     Max angular momentum in pseudopotentials (lmaxx) =  3

     **************************************************************************
     Initializing libbeef V0.1.1 with the BEEF-vdW functional.
     Citation: Wellendorff et al., PRB 85, 235149 (2012).
     **************************************************************************


     IMPORTANT: XC functional enforced from input :
     Exchange-correlation      = BEEF ( 1  4 27 13 2)
     Any further DFT definition will be discarded
     Please, verify this is what you really want


     Subspace diagonalization in iterative solution of the eigenvalue problem:
     a serial algorithm will be used

 
     Parallelization info
     --------------------
     sticks:   dense  smooth     PW     G-vecs:    dense   smooth      PW
     Min         281     112     31                68535    17318    2565
     Max         282     113     32                68545    17369    2582
     Sum        4501    1795    503              1096637   277353   41113
 
     Generating pointlists ...
     new r_m :   0.4125 (alat units)  0.7795 (a.u.) for type    1
     new r_m :   0.3995 (alat units)  0.7549 (a.u.) for type    2
     new r_m :   0.4125 (alat units)  0.7795 (a.u.) for type    3
     new r_m :   0.3995 (alat units)  0.7549 (a.u.) for type    4


     bravais-lattice index     =            0
     lattice parameter (alat)  =       1.8897  a.u.
     unit-cell volume          =    7990.9933 (a.u.)^3
     number of atoms/cell      =           54
     number of atomic types    =            4
     number of electrons       =       398.00
     number of Kohn-Sham states=          299
     kinetic-energy cutoff     =      40.4243  Ry
     charge density cutoff     =     404.2426  Ry
     convergence threshold     =      7.3E-07
     mixing beta               =       0.1000
     number of iterations used =           10  plain     mixing
     Exchange-correlation      = BEEF ( 1  4 27 13 2)
     nstep                     =           50


     celldm(1)=   1.889726  celldm(2)=   0.000000  celldm(3)=   0.000000
     celldm(4)=   0.000000  celldm(5)=   0.000000  celldm(6)=   0.000000

     crystal axes: (cart. coord. in units of alat)
               a(1) = (   6.590708   0.000000   0.000000 )  
               a(2) = (   0.000000   5.950229   0.000000 )  
               a(3) = (   0.000000   0.000000  30.195235 )  

     reciprocal axes: (cart. coord. in units 2 pi/alat)
               b(1) = (  0.151729  0.000000  0.000000 )  
               b(2) = (  0.000000  0.168061  0.000000 )  
               b(3) = (  0.000000  0.000000  0.033118 )  


     PseudoPot. # 1 for Ti read from file:
     /home/alatimer/bin/psp/esp_psp_w_gbrvRu/Ti.UPF
     MD5 check sum: 8e4df49b7f0d34bbd5052bf3f5ea0213
     Pseudo is Ultrasoft, Zval = 12.0
     Generated by new atomic code, or converted to UPF format
     Using radial grid of  851 points,  6 beta functions with: 
                l(1) =   0
                l(2) =   0
                l(3) =   1
                l(4) =   1
                l(5) =   2
                l(6) =   2
     Q(r) pseudized with  8 coefficients,  rinner =    1.000   1.000   1.000
                                                       1.000   1.000

     PseudoPot. # 2 for  O read from file:
     /home/alatimer/bin/psp/esp_psp_w_gbrvRu/O.UPF
     MD5 check sum: e057bbcf3229fb5d8c36c0c92f9568b4
     Pseudo is Ultrasoft + core correction, Zval =  6.0
     Generated using "atomic" code by A. Dal Corso  v.5.0.2 svn rev. 9415
     Using radial grid of 1095 points,  4 beta functions with: 
                l(1) =   0
                l(2) =   0
                l(3) =   1
                l(4) =   1
     Q(r) pseudized with 0 coefficients 


     PseudoPot. # 3 for  C read from file:
     /home/alatimer/bin/psp/esp_psp_w_gbrvRu/C.UPF
     MD5 check sum: ab446d787031eba755f1d5ee46644bb0
     Pseudo is Ultrasoft + core correction, Zval =  4.0
     Generated using "atomic" code by A. Dal Corso  v.5.0.2 svn rev. 9415
     Using radial grid of 1073 points,  4 beta functions with: 
                l(1) =   0
                l(2) =   0
                l(3) =   1
                l(4) =   1
     Q(r) pseudized with 0 coefficients 


     PseudoPot. # 4 for  H read from file:
     /home/alatimer/bin/psp/esp_psp_w_gbrvRu/H.UPF
     MD5 check sum: bd57da0722753ddfd9833a65b40bb853
     Pseudo is Ultrasoft, Zval =  1.0
     Generated using "atomic" code by A. Dal Corso  v.5.0.2 svn rev. 9415
     Using radial grid of  929 points,  2 beta functions with: 
                l(1) =   0
                l(2) =   0
     Q(r) pseudized with 0 coefficients 


     vdW kernel table read from file vdW_kernel_table
     MD5 check sum: 095c7af220d748ca6e76c0b4c6cfb241

     atomic species   valence    mass     pseudopotential
        Ti1           12.00    47.88000     Ti( 1.00)
        O1             6.00    15.99940      O( 1.00)
        C1             4.00    12.01100      C( 1.00)
        H1             1.00     1.00794      H( 1.00)

     Starting magnetic structure 
     atomic species   magnetization
        Ti1          0.250
        O1           0.500
        C1           0.750
        H1           0.000

     No symmetry found



   Cartesian axes

     site n.     atom                  positions (alat units)
         1           Ti1 tau(   1) = (   1.6476770   0.7437786   2.6545865  )
         2           O1  tau(   2) = (   1.6476770   2.2313359   3.9361215  )
         3           Ti1 tau(   3) = (   1.6476770   2.2313359   5.9499405  )
         4           O1  tau(   4) = (   0.3661420   0.7437786   5.9499405  )
         5           Ti1 tau(   5) = (   1.7592931   0.7557636   9.1813031  )
         6           O1  tau(   6) = (   1.6162490   2.2572048  10.5951269  )
         7           Ti1 tau(   7) = (   1.5595004   2.2680265  12.4668274  )
         8           O1  tau(   8) = (   0.3709531   0.7738127  12.6996540  )
         9           Ti1 tau(   9) = (   1.6476770   3.7188931   2.6545865  )
        10           O1  tau(  10) = (   1.6476770   5.2064503   3.9361215  )
        11           Ti1 tau(  11) = (   1.6476770   5.2064503   5.9499405  )
        12           O1  tau(  12) = (   0.3661420   3.7188931   5.9499405  )
        13           Ti1 tau(  13) = (   1.7607536   3.7112867   9.1949733  )
        14           O1  tau(  14) = (   1.6133076   5.2250699  10.5465640  )
        15           Ti1 tau(  15) = (   1.6492307   5.2431137  12.3448001  )
        16           O1  tau(  16) = (   0.3719744   3.7598389  12.7007434  )
        17           O1  tau(  17) = (   1.6476770   2.2313359   1.3730516  )
        18           Ti1 tau(  18) = (   4.9430310   2.2313359   2.6545865  )
        19           O1  tau(  19) = (   4.9430310   2.2313359   4.6684056  )
        20           O1  tau(  20) = (   6.2245660   0.7437786   2.6545865  )
        21           O1  tau(  21) = (   3.6614961   0.7437786   2.6545865  )
        22           Ti1 tau(  22) = (   4.9430310   0.7437786   5.9499405  )
        23           O1  tau(  23) = (   1.6387103   2.2391978   8.0037664  )
        24           O1  tau(  24) = (   4.9430310   2.2313359   7.2314755  )
        25           O1  tau(  25) = (   2.9292120   0.7437786   5.9499405  )
        26           Ti1 tau(  26) = (   5.0158092   2.2383949   9.3973727  )
        27           O1  tau(  27) = (   4.9391445   2.2276729  11.2675731  )
        28           O1  tau(  28) = (   6.2094020   0.7514556   9.2742047  )
        29           O1  tau(  29) = (   3.6131301   0.7515640   9.2682932  )
        30           Ti1 tau(  30) = (   4.8940083   0.8207741  12.7348365  )
        31           O1  tau(  31) = (   4.8487174   2.2703822  13.8475395  )
        32           O1  tau(  32) = (   2.8766274   0.7418004  12.6316555  )
        33           O1  tau(  33) = (   1.6476770   5.2064503   1.3730516  )
        34           Ti1 tau(  34) = (   4.9430310   5.2064503   2.6545865  )
        35           O1  tau(  35) = (   4.9430310   5.2064503   4.6684056  )
        36           O1  tau(  36) = (   6.2245660   3.7188931   2.6545865  )
        37           O1  tau(  37) = (   3.6614961   3.7188931   2.6545865  )
        38           Ti1 tau(  38) = (   4.9430310   3.7188931   5.9499405  )
        39           O1  tau(  39) = (   1.6418458   5.2133935   8.0066417  )
        40           O1  tau(  40) = (   4.9430310   5.2064503   7.2314755  )
        41           O1  tau(  41) = (   2.9292120   3.7188931   5.9499405  )
        42           Ti1 tau(  42) = (   5.0218241   5.2139137   9.3870600  )
        43           O1  tau(  43) = (   4.9399496   5.2040061  11.2598200  )
        44           O1  tau(  44) = (   6.2073000   3.7245411   9.2731052  )
        45           O1  tau(  45) = (   3.6137513   3.7232133   9.2682466  )
        46           Ti1 tau(  46) = (   4.8936935   3.8094630  12.7397413  )
        47           O1  tau(  47) = (   4.9051259   5.2510468  13.8339921  )
        48           O1  tau(  48) = (   2.8743370   3.7938830  12.6403791  )
        49           C1  tau(  49) = (   1.0587210   2.2268971  15.9066084  )
        50           O1  tau(  50) = (   1.8917182   2.2355032  14.7378010  )
        51           H1  tau(  51) = (   0.0310076   2.1900215  15.5603933  )
        52           H1  tau(  52) = (   2.8355400   2.2288152  14.9543747  )
        53           H1  tau(  53) = (   1.2478062   1.3326534  16.5039879  )
        54           H1  tau(  54) = (   1.2341453   3.1195140  16.5098874  )

     number of k points=    40  Fermi-Dirac smearing, width (Ry)=  0.0073
                       cart. coord. in units 2pi/alat
        k(    1) = (   0.0000000   0.0000000   0.0000000), wk =   0.0277778
        k(    2) = (   0.0000000   0.0280101   0.0000000), wk =   0.0555556
        k(    3) = (   0.0000000   0.0560203   0.0000000), wk =   0.0555556
        k(    4) = (   0.0000000  -0.0840304   0.0000000), wk =   0.0277778
        k(    5) = (   0.0252881   0.0000000   0.0000000), wk =   0.0555556
        k(    6) = (   0.0252881   0.0280101   0.0000000), wk =   0.0555556
        k(    7) = (   0.0252881   0.0560203   0.0000000), wk =   0.0555556
        k(    8) = (   0.0252881  -0.0840304   0.0000000), wk =   0.0555556
        k(    9) = (   0.0505763   0.0000000   0.0000000), wk =   0.0555556
        k(   10) = (   0.0505763   0.0280101   0.0000000), wk =   0.0555556
        k(   11) = (   0.0505763   0.0560203   0.0000000), wk =   0.0555556
        k(   12) = (   0.0505763  -0.0840304   0.0000000), wk =   0.0555556
        k(   13) = (  -0.0758644   0.0000000   0.0000000), wk =   0.0277778
        k(   14) = (  -0.0758644   0.0280101   0.0000000), wk =   0.0555556
        k(   15) = (  -0.0758644   0.0560203   0.0000000), wk =   0.0555556
        k(   16) = (  -0.0758644  -0.0840304   0.0000000), wk =   0.0277778
        k(   17) = (  -0.0252881   0.0280101   0.0000000), wk =   0.0555556
        k(   18) = (  -0.0252881   0.0560203   0.0000000), wk =   0.0555556
        k(   19) = (  -0.0505763   0.0280101   0.0000000), wk =   0.0555556
        k(   20) = (  -0.0505763   0.0560203   0.0000000), wk =   0.0555556
        k(   21) = (   0.0000000   0.0000000   0.0000000), wk =   0.0277778
        k(   22) = (   0.0000000   0.0280101   0.0000000), wk =   0.0555556
        k(   23) = (   0.0000000   0.0560203   0.0000000), wk =   0.0555556
        k(   24) = (   0.0000000  -0.0840304   0.0000000), wk =   0.0277778
        k(   25) = (   0.0252881   0.0000000   0.0000000), wk =   0.0555556
        k(   26) = (   0.0252881   0.0280101   0.0000000), wk =   0.0555556
        k(   27) = (   0.0252881   0.0560203   0.0000000), wk =   0.0555556
        k(   28) = (   0.0252881  -0.0840304   0.0000000), wk =   0.0555556
        k(   29) = (   0.0505763   0.0000000   0.0000000), wk =   0.0555556
        k(   30) = (   0.0505763   0.0280101   0.0000000), wk =   0.0555556
        k(   31) = (   0.0505763   0.0560203   0.0000000), wk =   0.0555556
        k(   32) = (   0.0505763  -0.0840304   0.0000000), wk =   0.0555556
        k(   33) = (  -0.0758644   0.0000000   0.0000000), wk =   0.0277778
        k(   34) = (  -0.0758644   0.0280101   0.0000000), wk =   0.0555556
        k(   35) = (  -0.0758644   0.0560203   0.0000000), wk =   0.0555556
        k(   36) = (  -0.0758644  -0.0840304   0.0000000), wk =   0.0277778
        k(   37) = (  -0.0252881   0.0280101   0.0000000), wk =   0.0555556
        k(   38) = (  -0.0252881   0.0560203   0.0000000), wk =   0.0555556
        k(   39) = (  -0.0505763   0.0280101   0.0000000), wk =   0.0555556
        k(   40) = (  -0.0505763   0.0560203   0.0000000), wk =   0.0555556

     Dense  grid:  1096637 G-vectors     FFT dimensions: (  80,  72, 375)

     Smooth grid:   277353 G-vectors     FFT dimensions: (  54,  45, 240)

     Largest allocated arrays     est. size (Mb)     dimensions
        Kohn-Sham Wavefunctions         9.95 Mb     (    2180,  299)
        NL pseudopotentials            18.89 Mb     (    2180,  568)
        Each V/rho on FFT grid          4.22 Mb     (  138240,   2)
        Each G-vector array             0.52 Mb     (   68538)
        G-vector shells                 0.25 Mb     (   33046)
     Largest temporary arrays     est. size (Mb)     dimensions
        Auxiliary wavefunctions        39.78 Mb     (    2180, 1196)
        Each subspace H/S matrix       21.83 Mb     (    1196, 1196)
        Each <psi_i|beta_j> matrix      2.59 Mb     (     568,  299)
        Arrays for rho mixing          21.09 Mb     (  138240,   10)

     Check: negative/imaginary core charge=   -0.000049    0.000000

     The initial density is read from file :
     ./calc.save/charge-density.dat


     negative rho (up, down):  1.209E-02 1.209E-02


     ************************************************************************
     *
     * You are using vdW-DF for exchange-correlation in this calculation.
     * Please cite the following three references that made this development
     * possible:
     *
     *   M. Dion, H. Rydberg, E. Schroder, D. C. Langreth, and
     *   B. I. Lundqvist, Phys. Rev. Lett. 92, 246401 (2004).
     *
     *   T. Thonhauser, V. R. Cooper, S. Li, A. Puzder, P. Hyldgaard, and
     *   D. C. Langreth, Phys. Rev. B 76, 125112 (2007).
     *
     *   G. Roman-Perez and J. M. Soler, Phys. Rev. Lett. 103, 096102 (2009).
     *
     *
     * If you are using vdW-DF2, please also cite:
     *
     *   K. Lee, E. D. Murray, L. Kong, B. I. Lundqvist, and
     *   D. C. Langreth, Phys. Rev. B 82, 081101(R) (2010).
     *
     *
     * If you are calculating the stress with vdW-DF, please also cite:
     *
     *   R. Sabatini, E. Kucukbenli, B. Kolb, T. Thonhauser, and
     *   S. de Gironcoli, J. Phys.: Condens. Matter 24, 424209 (2012).
     *
     ************************************************************************

     Carrying out vdW-DF run using the following parameters:

     Nqs =      20    Nr_points =    1024   r_max =   100.000
     q_mesh =
               0.00001000     0.04494208     0.09755937     0.15916263
               0.23128650     0.31572767     0.41458969     0.53033537
               0.66584808     0.82450364     1.01025438     1.22772762
               1.48234092     1.78043706     2.12944203     2.53805004
               3.01644009     3.57652955     4.23227104     5.00000000

     Gradients computed in reciprocal space

     ************************************************************************


     Starting wfc are  300 randomized atomic wfcs

     total cpu time spent up to now is       71.8 secs

     Self-consistent Calculation

     iteration #  1     ecut=    40.42 Ry     beta=0.10
     Davidson diagonalization with overlap
     ethr =  1.00E-05,  avg # of iterations = 14.6

     Threshold (ethr) on eigenvalues was too large:
     Diagonalizing with lowered threshold

     Davidson diagonalization with overlap
     ethr =  2.88E-07,  avg # of iterations =  1.0

     negative rho (up, down):  1.209E-02 1.209E-02
 
     Magnetic moment per site:
     atom:    1    charge:    3.1250    magn:   -0.0002    constr:    0.0000
     atom:    2    charge:    1.9452    magn:    0.0000    constr:    0.0000
     atom:    3    charge:    3.1198    magn:    0.0000    constr:    0.0000
     atom:    4    charge:    1.9504    magn:   -0.0001    constr:    0.0000
     atom:    5    charge:    3.1166    magn:    0.0000    constr:    0.0000
     atom:    6    charge:    1.9476    magn:   -0.0001    constr:    0.0000
     atom:    7    charge:    3.1157    magn:    0.0001    constr:    0.0000
     atom:    8    charge:    1.9453    magn:   -0.0001    constr:    0.0000
     atom:    9    charge:    3.1250    magn:   -0.0002    constr:    0.0000
     atom:   10    charge:    1.9452    magn:    0.0000    constr:    0.0000
     atom:   11    charge:    3.1197    magn:    0.0000    constr:    0.0000
     atom:   12    charge:    1.9504    magn:   -0.0001    constr:    0.0000
     atom:   13    charge:    3.1158    magn:    0.0000    constr:    0.0000
     atom:   14    charge:    1.9587    magn:   -0.0001    constr:    0.0000
     atom:   15    charge:    3.1188    magn:    0.0001    constr:    0.0000
     atom:   16    charge:    1.9445    magn:   -0.0001    constr:    0.0000
     atom:   17    charge:    1.9184    magn:    0.0004    constr:    0.0000
     atom:   18    charge:    3.1239    magn:   -0.0001    constr:    0.0000
     atom:   19    charge:    1.9408    magn:   -0.0000    constr:    0.0000
     atom:   20    charge:    1.9471    magn:    0.0000    constr:    0.0000
     atom:   21    charge:    1.9471    magn:    0.0000    constr:    0.0000
     atom:   22    charge:    3.1196    magn:    0.0000    constr:    0.0000
     atom:   23    charge:    1.9566    magn:   -0.0001    constr:    0.0000
     atom:   24    charge:    1.9379    magn:   -0.0001    constr:    0.0000
     atom:   25    charge:    1.9505    magn:   -0.0001    constr:    0.0000
     atom:   26    charge:    3.1145    magn:    0.0001    constr:    0.0000
     atom:   27    charge:    1.9398    magn:   -0.0001    constr:    0.0000
     atom:   28    charge:    1.9517    magn:   -0.0001    constr:    0.0000
     atom:   29    charge:    1.9476    magn:   -0.0001    constr:    0.0000
     atom:   30    charge:    3.1167    magn:    0.0000    constr:    0.0000
     atom:   31    charge:    1.9446    magn:   -0.0000    constr:    0.0000
     atom:   32    charge:    1.9440    magn:   -0.0001    constr:    0.0000
     atom:   33    charge:    1.9184    magn:    0.0004    constr:    0.0000
     atom:   34    charge:    3.1239    magn:   -0.0001    constr:    0.0000
     atom:   35    charge:    1.9408    magn:   -0.0000    constr:    0.0000
     atom:   36    charge:    1.9471    magn:    0.0000    constr:    0.0000
     atom:   37    charge:    1.9471    magn:    0.0000    constr:    0.0000
     atom:   38    charge:    3.1196    magn:    0.0000    constr:    0.0000
     atom:   39    charge:    1.9549    magn:   -0.0001    constr:    0.0000
     atom:   40    charge:    1.9383    magn:   -0.0001    constr:    0.0000
     atom:   41    charge:    1.9505    magn:   -0.0001    constr:    0.0000
     atom:   42    charge:    3.1141    magn:    0.0001    constr:    0.0000
     atom:   43    charge:    1.9413    magn:   -0.0001    constr:    0.0000
     atom:   44    charge:    1.9517    magn:   -0.0001    constr:    0.0000
     atom:   45    charge:    1.9468    magn:   -0.0001    constr:    0.0000
     atom:   46    charge:    3.1164    magn:    0.0000    constr:    0.0000
     atom:   47    charge:    1.9431    magn:   -0.0000    constr:    0.0000
     atom:   48    charge:    1.9444    magn:   -0.0001    constr:    0.0000
     atom:   49    charge:    0.6580    magn:   -0.0001    constr:    0.0000
     atom:   50    charge:    1.9578    magn:   -0.0001    constr:    0.0000
     atom:   51    charge:    0.4006    magn:    0.0000    constr:    0.0000
     atom:   52    charge:    0.4006    magn:    0.0000    constr:    0.0000
     atom:   53    charge:    0.4034    magn:    0.0000    constr:    0.0000
     atom:   54    charge:    0.4038    magn:    0.0000    constr:    0.0000

     total cpu time spent up to now is     1005.6 secs

     total energy              =   -3021.42017702 Ry
     Harris-Foulkes estimate   =   -3021.42025284 Ry
     estimated scf accuracy    <       0.00114620 Ry

     total magnetization       =     0.00 Bohr mag/cell
     absolute magnetization    =     0.01 Bohr mag/cell

     iteration #  2     ecut=    40.42 Ry     beta=0.10
     Davidson diagonalization with overlap
     ethr =  2.88E-07,  avg # of iterations =  1.0

     negative rho (up, down):  1.209E-02 1.209E-02
 
     Magnetic moment per site:
     atom:    1    charge:    3.1250    magn:   -0.0001    constr:    0.0000
     atom:    2    charge:    1.9452    magn:    0.0000    constr:    0.0000
     atom:    3    charge:    3.1198    magn:    0.0000    constr:    0.0000
     atom:    4    charge:    1.9504    magn:   -0.0000    constr:    0.0000
     atom:    5    charge:    3.1166    magn:    0.0000    constr:    0.0000
     atom:    6    charge:    1.9477    magn:   -0.0001    constr:    0.0000
     atom:    7    charge:    3.1157    magn:    0.0000    constr:    0.0000
     atom:    8    charge:    1.9454    magn:   -0.0001    constr:    0.0000
     atom:    9    charge:    3.1250    magn:   -0.0001    constr:    0.0000
     atom:   10    charge:    1.9452    magn:    0.0000    constr:    0.0000
     atom:   11    charge:    3.1197    magn:    0.0000    constr:    0.0000
     atom:   12    charge:    1.9504    magn:   -0.0000    constr:    0.0000
     atom:   13    charge:    3.1158    magn:    0.0000    constr:    0.0000
     atom:   14    charge:    1.9587    magn:   -0.0001    constr:    0.0000
     atom:   15    charge:    3.1188    magn:    0.0000    constr:    0.0000
     atom:   16    charge:    1.9444    magn:   -0.0001    constr:    0.0000
     atom:   17    charge:    1.9184    magn:    0.0003    constr:    0.0000
     atom:   18    charge:    3.1239    magn:   -0.0001    constr:    0.0000
     atom:   19    charge:    1.9408    magn:   -0.0000    constr:    0.0000
     atom:   20    charge:    1.9471    magn:    0.0000    constr:    0.0000
     atom:   21    charge:    1.9471    magn:    0.0000    constr:    0.0000
     atom:   22    charge:    3.1196    magn:    0.0000    constr:    0.0000
     atom:   23    charge:    1.9566    magn:   -0.0001    constr:    0.0000
     atom:   24    charge:    1.9379    magn:   -0.0000    constr:    0.0000
     atom:   25    charge:    1.9505    magn:   -0.0000    constr:    0.0000
     atom:   26    charge:    3.1145    magn:    0.0000    constr:    0.0000
     atom:   27    charge:    1.9398    magn:   -0.0000    constr:    0.0000
     atom:   28    charge:    1.9517    magn:   -0.0001    constr:    0.0000
     atom:   29    charge:    1.9476    magn:   -0.0001    constr:    0.0000
     atom:   30    charge:    3.1168    magn:    0.0000    constr:    0.0000
     atom:   31    charge:    1.9446    magn:   -0.0000    constr:    0.0000
     atom:   32    charge:    1.9441    magn:   -0.0001    constr:    0.0000
     atom:   33    charge:    1.9184    magn:    0.0003    constr:    0.0000
     atom:   34    charge:    3.1239    magn:   -0.0001    constr:    0.0000
     atom:   35    charge:    1.9408    magn:   -0.0000    constr:    0.0000
     atom:   36    charge:    1.9471    magn:    0.0000    constr:    0.0000
     atom:   37    charge:    1.9471    magn:    0.0000    constr:    0.0000
     atom:   38    charge:    3.1196    magn:    0.0000    constr:    0.0000
     atom:   39    charge:    1.9550    magn:   -0.0001    constr:    0.0000
     atom:   40    charge:    1.9383    magn:   -0.0000    constr:    0.0000
     atom:   41    charge:    1.9505    magn:   -0.0000    constr:    0.0000
     atom:   42    charge:    3.1141    magn:    0.0000    constr:    0.0000
     atom:   43    charge:    1.9413    magn:   -0.0000    constr:    0.0000
     atom:   44    charge:    1.9517    magn:   -0.0001    constr:    0.0000
     atom:   45    charge:    1.9469    magn:   -0.0001    constr:    0.0000
     atom:   46    charge:    3.1164    magn:    0.0000    constr:    0.0000
     atom:   47    charge:    1.9431    magn:   -0.0000    constr:    0.0000
     atom:   48    charge:    1.9444    magn:   -0.0001    constr:    0.0000
     atom:   49    charge:    0.6579    magn:   -0.0000    constr:    0.0000
     atom:   50    charge:    1.9578    magn:   -0.0000    constr:    0.0000
     atom:   51    charge:    0.4011    magn:    0.0000    constr:    0.0000
     atom:   52    charge:    0.4006    magn:    0.0000    constr:    0.0000
     atom:   53    charge:    0.4040    magn:    0.0000    constr:    0.0000
     atom:   54    charge:    0.4033    magn:    0.0000    constr:    0.0000

     total cpu time spent up to now is     1181.0 secs

     total energy              =   -3021.41995833 Ry
     Harris-Foulkes estimate   =   -3021.42018201 Ry
     estimated scf accuracy    <       0.00085760 Ry

     total magnetization       =     0.00 Bohr mag/cell
     absolute magnetization    =     0.01 Bohr mag/cell

     iteration #  3     ecut=    40.42 Ry     beta=0.10
     Davidson diagonalization with overlap
     ethr =  2.15E-07,  avg # of iterations =  2.2

     negative rho (up, down):  1.209E-02 1.209E-02
 
     Magnetic moment per site:
     atom:    1    charge:    3.1250    magn:   -0.0001    constr:    0.0000
     atom:    2    charge:    1.9452    magn:    0.0000    constr:    0.0000
     atom:    3    charge:    3.1198    magn:    0.0000    constr:    0.0000
     atom:    4    charge:    1.9504    magn:   -0.0000    constr:    0.0000
     atom:    5    charge:    3.1166    magn:    0.0000    constr:    0.0000
     atom:    6    charge:    1.9476    magn:   -0.0000    constr:    0.0000
     atom:    7    charge:    3.1157    magn:    0.0000    constr:    0.0000
     atom:    8    charge:    1.9452    magn:   -0.0000    constr:    0.0000
     atom:    9    charge:    3.1250    magn:   -0.0001    constr:    0.0000
     atom:   10    charge:    1.9452    magn:    0.0000    constr:    0.0000
     atom:   11    charge:    3.1197    magn:    0.0000    constr:    0.0000
     atom:   12    charge:    1.9504    magn:   -0.0000    constr:    0.0000
     atom:   13    charge:    3.1158    magn:    0.0000    constr:    0.0000
     atom:   14    charge:    1.9587    magn:   -0.0001    constr:    0.0000
     atom:   15    charge:    3.1188    magn:    0.0000    constr:    0.0000
     atom:   16    charge:    1.9446    magn:   -0.0000    constr:    0.0000
     atom:   17    charge:    1.9184    magn:    0.0003    constr:    0.0000
     atom:   18    charge:    3.1239    magn:   -0.0000    constr:    0.0000
     atom:   19    charge:    1.9408    magn:   -0.0000    constr:    0.0000
     atom:   20    charge:    1.9471    magn:    0.0000    constr:    0.0000
     atom:   21    charge:    1.9471    magn:    0.0000    constr:    0.0000
     atom:   22    charge:    3.1196    magn:    0.0000    constr:    0.0000
     atom:   23    charge:    1.9566    magn:   -0.0000    constr:    0.0000
     atom:   24    charge:    1.9379    magn:   -0.0000    constr:    0.0000
     atom:   25    charge:    1.9505    magn:   -0.0000    constr:    0.0000
     atom:   26    charge:    3.1145    magn:    0.0000    constr:    0.0000
     atom:   27    charge:    1.9398    magn:   -0.0000    constr:    0.0000
     atom:   28    charge:    1.9517    magn:   -0.0000    constr:    0.0000
     atom:   29    charge:    1.9476    magn:   -0.0001    constr:    0.0000
     atom:   30    charge:    3.1166    magn:    0.0000    constr:    0.0000
     atom:   31    charge:    1.9447    magn:   -0.0000    constr:    0.0000
     atom:   32    charge:    1.9440    magn:   -0.0000    constr:    0.0000
     atom:   33    charge:    1.9184    magn:    0.0003    constr:    0.0000
     atom:   34    charge:    3.1239    magn:   -0.0000    constr:    0.0000
     atom:   35    charge:    1.9408    magn:   -0.0000    constr:    0.0000
     atom:   36    charge:    1.9471    magn:    0.0000    constr:    0.0000
     atom:   37    charge:    1.9471    magn:    0.0000    constr:    0.0000
     atom:   38    charge:    3.1196    magn:    0.0000    constr:    0.0000
     atom:   39    charge:    1.9550    magn:   -0.0000    constr:    0.0000
     atom:   40    charge:    1.9383    magn:   -0.0000    constr:    0.0000
     atom:   41    charge:    1.9505    magn:   -0.0000    constr:    0.0000
     atom:   42    charge:    3.1141    magn:    0.0000    constr:    0.0000
     atom:   43    charge:    1.9413    magn:   -0.0000    constr:    0.0000
     atom:   44    charge:    1.9518    magn:   -0.0000    constr:    0.0000
     atom:   45    charge:    1.9469    magn:   -0.0001    constr:    0.0000
     atom:   46    charge:    3.1166    magn:    0.0000    constr:    0.0000
     atom:   47    charge:    1.9431    magn:   -0.0000    constr:    0.0000
     atom:   48    charge:    1.9445    magn:   -0.0000    constr:    0.0000
     atom:   49    charge:    0.6579    magn:   -0.0000    constr:    0.0000
     atom:   50    charge:    1.9578    magn:   -0.0000    constr:    0.0000
     atom:   51    charge:    0.4012    magn:    0.0000    constr:    0.0000
     atom:   52    charge:    0.4006    magn:    0.0000    constr:    0.0000
     atom:   53    charge:    0.4040    magn:    0.0000    constr:    0.0000
     atom:   54    charge:    0.4033    magn:    0.0000    constr:    0.0000

     total cpu time spent up to now is     1376.2 secs

     total energy              =   -3021.42001539 Ry
     Harris-Foulkes estimate   =   -3021.42002241 Ry
     estimated scf accuracy    <       0.00010297 Ry

     total magnetization       =     0.00 Bohr mag/cell
     absolute magnetization    =     0.00 Bohr mag/cell

     iteration #  4     ecut=    40.42 Ry     beta=0.10
     Davidson diagonalization with overlap
     ethr =  2.59E-08,  avg # of iterations =  3.0

     negative rho (up, down):  1.209E-02 1.209E-02
 
     Magnetic moment per site:
     atom:    1    charge:    3.1250    magn:   -0.0001    constr:    0.0000
     atom:    2    charge:    1.9452    magn:    0.0000    constr:    0.0000
     atom:    3    charge:    3.1198    magn:    0.0000    constr:    0.0000
     atom:    4    charge:    1.9504    magn:   -0.0000    constr:    0.0000
     atom:    5    charge:    3.1166    magn:    0.0000    constr:    0.0000
     atom:    6    charge:    1.9477    magn:   -0.0000    constr:    0.0000
     atom:    7    charge:    3.1157    magn:    0.0000    constr:    0.0000
     atom:    8    charge:    1.9452    magn:   -0.0000    constr:    0.0000
     atom:    9    charge:    3.1250    magn:   -0.0001    constr:    0.0000
     atom:   10    charge:    1.9452    magn:    0.0000    constr:    0.0000
     atom:   11    charge:    3.1197    magn:    0.0000    constr:    0.0000
     atom:   12    charge:    1.9504    magn:   -0.0000    constr:    0.0000
     atom:   13    charge:    3.1158    magn:    0.0000    constr:    0.0000
     atom:   14    charge:    1.9587    magn:   -0.0000    constr:    0.0000
     atom:   15    charge:    3.1188    magn:    0.0000    constr:    0.0000
     atom:   16    charge:    1.9446    magn:   -0.0000    constr:    0.0000
     atom:   17    charge:    1.9184    magn:    0.0002    constr:    0.0000
     atom:   18    charge:    3.1239    magn:   -0.0000    constr:    0.0000
     atom:   19    charge:    1.9408    magn:   -0.0000    constr:    0.0000
     atom:   20    charge:    1.9471    magn:    0.0000    constr:    0.0000
     atom:   21    charge:    1.9471    magn:    0.0000    constr:    0.0000
     atom:   22    charge:    3.1196    magn:    0.0000    constr:    0.0000
     atom:   23    charge:    1.9566    magn:   -0.0000    constr:    0.0000
     atom:   24    charge:    1.9379    magn:   -0.0000    constr:    0.0000
     atom:   25    charge:    1.9505    magn:   -0.0000    constr:    0.0000
     atom:   26    charge:    3.1145    magn:    0.0000    constr:    0.0000
     atom:   27    charge:    1.9398    magn:   -0.0000    constr:    0.0000
     atom:   28    charge:    1.9517    magn:   -0.0000    constr:    0.0000
     atom:   29    charge:    1.9476    magn:   -0.0000    constr:    0.0000
     atom:   30    charge:    3.1166    magn:    0.0000    constr:    0.0000
     atom:   31    charge:    1.9447    magn:   -0.0000    constr:    0.0000
     atom:   32    charge:    1.9440    magn:   -0.0000    constr:    0.0000
     atom:   33    charge:    1.9184    magn:    0.0002    constr:    0.0000
     atom:   34    charge:    3.1239    magn:   -0.0000    constr:    0.0000
     atom:   35    charge:    1.9408    magn:   -0.0000    constr:    0.0000
     atom:   36    charge:    1.9471    magn:    0.0000    constr:    0.0000
     atom:   37    charge:    1.9471    magn:    0.0000    constr:    0.0000
     atom:   38    charge:    3.1196    magn:    0.0000    constr:    0.0000
     atom:   39    charge:    1.9549    magn:   -0.0000    constr:    0.0000
     atom:   40    charge:    1.9383    magn:   -0.0000    constr:    0.0000
     atom:   41    charge:    1.9505    magn:   -0.0000    constr:    0.0000
     atom:   42    charge:    3.1141    magn:    0.0000    constr:    0.0000
     atom:   43    charge:    1.9413    magn:   -0.0000    constr:    0.0000
     atom:   44    charge:    1.9517    magn:   -0.0000    constr:    0.0000
     atom:   45    charge:    1.9468    magn:   -0.0000    constr:    0.0000
     atom:   46    charge:    3.1165    magn:    0.0000    constr:    0.0000
     atom:   47    charge:    1.9431    magn:   -0.0000    constr:    0.0000
     atom:   48    charge:    1.9444    magn:   -0.0000    constr:    0.0000
     atom:   49    charge:    0.6579    magn:   -0.0000    constr:    0.0000
     atom:   50    charge:    1.9578    magn:   -0.0000    constr:    0.0000
     atom:   51    charge:    0.4013    magn:    0.0000    constr:    0.0000
     atom:   52    charge:    0.4006    magn:    0.0000    constr:    0.0000
     atom:   53    charge:    0.4038    magn:    0.0000    constr:    0.0000
     atom:   54    charge:    0.4034    magn:    0.0000    constr:    0.0000

     total cpu time spent up to now is     1580.1 secs

     total energy              =   -3021.42002313 Ry
     Harris-Foulkes estimate   =   -3021.42002220 Ry
     estimated scf accuracy    <       0.00002285 Ry

     total magnetization       =     0.00 Bohr mag/cell
     absolute magnetization    =     0.00 Bohr mag/cell

     iteration #  5     ecut=    40.42 Ry     beta=0.10
     Davidson diagonalization with overlap
     ethr =  5.74E-09,  avg # of iterations =  2.3

     negative rho (up, down):  1.209E-02 1.209E-02
 
     Magnetic moment per site:
     atom:    1    charge:    3.1250    magn:   -0.0001    constr:    0.0000
     atom:    2    charge:    1.9452    magn:    0.0000    constr:    0.0000
     atom:    3    charge:    3.1198    magn:    0.0000    constr:    0.0000
     atom:    4    charge:    1.9504    magn:   -0.0000    constr:    0.0000
     atom:    5    charge:    3.1166    magn:    0.0000    constr:    0.0000
     atom:    6    charge:    1.9477    magn:   -0.0000    constr:    0.0000
     atom:    7    charge:    3.1157    magn:    0.0000    constr:    0.0000
     atom:    8    charge:    1.9452    magn:   -0.0000    constr:    0.0000
     atom:    9    charge:    3.1250    magn:   -0.0001    constr:    0.0000
     atom:   10    charge:    1.9452    magn:    0.0000    constr:    0.0000
     atom:   11    charge:    3.1197    magn:    0.0000    constr:    0.0000
     atom:   12    charge:    1.9504    magn:   -0.0000    constr:    0.0000
     atom:   13    charge:    3.1158    magn:    0.0000    constr:    0.0000
     atom:   14    charge:    1.9587    magn:   -0.0000    constr:    0.0000
     atom:   15    charge:    3.1188    magn:    0.0000    constr:    0.0000
     atom:   16    charge:    1.9446    magn:   -0.0000    constr:    0.0000
     atom:   17    charge:    1.9184    magn:    0.0002    constr:    0.0000
     atom:   18    charge:    3.1239    magn:   -0.0000    constr:    0.0000
     atom:   19    charge:    1.9408    magn:   -0.0000    constr:    0.0000
     atom:   20    charge:    1.9471    magn:    0.0000    constr:    0.0000
     atom:   21    charge:    1.9471    magn:    0.0000    constr:    0.0000
     atom:   22    charge:    3.1196    magn:    0.0000    constr:    0.0000
     atom:   23    charge:    1.9566    magn:   -0.0000    constr:    0.0000
     atom:   24    charge:    1.9379    magn:   -0.0000    constr:    0.0000
     atom:   25    charge:    1.9505    magn:   -0.0000    constr:    0.0000
     atom:   26    charge:    3.1145    magn:    0.0000    constr:    0.0000
     atom:   27    charge:    1.9398    magn:   -0.0000    constr:    0.0000
     atom:   28    charge:    1.9517    magn:   -0.0000    constr:    0.0000
     atom:   29    charge:    1.9476    magn:   -0.0000    constr:    0.0000
     atom:   30    charge:    3.1167    magn:    0.0000    constr:    0.0000
     atom:   31    charge:    1.9447    magn:   -0.0000    constr:    0.0000
     atom:   32    charge:    1.9440    magn:   -0.0000    constr:    0.0000
     atom:   33    charge:    1.9184    magn:    0.0002    constr:    0.0000
     atom:   34    charge:    3.1239    magn:   -0.0000    constr:    0.0000
     atom:   35    charge:    1.9408    magn:   -0.0000    constr:    0.0000
     atom:   36    charge:    1.9471    magn:    0.0000    constr:    0.0000
     atom:   37    charge:    1.9471    magn:    0.0000    constr:    0.0000
     atom:   38    charge:    3.1196    magn:    0.0000    constr:    0.0000
     atom:   39    charge:    1.9549    magn:   -0.0000    constr:    0.0000
     atom:   40    charge:    1.9383    magn:   -0.0000    constr:    0.0000
     atom:   41    charge:    1.9505    magn:   -0.0000    constr:    0.0000
     atom:   42    charge:    3.1141    magn:    0.0000    constr:    0.0000
     atom:   43    charge:    1.9413    magn:   -0.0000    constr:    0.0000
     atom:   44    charge:    1.9517    magn:   -0.0000    constr:    0.0000
     atom:   45    charge:    1.9468    magn:   -0.0000    constr:    0.0000
     atom:   46    charge:    3.1165    magn:    0.0000    constr:    0.0000
     atom:   47    charge:    1.9431    magn:   -0.0000    constr:    0.0000
     atom:   48    charge:    1.9444    magn:   -0.0000    constr:    0.0000
     atom:   49    charge:    0.6580    magn:   -0.0000    constr:    0.0000
     atom:   50    charge:    1.9578    magn:   -0.0000    constr:    0.0000
     atom:   51    charge:    0.4013    magn:    0.0000    constr:    0.0000
     atom:   52    charge:    0.4006    magn:    0.0000    constr:    0.0000
     atom:   53    charge:    0.4036    magn:    0.0000    constr:    0.0000
     atom:   54    charge:    0.4036    magn:    0.0000    constr:    0.0000

     total cpu time spent up to now is     1773.1 secs

     total energy              =   -3021.42002153 Ry
     Harris-Foulkes estimate   =   -3021.42002364 Ry
     estimated scf accuracy    <       0.00000814 Ry

     total magnetization       =     0.00 Bohr mag/cell
     absolute magnetization    =     0.00 Bohr mag/cell

     iteration #  6     ecut=    40.42 Ry     beta=0.10
     Davidson diagonalization with overlap
     ethr =  2.04E-09,  avg # of iterations =  3.2

     negative rho (up, down):  1.209E-02 1.209E-02
 
     Magnetic moment per site:
     atom:    1    charge:    3.1250    magn:   -0.0001    constr:    0.0000
     atom:    2    charge:    1.9452    magn:    0.0000    constr:    0.0000
     atom:    3    charge:    3.1198    magn:    0.0000    constr:    0.0000
     atom:    4    charge:    1.9504    magn:   -0.0000    constr:    0.0000
     atom:    5    charge:    3.1166    magn:    0.0000    constr:    0.0000
     atom:    6    charge:    1.9476    magn:   -0.0000    constr:    0.0000
     atom:    7    charge:    3.1157    magn:    0.0000    constr:    0.0000
     atom:    8    charge:    1.9452    magn:   -0.0000    constr:    0.0000
     atom:    9    charge:    3.1250    magn:   -0.0001    constr:    0.0000
     atom:   10    charge:    1.9452    magn:    0.0000    constr:    0.0000
     atom:   11    charge:    3.1197    magn:    0.0000    constr:    0.0000
     atom:   12    charge:    1.9504    magn:   -0.0000    constr:    0.0000
     atom:   13    charge:    3.1158    magn:    0.0000    constr:    0.0000
     atom:   14    charge:    1.9587    magn:   -0.0000    constr:    0.0000
     atom:   15    charge:    3.1188    magn:    0.0000    constr:    0.0000
     atom:   16    charge:    1.9445    magn:   -0.0000    constr:    0.0000
     atom:   17    charge:    1.9184    magn:    0.0001    constr:    0.0000
     atom:   18    charge:    3.1239    magn:   -0.0000    constr:    0.0000
     atom:   19    charge:    1.9408    magn:   -0.0000    constr:    0.0000
     atom:   20    charge:    1.9471    magn:    0.0000    constr:    0.0000
     atom:   21    charge:    1.9471    magn:    0.0000    constr:    0.0000
     atom:   22    charge:    3.1196    magn:    0.0000    constr:    0.0000
     atom:   23    charge:    1.9566    magn:   -0.0000    constr:    0.0000
     atom:   24    charge:    1.9379    magn:   -0.0000    constr:    0.0000
     atom:   25    charge:    1.9505    magn:   -0.0000    constr:    0.0000
     atom:   26    charge:    3.1145    magn:    0.0000    constr:    0.0000
     atom:   27    charge:    1.9398    magn:   -0.0000    constr:    0.0000
     atom:   28    charge:    1.9517    magn:   -0.0000    constr:    0.0000
     atom:   29    charge:    1.9476    magn:   -0.0000    constr:    0.0000
     atom:   30    charge:    3.1167    magn:    0.0000    constr:    0.0000
     atom:   31    charge:    1.9447    magn:   -0.0000    constr:    0.0000
     atom:   32    charge:    1.9440    magn:   -0.0000    constr:    0.0000
     atom:   33    charge:    1.9184    magn:    0.0001    constr:    0.0000
     atom:   34    charge:    3.1239    magn:   -0.0000    constr:    0.0000
     atom:   35    charge:    1.9408    magn:   -0.0000    constr:    0.0000
     atom:   36    charge:    1.9471    magn:    0.0000    constr:    0.0000
     atom:   37    charge:    1.9471    magn:    0.0000    constr:    0.0000
     atom:   38    charge:    3.1196    magn:    0.0000    constr:    0.0000
     atom:   39    charge:    1.9549    magn:   -0.0000    constr:    0.0000
     atom:   40    charge:    1.9383    magn:   -0.0000    constr:    0.0000
     atom:   41    charge:    1.9505    magn:   -0.0000    constr:    0.0000
     atom:   42    charge:    3.1141    magn:    0.0000    constr:    0.0000
     atom:   43    charge:    1.9413    magn:   -0.0000    constr:    0.0000
     atom:   44    charge:    1.9517    magn:   -0.0000    constr:    0.0000
     atom:   45    charge:    1.9468    magn:   -0.0000    constr:    0.0000
     atom:   46    charge:    3.1165    magn:    0.0000    constr:    0.0000
     atom:   47    charge:    1.9431    magn:   -0.0000    constr:    0.0000
     atom:   48    charge:    1.9444    magn:   -0.0000    constr:    0.0000
     atom:   49    charge:    0.6580    magn:   -0.0000    constr:    0.0000
     atom:   50    charge:    1.9578    magn:   -0.0000    constr:    0.0000
     atom:   51    charge:    0.4013    magn:    0.0000    constr:    0.0000
     atom:   52    charge:    0.4006    magn:    0.0000    constr:    0.0000
     atom:   53    charge:    0.4036    magn:    0.0000    constr:    0.0000
     atom:   54    charge:    0.4037    magn:    0.0000    constr:    0.0000

     total cpu time spent up to now is     1986.2 secs

     total energy              =   -3021.42002238 Ry
     Harris-Foulkes estimate   =   -3021.42002242 Ry
     estimated scf accuracy    <       0.00000133 Ry

     total magnetization       =     0.00 Bohr mag/cell
     absolute magnetization    =     0.00 Bohr mag/cell

     iteration #  7     ecut=    40.42 Ry     beta=0.10
     Davidson diagonalization with overlap
     ethr =  3.33E-10,  avg # of iterations =  2.1

     negative rho (up, down):  1.209E-02 1.209E-02
 
     Magnetic moment per site:
     atom:    1    charge:    3.1250    magn:   -0.0000    constr:    0.0000
     atom:    2    charge:    1.9451    magn:    0.0000    constr:    0.0000
     atom:    3    charge:    3.1198    magn:    0.0000    constr:    0.0000
     atom:    4    charge:    1.9504    magn:   -0.0000    constr:    0.0000
     atom:    5    charge:    3.1166    magn:    0.0000    constr:    0.0000
     atom:    6    charge:    1.9476    magn:   -0.0000    constr:    0.0000
     atom:    7    charge:    3.1157    magn:    0.0000    constr:    0.0000
     atom:    8    charge:    1.9452    magn:   -0.0000    constr:    0.0000
     atom:    9    charge:    3.1250    magn:   -0.0000    constr:    0.0000
     atom:   10    charge:    1.9452    magn:    0.0000    constr:    0.0000
     atom:   11    charge:    3.1197    magn:    0.0000    constr:    0.0000
     atom:   12    charge:    1.9504    magn:   -0.0000    constr:    0.0000
     atom:   13    charge:    3.1158    magn:    0.0000    constr:    0.0000
     atom:   14    charge:    1.9587    magn:   -0.0000    constr:    0.0000
     atom:   15    charge:    3.1188    magn:    0.0000    constr:    0.0000
     atom:   16    charge:    1.9445    magn:   -0.0000    constr:    0.0000
     atom:   17    charge:    1.9184    magn:    0.0001    constr:    0.0000
     atom:   18    charge:    3.1239    magn:   -0.0000    constr:    0.0000
     atom:   19    charge:    1.9408    magn:   -0.0000    constr:    0.0000
     atom:   20    charge:    1.9471    magn:    0.0000    constr:    0.0000
     atom:   21    charge:    1.9471    magn:    0.0000    constr:    0.0000
     atom:   22    charge:    3.1196    magn:    0.0000    constr:    0.0000
     atom:   23    charge:    1.9566    magn:   -0.0000    constr:    0.0000
     atom:   24    charge:    1.9379    magn:   -0.0000    constr:    0.0000
     atom:   25    charge:    1.9505    magn:   -0.0000    constr:    0.0000
     atom:   26    charge:    3.1145    magn:    0.0000    constr:    0.0000
     atom:   27    charge:    1.9398    magn:   -0.0000    constr:    0.0000
     atom:   28    charge:    1.9517    magn:   -0.0000    constr:    0.0000
     atom:   29    charge:    1.9476    magn:   -0.0000    constr:    0.0000
     atom:   30    charge:    3.1167    magn:    0.0000    constr:    0.0000
     atom:   31    charge:    1.9447    magn:   -0.0000    constr:    0.0000
     atom:   32    charge:    1.9440    magn:   -0.0000    constr:    0.0000
     atom:   33    charge:    1.9184    magn:    0.0001    constr:    0.0000
     atom:   34    charge:    3.1239    magn:   -0.0000    constr:    0.0000
     atom:   35    charge:    1.9408    magn:   -0.0000    constr:    0.0000
     atom:   36    charge:    1.9471    magn:    0.0000    constr:    0.0000
     atom:   37    charge:    1.9471    magn:    0.0000    constr:    0.0000
     atom:   38    charge:    3.1196    magn:    0.0000    constr:    0.0000
     atom:   39    charge:    1.9549    magn:   -0.0000    constr:    0.0000
     atom:   40    charge:    1.9383    magn:   -0.0000    constr:    0.0000
     atom:   41    charge:    1.9505    magn:   -0.0000    constr:    0.0000
     atom:   42    charge:    3.1141    magn:    0.0000    constr:    0.0000
     atom:   43    charge:    1.9413    magn:   -0.0000    constr:    0.0000
     atom:   44    charge:    1.9517    magn:   -0.0000    constr:    0.0000
     atom:   45    charge:    1.9468    magn:   -0.0000    constr:    0.0000
     atom:   46    charge:    3.1165    magn:    0.0000    constr:    0.0000
     atom:   47    charge:    1.9431    magn:   -0.0000    constr:    0.0000
     atom:   48    charge:    1.9444    magn:   -0.0000    constr:    0.0000
     atom:   49    charge:    0.6579    magn:   -0.0000    constr:    0.0000
     atom:   50    charge:    1.9578    magn:   -0.0000    constr:    0.0000
     atom:   51    charge:    0.4013    magn:    0.0000    constr:    0.0000
     atom:   52    charge:    0.4006    magn:    0.0000    constr:    0.0000
     atom:   53    charge:    0.4036    magn:    0.0000    constr:    0.0000
     atom:   54    charge:    0.4036    magn:    0.0000    constr:    0.0000

     total cpu time spent up to now is     2178.1 secs

     End of self-consistent calculation

 ------ SPIN UP ------------


          k = 0.0000 0.0000 0.0000 ( 34665 PWs)   bands (ev):

   -57.6987 -57.6638 -57.3176 -57.2813 -57.2323 -57.1097 -57.0733 -57.0724
   -57.0508 -57.0376 -56.9898 -56.9543 -56.7303 -56.6928 -56.1492 -56.1140
   -34.1348 -33.9809 -33.9524 -33.8997 -33.8699 -33.8054 -33.7450 -33.6531
   -33.6183 -33.6051 -33.5676 -33.5406 -33.5184 -33.5075 -33.4896 -33.4853
   -33.4645 -33.4542 -33.4311 -33.3987 -33.3240 -33.2919 -33.2717 -33.2624
   -33.2548 -33.2540 -33.2430 -33.2428 -33.2370 -33.2295 -33.2292 -33.2124
   -33.1801 -33.1798 -33.1746 -33.1406 -33.1180 -32.9963 -32.9782 -32.9573
   -32.9079 -32.8050 -32.5671 -32.5016 -32.4755 -32.3712 -32.2796 -32.1713
   -20.2994 -18.0124 -17.8413 -17.5569 -17.4618 -17.3725 -17.2517 -17.0775
   -17.0663 -16.9744 -16.9387 -16.8842 -16.7838 -16.7775 -16.7291 -16.7073
   -16.7032 -16.6624 -16.6111 -16.6045 -16.5359 -16.4154 -16.4026 -16.3981
   -16.3213 -16.2677 -16.1945 -16.1673 -16.1498 -15.9791 -15.9296 -14.7338
   -14.6501 -11.4632  -7.2396  -5.4737  -5.3957  -5.3183  -5.2078  -5.1954
    -5.1452  -5.1260  -4.8391  -4.8173  -4.4719  -4.4427  -4.3593  -4.3553
    -4.3215  -4.2325  -4.0898  -4.0609  -4.0551  -4.0177  -3.9992  -3.9911
    -3.9606  -3.9518  -3.9507  -3.8399  -3.7886  -3.7654  -3.7364  -3.7184
    -3.6324  -3.6169  -3.5870  -3.5777  -3.5198  -3.5078  -3.4085  -3.3936
    -3.3727  -3.2707  -3.2365  -3.1888  -3.0134  -2.9355  -2.8788  -2.8333
    -2.6947  -2.6071  -2.5898  -2.5800  -2.5751  -2.5684  -2.4317  -2.4143
    -2.3360  -2.2691  -2.2471  -2.2047  -2.2002  -2.1661  -2.1385  -2.0928
    -2.0478  -2.0287  -2.0201  -1.8866  -1.8658  -1.7619  -1.7359  -1.6241
    -1.5428  -1.5412  -1.4901  -1.4808  -1.4628  -1.4234  -1.3229  -1.3093
    -1.3023  -1.2797  -1.2426  -1.1355  -1.0865  -1.0817  -1.0671  -1.0194
    -0.9543  -0.9154  -0.8202  -0.7645  -0.6103  -0.5873  -0.5692  -0.4791
    -0.3762  -0.2422  -0.0847  -0.0263   0.1314   0.2482   0.2619   1.6427
     1.6752   1.9858   2.0022   2.0656   2.0955   2.2051   2.2440   2.2872
     2.4301   2.4974   2.5261   2.5308   2.5422   2.6312   2.6492   2.6574
     2.7155   2.7998   2.8274   2.8392   2.9112   2.9999   3.0336   3.0994
     3.1054   3.1144   3.1612   3.2023   3.2084   3.2267   3.2401   3.2517
     3.2608   3.2891   3.3972   3.4318   3.4569   3.4666   3.5285   3.5859
     3.6535   3.6951   3.8081   3.9813   4.0164   4.0921   4.1801   4.3206
     4.3389   4.3920   4.5862   4.5995   4.8106   4.8390   5.0873   5.1671
     5.2460   5.3308   5.4789   5.5177   5.5278   5.5936   5.6782   5.7121
     5.8000   5.8655   5.8768   5.8866   5.9548   6.0391   6.0482   6.0724
     6.1446   6.2294   6.2436   6.2974   6.3783   6.5823   6.6365   6.7560
     6.8415   7.0090   7.0394   7.1619   7.3025   7.5787   7.9094   8.2533
     8.3331   8.6769   8.7947   8.8720   8.9390   9.0079   9.1759   9.2541
     9.3522   9.3809   9.5236

          k = 0.0000 0.0280 0.0000 ( 34717 PWs)   bands (ev):

   -57.6964 -57.6661 -57.3152 -57.2837 -57.2319 -57.1074 -57.0754 -57.0702
   -57.0512 -57.0399 -56.9875 -56.9567 -56.7278 -56.6953 -56.1469 -56.1164
   -34.1095 -33.9789 -33.9543 -33.8935 -33.8440 -33.8119 -33.7720 -33.6304
   -33.6114 -33.5801 -33.5422 -33.5376 -33.5205 -33.5005 -33.4924 -33.4840
   -33.4714 -33.4616 -33.4291 -33.3918 -33.3179 -33.2901 -33.2855 -33.2639
   -33.2591 -33.2524 -33.2501 -33.2396 -33.2379 -33.2361 -33.2357 -33.2173
   -33.2025 -33.1850 -33.1769 -33.1446 -33.1413 -32.9925 -32.9768 -32.9586
   -32.9129 -32.8330 -32.5414 -32.4999 -32.4773 -32.3651 -32.2859 -32.1988
   -20.2993 -17.9507 -17.7837 -17.5039 -17.4096 -17.3289 -17.2251 -17.0913
   -17.0361 -16.9983 -16.9928 -16.8859 -16.8195 -16.7614 -16.7071 -16.6893
   -16.6758 -16.6648 -16.6566 -16.6418 -16.5949 -16.4392 -16.3840 -16.3682
   -16.3480 -16.2972 -16.2115 -16.1738 -16.1536 -16.0099 -15.9666 -14.7439
   -14.6735 -11.4629  -7.2392  -5.4397  -5.3148  -5.2582  -5.1995  -5.1301
    -5.0683  -5.0469  -4.7635  -4.7030  -4.4354  -4.4002  -4.3940  -4.3118
    -4.3011  -4.1599  -4.1239  -4.1138  -4.0915  -4.0705  -4.0325  -4.0301
    -3.9657  -3.9612  -3.9498  -3.8912  -3.8530  -3.8466  -3.8376  -3.7662
    -3.7215  -3.7063  -3.6658  -3.6158  -3.5753  -3.5567  -3.4300  -3.3575
    -3.3124  -3.2351  -3.2034  -3.1038  -2.9343  -2.8709  -2.7459  -2.7246
    -2.6137  -2.6005  -2.5252  -2.5097  -2.4779  -2.4402  -2.4121  -2.4078
    -2.3865  -2.3617  -2.2881  -2.2766  -2.1679  -2.1423  -2.1362  -2.0942
    -2.0220  -1.9975  -1.9538  -1.8769  -1.8106  -1.7671  -1.7070  -1.6821
    -1.6427  -1.6255  -1.5637  -1.5256  -1.4815  -1.4381  -1.4354  -1.3961
    -1.3543  -1.2713  -1.2181  -1.2136  -1.1590  -1.0900  -1.0702  -1.0220
    -1.0088  -0.9044  -0.8674  -0.7906  -0.7611  -0.7064  -0.6080  -0.5909
    -0.3945  -0.2702  -0.0916  -0.0806   0.1462   0.2018   0.2284   1.7291
     1.7750   1.9860   2.0651   2.1307   2.1517   2.2186   2.2743   2.3131
     2.4246   2.4614   2.4991   2.5356   2.5861   2.6032   2.6305   2.6918
     2.7328   2.7707   2.7972   2.9126   2.9227   2.9515   2.9763   3.0102
     3.1112   3.1169   3.1347   3.1751   3.1926   3.2056   3.2584   3.3044
     3.3356   3.3710   3.4071   3.4736   3.5068   3.5520   3.5620   3.6491
     3.6650   3.6859   3.7717   3.9600   4.0344   4.1143   4.1912   4.2865
     4.3233   4.3969   4.5410   4.6892   4.8643   4.9255   5.0911   5.2587
     5.3042   5.3353   5.5375   5.5675   5.6038   5.6250   5.6861   5.7205
     5.7845   5.7926   5.8518   5.8782   5.8992   5.9479   6.0693   6.1228
     6.1496   6.1573   6.1759   6.2072   6.2754   6.5588   6.6032   6.6951
     6.8465   6.9490   6.9810   7.0831   7.2312   7.5829   7.9193   8.0125
     8.0603   8.4561   8.5649   8.8395   8.9092   8.9975   9.0881   9.1323
     9.2717   9.4335   9.4950

          k = 0.0000 0.0560 0.0000 ( 34721 PWs)   bands (ev):

   -57.6900 -57.6725 -57.3087 -57.2903 -57.2311 -57.1013 -57.0815 -57.0639
   -57.0521 -57.0464 -56.9810 -56.9632 -56.7212 -56.7019 -56.1405 -56.1228
   -34.0397 -33.9736 -33.9593 -33.8765 -33.8450 -33.8294 -33.7729 -33.5959
   -33.5727 -33.5718 -33.5347 -33.5272 -33.5063 -33.5039 -33.4765 -33.4722
   -33.4560 -33.4262 -33.4186 -33.3724 -33.3160 -33.3129 -33.3127 -33.3014
   -33.2859 -33.2761 -33.2676 -33.2637 -33.2533 -33.2461 -33.2341 -33.2320
   -33.2099 -33.1980 -33.1704 -33.1648 -33.1261 -32.9874 -32.9732 -32.9619
   -32.9259 -32.9027 -32.4951 -32.4821 -32.4707 -32.3486 -32.3027 -32.2729
   -20.2990 -17.7796 -17.6250 -17.3725 -17.2758 -17.2601 -17.2188 -17.1669
   -17.1361 -16.9624 -16.9532 -16.9186 -16.8737 -16.8196 -16.7882 -16.7256
   -16.7159 -16.6839 -16.6250 -16.5968 -16.5397 -16.5046 -16.4228 -16.3779
   -16.3623 -16.3018 -16.2406 -16.1949 -16.1571 -16.1105 -16.0395 -14.7621
   -14.7241 -11.4621  -7.2383  -5.4084  -5.2147  -5.0762  -5.0373  -4.9242
    -4.8583  -4.8242  -4.5618  -4.5053  -4.4729  -4.4176  -4.4094  -4.3665
    -4.3313  -4.2599  -4.2348  -4.2118  -4.1961  -4.1865  -4.1560  -4.0754
    -4.0576  -4.0057  -3.9872  -3.9686  -3.9305  -3.8911  -3.8564  -3.8176
    -3.7970  -3.7311  -3.6356  -3.5858  -3.4335  -3.4271  -3.3356  -3.2679
    -3.2389  -3.2126  -3.1922  -3.0824  -2.8931  -2.8435  -2.8372  -2.7986
    -2.7218  -2.6684  -2.5477  -2.4733  -2.4438  -2.3222  -2.3158  -2.3111
    -2.3035  -2.2491  -2.2070  -2.1792  -2.1479  -2.1174  -2.0317  -2.0102
    -1.9608  -1.9475  -1.9172  -1.9050  -1.8834  -1.8491  -1.8167  -1.7828
    -1.7450  -1.6943  -1.6250  -1.5420  -1.5272  -1.5097  -1.4557  -1.4199
    -1.3803  -1.3646  -1.3501  -1.2905  -1.2388  -1.2171  -1.1561  -1.1030
    -1.0831  -1.0237  -0.9234  -0.8910  -0.8506  -0.7850  -0.7631  -0.6601
    -0.5870  -0.4632  -0.2420   0.0911   0.1434   0.1785   0.1852   1.8647
     2.0246   2.0977   2.1091   2.2097   2.2345   2.2694   2.3665   2.3892
     2.3958   2.4113   2.4343   2.4761   2.5032   2.5379   2.6742   2.6953
     2.7338   2.7752   2.8302   2.9036   2.9154   2.9382   2.9717   2.9733
     3.0152   3.0986   3.1374   3.1570   3.2502   3.2616   3.2862   3.3293
     3.3681   3.3862   3.4405   3.5372   3.5434   3.6364   3.6770   3.7272
     3.7603   3.8231   3.8580   3.8900   3.9317   4.1304   4.1417   4.1583
     4.3270   4.3755   4.5642   4.9063   5.0157   5.0617   5.1746   5.3782
     5.3820   5.4782   5.5180   5.5495   5.6481   5.7230   5.7240   5.7333
     5.7792   5.7875   5.7992   5.8563   5.8853   5.9468   5.9777   5.9907
     6.0013   6.0545   6.1552   6.1709   6.3071   6.3738   6.4106   6.6154
     6.6607   6.7809   6.8700   7.0422   7.2143   7.3344   7.4440   7.7285
     8.0825   8.2049   8.3415   8.6164   8.8866   8.9911   9.3103   9.3321
     9.4283   9.4417   9.5618

          k = 0.0000-0.0840 0.0000 ( 34678 PWs)   bands (ev):

   -57.6814 -57.6812 -57.3012 -57.2979 -57.2307 -57.0958 -57.0870 -57.0552
   -57.0551 -57.0525 -56.9726 -56.9716 -56.7141 -56.7091 -56.1317 -56.1316
   -33.9665 -33.9664 -33.9431 -33.9430 -33.8530 -33.8529 -33.6860 -33.6620
   -33.5659 -33.5625 -33.5284 -33.5179 -33.5136 -33.4768 -33.4531 -33.4240
   -33.4139 -33.4074 -33.3751 -33.3748 -33.3625 -33.3470 -33.3411 -33.3239
   -33.3226 -33.2847 -33.2779 -33.2758 -33.2690 -33.2672 -33.2326 -33.2308
   -33.2154 -33.2135 -33.1634 -33.1626 -33.0488 -33.0279 -32.9701 -32.9648
   -32.9398 -32.9367 -32.4886 -32.4886 -32.3727 -32.3727 -32.3257 -32.3257
   -20.2989 -17.5689 -17.5053 -17.4103 -17.3900 -17.2292 -17.1753 -17.0660
   -17.0617 -17.0158 -17.0031 -16.9894 -16.8719 -16.8396 -16.8396 -16.8009
   -16.7942 -16.5962 -16.5942 -16.5254 -16.5236 -16.4885 -16.4870 -16.4046
   -16.4024 -16.2628 -16.2607 -16.2011 -16.1971 -16.1317 -16.1018 -14.7608
   -14.7607 -11.4617  -7.2378  -5.4005  -5.2193  -4.7996  -4.7333  -4.7322
    -4.6557  -4.6422  -4.6375  -4.6018  -4.5730  -4.5097  -4.5020  -4.4006
    -4.3732  -4.3392  -4.3374  -4.3086  -4.2954  -4.2803  -4.2749  -4.0547
    -4.0329  -4.0235  -4.0106  -3.9924  -3.9426  -3.8097  -3.7935  -3.7872
    -3.7158  -3.6945  -3.6399  -3.5067  -3.4739  -3.3397  -3.3264  -3.2482
    -3.1386  -3.1164  -3.0440  -3.0193  -2.9628  -2.9259  -2.8043  -2.7883
    -2.6977  -2.6936  -2.5766  -2.5393  -2.5129  -2.4951  -2.4780  -2.4474
    -2.4386  -2.4181  -2.3302  -2.2454  -2.0283  -2.0073  -1.9678  -1.9413
    -1.9274  -1.8288  -1.8224  -1.8090  -1.7819  -1.7449  -1.7310  -1.7000
    -1.6651  -1.6404  -1.6144  -1.5584  -1.5157  -1.4876  -1.4812  -1.4529
    -1.4251  -1.4175  -1.4099  -1.3818  -1.3591  -1.3262  -1.2211  -1.1881
    -1.1007  -1.0728  -1.0107  -0.9779  -0.9706  -0.9599  -0.9440  -0.5241
    -0.5190  -0.4569  -0.4427   0.1435   0.1435   0.1861   0.1879   2.0391
     2.0423   2.2185   2.2199   2.2208   2.2367   2.2849   2.3398   2.3471
     2.3472   2.3725   2.3832   2.5277   2.5539   2.5549   2.6011   2.6643
     2.7151   2.7371   2.7500   2.8916   2.9227   2.9898   2.9975   3.0573
     3.0586   3.1021   3.1128   3.1802   3.2181   3.2333   3.2461   3.4038
     3.4262   3.4372   3.4399   3.4729   3.4838   3.7253   3.7659   3.8044
     3.8078   3.8321   3.9090   3.9313   3.9688   4.0735   4.0759   4.1258
     4.1265   4.4181   4.6723   4.9605   5.0007   5.2602   5.3310   5.4575
     5.4891   5.5083   5.5084   5.5724   5.6029   5.6469   5.6653   5.6712
     5.7992   5.8043   5.8263   5.8519   5.8619   5.8668   5.8831   5.9738
     6.0201   6.0592   6.0716   6.1589   6.1963   6.4056   6.4666   6.5647
     6.6043   6.7462   6.7738   6.9803   7.0314   7.1016   7.3273   7.7012
     7.8835   8.1666   8.4116   8.7812   8.8378   8.8615   9.1455   9.6930
     9.7023   9.7478   9.7938

          k = 0.0253 0.0000 0.0000 ( 34707 PWs)   bands (ev):

   -57.6987 -57.6638 -57.3176 -57.2813 -57.2323 -57.1096 -57.0732 -57.0725
   -57.0508 -57.0376 -56.9898 -56.9543 -56.7303 -56.6928 -56.1493 -56.1140
   -34.1351 -33.9809 -33.9525 -33.8990 -33.8700 -33.8055 -33.7450 -33.6539
   -33.6183 -33.6068 -33.5679 -33.5371 -33.5322 -33.5084 -33.4853 -33.4747
   -33.4632 -33.4542 -33.4311 -33.3918 -33.3239 -33.2921 -33.2714 -33.2625
   -33.2581 -33.2573 -33.2442 -33.2412 -33.2392 -33.2295 -33.2292 -33.2122
   -33.1800 -33.1797 -33.1750 -33.1406 -33.1182 -32.9964 -32.9806 -32.9564
   -32.9079 -32.8051 -32.5670 -32.5026 -32.4750 -32.3712 -32.2796 -32.1714
   -20.2992 -17.9826 -17.8013 -17.5146 -17.4329 -17.3559 -17.2583 -17.1444
   -17.0921 -16.9752 -16.9383 -16.8711 -16.8188 -16.8056 -16.7892 -16.7803
   -16.7296 -16.6927 -16.5563 -16.5339 -16.4538 -16.4523 -16.4035 -16.3700
   -16.3388 -16.3123 -16.1830 -16.1651 -16.1511 -15.9789 -15.9293 -14.7327
   -14.6500 -11.4620  -7.2369  -5.4688  -5.3088  -5.2648  -5.1958  -5.0973
    -5.0442  -5.0161  -4.8337  -4.8126  -4.6176  -4.4689  -4.4355  -4.3307
    -4.3112  -4.3012  -4.2475  -4.0984  -4.0363  -4.0325  -3.9963  -3.9448
    -3.9376  -3.9096  -3.8304  -3.8006  -3.7514  -3.7196  -3.6947  -3.6920
    -3.6202  -3.5978  -3.5700  -3.5625  -3.5164  -3.4472  -3.3323  -3.3096
    -3.2507  -3.2342  -3.1816  -3.1063  -3.0336  -2.9763  -2.9235  -2.8959
    -2.7506  -2.6739  -2.6324  -2.5999  -2.5792  -2.5297  -2.5195  -2.5034
    -2.4316  -2.3353  -2.3222  -2.2364  -2.2206  -2.1818  -2.1582  -2.0704
    -2.0093  -1.9997  -1.9630  -1.8826  -1.8498  -1.7530  -1.7394  -1.6507
    -1.5854  -1.5818  -1.5378  -1.4633  -1.4578  -1.3665  -1.3575  -1.3439
    -1.3369  -1.2901  -1.2736  -1.1896  -1.1269  -1.1171  -1.0781  -1.0473
    -0.9725  -0.9149  -0.8296  -0.7854  -0.7741  -0.6509  -0.6424  -0.5507
    -0.4209  -0.2365  -0.1156  -0.0538   0.1173   0.2054   0.2063   1.6621
     1.7252   2.0014   2.0717   2.1488   2.2235   2.2381   2.2700   2.3783
     2.3856   2.4579   2.5047   2.5225   2.5414   2.5785   2.5977   2.6365
     2.6560   2.7346   2.7578   2.8674   2.8843   2.9701   3.0311   3.1041
     3.1213   3.1442   3.1627   3.2036   3.2088   3.2541   3.2696   3.3398
     3.3777   3.4027   3.4512   3.4732   3.5358   3.5606   3.5921   3.6001
     3.6643   3.7302   3.7475   3.9141   4.0021   4.0966   4.1743   4.2766
     4.3746   4.3951   4.5533   4.6750   4.8638   4.9115   4.9264   5.0699
     5.1217   5.1462   5.1890   5.3511   5.5683   5.6218   5.6938   5.8665
     5.8831   5.9251   5.9593   6.0303   6.0805   6.1149   6.1608   6.2098
     6.2191   6.2521   6.2590   6.3082   6.4488   6.5237   6.6419   6.6664
     6.8209   6.8687   7.0343   7.1470   7.3024   7.7517   7.8537   8.0874
     8.3360   8.3505   8.4309   8.6836   8.8456   8.9680   9.1489   9.3449
     9.3630   9.4535   9.5009

          k = 0.0253 0.0280 0.0000 ( 34687 PWs)   bands (ev):

   -57.6964 -57.6661 -57.3152 -57.2837 -57.2319 -57.1073 -57.0754 -57.0703
   -57.0512 -57.0399 -56.9875 -56.9567 -56.7278 -56.6953 -56.1469 -56.1163
   -34.1098 -33.9790 -33.9543 -33.8928 -33.8441 -33.8118 -33.7720 -33.6311
   -33.6115 -33.5818 -33.5425 -33.5344 -33.5217 -33.5159 -33.4927 -33.4721
   -33.4657 -33.4604 -33.4291 -33.3851 -33.3178 -33.2903 -33.2832 -33.2639
   -33.2591 -33.2539 -33.2525 -33.2474 -33.2374 -33.2361 -33.2349 -33.2161
   -33.2026 -33.1850 -33.1769 -33.1445 -33.1413 -32.9925 -32.9789 -32.9578
   -32.9129 -32.8330 -32.5413 -32.5008 -32.4768 -32.3652 -32.2859 -32.1987
   -20.2991 -17.9224 -17.7446 -17.4634 -17.3831 -17.3089 -17.2318 -17.1281
   -17.0976 -17.0059 -16.9629 -16.8583 -16.8300 -16.8054 -16.7838 -16.7699
   -16.7127 -16.6994 -16.5999 -16.5795 -16.5062 -16.4748 -16.3811 -16.3649
   -16.3560 -16.3292 -16.2001 -16.1734 -16.1534 -16.0103 -15.9664 -14.7429
   -14.6736 -11.4616  -7.2364  -5.4430  -5.2478  -5.1981  -5.1802  -5.0209
    -4.9659  -4.9359  -4.7585  -4.6999  -4.5619  -4.4029  -4.3710  -4.3454
    -4.2594  -4.2527  -4.1864  -4.1183  -4.0861  -4.0644  -4.0332  -4.0201
    -3.9760  -3.9423  -3.9126  -3.8674  -3.8218  -3.8097  -3.7838  -3.7194
    -3.6973  -3.6638  -3.6149  -3.6048  -3.5406  -3.5256  -3.3526  -3.2961
    -3.2515  -3.2172  -3.1497  -3.0731  -2.9816  -2.9494  -2.7843  -2.7057
    -2.6806  -2.6359  -2.6103  -2.5343  -2.5032  -2.4539  -2.4476  -2.4204
    -2.4047  -2.3863  -2.3399  -2.3021  -2.2156  -2.1778  -2.1154  -2.1000
    -2.0665  -1.9946  -1.9488  -1.8916  -1.8648  -1.8261  -1.7619  -1.6742
    -1.6445  -1.6163  -1.5884  -1.5619  -1.5086  -1.4615  -1.4398  -1.4009
    -1.3444  -1.3275  -1.2692  -1.2550  -1.2073  -1.1073  -1.0970  -1.0603
    -1.0108  -0.8870  -0.8392  -0.8349  -0.7642  -0.7390  -0.6960  -0.6583
    -0.4319  -0.2812  -0.1338  -0.0856   0.1494   0.1787   0.1889   1.7212
     1.8453   2.0166   2.0992   2.1960   2.2449   2.2823   2.3166   2.3973
     2.4179   2.4674   2.4893   2.5248   2.5330   2.5528   2.5908   2.6744
     2.7055   2.7278   2.7876   2.8070   2.9308   2.9872   3.0101   3.0351
     3.1067   3.1347   3.1462   3.1729   3.2088   3.2425   3.3446   3.3738
     3.4064   3.4367   3.4630   3.5106   3.5528   3.5693   3.6366   3.6613
     3.6737   3.7085   3.7502   3.8950   3.9941   4.1385   4.1858   4.2531
     4.3069   4.4525   4.5097   4.7698   4.9295   4.9521   4.9938   5.0782
     5.1603   5.1757   5.2238   5.3872   5.6431   5.6824   5.7319   5.7778
     5.8547   5.8655   5.8718   6.0077   6.0713   6.0858   6.1198   6.1452
     6.1972   6.2090   6.2196   6.2351   6.4288   6.5295   6.6127   6.6612
     6.7868   6.8664   6.9634   7.1506   7.2261   7.4977   7.9316   8.0303
     8.0939   8.2521   8.4461   8.5782   8.6536   8.7760   8.9378   9.2642
     9.3694   9.4706   9.5114

          k = 0.0253 0.0560 0.0000 ( 34699 PWs)   bands (ev):

   -57.6900 -57.6725 -57.3087 -57.2903 -57.2311 -57.1013 -57.0814 -57.0639
   -57.0521 -57.0464 -56.9810 -56.9632 -56.7212 -56.7020 -56.1405 -56.1228
   -34.0399 -33.9736 -33.9594 -33.8760 -33.8450 -33.8291 -33.7730 -33.5958
   -33.5733 -33.5718 -33.5348 -33.5252 -33.5085 -33.5074 -33.4766 -33.4725
   -33.4550 -33.4263 -33.4133 -33.3670 -33.3165 -33.3136 -33.3084 -33.3012
   -33.2860 -33.2765 -33.2676 -33.2626 -33.2534 -33.2483 -33.2381 -33.2343
   -33.2101 -33.1987 -33.1704 -33.1647 -33.1259 -32.9874 -32.9746 -32.9618
   -32.9259 -32.9026 -32.4957 -32.4819 -32.4706 -32.3486 -32.3028 -32.2729
   -20.2988 -17.7561 -17.5893 -17.3432 -17.2640 -17.2445 -17.1933 -17.1677
   -17.1392 -16.9957 -16.9700 -16.8804 -16.8759 -16.8291 -16.7962 -16.7723
   -16.7477 -16.6702 -16.6228 -16.6043 -16.5791 -16.5300 -16.4266 -16.4120
   -16.3556 -16.2847 -16.2337 -16.1942 -16.1568 -16.1113 -16.0389 -14.7614
   -14.7243 -11.4608  -7.2354  -5.4155  -5.2141  -5.0308  -4.9486  -4.8126
    -4.7566  -4.7143  -4.5580  -4.4979  -4.4901  -4.4136  -4.3939  -4.3391
    -4.2705  -4.2312  -4.2155  -4.1918  -4.1475  -4.1410  -4.1059  -4.0615
    -4.0322  -4.0124  -3.9931  -3.9352  -3.9242  -3.8749  -3.8591  -3.8212
    -3.7740  -3.7153  -3.6544  -3.5715  -3.4729  -3.3963  -3.3243  -3.2820
    -3.2372  -3.2231  -3.1841  -3.0122  -2.9378  -2.8630  -2.8293  -2.7794
    -2.7578  -2.6455  -2.5927  -2.5093  -2.4886  -2.4375  -2.3925  -2.3652
    -2.3426  -2.3242  -2.2881  -2.2629  -2.1895  -2.1408  -2.1274  -2.0396
    -2.0114  -2.0093  -1.9465  -1.9381  -1.9027  -1.8611  -1.8342  -1.8118
    -1.7448  -1.7033  -1.6783  -1.6373  -1.5726  -1.5377  -1.4942  -1.4753
    -1.4309  -1.3730  -1.3384  -1.3022  -1.2233  -1.2049  -1.1305  -1.1053
    -1.0601  -1.0128  -0.9117  -0.8751  -0.8209  -0.7995  -0.7437  -0.6806
    -0.6066  -0.4651  -0.2558   0.0921   0.1287   0.1557   0.1883   1.8620
     2.0483   2.1325   2.1791   2.2317   2.2720   2.3061   2.3478   2.3850
     2.4264   2.4622   2.4811   2.5082   2.5205   2.5838   2.6940   2.7217
     2.7392   2.7766   2.8240   2.8401   2.9042   2.9528   2.9749   2.9863
     3.0276   3.0339   3.1565   3.2077   3.2867   3.3298   3.3406   3.3834
     3.4077   3.4392   3.4610   3.5409   3.5599   3.6311   3.6562   3.7347
     3.7932   3.8199   3.8617   3.9008   3.9049   4.0721   4.1169   4.1656
     4.3432   4.3848   4.6157   4.9651   5.0126   5.1265   5.1420   5.1583
     5.2624   5.2894   5.3137   5.4369   5.5101   5.5615   5.6374   5.7586
     5.8237   5.8505   5.8917   5.9342   5.9609   6.0029   6.0486   6.0614
     6.1365   6.1573   6.2230   6.3307   6.3795   6.4034   6.4814   6.6427
     6.6920   6.7966   6.8476   7.0354   7.1498   7.3639   7.4835   7.5861
     7.9786   8.1806   8.3492   8.5195   8.6476   8.8544   9.0472   9.1141
     9.1833   9.4947   9.6219

          k = 0.0253-0.0840 0.0000 ( 34722 PWs)   bands (ev):

   -57.6814 -57.6812 -57.3012 -57.2979 -57.2306 -57.0958 -57.0869 -57.0552
   -57.0551 -57.0525 -56.9726 -56.9716 -56.7141 -56.7091 -56.1317 -56.1316
   -33.9666 -33.9664 -33.9434 -33.9432 -33.8527 -33.8526 -33.6861 -33.6622
   -33.5659 -33.5626 -33.5290 -33.5177 -33.5134 -33.4768 -33.4523 -33.4241
   -33.4160 -33.4099 -33.3760 -33.3759 -33.3633 -33.3402 -33.3342 -33.3225
   -33.3211 -33.2845 -33.2777 -33.2760 -33.2692 -33.2657 -33.2361 -33.2346
   -33.2170 -33.2152 -33.1634 -33.1626 -33.0487 -33.0279 -32.9706 -32.9656
   -32.9397 -32.9367 -32.4888 -32.4888 -32.3728 -32.3727 -32.3257 -32.3257
   -20.2987 -17.5555 -17.4872 -17.3821 -17.3636 -17.2132 -17.1542 -17.0592
   -17.0496 -17.0039 -16.9795 -16.9753 -16.8888 -16.8792 -16.8689 -16.7856
   -16.7803 -16.6345 -16.6287 -16.5682 -16.5647 -16.5222 -16.5208 -16.3883
   -16.3868 -16.2542 -16.2520 -16.1993 -16.1957 -16.1322 -16.1012 -14.7607
   -14.7606 -11.4604  -7.2350  -5.4076  -5.2190  -4.7998  -4.6452  -4.6354
    -4.6239  -4.5481  -4.5472  -4.5314  -4.5244  -4.4183  -4.4088  -4.3696
    -4.3466  -4.3161  -4.2979  -4.2846  -4.2630  -4.2314  -4.2277  -4.0423
    -4.0384  -4.0143  -3.9833  -3.9644  -3.9201  -3.8476  -3.8420  -3.8157
    -3.7383  -3.6614  -3.6416  -3.4145  -3.4004  -3.3477  -3.3190  -3.2398
    -3.1194  -3.0949  -3.0601  -3.0508  -3.0091  -2.9633  -2.9185  -2.8949
    -2.8089  -2.8048  -2.6222  -2.6019  -2.5767  -2.5589  -2.5300  -2.4662
    -2.4345  -2.3421  -2.3149  -2.2750  -2.1216  -2.0734  -2.0551  -2.0091
    -1.9229  -1.9204  -1.8784  -1.8669  -1.8564  -1.8158  -1.8055  -1.7951
    -1.7669  -1.7290  -1.6857  -1.6571  -1.6205  -1.6072  -1.5945  -1.4757
    -1.4015  -1.3885  -1.2787  -1.2616  -1.2415  -1.2261  -1.1860  -1.1300
    -1.0832  -1.0516  -1.0435  -1.0122  -0.9592  -0.8905  -0.8786  -0.5371
    -0.5293  -0.4573  -0.4448   0.1173   0.1174   0.1967   0.1983   2.0508
     2.0531   2.2179   2.2335   2.2366   2.2401   2.2783   2.3165   2.4238
     2.4259   2.4406   2.4427   2.5581   2.5595   2.5782   2.6556   2.7219
     2.7562   2.8204   2.8292   2.8804   2.9000   2.9384   2.9485   3.0261
     3.0399   3.0856   3.1150   3.2216   3.2694   3.2902   3.3071   3.4228
     3.4282   3.4524   3.4696   3.4944   3.5228   3.7148   3.7404   3.8086
     3.8264   3.8380   3.8862   3.9137   3.9206   4.0811   4.0837   4.1174
     4.1178   4.4736   4.7139   4.9850   5.0241   5.2700   5.3020   5.3102
     5.3283   5.3608   5.3853   5.4270   5.4792   5.5097   5.5536   5.6408
     5.6463   5.7632   5.8337   5.8765   5.8917   6.0162   6.0772   6.0887
     6.1315   6.1858   6.2183   6.2812   6.3017   6.4675   6.5206   6.5951
     6.6380   6.7877   6.7956   6.9902   7.0344   7.1217   7.3843   7.5823
     7.7444   8.0037   8.2779   8.7232   8.7412   8.9674   9.0034   9.2951
     9.3466   9.4507   9.5430

          k = 0.0506 0.0000 0.0000 ( 34729 PWs)   bands (ev):

   -57.6987 -57.6638 -57.3176 -57.2813 -57.2323 -57.1095 -57.0732 -57.0727
   -57.0508 -57.0376 -56.9899 -56.9543 -56.7303 -56.6928 -56.1493 -56.1140
   -34.1358 -33.9809 -33.9525 -33.8976 -33.8702 -33.8055 -33.7451 -33.6553
   -33.6182 -33.6101 -33.5684 -33.5490 -33.5292 -33.5086 -33.4852 -33.4607
   -33.4583 -33.4534 -33.4311 -33.3751 -33.3237 -33.2923 -33.2708 -33.2666
   -33.2625 -33.2614 -33.2604 -33.2374 -33.2340 -33.2296 -33.2293 -33.2117
   -33.1798 -33.1795 -33.1756 -33.1406 -33.1183 -32.9963 -32.9857 -32.9545
   -32.9080 -32.8052 -32.5668 -32.5048 -32.4738 -32.3712 -32.2797 -32.1715
   -20.2988 -17.9166 -17.7065 -17.4159 -17.3901 -17.2828 -17.2657 -17.2373
   -17.1397 -16.9782 -16.9674 -16.9374 -16.8950 -16.8858 -16.8679 -16.8457
   -16.7509 -16.7009 -16.5364 -16.4554 -16.4491 -16.4104 -16.4048 -16.3588
   -16.3540 -16.3275 -16.1752 -16.1602 -16.1536 -15.9790 -15.9290 -14.7305
   -14.6497 -11.4596  -7.2313  -5.4769  -5.2951  -5.1948  -4.9799  -4.9136
    -4.8030  -4.7977  -4.7711  -4.7481  -4.7138  -4.6330  -4.5250  -4.4647
    -4.4183  -4.2480  -4.1319  -4.0399  -4.0247  -4.0193  -3.9738  -3.9299
    -3.9119  -3.8287  -3.7884  -3.7617  -3.7529  -3.6588  -3.6367  -3.6147
    -3.5555  -3.5535  -3.5410  -3.5258  -3.4998  -3.2898  -3.2812  -3.2660
    -3.2430  -3.2023  -3.1559  -3.1106  -2.9948  -2.9423  -2.8848  -2.8513
    -2.8267  -2.7799  -2.7573  -2.6786  -2.6227  -2.6109  -2.5770  -2.5469
    -2.4627  -2.4594  -2.4271  -2.3655  -2.3136  -2.2062  -2.1982  -2.1214
    -2.0861  -1.9913  -1.9391  -1.9318  -1.8432  -1.8174  -1.8007  -1.7143
    -1.6360  -1.5745  -1.5579  -1.5551  -1.4861  -1.4779  -1.4425  -1.4003
    -1.3518  -1.3330  -1.3034  -1.2104  -1.1192  -1.1058  -1.0883  -1.0722
    -0.9901  -0.9541  -0.8882  -0.8153  -0.8092  -0.7933  -0.7570  -0.5323
    -0.5238  -0.2678  -0.2238  -0.0471   0.0930   0.1190   0.1373   1.6421
     1.8185   2.0003   2.0969   2.1008   2.1794   2.1969   2.2811   2.2936
     2.4544   2.4577   2.4708   2.5589   2.5639   2.5854   2.6263   2.6787
     2.7071   2.8227   2.8703   2.8736   2.8994   2.9237   3.0838   3.1082
     3.1476   3.1638   3.2009   3.2018   3.2867   3.2892   3.3315   3.4091
     3.4391   3.4483   3.5005   3.5528   3.5769   3.5857   3.7001   3.7111
     3.7595   3.7630   3.7987   3.8939   3.9252   4.0823   4.1574   4.2112
     4.3474   4.4656   4.5751   4.6515   4.7679   4.7977   4.8611   4.8942
     4.9111   5.1003   5.2088   5.4395   5.6434   5.7589   5.7609   5.8793
     5.8874   5.9184   5.9316   5.9649   6.0273   6.0953   6.1374   6.1580
     6.2405   6.4202   6.5137   6.5974   6.6057   6.6316   6.6848   6.7228
     6.8523   6.8534   7.0305   7.0443   7.2931   7.3024   7.4985   8.0103
     8.1403   8.3838   8.4734   8.7440   8.8121   8.9559   9.0412   9.2717
     9.3360   9.3741   9.6237

          k = 0.0506 0.0280 0.0000 ( 34685 PWs)   bands (ev):

   -57.6964 -57.6661 -57.3152 -57.2837 -57.2319 -57.1072 -57.0753 -57.0705
   -57.0512 -57.0400 -56.9875 -56.9567 -56.7278 -56.6953 -56.1469 -56.1163
   -34.1104 -33.9789 -33.9543 -33.8915 -33.8443 -33.8118 -33.7720 -33.6325
   -33.6115 -33.5851 -33.5431 -33.5353 -33.5273 -33.5195 -33.4926 -33.4718
   -33.4581 -33.4485 -33.4291 -33.3689 -33.3175 -33.2905 -33.2789 -33.2652
   -33.2639 -33.2610 -33.2588 -33.2531 -33.2375 -33.2361 -33.2338 -33.2137
   -33.2031 -33.1852 -33.1769 -33.1444 -33.1413 -32.9925 -32.9833 -32.9565
   -32.9129 -32.8330 -32.5412 -32.5026 -32.4759 -32.3652 -32.2859 -32.1988
   -20.2987 -17.8601 -17.6510 -17.3686 -17.3411 -17.2494 -17.2241 -17.2144
   -17.1217 -17.0436 -16.9632 -16.9197 -16.8702 -16.8574 -16.8546 -16.8326
   -16.7628 -16.7448 -16.5587 -16.5280 -16.5038 -16.4377 -16.4151 -16.3758
   -16.3681 -16.3115 -16.1909 -16.1718 -16.1522 -16.0116 -15.9662 -14.7409
   -14.6736 -11.4591  -7.2307  -5.4562  -5.2338  -5.1942  -4.8921  -4.8338
    -4.7182  -4.7036  -4.6750  -4.6558  -4.6300  -4.5091  -4.4273  -4.3457
    -4.3179  -4.3014  -4.1559  -4.1338  -4.0550  -4.0260  -4.0094  -3.9915
    -3.9828  -3.9094  -3.8601  -3.8150  -3.7734  -3.7606  -3.7176  -3.6897
    -3.6545  -3.6314  -3.5823  -3.5511  -3.4454  -3.3104  -3.2746  -3.2627
    -3.2289  -3.1729  -3.1047  -3.0626  -2.9539  -2.9384  -2.8763  -2.8421
    -2.7429  -2.6928  -2.6587  -2.6489  -2.6000  -2.5911  -2.5365  -2.4981
    -2.4361  -2.3860  -2.3807  -2.3407  -2.3094  -2.2520  -2.1772  -2.1370
    -2.1089  -2.0649  -2.0255  -1.9769  -1.9433  -1.9001  -1.8629  -1.8216
    -1.7525  -1.7372  -1.7108  -1.6302  -1.5368  -1.5055  -1.4792  -1.4320
    -1.3783  -1.3383  -1.2794  -1.2575  -1.2369  -1.1427  -1.1148  -1.0133
    -0.9740  -0.8848  -0.8577  -0.8049  -0.7848  -0.7651  -0.7028  -0.6881
    -0.5116  -0.3112  -0.2590  -0.0730   0.1099   0.1393   0.1627   1.7047
     1.9054   2.0608   2.1226   2.1276   2.1743   2.2514   2.3586   2.3727
     2.4084   2.4372   2.5142   2.5575   2.5749   2.6038   2.6726   2.6941
     2.7453   2.8040   2.8537   2.8977   2.9564   2.9742   3.0420   3.0593
     3.0988   3.1621   3.1717   3.1999   3.3005   3.3611   3.3760   3.4078
     3.4464   3.4783   3.5454   3.5809   3.6038   3.6473   3.6774   3.6867
     3.7190   3.7706   3.8191   3.8709   3.9350   4.0585   4.1692   4.2824
     4.2931   4.4234   4.6209   4.6898   4.7649   4.8122   4.8582   4.9836
     5.0135   5.1280   5.2245   5.4715   5.5957   5.6396   5.7333   5.8064
     5.8628   5.8713   5.9180   5.9479   5.9817   6.0893   6.1185   6.1397
     6.2302   6.4357   6.4738   6.5373   6.5776   6.6138   6.6870   6.7391
     6.7999   6.8179   6.9743   7.1160   7.1678   7.3946   7.5674   7.7028
     8.1345   8.1637   8.2457   8.3900   8.7680   8.9672   9.0125   9.0415
     9.3750   9.4477   9.6036

          k = 0.0506 0.0560 0.0000 ( 34596 PWs)   bands (ev):

   -57.6900 -57.6725 -57.3087 -57.2903 -57.2311 -57.1012 -57.0814 -57.0640
   -57.0521 -57.0464 -56.9810 -56.9632 -56.7212 -56.7020 -56.1405 -56.1228
   -34.0405 -33.9736 -33.9593 -33.8748 -33.8452 -33.8287 -33.7731 -33.5958
   -33.5744 -33.5719 -33.5352 -33.5212 -33.5151 -33.5107 -33.4766 -33.4733
   -33.4530 -33.4263 -33.4037 -33.3534 -33.3178 -33.3173 -33.3009 -33.2987
   -33.2863 -33.2764 -33.2675 -33.2603 -33.2535 -33.2529 -33.2474 -33.2394
   -33.2102 -33.2002 -33.1704 -33.1643 -33.1254 -32.9875 -32.9775 -32.9616
   -32.9258 -32.9025 -32.4968 -32.4814 -32.4704 -32.3486 -32.3027 -32.2728
   -20.2984 -17.7057 -17.5003 -17.2909 -17.2391 -17.1975 -17.1735 -17.1614
   -17.0896 -17.0367 -17.0059 -16.9130 -16.8559 -16.8483 -16.8440 -16.8060
   -16.7761 -16.7213 -16.6624 -16.6225 -16.6123 -16.5505 -16.5122 -16.3985
   -16.3429 -16.2634 -16.2258 -16.1927 -16.1562 -16.1129 -16.0381 -14.7602
   -14.7247 -11.4582  -7.2295  -5.4303  -5.2133  -5.0212  -4.6589  -4.6170
    -4.5138  -4.4988  -4.4852  -4.4556  -4.4312  -4.3678  -4.3234  -4.2993
    -4.2232  -4.2052  -4.1460  -4.1331  -4.0801  -4.0654  -4.0467  -4.0388
    -4.0142  -3.9978  -3.9654  -3.9175  -3.8951  -3.8879  -3.8209  -3.7830
    -3.7303  -3.6599  -3.6283  -3.5253  -3.4889  -3.3671  -3.3289  -3.2669
    -3.2572  -3.2421  -3.1401  -3.0196  -2.9314  -2.9060  -2.8484  -2.8326
    -2.7577  -2.7269  -2.6866  -2.6092  -2.5894  -2.5730  -2.5260  -2.4877
[...]
    -1.2972  -1.2665  -1.2512  -1.1897  -1.1521  -1.0310  -1.0197  -1.0115
    -0.9882  -0.9482  -0.9051  -0.8377  -0.7562  -0.7008  -0.6467  -0.5937
    -0.5896  -0.5344  -0.5178   0.0663   0.0664   0.2110   0.2127   2.1537
     2.1546   2.2011   2.2030   2.2386   2.2395   2.2666   2.2981   2.4882
     2.4937   2.5258   2.5556   2.6093   2.6169   2.6797   2.6816   2.6911
     2.6923   2.8444   2.9100   2.9831   2.9982   3.0344   3.0420   3.0986
     3.2201   3.2495   3.2726   3.3331   3.3739   3.3906   3.4450   3.4929
     3.5004   3.5228   3.5493   3.5812   3.6039   3.6802   3.7003   3.7455
     3.8351   3.8914   3.9075   3.9530   3.9534   4.0964   4.1032   4.1120
     4.1124   4.6145   4.7834   4.7873   4.8024   4.8709   4.9207   4.9258
     4.9421   4.9848   5.0273   5.2492   5.3400   5.3591   5.3698   5.7303
     5.8000   5.9107   5.9275   5.9797   6.0427   6.1492   6.3034   6.3496
     6.3652   6.3748   6.4104   6.5747   6.6176   6.6653   6.6654   6.7035
     6.7629   6.8446   6.8456   6.8526   6.8535   7.3597   7.4078   7.5237
     7.6623   7.8257   8.0129   8.1699   8.2236   8.3188   8.3893   8.8241
     8.9140   9.0448   9.0815

          k =-0.0253 0.0280 0.0000 ( 34687 PWs)   bands (ev):

   -57.6965 -57.6662 -57.3152 -57.2837 -57.2318 -57.1073 -57.0753 -57.0703
   -57.0511 -57.0399 -56.9874 -56.9567 -56.7278 -56.6952 -56.1471 -56.1166
   -34.1098 -33.9791 -33.9544 -33.8929 -33.8440 -33.8119 -33.7721 -33.6311
   -33.6114 -33.5818 -33.5425 -33.5343 -33.5217 -33.5159 -33.4926 -33.4721
   -33.4656 -33.4604 -33.4290 -33.3850 -33.3178 -33.2903 -33.2832 -33.2639
   -33.2588 -33.2539 -33.2527 -33.2474 -33.2374 -33.2360 -33.2349 -33.2160
   -33.2026 -33.1849 -33.1768 -33.1445 -33.1412 -32.9925 -32.9788 -32.9578
   -32.9129 -32.8329 -32.5415 -32.5010 -32.4770 -32.3654 -32.2861 -32.1990
   -20.2991 -17.9224 -17.7446 -17.4634 -17.3831 -17.3089 -17.2319 -17.1281
   -17.0978 -17.0056 -16.9629 -16.8588 -16.8300 -16.8063 -16.7834 -16.7698
   -16.7126 -16.6997 -16.5997 -16.5792 -16.5062 -16.4748 -16.3811 -16.3650
   -16.3560 -16.3292 -16.2002 -16.1734 -16.1533 -16.0104 -15.9664 -14.7424
   -14.6731 -11.4616  -7.2364  -5.4429  -5.2477  -5.1980  -5.1803  -5.0213
    -4.9659  -4.9362  -4.7586  -4.7008  -4.5616  -4.4026  -4.3709  -4.3457
    -4.2607  -4.2494  -4.1877  -4.1165  -4.0908  -4.0638  -4.0358  -4.0202
    -3.9747  -3.9405  -3.9139  -3.8686  -3.8219  -3.8110  -3.7841  -3.7195
    -3.6997  -3.6626  -3.6147  -3.6041  -3.5392  -3.5246  -3.3574  -3.2890
    -3.2523  -3.2176  -3.1480  -3.0717  -2.9826  -2.9456  -2.7833  -2.7055
    -2.6796  -2.6363  -2.6103  -2.5318  -2.5041  -2.4512  -2.4472  -2.4223
    -2.4056  -2.3843  -2.3392  -2.3011  -2.2175  -2.1751  -2.1212  -2.1035
    -2.0623  -1.9907  -1.9505  -1.8949  -1.8632  -1.8266  -1.7425  -1.7072
    -1.6525  -1.5987  -1.5926  -1.5596  -1.5156  -1.4699  -1.4359  -1.3918
    -1.3444  -1.3322  -1.2805  -1.2420  -1.1960  -1.1109  -1.0984  -1.0586
    -1.0102  -0.8921  -0.8403  -0.8304  -0.7550  -0.7385  -0.7080  -0.6592
    -0.4329  -0.2811  -0.1344  -0.0853   0.1497   0.1791   0.1893   1.7210
     1.8452   2.0165   2.1007   2.1958   2.2463   2.2855   2.3194   2.4043
     2.4158   2.4504   2.4863   2.5303   2.5329   2.5477   2.6082   2.6690
     2.7057   2.7394   2.7760   2.8125   2.9394   2.9866   3.0045   3.0275
     3.1077   3.1362   3.1466   3.1745   3.2090   3.2398   3.3481   3.3729
     3.4041   3.4202   3.4646   3.5070   3.5618   3.5712   3.6374   3.6612
     3.6734   3.7095   3.7496   3.8938   3.9929   4.1404   4.1858   4.2536
     4.3069   4.4528   4.5099   4.7709   4.9376   4.9514   4.9844   5.0782
     5.1592   5.1753   5.2237   5.3861   5.6447   5.6756   5.7288   5.7875
     5.8529   5.8653   5.8727   6.0066   6.0739   6.0787   6.1242   6.1459
     6.1972   6.2077   6.2156   6.2439   6.4287   6.5263   6.6122   6.6664
     6.7895   6.8596   6.9633   7.1507   7.2264   7.5100   7.9305   8.0280
     8.0939   8.2493   8.4433   8.5791   8.6443   8.7752   8.9518   9.2686
     9.3417   9.4591   9.5073

          k =-0.0253 0.0560 0.0000 ( 34699 PWs)   bands (ev):

   -57.6901 -57.6726 -57.3086 -57.2903 -57.2310 -57.1013 -57.0814 -57.0639
   -57.0520 -57.0463 -56.9809 -56.9632 -56.7211 -56.7019 -56.1407 -56.1231
   -34.0400 -33.9737 -33.9595 -33.8760 -33.8451 -33.8292 -33.7729 -33.5958
   -33.5732 -33.5718 -33.5348 -33.5251 -33.5085 -33.5074 -33.4765 -33.4725
   -33.4549 -33.4262 -33.4131 -33.3669 -33.3164 -33.3136 -33.3083 -33.3012
   -33.2860 -33.2764 -33.2676 -33.2625 -33.2533 -33.2484 -33.2381 -33.2343
   -33.2099 -33.1987 -33.1703 -33.1646 -33.1258 -32.9874 -32.9745 -32.9618
   -32.9258 -32.9026 -32.4960 -32.4821 -32.4708 -32.3488 -32.3030 -32.2731
   -20.2989 -17.7561 -17.5893 -17.3432 -17.2640 -17.2447 -17.1936 -17.1676
   -17.1390 -16.9956 -16.9700 -16.8805 -16.8762 -16.8296 -16.7967 -16.7723
   -16.7475 -16.6699 -16.6226 -16.6040 -16.5791 -16.5303 -16.4266 -16.4121
   -16.3557 -16.2847 -16.2337 -16.1942 -16.1568 -16.1113 -16.0389 -14.7610
   -14.7238 -11.4608  -7.2354  -5.4155  -5.2142  -5.0304  -4.9486  -4.8132
    -4.7567  -4.7145  -4.5580  -4.4961  -4.4908  -4.4132  -4.3942  -4.3440
    -4.2708  -4.2321  -4.2150  -4.1917  -4.1474  -4.1404  -4.1076  -4.0615
    -4.0314  -4.0097  -3.9941  -3.9362  -3.9239  -3.8730  -3.8628  -3.8218
    -3.7736  -3.7136  -3.6555  -3.5715  -3.4727  -3.3966  -3.3302  -3.2813
    -3.2378  -3.2162  -3.1787  -3.0127  -2.9350  -2.8644  -2.8259  -2.7829
    -2.7552  -2.6452  -2.5917  -2.5099  -2.4872  -2.4388  -2.3937  -2.3625
    -2.3428  -2.3238  -2.2905  -2.2655  -2.1893  -2.1407  -2.1265  -2.0363
    -2.0198  -2.0024  -1.9449  -1.9424  -1.9041  -1.8615  -1.8298  -1.8065
    -1.7427  -1.7104  -1.6722  -1.6418  -1.5793  -1.5390  -1.5044  -1.4598
    -1.4306  -1.3718  -1.3470  -1.3006  -1.2232  -1.2058  -1.1299  -1.1037
    -1.0613  -1.0136  -0.9234  -0.8757  -0.8134  -0.7996  -0.7374  -0.6802
    -0.6065  -0.4667  -0.2573   0.0924   0.1290   0.1561   0.1886   1.8618
     2.0482   2.1354   2.1791   2.2285   2.2702   2.3067   2.3336   2.3840
     2.4448   2.4593   2.4860   2.5135   2.5210   2.5839   2.6932   2.7247
     2.7450   2.7761   2.8281   2.8412   2.8935   2.9502   2.9712   2.9871
     3.0243   3.0350   3.1707   3.2083   3.2908   3.3171   3.3343   3.3711
     3.4119   3.4369   3.4604   3.5434   3.5596   3.6351   3.6577   3.7353
     3.7935   3.8174   3.8626   3.8991   3.9071   4.0730   4.1169   4.1657
     4.3430   4.3849   4.6165   4.9663   5.0197   5.1239   5.1384   5.1565
     5.2598   5.2874   5.3156   5.4284   5.5120   5.5613   5.6404   5.7630
     5.8249   5.8485   5.8953   5.9366   5.9559   5.9969   6.0526   6.0637
     6.1361   6.1554   6.2297   6.3209   6.3797   6.4103   6.4784   6.6459
     6.6943   6.7965   6.8421   7.0363   7.1510   7.3640   7.4834   7.5899
     7.9776   8.1718   8.3522   8.5224   8.6459   8.8605   9.0522   9.1160
     9.1784   9.4931   9.6240

          k =-0.0506 0.0280 0.0000 ( 34685 PWs)   bands (ev):

   -57.6965 -57.6662 -57.3151 -57.2837 -57.2318 -57.1072 -57.0753 -57.0704
   -57.0511 -57.0399 -56.9874 -56.9567 -56.7278 -56.6952 -56.1471 -56.1166
   -34.1105 -33.9790 -33.9544 -33.8916 -33.8442 -33.8119 -33.7721 -33.6325
   -33.6114 -33.5851 -33.5431 -33.5352 -33.5273 -33.5194 -33.4925 -33.4717
   -33.4580 -33.4484 -33.4291 -33.3689 -33.3175 -33.2905 -33.2788 -33.2651
   -33.2639 -33.2610 -33.2585 -33.2533 -33.2375 -33.2360 -33.2338 -33.2137
   -33.2031 -33.1851 -33.1768 -33.1443 -33.1412 -32.9925 -32.9832 -32.9564
   -32.9129 -32.8330 -32.5414 -32.5028 -32.4761 -32.3654 -32.2861 -32.1990
   -20.2987 -17.8602 -17.6510 -17.3686 -17.3411 -17.2495 -17.2241 -17.2143
   -17.1221 -17.0430 -16.9632 -16.9204 -16.8705 -16.8573 -16.8547 -16.8325
   -16.7630 -16.7447 -16.5590 -16.5277 -16.5037 -16.4378 -16.4151 -16.3758
   -16.3683 -16.3114 -16.1910 -16.1719 -16.1521 -16.0116 -15.9662 -14.7404
   -14.6731 -11.4591  -7.2307  -5.4561  -5.2338  -5.1941  -4.8921  -4.8338
    -4.7204  -4.7042  -4.6749  -4.6547  -4.6299  -4.5092  -4.4275  -4.3451
    -4.3181  -4.3016  -4.1593  -4.1261  -4.0603  -4.0263  -4.0083  -3.9929
    -3.9824  -3.9093  -3.8594  -3.8154  -3.7731  -3.7608  -3.7185  -3.6906
    -3.6551  -3.6331  -3.5826  -3.5508  -3.4453  -3.3166  -3.2818  -3.2609
    -3.2220  -3.1703  -3.1005  -3.0582  -2.9527  -2.9369  -2.8736  -2.8399
    -2.7428  -2.6930  -2.6594  -2.6500  -2.6039  -2.5903  -2.5354  -2.4949
    -2.4365  -2.3870  -2.3806  -2.3352  -2.3082  -2.2539  -2.1789  -2.1354
    -2.1129  -2.0620  -2.0258  -1.9740  -1.9396  -1.9048  -1.8593  -1.8309
    -1.7541  -1.7395  -1.7114  -1.6405  -1.5397  -1.5063  -1.4846  -1.4168
    -1.3663  -1.3473  -1.2782  -1.2599  -1.2372  -1.1470  -1.1128  -1.0127
    -0.9767  -0.8797  -0.8554  -0.8132  -0.7780  -0.7635  -0.7046  -0.6894
    -0.5125  -0.3115  -0.2591  -0.0727   0.1103   0.1397   0.1630   1.7045
     1.9054   2.0607   2.1232   2.1279   2.1730   2.2415   2.3619   2.3727
     2.4066   2.4386   2.5184   2.5681   2.5749   2.6032   2.6844   2.6971
     2.7436   2.8032   2.8337   2.9033   2.9565   2.9822   3.0420   3.0609
     3.0916   3.1611   3.1716   3.2010   3.3029   3.3571   3.3766   3.4109
     3.4465   3.4587   3.5475   3.5868   3.6046   3.6540   3.6765   3.6853
     3.7176   3.7715   3.8188   3.8700   3.9330   4.0595   4.1691   4.2824
     4.2936   4.4231   4.6227   4.6902   4.7647   4.8116   4.8560   4.9862
     5.0130   5.1269   5.2244   5.4703   5.5949   5.6411   5.7217   5.8055
     5.8617   5.8732   5.9258   5.9472   5.9809   6.0934   6.1174   6.1394
     6.2309   6.4327   6.4827   6.5409   6.5783   6.6082   6.6860   6.7416
     6.7976   6.8177   6.9742   7.1149   7.1675   7.3958   7.5716   7.7059
     8.1313   8.1637   8.2440   8.3916   8.7497   8.9672   9.0130   9.0505
     9.3732   9.4374   9.6088

          k =-0.0506 0.0560 0.0000 ( 34596 PWs)   bands (ev):

   -57.6901 -57.6726 -57.3086 -57.2902 -57.2310 -57.1012 -57.0814 -57.0640
   -57.0520 -57.0464 -56.9810 -56.9632 -56.7211 -56.7019 -56.1407 -56.1231
   -34.0406 -33.9737 -33.9594 -33.8748 -33.8453 -33.8288 -33.7731 -33.5957
   -33.5744 -33.5719 -33.5352 -33.5212 -33.5150 -33.5107 -33.4765 -33.4733
   -33.4529 -33.4262 -33.4036 -33.3534 -33.3178 -33.3172 -33.3009 -33.2987
   -33.2863 -33.2764 -33.2675 -33.2602 -33.2534 -33.2530 -33.2474 -33.2393
   -33.2100 -33.2002 -33.1703 -33.1643 -33.1254 -32.9874 -32.9773 -32.9616
   -32.9258 -32.9024 -32.4971 -32.4816 -32.4707 -32.3488 -32.3030 -32.2730
   -20.2985 -17.7057 -17.5003 -17.2909 -17.2394 -17.1974 -17.1734 -17.1616
   -17.0895 -17.0367 -17.0056 -16.9132 -16.8562 -16.8487 -16.8442 -16.8060
   -16.7760 -16.7216 -16.6622 -16.6220 -16.6124 -16.5505 -16.5123 -16.3986
   -16.3430 -16.2633 -16.2259 -16.1928 -16.1561 -16.1130 -16.0381 -14.7598
   -14.7242 -11.4582  -7.2295  -5.4303  -5.2134  -5.0209  -4.6589  -4.6169
    -4.5152  -4.4988  -4.4835  -4.4560  -4.4319  -4.3672  -4.3245  -4.3015
    -4.2255  -4.2054  -4.1461  -4.1317  -4.0822  -4.0669  -4.0459  -4.0363
    -4.0140  -3.9961  -3.9684  -3.9145  -3.8938  -3.8880  -3.8220  -3.7869
    -3.7304  -3.6598  -3.6298  -3.5226  -3.4872  -3.3742  -3.3276  -3.2616
    -3.2553  -3.2445  -3.1384  -3.0127  -2.9329  -2.9040  -2.8506  -2.8302
    -2.7562  -2.7263  -2.6845  -2.6095  -2.5914  -2.5674  -2.5286  -2.4896
    -2.4280  -2.4054  -2.3657  -2.3292  -2.3162  -2.3000  -2.2551  -2.1781
    -2.1521  -2.1210  -2.1138  -2.0771  -2.0471  -2.0019  -1.9838  -1.9015
    -1.8910  -1.8514  -1.8324  -1.7245  -1.6375  -1.6058  -1.5725  -1.4782
    -1.4077  -1.3746  -1.3071  -1.2493  -1.2058  -1.1109  -1.0735  -1.0171
    -1.0020  -0.9365  -0.8524  -0.8194  -0.7697  -0.7558  -0.6922  -0.6568
    -0.6514  -0.5174  -0.3242   0.0783   0.1125   0.1304   0.1940   1.8671
     2.0770   2.1659   2.1999   2.2214   2.2440   2.2989   2.3485   2.3937
     2.4040   2.5378   2.5707   2.5798   2.6079   2.6289   2.6840   2.7552
     2.7825   2.8048   2.8393   2.8815   2.9640   3.0049   3.0288   3.0627
     3.0978   3.1368   3.1682   3.2573   3.3361   3.3678   3.3975   3.4415
     3.4793   3.5003   3.5224   3.5431   3.6155   3.6479   3.7120   3.7447
     3.7806   3.8520   3.8808   3.9198   3.9257   3.9548   4.1121   4.1752
     4.2898   4.4738   4.7256   4.8072   4.8171   4.8967   4.9427   5.0925
     5.1660   5.2322   5.2723   5.3285   5.3726   5.4354   5.4961   5.6266
     5.7812   5.8303   5.8818   5.9523   6.0397   6.1243   6.2176   6.2594
     6.2869   6.3474   6.4167   6.4508   6.5030   6.5784   6.6503   6.7167
     6.7312   6.8251   6.8519   6.9847   7.0522   7.4109   7.4296   7.5767
     7.7452   7.9405   8.0727   8.3837   8.5764   8.6103   8.7418   9.0062
     9.2249   9.3252   9.4542

     the Fermi energy is     0.9973 ev

!    total energy              =   -3021.42002242 Ry
     Harris-Foulkes estimate   =   -3021.42002248 Ry
     estimated scf accuracy    <       0.00000028 Ry

     The total energy is the sum of the following terms:

     one-electron contribution =  -41241.38773661 Ry
     hartree contribution      =   20694.94136964 Ry
     xc contribution           =    -553.69058044 Ry
     ewald contribution        =   18078.71713612 Ry
     smearing contrib. (-TS)   =      -0.00021113 Ry

     total magnetization       =     0.00 Bohr mag/cell
     absolute magnetization    =     0.00 Bohr mag/cell

     convergence has been achieved in   7 iterations

     Forces acting on atoms (Ry/au):


     negative rho (up, down):  1.209E-02 1.209E-02
     atom    1 type  1   force =     0.00001650   -0.00035909   -0.13378609
     atom    2 type  2   force =     0.00000510    0.00002781    0.07212423
     atom    3 type  1   force =    -0.00135450    0.00030936   -0.06096356
     atom    4 type  2   force =     0.00290131    0.00048434    0.00638163
     atom    5 type  1   force =     0.00027544    0.00185241    0.00353127
     atom    6 type  2   force =     0.00006122    0.00000109   -0.00287643
     atom    7 type  1   force =    -0.00033833   -0.00063639    0.00452858
     atom    8 type  2   force =     0.00093276   -0.00021146   -0.00064843
     atom    9 type  1   force =    -0.00002749    0.00001803   -0.13354199
     atom   10 type  2   force =    -0.00006687    0.00006294    0.07130718
     atom   11 type  1   force =    -0.00131813   -0.00024605   -0.05587703
     atom   12 type  2   force =     0.00299686   -0.00007195    0.00609973
     atom   13 type  1   force =     0.00029553   -0.00148721    0.00346287
     atom   14 type  2   force =    -0.00119887   -0.00038548   -0.00290294
     atom   15 type  1   force =    -0.00054339    0.00014507    0.00447908
     atom   16 type  2   force =     0.00058409   -0.00019516   -0.00009341
     atom   17 type  2   force =    -0.00007034   -0.00007330    0.07938521
     atom   18 type  1   force =     0.00013702   -0.00017260    0.11912724
     atom   19 type  2   force =    -0.00010590   -0.00017646   -0.06668832
     atom   20 type  2   force =    -0.06322296    0.00014397   -0.03224210
     atom   21 type  2   force =     0.06320015    0.00001261   -0.03244752
     atom   22 type  1   force =     0.00072466    0.00108002    0.05975157
     atom   23 type  2   force =    -0.00017319    0.00005829   -0.00175602
     atom   24 type  2   force =    -0.00143353   -0.00000216   -0.02326769
     atom   25 type  2   force =    -0.00313196    0.00058956    0.00786831
     atom   26 type  1   force =     0.00063895    0.00028417    0.00462106
     atom   27 type  2   force =     0.00052657    0.00059495   -0.00381333
     atom   28 type  2   force =     0.00013730   -0.00008951   -0.00119866
     atom   29 type  2   force =     0.00021415   -0.00034487   -0.00058429
     atom   30 type  1   force =     0.00024581   -0.00067460    0.00373108
     atom   31 type  2   force =     0.00003946    0.00002130   -0.00265824
     atom   32 type  2   force =     0.00002377   -0.00006219   -0.00120497
     atom   33 type  2   force =    -0.00011856    0.00003551    0.07898699
     atom   34 type  1   force =     0.00006872   -0.00022062    0.11904151
     atom   35 type  2   force =    -0.00030329   -0.00005598   -0.06638918
     atom   36 type  2   force =    -0.06318175   -0.00005563   -0.03232931
     atom   37 type  2   force =     0.06333045   -0.00020410   -0.03248488
     atom   38 type  1   force =     0.00066275   -0.00098549    0.05996727
     atom   39 type  2   force =    -0.00045520    0.00009742   -0.00250239
     atom   40 type  2   force =    -0.00118839    0.00030059   -0.02217954
     atom   41 type  2   force =    -0.00317110   -0.00015223    0.00789573
     atom   42 type  1   force =     0.00051604    0.00006647    0.00373358
     atom   43 type  2   force =     0.00069166    0.00023193   -0.00299531
     atom   44 type  2   force =     0.00022707    0.00009718   -0.00116055
     atom   45 type  2   force =     0.00018616    0.00030535   -0.00062095
     atom   46 type  1   force =     0.00062648    0.00025995    0.00408416
     atom   47 type  2   force =     0.00006920   -0.00029083   -0.00130871
     atom   48 type  2   force =     0.00011204    0.00009700   -0.00092643
     atom   49 type  3   force =    -0.00174899   -0.00639251    0.00262695
     atom   50 type  2   force =     0.00125552   -0.00002325   -0.00313189
     atom   51 type  4   force =     0.00061229    0.00541406    0.00010971
     atom   52 type  4   force =     0.00034102    0.00037401    0.00076315
     atom   53 type  4   force =     0.00302761    0.00112229    0.00047191
     atom   54 type  4   force =    -0.00253091   -0.00051855   -0.00149985

     Total force =     0.362731     Total SCF correction =     0.001329
 !ASE

     Writing output data file calc.save
 
     init_run     :     57.23s CPU     71.22s WALL (       1 calls)
     electrons    :   1688.95s CPU   2106.66s WALL (       1 calls)
     forces       :     39.76s CPU     41.51s WALL (       1 calls)

     Called by init_run:
     wfcinit      :     48.93s CPU     62.15s WALL (       1 calls)
     potinit      :      1.59s CPU      1.88s WALL (       1 calls)

     Called by electrons:
     c_bands      :   1471.98s CPU   1833.19s WALL (       8 calls)
     sum_band     :    185.64s CPU    237.45s WALL (       8 calls)
     v_of_rho     :      8.18s CPU     10.35s WALL (       8 calls)
     newd         :     27.04s CPU     29.89s WALL (       8 calls)
     mix_rho      :      0.27s CPU      0.40s WALL (       8 calls)
     vdW_energy   :      1.45s CPU      1.83s WALL (       9 calls)
     vdW_ffts     :      2.40s CPU      3.07s WALL (      18 calls)
     vdW_v        :      0.88s CPU      1.06s WALL (       9 calls)

     Called by c_bands:
     init_us_2    :      4.82s CPU      5.30s WALL (     720 calls)
     cegterg      :   1443.18s CPU   1802.69s WALL (     320 calls)

     Called by *egterg:
     h_psi        :    623.90s CPU    918.02s WALL (    1540 calls)
     s_psi        :     74.90s CPU     79.00s WALL (    1540 calls)
     g_psi        :      4.16s CPU      4.20s WALL (    1180 calls)
     cdiaghg      :    469.16s CPU    481.40s WALL (    1460 calls)

     Called by h_psi:
     add_vuspsi   :     75.46s CPU     79.44s WALL (    1540 calls)

     General routines
     calbec       :    114.35s CPU    117.56s WALL (    1900 calls)
     fft          :      4.89s CPU      6.37s WALL (     713 calls)
     ffts         :      0.05s CPU      0.07s WALL (      32 calls)
     fftw         :    410.12s CPU    738.45s WALL (  599580 calls)
     interpolate  :      0.25s CPU      0.44s WALL (      32 calls)
     davcio       :      0.08s CPU      1.99s WALL (      40 calls)
 
     Parallel routines
     fft_scatter  :    221.74s CPU    389.56s WALL (  600325 calls)
 
     PWSCF        : 29m47.18s CPU    37m 3.54s WALL

 
   This run was terminated on:  20: 4:50  12Feb2018            

=------------------------------------------------------------------------------=
   JOB DONE.
=------------------------------------------------------------------------------=
