  python dir          : /home/vossj/suncat/lib/python2.7/site-packages/espresso
  espresso dir        : /home/vossj/suncat/esdld/espresso-dynpy-beef/bin
  pseudo dir          : /home/alatimer/bin/psp/esp_psp_w_gbrvRu/
  ase-espresso py git : ffa2778-git



     Program PWSCF v.5.1rc2 (svn rev. ) starts on 10Mar2018 at 13:26:51 

     This program is part of the open-source Quantum ESPRESSO suite
     for quantum simulation of materials; please cite
         "P. Giannozzi et al., J. Phys.:Condens. Matter 21 395502 (2009);
          URL http://www.quantum-espresso.org", 
     in publications or presentations arising from this work. More details at
     http://www.quantum-espresso.org/quote

     Parallel version (MPI), running on    16 processors
     R & G space division:  proc/nbgrp/npool/nimage =      16
     Reading input from pw.inp
     Message from routine read_cards :
     DEPRECATED: no units specified in CELL_PARAMETERS card

     Current dimensions of program PWSCF are:
     Max number of different atomic species (ntypx) = 10
     Max number of k-points (npk) =  40000
     Max angular momentum in pseudopotentials (lmaxx) =  3

     **************************************************************************
     Initializing libbeef V0.1.1 with the BEEF-vdW functional.
     Citation: Wellendorff et al., PRB 85, 235149 (2012).
     **************************************************************************


     IMPORTANT: XC functional enforced from input :
     Exchange-correlation      = BEEF ( 1  4 27 13 2)
     Any further DFT definition will be discarded
     Please, verify this is what you really want


     Subspace diagonalization in iterative solution of the eigenvalue problem:
     a serial algorithm will be used

 
     Parallelization info
     --------------------
     sticks:   dense  smooth     PW     G-vecs:    dense   smooth      PW
     Min         281     112     31                68535    17318    2565
     Max         282     113     32                68545    17369    2582
     Sum        4501    1795    503              1096637   277353   41113
 
     Generating pointlists ...
     new r_m :   0.4125 (alat units)  0.7795 (a.u.) for type    1
     new r_m :   0.4125 (alat units)  0.7795 (a.u.) for type    2
     new r_m :   0.4125 (alat units)  0.7795 (a.u.) for type    3


     bravais-lattice index     =            0
     lattice parameter (alat)  =       1.8897  a.u.
     unit-cell volume          =    7990.9933 (a.u.)^3
     number of atoms/cell      =           51
     number of atomic types    =            3
     number of electrons       =       400.00
     number of Kohn-Sham states=          300
     kinetic-energy cutoff     =      40.4243  Ry
     charge density cutoff     =     404.2426  Ry
     convergence threshold     =      7.3E-07
     mixing beta               =       0.1000
     number of iterations used =           10  plain     mixing
     Exchange-correlation      = BEEF ( 1  4 27 13 2)
     nstep                     =           50


     celldm(1)=   1.889726  celldm(2)=   0.000000  celldm(3)=   0.000000
     celldm(4)=   0.000000  celldm(5)=   0.000000  celldm(6)=   0.000000

     crystal axes: (cart. coord. in units of alat)
               a(1) = (   6.590708   0.000000   0.000000 )  
               a(2) = (   0.000000   5.950229   0.000000 )  
               a(3) = (   0.000000   0.000000  30.195235 )  

     reciprocal axes: (cart. coord. in units 2 pi/alat)
               b(1) = (  0.151729  0.000000  0.000000 )  
               b(2) = (  0.000000  0.168061  0.000000 )  
               b(3) = (  0.000000  0.000000  0.033118 )  


     PseudoPot. # 1 for Ti read from file:
     /home/alatimer/bin/psp/esp_psp_w_gbrvRu/Ti.UPF
     MD5 check sum: 8e4df49b7f0d34bbd5052bf3f5ea0213
     Pseudo is Ultrasoft, Zval = 12.0
     Generated by new atomic code, or converted to UPF format
     Using radial grid of  851 points,  6 beta functions with: 
                l(1) =   0
                l(2) =   0
                l(3) =   1
                l(4) =   1
                l(5) =   2
                l(6) =   2
     Q(r) pseudized with  8 coefficients,  rinner =    1.000   1.000   1.000
                                                       1.000   1.000

     PseudoPot. # 2 for  O read from file:
     /home/alatimer/bin/psp/esp_psp_w_gbrvRu/O.UPF
     MD5 check sum: e057bbcf3229fb5d8c36c0c92f9568b4
     Pseudo is Ultrasoft + core correction, Zval =  6.0
     Generated using "atomic" code by A. Dal Corso  v.5.0.2 svn rev. 9415
     Using radial grid of 1095 points,  4 beta functions with: 
                l(1) =   0
                l(2) =   0
                l(3) =   1
                l(4) =   1
     Q(r) pseudized with 0 coefficients 


     PseudoPot. # 3 for  N read from file:
     /home/alatimer/bin/psp/esp_psp_w_gbrvRu/N.UPF
     MD5 check sum: ed8b6a90f28a53b7d71920e7015d2dd6
     Pseudo is Ultrasoft + core correction, Zval =  5.0
     Generated using "atomic" code by A. Dal Corso  v.5.0.2 svn rev. 9415
     Using radial grid of 1085 points,  4 beta functions with: 
                l(1) =   0
                l(2) =   0
                l(3) =   1
                l(4) =   1
     Q(r) pseudized with 0 coefficients 


     vdW kernel table read from file vdW_kernel_table
     MD5 check sum: 095c7af220d748ca6e76c0b4c6cfb241

     atomic species   valence    mass     pseudopotential
        Ti1           12.00    47.88000     Ti( 1.00)
        O1             6.00    15.99940      O( 1.00)
        N1             5.00    14.00670      N( 1.00)

     Starting magnetic structure 
     atomic species   magnetization
        Ti1          0.250
        O1           0.500
        N1           0.600

     No symmetry found



   Cartesian axes

     site n.     atom                  positions (alat units)
         1           Ti1 tau(   1) = (   1.6476770   0.7437786   2.6545865  )
         2           O1  tau(   2) = (   1.6476770   2.2313359   3.9361215  )
         3           Ti1 tau(   3) = (   1.6476770   2.2313359   5.9499405  )
         4           O1  tau(   4) = (   0.3661420   0.7437786   5.9499405  )
         5           Ti1 tau(   5) = (   1.5280591   0.7315068   9.1973351  )
         6           O1  tau(   6) = (   1.6613943   2.1836906  10.6091769  )
         7           Ti1 tau(   7) = (   1.6665780   2.2096385  12.4157880  )
         8           O1  tau(   8) = (   0.4439715   0.7264440  12.7601561  )
         9           Ti1 tau(   9) = (   1.6476770   3.7188931   2.6545865  )
        10           O1  tau(  10) = (   1.6476770   5.2064503   3.9361215  )
        11           Ti1 tau(  11) = (   1.6476770   5.2064503   5.9499405  )
        12           O1  tau(  12) = (   0.3661420   3.7188931   5.9499405  )
        13           Ti1 tau(  13) = (   1.5319291   3.7072436   9.2118370  )
        14           O1  tau(  14) = (   1.6575607   5.2126413  10.6087893  )
        15           Ti1 tau(  15) = (   1.6606453   5.1916961  12.4165775  )
        16           O1  tau(  16) = (   0.4123725   3.7022030  12.5882193  )
        17           O1  tau(  17) = (   1.6476770   2.2313359   1.3730516  )
        18           Ti1 tau(  18) = (   4.9430310   2.2313359   2.6545865  )
        19           O1  tau(  19) = (   4.9430310   2.2313359   4.6684056  )
        20           O1  tau(  20) = (   6.2245660   0.7437786   2.6545865  )
        21           O1  tau(  21) = (   3.6614961   0.7437786   2.6545865  )
        22           Ti1 tau(  22) = (   4.9430310   0.7437786   5.9499405  )
        23           O1  tau(  23) = (   1.6517842   2.2287041   8.0298356  )
        24           O1  tau(  24) = (   4.9430310   2.2313359   7.2314755  )
        25           O1  tau(  25) = (   2.9292120   0.7437786   5.9499405  )
        26           Ti1 tau(  26) = (   4.8605205   2.2076595   9.4238065  )
        27           O1  tau(  27) = (   4.9553550   2.1639423  11.2756624  )
        28           O1  tau(  28) = (   6.2690671   0.7288246   9.2688367  )
        29           O1  tau(  29) = (   3.6660957   0.7249325   9.2867299  )
        30           Ti1 tau(  30) = (   4.9284588   0.7282168  12.7798302  )
        31           O1  tau(  31) = (   4.9953437   2.2216212  13.8477397  )
        32           O1  tau(  32) = (   2.9112183   0.7266397  12.7651274  )
        33           O1  tau(  33) = (   1.6476770   5.2064503   1.3730516  )
        34           Ti1 tau(  34) = (   4.9430310   5.2064503   2.6545865  )
        35           O1  tau(  35) = (   4.9430310   5.2064503   4.6684056  )
        36           O1  tau(  36) = (   6.2245660   3.7188931   2.6545865  )
        37           O1  tau(  37) = (   3.6614961   3.7188931   2.6545865  )
        38           Ti1 tau(  38) = (   4.9430310   3.7188931   5.9499405  )
        39           O1  tau(  39) = (   1.6524867   5.1852222   8.0294571  )
        40           O1  tau(  40) = (   4.9430310   5.2064503   7.2314755  )
        41           O1  tau(  41) = (   2.9292120   3.7188931   5.9499405  )
        42           Ti1 tau(  42) = (   4.8610151   5.1886528   9.4241876  )
        43           O1  tau(  43) = (   4.9550983   5.2107439  11.2753448  )
        44           O1  tau(  44) = (   6.2713562   3.7024388   9.3047907  )
        45           O1  tau(  45) = (   3.6650622   3.7005085   9.3135888  )
        46           Ti1 tau(  46) = (   5.0160509   3.7038162  12.7585864  )
        47           O1  tau(  47) = (   4.9984032   5.1727849  13.8485277  )
        48           O1  tau(  48) = (   2.9655234   3.7049164  12.5317472  )
        49           O1  tau(  49) = (   2.2548149   3.7063572  14.5693114  )
        50           N1  tau(  50) = (   2.4020298   3.6667063  16.9351815  )
        51           N1  tau(  51) = (   2.1425646   3.6919273  15.8611024  )

     number of k points=    40  Fermi-Dirac smearing, width (Ry)=  0.0073
                       cart. coord. in units 2pi/alat
        k(    1) = (   0.0000000   0.0000000   0.0000000), wk =   0.0277778
        k(    2) = (   0.0000000   0.0280101   0.0000000), wk =   0.0555556
        k(    3) = (   0.0000000   0.0560203   0.0000000), wk =   0.0555556
        k(    4) = (   0.0000000  -0.0840304   0.0000000), wk =   0.0277778
        k(    5) = (   0.0252881   0.0000000   0.0000000), wk =   0.0555556
        k(    6) = (   0.0252881   0.0280101   0.0000000), wk =   0.0555556
        k(    7) = (   0.0252881   0.0560203   0.0000000), wk =   0.0555556
        k(    8) = (   0.0252881  -0.0840304   0.0000000), wk =   0.0555556
        k(    9) = (   0.0505763   0.0000000   0.0000000), wk =   0.0555556
        k(   10) = (   0.0505763   0.0280101   0.0000000), wk =   0.0555556
        k(   11) = (   0.0505763   0.0560203   0.0000000), wk =   0.0555556
        k(   12) = (   0.0505763  -0.0840304   0.0000000), wk =   0.0555556
        k(   13) = (  -0.0758644   0.0000000   0.0000000), wk =   0.0277778
        k(   14) = (  -0.0758644   0.0280101   0.0000000), wk =   0.0555556
        k(   15) = (  -0.0758644   0.0560203   0.0000000), wk =   0.0555556
        k(   16) = (  -0.0758644  -0.0840304   0.0000000), wk =   0.0277778
        k(   17) = (  -0.0252881   0.0280101   0.0000000), wk =   0.0555556
        k(   18) = (  -0.0252881   0.0560203   0.0000000), wk =   0.0555556
        k(   19) = (  -0.0505763   0.0280101   0.0000000), wk =   0.0555556
        k(   20) = (  -0.0505763   0.0560203   0.0000000), wk =   0.0555556
        k(   21) = (   0.0000000   0.0000000   0.0000000), wk =   0.0277778
        k(   22) = (   0.0000000   0.0280101   0.0000000), wk =   0.0555556
        k(   23) = (   0.0000000   0.0560203   0.0000000), wk =   0.0555556
        k(   24) = (   0.0000000  -0.0840304   0.0000000), wk =   0.0277778
        k(   25) = (   0.0252881   0.0000000   0.0000000), wk =   0.0555556
        k(   26) = (   0.0252881   0.0280101   0.0000000), wk =   0.0555556
        k(   27) = (   0.0252881   0.0560203   0.0000000), wk =   0.0555556
        k(   28) = (   0.0252881  -0.0840304   0.0000000), wk =   0.0555556
        k(   29) = (   0.0505763   0.0000000   0.0000000), wk =   0.0555556
        k(   30) = (   0.0505763   0.0280101   0.0000000), wk =   0.0555556
        k(   31) = (   0.0505763   0.0560203   0.0000000), wk =   0.0555556
        k(   32) = (   0.0505763  -0.0840304   0.0000000), wk =   0.0555556
        k(   33) = (  -0.0758644   0.0000000   0.0000000), wk =   0.0277778
        k(   34) = (  -0.0758644   0.0280101   0.0000000), wk =   0.0555556
        k(   35) = (  -0.0758644   0.0560203   0.0000000), wk =   0.0555556
        k(   36) = (  -0.0758644  -0.0840304   0.0000000), wk =   0.0277778
        k(   37) = (  -0.0252881   0.0280101   0.0000000), wk =   0.0555556
        k(   38) = (  -0.0252881   0.0560203   0.0000000), wk =   0.0555556
        k(   39) = (  -0.0505763   0.0280101   0.0000000), wk =   0.0555556
        k(   40) = (  -0.0505763   0.0560203   0.0000000), wk =   0.0555556

     Dense  grid:  1096637 G-vectors     FFT dimensions: (  80,  72, 375)

     Smooth grid:   277353 G-vectors     FFT dimensions: (  54,  45, 240)

     Largest allocated arrays     est. size (Mb)     dimensions
        Kohn-Sham Wavefunctions         9.98 Mb     (    2180,  300)
        NL pseudopotentials            18.89 Mb     (    2180,  568)
        Each V/rho on FFT grid          4.22 Mb     (  138240,   2)
        Each G-vector array             0.52 Mb     (   68538)
        G-vector shells                 0.25 Mb     (   33046)
     Largest temporary arrays     est. size (Mb)     dimensions
        Auxiliary wavefunctions        39.92 Mb     (    2180, 1200)
        Each subspace H/S matrix       21.97 Mb     (    1200, 1200)
        Each <psi_i|beta_j> matrix      2.60 Mb     (     568,  300)
        Arrays for rho mixing          21.09 Mb     (  138240,   10)

     Check: negative/imaginary core charge=   -0.000049    0.000000

     The initial density is read from file :
     ./calc.save/charge-density.dat


     negative rho (up, down):  1.158E-02 1.158E-02


     ************************************************************************
     *
     * You are using vdW-DF for exchange-correlation in this calculation.
     * Please cite the following three references that made this development
     * possible:
     *
     *   M. Dion, H. Rydberg, E. Schroder, D. C. Langreth, and
     *   B. I. Lundqvist, Phys. Rev. Lett. 92, 246401 (2004).
     *
     *   T. Thonhauser, V. R. Cooper, S. Li, A. Puzder, P. Hyldgaard, and
     *   D. C. Langreth, Phys. Rev. B 76, 125112 (2007).
     *
     *   G. Roman-Perez and J. M. Soler, Phys. Rev. Lett. 103, 096102 (2009).
     *
     *
     * If you are using vdW-DF2, please also cite:
     *
     *   K. Lee, E. D. Murray, L. Kong, B. I. Lundqvist, and
     *   D. C. Langreth, Phys. Rev. B 82, 081101(R) (2010).
     *
     *
     * If you are calculating the stress with vdW-DF, please also cite:
     *
     *   R. Sabatini, E. Kucukbenli, B. Kolb, T. Thonhauser, and
     *   S. de Gironcoli, J. Phys.: Condens. Matter 24, 424209 (2012).
     *
     ************************************************************************

     Carrying out vdW-DF run using the following parameters:

     Nqs =      20    Nr_points =    1024   r_max =   100.000
     q_mesh =
               0.00001000     0.04494208     0.09755937     0.15916263
               0.23128650     0.31572767     0.41458969     0.53033537
               0.66584808     0.82450364     1.01025438     1.22772762
               1.48234092     1.78043706     2.12944203     2.53805004
               3.01644009     3.57652955     4.23227104     5.00000000

     Gradients computed in reciprocal space

     ************************************************************************


     Starting wfc are  300 randomized atomic wfcs

     total cpu time spent up to now is       69.9 secs

     Self-consistent Calculation

     iteration #  1     ecut=    40.42 Ry     beta=0.10
     Davidson diagonalization with overlap
     ethr =  1.00E-05,  avg # of iterations = 15.3

     negative rho (up, down):  1.159E-02 1.159E-02
 
     Magnetic moment per site:
     atom:    1    charge:    3.1251    magn:   -0.0002    constr:    0.0000
     atom:    2    charge:    2.0894    magn:    0.0001    constr:    0.0000
     atom:    3    charge:    3.1197    magn:   -0.0001    constr:    0.0000
     atom:    4    charge:    2.0870    magn:    0.0000    constr:    0.0000
     atom:    5    charge:    3.1170    magn:   -0.0001    constr:    0.0000
     atom:    6    charge:    2.0916    magn:    0.0001    constr:    0.0000
     atom:    7    charge:    3.1186    magn:   -0.0000    constr:    0.0000
     atom:    8    charge:    2.0815    magn:    0.0001    constr:    0.0000
     atom:    9    charge:    3.1251    magn:   -0.0002    constr:    0.0000
     atom:   10    charge:    2.0894    magn:    0.0001    constr:    0.0000
     atom:   11    charge:    3.1197    magn:   -0.0001    constr:    0.0000
     atom:   12    charge:    2.0870    magn:    0.0000    constr:    0.0000
     atom:   13    charge:    3.1149    magn:   -0.0001    constr:    0.0000
     atom:   14    charge:    2.0911    magn:    0.0001    constr:    0.0000
     atom:   15    charge:    3.1195    magn:   -0.0000    constr:    0.0000
     atom:   16    charge:    2.0883    magn:    0.0001    constr:    0.0000
     atom:   17    charge:    2.0619    magn:    0.0004    constr:    0.0000
     atom:   18    charge:    3.1238    magn:   -0.0000    constr:    0.0000
     atom:   19    charge:    2.0878    magn:   -0.0000    constr:    0.0000
     atom:   20    charge:    2.0847    magn:   -0.0001    constr:    0.0000
     atom:   21    charge:    2.0847    magn:   -0.0001    constr:    0.0000
     atom:   22    charge:    3.1197    magn:   -0.0000    constr:    0.0000
     atom:   23    charge:    2.0907    magn:    0.0001    constr:    0.0000
     atom:   24    charge:    2.0779    magn:    0.0001    constr:    0.0000
     atom:   25    charge:    2.0869    magn:    0.0000    constr:    0.0000
     atom:   26    charge:    3.1164    magn:   -0.0001    constr:    0.0000
     atom:   27    charge:    2.0825    magn:    0.0002    constr:    0.0000
     atom:   28    charge:    2.0879    magn:    0.0001    constr:    0.0000
     atom:   29    charge:    2.0877    magn:    0.0001    constr:    0.0000
     atom:   30    charge:    3.1168    magn:   -0.0001    constr:    0.0000
     atom:   31    charge:    2.0816    magn:    0.0003    constr:    0.0000
     atom:   32    charge:    2.0843    magn:    0.0001    constr:    0.0000
     atom:   33    charge:    2.0619    magn:    0.0004    constr:    0.0000
     atom:   34    charge:    3.1238    magn:   -0.0000    constr:    0.0000
     atom:   35    charge:    2.0878    magn:   -0.0000    constr:    0.0000
     atom:   36    charge:    2.0847    magn:   -0.0001    constr:    0.0000
     atom:   37    charge:    2.0847    magn:   -0.0001    constr:    0.0000
     atom:   38    charge:    3.1197    magn:   -0.0000    constr:    0.0000
     atom:   39    charge:    2.0911    magn:    0.0001    constr:    0.0000
     atom:   40    charge:    2.0779    magn:    0.0001    constr:    0.0000
     atom:   41    charge:    2.0869    magn:    0.0000    constr:    0.0000
     atom:   42    charge:    3.1180    magn:   -0.0001    constr:    0.0000
     atom:   43    charge:    2.0839    magn:    0.0002    constr:    0.0000
     atom:   44    charge:    2.0865    magn:    0.0001    constr:    0.0000
     atom:   45    charge:    2.0871    magn:    0.0001    constr:    0.0000
     atom:   46    charge:    3.1172    magn:   -0.0001    constr:    0.0000
     atom:   47    charge:    2.0797    magn:    0.0003    constr:    0.0000
     atom:   48    charge:    2.0834    magn:    0.0002    constr:    0.0000
     atom:   49    charge:    2.0535    magn:   -0.0000    constr:    0.0000
     atom:   50    charge:    1.2583    magn:   -0.0000    constr:    0.0000
     atom:   51    charge:    1.2954    magn:    0.0000    constr:    0.0000

     total cpu time spent up to now is      834.5 secs

     total energy              =   -3044.96677579 Ry
     Harris-Foulkes estimate   =   -3044.98065203 Ry
     estimated scf accuracy    <       0.08439149 Ry

     total magnetization       =     0.00 Bohr mag/cell
     absolute magnetization    =     0.01 Bohr mag/cell

     iteration #  2     ecut=    40.42 Ry     beta=0.10
     Davidson diagonalization with overlap
     ethr =  2.11E-05,  avg # of iterations =  2.5

     negative rho (up, down):  1.161E-02 1.161E-02
 
     Magnetic moment per site:
     atom:    1    charge:    3.1250    magn:   -0.0001    constr:    0.0000
     atom:    2    charge:    2.0894    magn:    0.0001    constr:    0.0000
     atom:    3    charge:    3.1196    magn:   -0.0001    constr:    0.0000
     atom:    4    charge:    2.0870    magn:    0.0000    constr:    0.0000
     atom:    5    charge:    3.1170    magn:   -0.0000    constr:    0.0000
     atom:    6    charge:    2.0916    magn:    0.0001    constr:    0.0000
     atom:    7    charge:    3.1185    magn:   -0.0000    constr:    0.0000
     atom:    8    charge:    2.0816    magn:    0.0001    constr:    0.0000
     atom:    9    charge:    3.1250    magn:   -0.0001    constr:    0.0000
     atom:   10    charge:    2.0894    magn:    0.0001    constr:    0.0000
     atom:   11    charge:    3.1197    magn:   -0.0001    constr:    0.0000
     atom:   12    charge:    2.0870    magn:    0.0000    constr:    0.0000
     atom:   13    charge:    3.1148    magn:   -0.0001    constr:    0.0000
     atom:   14    charge:    2.0911    magn:    0.0001    constr:    0.0000
     atom:   15    charge:    3.1195    magn:   -0.0000    constr:    0.0000
     atom:   16    charge:    2.0884    magn:    0.0001    constr:    0.0000
     atom:   17    charge:    2.0621    magn:    0.0003    constr:    0.0000
     atom:   18    charge:    3.1239    magn:   -0.0000    constr:    0.0000
     atom:   19    charge:    2.0878    magn:   -0.0000    constr:    0.0000
     atom:   20    charge:    2.0846    magn:   -0.0001    constr:    0.0000
     atom:   21    charge:    2.0846    magn:   -0.0001    constr:    0.0000
     atom:   22    charge:    3.1197    magn:   -0.0000    constr:    0.0000
     atom:   23    charge:    2.0908    magn:    0.0001    constr:    0.0000
     atom:   24    charge:    2.0778    magn:    0.0001    constr:    0.0000
     atom:   25    charge:    2.0869    magn:    0.0000    constr:    0.0000
     atom:   26    charge:    3.1164    magn:   -0.0001    constr:    0.0000
     atom:   27    charge:    2.0824    magn:    0.0002    constr:    0.0000
     atom:   28    charge:    2.0879    magn:    0.0001    constr:    0.0000
     atom:   29    charge:    2.0877    magn:    0.0001    constr:    0.0000
     atom:   30    charge:    3.1168    magn:   -0.0001    constr:    0.0000
     atom:   31    charge:    2.0817    magn:    0.0003    constr:    0.0000
     atom:   32    charge:    2.0844    magn:    0.0001    constr:    0.0000
     atom:   33    charge:    2.0621    magn:    0.0004    constr:    0.0000
     atom:   34    charge:    3.1239    magn:   -0.0000    constr:    0.0000
     atom:   35    charge:    2.0878    magn:   -0.0000    constr:    0.0000
     atom:   36    charge:    2.0846    magn:   -0.0001    constr:    0.0000
     atom:   37    charge:    2.0846    magn:   -0.0001    constr:    0.0000
     atom:   38    charge:    3.1197    magn:   -0.0000    constr:    0.0000
     atom:   39    charge:    2.0911    magn:    0.0001    constr:    0.0000
     atom:   40    charge:    2.0778    magn:    0.0001    constr:    0.0000
     atom:   41    charge:    2.0869    magn:    0.0000    constr:    0.0000
     atom:   42    charge:    3.1181    magn:   -0.0001    constr:    0.0000
     atom:   43    charge:    2.0838    magn:    0.0002    constr:    0.0000
     atom:   44    charge:    2.0864    magn:    0.0001    constr:    0.0000
     atom:   45    charge:    2.0871    magn:    0.0001    constr:    0.0000
     atom:   46    charge:    3.1171    magn:   -0.0001    constr:    0.0000
     atom:   47    charge:    2.0798    magn:    0.0003    constr:    0.0000
     atom:   48    charge:    2.0834    magn:    0.0001    constr:    0.0000
     atom:   49    charge:    2.0536    magn:   -0.0000    constr:    0.0000
     atom:   50    charge:    1.2589    magn:   -0.0000    constr:    0.0000
     atom:   51    charge:    1.3070    magn:    0.0000    constr:    0.0000

     total cpu time spent up to now is     1032.1 secs

     total energy              =   -3044.95719360 Ry
     Harris-Foulkes estimate   =   -3044.96884094 Ry
     estimated scf accuracy    <       0.03698340 Ry

     total magnetization       =     0.00 Bohr mag/cell
     absolute magnetization    =     0.01 Bohr mag/cell

     iteration #  3     ecut=    40.42 Ry     beta=0.10
     Davidson diagonalization with overlap
     ethr =  9.25E-06,  avg # of iterations =  4.9

     negative rho (up, down):  1.162E-02 1.162E-02
 
     Magnetic moment per site:
     atom:    1    charge:    3.1250    magn:   -0.0001    constr:    0.0000
     atom:    2    charge:    2.0895    magn:    0.0001    constr:    0.0000
     atom:    3    charge:    3.1196    magn:   -0.0000    constr:    0.0000
     atom:    4    charge:    2.0870    magn:    0.0000    constr:    0.0000
     atom:    5    charge:    3.1170    magn:   -0.0000    constr:    0.0000
     atom:    6    charge:    2.0918    magn:    0.0000    constr:    0.0000
     atom:    7    charge:    3.1183    magn:   -0.0000    constr:    0.0000
     atom:    8    charge:    2.0816    magn:    0.0001    constr:    0.0000
     atom:    9    charge:    3.1250    magn:   -0.0001    constr:    0.0000
     atom:   10    charge:    2.0895    magn:    0.0001    constr:    0.0000
     atom:   11    charge:    3.1196    magn:   -0.0000    constr:    0.0000
     atom:   12    charge:    2.0870    magn:    0.0000    constr:    0.0000
     atom:   13    charge:    3.1147    magn:   -0.0000    constr:    0.0000
     atom:   14    charge:    2.0913    magn:    0.0000    constr:    0.0000
     atom:   15    charge:    3.1193    magn:   -0.0000    constr:    0.0000
     atom:   16    charge:    2.0883    magn:    0.0000    constr:    0.0000
     atom:   17    charge:    2.0626    magn:    0.0003    constr:    0.0000
     atom:   18    charge:    3.1240    magn:   -0.0000    constr:    0.0000
     atom:   19    charge:    2.0878    magn:   -0.0000    constr:    0.0000
     atom:   20    charge:    2.0847    magn:   -0.0000    constr:    0.0000
     atom:   21    charge:    2.0847    magn:   -0.0000    constr:    0.0000
     atom:   22    charge:    3.1197    magn:   -0.0000    constr:    0.0000
     atom:   23    charge:    2.0910    magn:    0.0001    constr:    0.0000
     atom:   24    charge:    2.0776    magn:    0.0000    constr:    0.0000
     atom:   25    charge:    2.0869    magn:    0.0000    constr:    0.0000
     atom:   26    charge:    3.1166    magn:   -0.0001    constr:    0.0000
     atom:   27    charge:    2.0823    magn:    0.0001    constr:    0.0000
     atom:   28    charge:    2.0879    magn:    0.0001    constr:    0.0000
     atom:   29    charge:    2.0878    magn:    0.0001    constr:    0.0000
     atom:   30    charge:    3.1168    magn:   -0.0001    constr:    0.0000
     atom:   31    charge:    2.0815    magn:    0.0002    constr:    0.0000
     atom:   32    charge:    2.0843    magn:    0.0001    constr:    0.0000
     atom:   33    charge:    2.0626    magn:    0.0003    constr:    0.0000
     atom:   34    charge:    3.1240    magn:   -0.0000    constr:    0.0000
     atom:   35    charge:    2.0878    magn:   -0.0000    constr:    0.0000
     atom:   36    charge:    2.0847    magn:   -0.0000    constr:    0.0000
     atom:   37    charge:    2.0847    magn:   -0.0000    constr:    0.0000
     atom:   38    charge:    3.1198    magn:   -0.0000    constr:    0.0000
     atom:   39    charge:    2.0913    magn:    0.0001    constr:    0.0000
     atom:   40    charge:    2.0776    magn:    0.0000    constr:    0.0000
     atom:   41    charge:    2.0869    magn:    0.0000    constr:    0.0000
     atom:   42    charge:    3.1182    magn:   -0.0001    constr:    0.0000
     atom:   43    charge:    2.0837    magn:    0.0001    constr:    0.0000
     atom:   44    charge:    2.0865    magn:    0.0001    constr:    0.0000
     atom:   45    charge:    2.0871    magn:    0.0001    constr:    0.0000
     atom:   46    charge:    3.1171    magn:   -0.0001    constr:    0.0000
     atom:   47    charge:    2.0796    magn:    0.0002    constr:    0.0000
     atom:   48    charge:    2.0835    magn:    0.0001    constr:    0.0000
     atom:   49    charge:    2.0521    magn:   -0.0000    constr:    0.0000
     atom:   50    charge:    1.2667    magn:   -0.0000    constr:    0.0000
     atom:   51    charge:    1.3097    magn:    0.0000    constr:    0.0000

     total cpu time spent up to now is     1270.5 secs

     total energy              =   -3044.95548010 Ry
     Harris-Foulkes estimate   =   -3044.95979976 Ry
     estimated scf accuracy    <       0.01078813 Ry

     total magnetization       =     0.00 Bohr mag/cell
     absolute magnetization    =     0.01 Bohr mag/cell

     iteration #  4     ecut=    40.42 Ry     beta=0.10
     Davidson diagonalization with overlap
     ethr =  2.70E-06,  avg # of iterations =  5.4

     negative rho (up, down):  1.163E-02 1.163E-02
 
     Magnetic moment per site:
     atom:    1    charge:    3.1251    magn:   -0.0001    constr:    0.0000
     atom:    2    charge:    2.0894    magn:    0.0001    constr:    0.0000
     atom:    3    charge:    3.1196    magn:   -0.0000    constr:    0.0000
     atom:    4    charge:    2.0870    magn:    0.0000    constr:    0.0000
     atom:    5    charge:    3.1170    magn:   -0.0000    constr:    0.0000
     atom:    6    charge:    2.0918    magn:    0.0000    constr:    0.0000
     atom:    7    charge:    3.1184    magn:   -0.0000    constr:    0.0000
     atom:    8    charge:    2.0815    magn:    0.0000    constr:    0.0000
     atom:    9    charge:    3.1251    magn:   -0.0001    constr:    0.0000
     atom:   10    charge:    2.0894    magn:    0.0001    constr:    0.0000
     atom:   11    charge:    3.1196    magn:   -0.0000    constr:    0.0000
     atom:   12    charge:    2.0870    magn:    0.0000    constr:    0.0000
     atom:   13    charge:    3.1148    magn:   -0.0000    constr:    0.0000
     atom:   14    charge:    2.0912    magn:    0.0000    constr:    0.0000
     atom:   15    charge:    3.1193    magn:   -0.0000    constr:    0.0000
     atom:   16    charge:    2.0883    magn:    0.0000    constr:    0.0000
     atom:   17    charge:    2.0625    magn:    0.0002    constr:    0.0000
     atom:   18    charge:    3.1240    magn:   -0.0000    constr:    0.0000
     atom:   19    charge:    2.0878    magn:   -0.0000    constr:    0.0000
     atom:   20    charge:    2.0847    magn:   -0.0000    constr:    0.0000
     atom:   21    charge:    2.0847    magn:   -0.0000    constr:    0.0000
     atom:   22    charge:    3.1197    magn:   -0.0000    constr:    0.0000
     atom:   23    charge:    2.0909    magn:    0.0000    constr:    0.0000
     atom:   24    charge:    2.0777    magn:    0.0000    constr:    0.0000
     atom:   25    charge:    2.0868    magn:    0.0000    constr:    0.0000
     atom:   26    charge:    3.1165    magn:   -0.0000    constr:    0.0000
     atom:   27    charge:    2.0823    magn:    0.0001    constr:    0.0000
     atom:   28    charge:    2.0879    magn:    0.0001    constr:    0.0000
     atom:   29    charge:    2.0878    magn:    0.0000    constr:    0.0000
     atom:   30    charge:    3.1168    magn:   -0.0001    constr:    0.0000
     atom:   31    charge:    2.0814    magn:    0.0002    constr:    0.0000
     atom:   32    charge:    2.0842    magn:    0.0000    constr:    0.0000
     atom:   33    charge:    2.0625    magn:    0.0002    constr:    0.0000
     atom:   34    charge:    3.1240    magn:   -0.0000    constr:    0.0000
     atom:   35    charge:    2.0878    magn:   -0.0000    constr:    0.0000
     atom:   36    charge:    2.0847    magn:   -0.0000    constr:    0.0000
     atom:   37    charge:    2.0847    magn:   -0.0000    constr:    0.0000
     atom:   38    charge:    3.1197    magn:   -0.0000    constr:    0.0000
     atom:   39    charge:    2.0913    magn:    0.0000    constr:    0.0000
     atom:   40    charge:    2.0777    magn:    0.0000    constr:    0.0000
     atom:   41    charge:    2.0868    magn:    0.0000    constr:    0.0000
     atom:   42    charge:    3.1181    magn:   -0.0000    constr:    0.0000
     atom:   43    charge:    2.0837    magn:    0.0001    constr:    0.0000
     atom:   44    charge:    2.0865    magn:    0.0001    constr:    0.0000
     atom:   45    charge:    2.0871    magn:    0.0000    constr:    0.0000
     atom:   46    charge:    3.1171    magn:   -0.0001    constr:    0.0000
     atom:   47    charge:    2.0795    magn:    0.0002    constr:    0.0000
     atom:   48    charge:    2.0837    magn:    0.0001    constr:    0.0000
     atom:   49    charge:    2.0529    magn:   -0.0000    constr:    0.0000
     atom:   50    charge:    1.2741    magn:   -0.0000    constr:    0.0000
     atom:   51    charge:    1.3074    magn:    0.0000    constr:    0.0000

     total cpu time spent up to now is     1514.9 secs

     total energy              =   -3044.95470276 Ry
     Harris-Foulkes estimate   =   -3044.95616486 Ry
     estimated scf accuracy    <       0.00307727 Ry

     total magnetization       =     0.00 Bohr mag/cell
     absolute magnetization    =     0.00 Bohr mag/cell

     iteration #  5     ecut=    40.42 Ry     beta=0.10
     Davidson diagonalization with overlap
     ethr =  7.69E-07,  avg # of iterations =  5.6

     negative rho (up, down):  1.163E-02 1.163E-02
 
     Magnetic moment per site:
     atom:    1    charge:    3.1250    magn:   -0.0001    constr:    0.0000
     atom:    2    charge:    2.0894    magn:    0.0001    constr:    0.0000
     atom:    3    charge:    3.1196    magn:   -0.0000    constr:    0.0000
     atom:    4    charge:    2.0870    magn:    0.0000    constr:    0.0000
     atom:    5    charge:    3.1170    magn:   -0.0000    constr:    0.0000
     atom:    6    charge:    2.0917    magn:    0.0000    constr:    0.0000
     atom:    7    charge:    3.1185    magn:   -0.0000    constr:    0.0000
     atom:    8    charge:    2.0816    magn:    0.0000    constr:    0.0000
     atom:    9    charge:    3.1250    magn:   -0.0001    constr:    0.0000
     atom:   10    charge:    2.0894    magn:    0.0001    constr:    0.0000
     atom:   11    charge:    3.1196    magn:   -0.0000    constr:    0.0000
     atom:   12    charge:    2.0870    magn:    0.0000    constr:    0.0000
     atom:   13    charge:    3.1148    magn:   -0.0000    constr:    0.0000
     atom:   14    charge:    2.0911    magn:    0.0000    constr:    0.0000
     atom:   15    charge:    3.1194    magn:   -0.0000    constr:    0.0000
     atom:   16    charge:    2.0883    magn:    0.0000    constr:    0.0000
     atom:   17    charge:    2.0625    magn:    0.0002    constr:    0.0000
     atom:   18    charge:    3.1239    magn:   -0.0000    constr:    0.0000
     atom:   19    charge:    2.0878    magn:   -0.0000    constr:    0.0000
     atom:   20    charge:    2.0847    magn:   -0.0000    constr:    0.0000
     atom:   21    charge:    2.0847    magn:   -0.0000    constr:    0.0000
     atom:   22    charge:    3.1197    magn:   -0.0000    constr:    0.0000
     atom:   23    charge:    2.0909    magn:    0.0000    constr:    0.0000
     atom:   24    charge:    2.0778    magn:    0.0000    constr:    0.0000
     atom:   25    charge:    2.0869    magn:    0.0000    constr:    0.0000
     atom:   26    charge:    3.1164    magn:   -0.0000    constr:    0.0000
     atom:   27    charge:    2.0824    magn:    0.0001    constr:    0.0000
     atom:   28    charge:    2.0879    magn:    0.0000    constr:    0.0000
     atom:   29    charge:    2.0877    magn:    0.0000    constr:    0.0000
     atom:   30    charge:    3.1168    magn:   -0.0001    constr:    0.0000
     atom:   31    charge:    2.0816    magn:    0.0001    constr:    0.0000
     atom:   32    charge:    2.0842    magn:    0.0000    constr:    0.0000
     atom:   33    charge:    2.0625    magn:    0.0002    constr:    0.0000
     atom:   34    charge:    3.1239    magn:   -0.0000    constr:    0.0000
     atom:   35    charge:    2.0878    magn:   -0.0000    constr:    0.0000
     atom:   36    charge:    2.0847    magn:   -0.0000    constr:    0.0000
     atom:   37    charge:    2.0847    magn:   -0.0000    constr:    0.0000
     atom:   38    charge:    3.1197    magn:   -0.0000    constr:    0.0000
     atom:   39    charge:    2.0912    magn:    0.0000    constr:    0.0000
     atom:   40    charge:    2.0777    magn:    0.0000    constr:    0.0000
     atom:   41    charge:    2.0869    magn:    0.0000    constr:    0.0000
     atom:   42    charge:    3.1181    magn:   -0.0000    constr:    0.0000
     atom:   43    charge:    2.0838    magn:    0.0001    constr:    0.0000
     atom:   44    charge:    2.0865    magn:    0.0000    constr:    0.0000
     atom:   45    charge:    2.0871    magn:    0.0000    constr:    0.0000
     atom:   46    charge:    3.1170    magn:   -0.0001    constr:    0.0000
     atom:   47    charge:    2.0797    magn:    0.0001    constr:    0.0000
     atom:   48    charge:    2.0836    magn:    0.0001    constr:    0.0000
     atom:   49    charge:    2.0539    magn:   -0.0000    constr:    0.0000
     atom:   50    charge:    1.2762    magn:   -0.0000    constr:    0.0000
     atom:   51    charge:    1.3042    magn:    0.0000    constr:    0.0000

     total cpu time spent up to now is     1765.2 secs

     total energy              =   -3044.95479372 Ry
     Harris-Foulkes estimate   =   -3044.95498142 Ry
     estimated scf accuracy    <       0.00050610 Ry

     total magnetization       =     0.00 Bohr mag/cell
     absolute magnetization    =     0.00 Bohr mag/cell

     iteration #  6     ecut=    40.42 Ry     beta=0.10
     Davidson diagonalization with overlap
     ethr =  1.27E-07,  avg # of iterations =  3.0

     negative rho (up, down):  1.163E-02 1.163E-02
 
     Magnetic moment per site:
     atom:    1    charge:    3.1250    magn:   -0.0001    constr:    0.0000
     atom:    2    charge:    2.0894    magn:    0.0000    constr:    0.0000
     atom:    3    charge:    3.1196    magn:   -0.0000    constr:    0.0000
     atom:    4    charge:    2.0870    magn:    0.0000    constr:    0.0000
     atom:    5    charge:    3.1170    magn:   -0.0000    constr:    0.0000
     atom:    6    charge:    2.0917    magn:    0.0000    constr:    0.0000
     atom:    7    charge:    3.1184    magn:   -0.0000    constr:    0.0000
     atom:    8    charge:    2.0817    magn:    0.0000    constr:    0.0000
     atom:    9    charge:    3.1250    magn:   -0.0001    constr:    0.0000
     atom:   10    charge:    2.0894    magn:    0.0000    constr:    0.0000
     atom:   11    charge:    3.1196    magn:   -0.0000    constr:    0.0000
     atom:   12    charge:    2.0870    magn:    0.0000    constr:    0.0000
     atom:   13    charge:    3.1148    magn:   -0.0000    constr:    0.0000
     atom:   14    charge:    2.0912    magn:    0.0000    constr:    0.0000
     atom:   15    charge:    3.1194    magn:   -0.0000    constr:    0.0000
     atom:   16    charge:    2.0883    magn:    0.0000    constr:    0.0000
     atom:   17    charge:    2.0625    magn:    0.0002    constr:    0.0000
     atom:   18    charge:    3.1239    magn:   -0.0000    constr:    0.0000
     atom:   19    charge:    2.0878    magn:   -0.0000    constr:    0.0000
     atom:   20    charge:    2.0847    magn:   -0.0000    constr:    0.0000
     atom:   21    charge:    2.0847    magn:   -0.0000    constr:    0.0000
     atom:   22    charge:    3.1197    magn:   -0.0000    constr:    0.0000
     atom:   23    charge:    2.0909    magn:    0.0000    constr:    0.0000
     atom:   24    charge:    2.0777    magn:    0.0000    constr:    0.0000
     atom:   25    charge:    2.0869    magn:    0.0000    constr:    0.0000
     atom:   26    charge:    3.1165    magn:   -0.0000    constr:    0.0000
     atom:   27    charge:    2.0823    magn:    0.0001    constr:    0.0000
     atom:   28    charge:    2.0879    magn:    0.0000    constr:    0.0000
     atom:   29    charge:    2.0877    magn:    0.0000    constr:    0.0000
     atom:   30    charge:    3.1168    magn:   -0.0001    constr:    0.0000
     atom:   31    charge:    2.0817    magn:    0.0001    constr:    0.0000
     atom:   32    charge:    2.0843    magn:    0.0000    constr:    0.0000
     atom:   33    charge:    2.0625    magn:    0.0002    constr:    0.0000
     atom:   34    charge:    3.1239    magn:   -0.0000    constr:    0.0000
     atom:   35    charge:    2.0878    magn:   -0.0000    constr:    0.0000
     atom:   36    charge:    2.0847    magn:   -0.0000    constr:    0.0000
     atom:   37    charge:    2.0847    magn:   -0.0000    constr:    0.0000
     atom:   38    charge:    3.1197    magn:   -0.0000    constr:    0.0000
     atom:   39    charge:    2.0912    magn:    0.0000    constr:    0.0000
     atom:   40    charge:    2.0777    magn:    0.0000    constr:    0.0000
     atom:   41    charge:    2.0869    magn:    0.0000    constr:    0.0000
     atom:   42    charge:    3.1181    magn:   -0.0000    constr:    0.0000
     atom:   43    charge:    2.0837    magn:    0.0001    constr:    0.0000
     atom:   44    charge:    2.0865    magn:    0.0000    constr:    0.0000
     atom:   45    charge:    2.0871    magn:    0.0000    constr:    0.0000
     atom:   46    charge:    3.1171    magn:   -0.0001    constr:    0.0000
     atom:   47    charge:    2.0798    magn:    0.0001    constr:    0.0000
     atom:   48    charge:    2.0834    magn:    0.0001    constr:    0.0000
     atom:   49    charge:    2.0534    magn:    0.0000    constr:    0.0000
     atom:   50    charge:    1.2766    magn:   -0.0000    constr:    0.0000
     atom:   51    charge:    1.3036    magn:    0.0000    constr:    0.0000

     total cpu time spent up to now is     1973.8 secs

     total energy              =   -3044.95483040 Ry
     Harris-Foulkes estimate   =   -3044.95485053 Ry
     estimated scf accuracy    <       0.00008150 Ry

     total magnetization       =     0.00 Bohr mag/cell
     absolute magnetization    =     0.00 Bohr mag/cell

     iteration #  7     ecut=    40.42 Ry     beta=0.10
     Davidson diagonalization with overlap
     ethr =  2.04E-08,  avg # of iterations =  3.0

     negative rho (up, down):  1.162E-02 1.162E-02
 
     Magnetic moment per site:
     atom:    1    charge:    3.1250    magn:   -0.0001    constr:    0.0000
     atom:    2    charge:    2.0894    magn:    0.0000    constr:    0.0000
     atom:    3    charge:    3.1196    magn:   -0.0000    constr:    0.0000
     atom:    4    charge:    2.0870    magn:    0.0000    constr:    0.0000
     atom:    5    charge:    3.1170    magn:   -0.0000    constr:    0.0000
     atom:    6    charge:    2.0917    magn:    0.0000    constr:    0.0000
     atom:    7    charge:    3.1184    magn:   -0.0000    constr:    0.0000
     atom:    8    charge:    2.0816    magn:    0.0000    constr:    0.0000
     atom:    9    charge:    3.1250    magn:   -0.0001    constr:    0.0000
     atom:   10    charge:    2.0894    magn:    0.0000    constr:    0.0000
     atom:   11    charge:    3.1196    magn:   -0.0000    constr:    0.0000
     atom:   12    charge:    2.0870    magn:    0.0000    constr:    0.0000
     atom:   13    charge:    3.1148    magn:   -0.0000    constr:    0.0000
     atom:   14    charge:    2.0912    magn:    0.0000    constr:    0.0000
     atom:   15    charge:    3.1194    magn:   -0.0000    constr:    0.0000
     atom:   16    charge:    2.0883    magn:    0.0000    constr:    0.0000
     atom:   17    charge:    2.0624    magn:    0.0001    constr:    0.0000
     atom:   18    charge:    3.1239    magn:   -0.0000    constr:    0.0000
     atom:   19    charge:    2.0878    magn:   -0.0000    constr:    0.0000
     atom:   20    charge:    2.0847    magn:   -0.0000    constr:    0.0000
     atom:   21    charge:    2.0847    magn:   -0.0000    constr:    0.0000
     atom:   22    charge:    3.1197    magn:   -0.0000    constr:    0.0000
     atom:   23    charge:    2.0909    magn:    0.0000    constr:    0.0000
     atom:   24    charge:    2.0777    magn:    0.0000    constr:    0.0000
     atom:   25    charge:    2.0869    magn:    0.0000    constr:    0.0000
     atom:   26    charge:    3.1165    magn:   -0.0000    constr:    0.0000
     atom:   27    charge:    2.0823    magn:    0.0001    constr:    0.0000
     atom:   28    charge:    2.0879    magn:    0.0000    constr:    0.0000
     atom:   29    charge:    2.0877    magn:    0.0000    constr:    0.0000
     atom:   30    charge:    3.1168    magn:   -0.0000    constr:    0.0000
     atom:   31    charge:    2.0817    magn:    0.0001    constr:    0.0000
     atom:   32    charge:    2.0843    magn:    0.0000    constr:    0.0000
     atom:   33    charge:    2.0624    magn:    0.0001    constr:    0.0000
     atom:   34    charge:    3.1239    magn:   -0.0000    constr:    0.0000
     atom:   35    charge:    2.0878    magn:   -0.0000    constr:    0.0000
     atom:   36    charge:    2.0847    magn:   -0.0000    constr:    0.0000
     atom:   37    charge:    2.0847    magn:   -0.0000    constr:    0.0000
     atom:   38    charge:    3.1197    magn:   -0.0000    constr:    0.0000
     atom:   39    charge:    2.0912    magn:    0.0000    constr:    0.0000
     atom:   40    charge:    2.0777    magn:    0.0000    constr:    0.0000
     atom:   41    charge:    2.0869    magn:    0.0000    constr:    0.0000
     atom:   42    charge:    3.1181    magn:   -0.0000    constr:    0.0000
     atom:   43    charge:    2.0838    magn:    0.0001    constr:    0.0000
     atom:   44    charge:    2.0864    magn:    0.0000    constr:    0.0000
     atom:   45    charge:    2.0871    magn:    0.0000    constr:    0.0000
     atom:   46    charge:    3.1171    magn:   -0.0000    constr:    0.0000
     atom:   47    charge:    2.0798    magn:    0.0001    constr:    0.0000
     atom:   48    charge:    2.0834    magn:    0.0000    constr:    0.0000
     atom:   49    charge:    2.0530    magn:    0.0000    constr:    0.0000
     atom:   50    charge:    1.2765    magn:   -0.0000    constr:    0.0000
     atom:   51    charge:    1.3027    magn:    0.0000    constr:    0.0000

     total cpu time spent up to now is     2179.4 secs

     total energy              =   -3044.95482649 Ry
     Harris-Foulkes estimate   =   -3044.95483719 Ry
     estimated scf accuracy    <       0.00003126 Ry

     total magnetization       =     0.00 Bohr mag/cell
     absolute magnetization    =     0.00 Bohr mag/cell

     iteration #  8     ecut=    40.42 Ry     beta=0.10
     Davidson diagonalization with overlap
     ethr =  7.82E-09,  avg # of iterations =  3.0

     negative rho (up, down):  1.162E-02 1.162E-02
 
     Magnetic moment per site:
     atom:    1    charge:    3.1250    magn:   -0.0000    constr:    0.0000
     atom:    2    charge:    2.0894    magn:    0.0000    constr:    0.0000
     atom:    3    charge:    3.1196    magn:   -0.0000    constr:    0.0000
     atom:    4    charge:    2.0870    magn:    0.0000    constr:    0.0000
     atom:    5    charge:    3.1170    magn:   -0.0000    constr:    0.0000
     atom:    6    charge:    2.0917    magn:    0.0000    constr:    0.0000
     atom:    7    charge:    3.1184    magn:   -0.0000    constr:    0.0000
     atom:    8    charge:    2.0815    magn:    0.0000    constr:    0.0000
     atom:    9    charge:    3.1250    magn:   -0.0000    constr:    0.0000
     atom:   10    charge:    2.0894    magn:    0.0000    constr:    0.0000
     atom:   11    charge:    3.1196    magn:   -0.0000    constr:    0.0000
     atom:   12    charge:    2.0870    magn:    0.0000    constr:    0.0000
     atom:   13    charge:    3.1148    magn:   -0.0000    constr:    0.0000
     atom:   14    charge:    2.0911    magn:    0.0000    constr:    0.0000
     atom:   15    charge:    3.1194    magn:   -0.0000    constr:    0.0000
     atom:   16    charge:    2.0883    magn:    0.0000    constr:    0.0000
     atom:   17    charge:    2.0624    magn:    0.0001    constr:    0.0000
     atom:   18    charge:    3.1239    magn:   -0.0000    constr:    0.0000
     atom:   19    charge:    2.0878    magn:   -0.0000    constr:    0.0000
     atom:   20    charge:    2.0847    magn:   -0.0000    constr:    0.0000
     atom:   21    charge:    2.0847    magn:   -0.0000    constr:    0.0000
     atom:   22    charge:    3.1197    magn:   -0.0000    constr:    0.0000
     atom:   23    charge:    2.0908    magn:    0.0000    constr:    0.0000
     atom:   24    charge:    2.0777    magn:    0.0000    constr:    0.0000
     atom:   25    charge:    2.0869    magn:    0.0000    constr:    0.0000
     atom:   26    charge:    3.1165    magn:   -0.0000    constr:    0.0000
     atom:   27    charge:    2.0824    magn:    0.0000    constr:    0.0000
     atom:   28    charge:    2.0879    magn:    0.0000    constr:    0.0000
     atom:   29    charge:    2.0877    magn:    0.0000    constr:    0.0000
     atom:   30    charge:    3.1168    magn:   -0.0000    constr:    0.0000
     atom:   31    charge:    2.0816    magn:    0.0001    constr:    0.0000
     atom:   32    charge:    2.0843    magn:    0.0000    constr:    0.0000
     atom:   33    charge:    2.0624    magn:    0.0001    constr:    0.0000
     atom:   34    charge:    3.1239    magn:   -0.0000    constr:    0.0000
     atom:   35    charge:    2.0878    magn:   -0.0000    constr:    0.0000
     atom:   36    charge:    2.0847    magn:   -0.0000    constr:    0.0000
     atom:   37    charge:    2.0847    magn:   -0.0000    constr:    0.0000
     atom:   38    charge:    3.1197    magn:   -0.0000    constr:    0.0000
     atom:   39    charge:    2.0912    magn:    0.0000    constr:    0.0000
     atom:   40    charge:    2.0777    magn:    0.0000    constr:    0.0000
     atom:   41    charge:    2.0869    magn:    0.0000    constr:    0.0000
     atom:   42    charge:    3.1181    magn:   -0.0000    constr:    0.0000
     atom:   43    charge:    2.0838    magn:    0.0000    constr:    0.0000
     atom:   44    charge:    2.0864    magn:    0.0000    constr:    0.0000
     atom:   45    charge:    2.0871    magn:    0.0000    constr:    0.0000
     atom:   46    charge:    3.1171    magn:   -0.0000    constr:    0.0000
     atom:   47    charge:    2.0797    magn:    0.0001    constr:    0.0000
     atom:   48    charge:    2.0834    magn:    0.0000    constr:    0.0000
     atom:   49    charge:    2.0527    magn:    0.0000    constr:    0.0000
     atom:   50    charge:    1.2766    magn:   -0.0000    constr:    0.0000
     atom:   51    charge:    1.3025    magn:    0.0000    constr:    0.0000

     total cpu time spent up to now is     2388.2 secs

     total energy              =   -3044.95482940 Ry
     Harris-Foulkes estimate   =   -3044.95483040 Ry
     estimated scf accuracy    <       0.00000773 Ry

     total magnetization       =     0.00 Bohr mag/cell
     absolute magnetization    =     0.00 Bohr mag/cell

     iteration #  9     ecut=    40.42 Ry     beta=0.10
     Davidson diagonalization with overlap
     ethr =  1.93E-09,  avg # of iterations =  3.0

     negative rho (up, down):  1.161E-02 1.161E-02
 
     Magnetic moment per site:
     atom:    1    charge:    3.1250    magn:   -0.0000    constr:    0.0000
     atom:    2    charge:    2.0894    magn:    0.0000    constr:    0.0000
     atom:    3    charge:    3.1196    magn:   -0.0000    constr:    0.0000
     atom:    4    charge:    2.0870    magn:    0.0000    constr:    0.0000
     atom:    5    charge:    3.1170    magn:   -0.0000    constr:    0.0000
     atom:    6    charge:    2.0917    magn:    0.0000    constr:    0.0000
     atom:    7    charge:    3.1185    magn:   -0.0000    constr:    0.0000
     atom:    8    charge:    2.0816    magn:    0.0000    constr:    0.0000
     atom:    9    charge:    3.1250    magn:   -0.0000    constr:    0.0000
     atom:   10    charge:    2.0894    magn:    0.0000    constr:    0.0000
     atom:   11    charge:    3.1196    magn:   -0.0000    constr:    0.0000
     atom:   12    charge:    2.0870    magn:    0.0000    constr:    0.0000
     atom:   13    charge:    3.1148    magn:   -0.0000    constr:    0.0000
     atom:   14    charge:    2.0911    magn:    0.0000    constr:    0.0000
     atom:   15    charge:    3.1194    magn:   -0.0000    constr:    0.0000
     atom:   16    charge:    2.0883    magn:    0.0000    constr:    0.0000
     atom:   17    charge:    2.0624    magn:    0.0001    constr:    0.0000
     atom:   18    charge:    3.1239    magn:   -0.0000    constr:    0.0000
     atom:   19    charge:    2.0878    magn:   -0.0000    constr:    0.0000
     atom:   20    charge:    2.0847    magn:   -0.0000    constr:    0.0000
     atom:   21    charge:    2.0847    magn:   -0.0000    constr:    0.0000
     atom:   22    charge:    3.1197    magn:   -0.0000    constr:    0.0000
     atom:   23    charge:    2.0909    magn:    0.0000    constr:    0.0000
     atom:   24    charge:    2.0777    magn:    0.0000    constr:    0.0000
     atom:   25    charge:    2.0869    magn:    0.0000    constr:    0.0000
     atom:   26    charge:    3.1165    magn:   -0.0000    constr:    0.0000
     atom:   27    charge:    2.0824    magn:    0.0000    constr:    0.0000
     atom:   28    charge:    2.0879    magn:    0.0000    constr:    0.0000
     atom:   29    charge:    2.0877    magn:    0.0000    constr:    0.0000
     atom:   30    charge:    3.1168    magn:   -0.0000    constr:    0.0000
     atom:   31    charge:    2.0816    magn:    0.0001    constr:    0.0000
     atom:   32    charge:    2.0843    magn:    0.0000    constr:    0.0000
     atom:   33    charge:    2.0624    magn:    0.0001    constr:    0.0000
     atom:   34    charge:    3.1239    magn:   -0.0000    constr:    0.0000
     atom:   35    charge:    2.0878    magn:   -0.0000    constr:    0.0000
     atom:   36    charge:    2.0847    magn:   -0.0000    constr:    0.0000
     atom:   37    charge:    2.0847    magn:   -0.0000    constr:    0.0000
     atom:   38    charge:    3.1197    magn:   -0.0000    constr:    0.0000
     atom:   39    charge:    2.0912    magn:    0.0000    constr:    0.0000
     atom:   40    charge:    2.0777    magn:    0.0000    constr:    0.0000
     atom:   41    charge:    2.0869    magn:    0.0000    constr:    0.0000
     atom:   42    charge:    3.1181    magn:   -0.0000    constr:    0.0000
     atom:   43    charge:    2.0838    magn:    0.0000    constr:    0.0000
     atom:   44    charge:    2.0865    magn:    0.0000    constr:    0.0000
     atom:   45    charge:    2.0871    magn:    0.0000    constr:    0.0000
     atom:   46    charge:    3.1171    magn:   -0.0000    constr:    0.0000
     atom:   47    charge:    2.0797    magn:    0.0001    constr:    0.0000
     atom:   48    charge:    2.0835    magn:    0.0000    constr:    0.0000
     atom:   49    charge:    2.0527    magn:    0.0000    constr:    0.0000
     atom:   50    charge:    1.2768    magn:   -0.0000    constr:    0.0000
     atom:   51    charge:    1.3024    magn:    0.0000    constr:    0.0000

     total cpu time spent up to now is     2595.1 secs

     total energy              =   -3044.95483003 Ry
     Harris-Foulkes estimate   =   -3044.95483006 Ry
     estimated scf accuracy    <       0.00000171 Ry

     total magnetization       =     0.00 Bohr mag/cell
     absolute magnetization    =     0.00 Bohr mag/cell

     iteration # 10     ecut=    40.42 Ry     beta=0.10
     Davidson diagonalization with overlap
     ethr =  4.27E-10,  avg # of iterations =  2.0

     negative rho (up, down):  1.161E-02 1.161E-02
 
     Magnetic moment per site:
     atom:    1    charge:    3.1250    magn:   -0.0000    constr:    0.0000
     atom:    2    charge:    2.0894    magn:    0.0000    constr:    0.0000
     atom:    3    charge:    3.1196    magn:   -0.0000    constr:    0.0000
     atom:    4    charge:    2.0870    magn:    0.0000    constr:    0.0000
     atom:    5    charge:    3.1170    magn:   -0.0000    constr:    0.0000
     atom:    6    charge:    2.0917    magn:    0.0000    constr:    0.0000
     atom:    7    charge:    3.1184    magn:   -0.0000    constr:    0.0000
     atom:    8    charge:    2.0816    magn:    0.0000    constr:    0.0000
     atom:    9    charge:    3.1250    magn:   -0.0000    constr:    0.0000
     atom:   10    charge:    2.0894    magn:    0.0000    constr:    0.0000
     atom:   11    charge:    3.1196    magn:   -0.0000    constr:    0.0000
     atom:   12    charge:    2.0870    magn:    0.0000    constr:    0.0000
     atom:   13    charge:    3.1148    magn:   -0.0000    constr:    0.0000
     atom:   14    charge:    2.0912    magn:    0.0000    constr:    0.0000
     atom:   15    charge:    3.1194    magn:   -0.0000    constr:    0.0000
     atom:   16    charge:    2.0883    magn:    0.0000    constr:    0.0000
     atom:   17    charge:    2.0624    magn:    0.0000    constr:    0.0000
     atom:   18    charge:    3.1239    magn:   -0.0000    constr:    0.0000
     atom:   19    charge:    2.0878    magn:   -0.0000    constr:    0.0000
     atom:   20    charge:    2.0847    magn:   -0.0000    constr:    0.0000
     atom:   21    charge:    2.0847    magn:   -0.0000    constr:    0.0000
     atom:   22    charge:    3.1197    magn:   -0.0000    constr:    0.0000
     atom:   23    charge:    2.0909    magn:    0.0000    constr:    0.0000
     atom:   24    charge:    2.0777    magn:    0.0000    constr:    0.0000
     atom:   25    charge:    2.0869    magn:    0.0000    constr:    0.0000
     atom:   26    charge:    3.1165    magn:   -0.0000    constr:    0.0000
     atom:   27    charge:    2.0824    magn:    0.0000    constr:    0.0000
     atom:   28    charge:    2.0879    magn:    0.0000    constr:    0.0000
     atom:   29    charge:    2.0877    magn:    0.0000    constr:    0.0000
     atom:   30    charge:    3.1168    magn:   -0.0000    constr:    0.0000
     atom:   31    charge:    2.0816    magn:    0.0000    constr:    0.0000
     atom:   32    charge:    2.0843    magn:    0.0000    constr:    0.0000
     atom:   33    charge:    2.0624    magn:    0.0000    constr:    0.0000
     atom:   34    charge:    3.1239    magn:   -0.0000    constr:    0.0000
     atom:   35    charge:    2.0878    magn:   -0.0000    constr:    0.0000
     atom:   36    charge:    2.0847    magn:   -0.0000    constr:    0.0000
     atom:   37    charge:    2.0847    magn:   -0.0000    constr:    0.0000
     atom:   38    charge:    3.1197    magn:   -0.0000    constr:    0.0000
     atom:   39    charge:    2.0912    magn:    0.0000    constr:    0.0000
     atom:   40    charge:    2.0777    magn:    0.0000    constr:    0.0000
     atom:   41    charge:    2.0869    magn:    0.0000    constr:    0.0000
     atom:   42    charge:    3.1181    magn:   -0.0000    constr:    0.0000
     atom:   43    charge:    2.0838    magn:    0.0000    constr:    0.0000
     atom:   44    charge:    2.0864    magn:    0.0000    constr:    0.0000
     atom:   45    charge:    2.0871    magn:    0.0000    constr:    0.0000
     atom:   46    charge:    3.1171    magn:   -0.0000    constr:    0.0000
     atom:   47    charge:    2.0797    magn:    0.0000    constr:    0.0000
     atom:   48    charge:    2.0834    magn:    0.0000    constr:    0.0000
     atom:   49    charge:    2.0529    magn:    0.0000    constr:    0.0000
     atom:   50    charge:    1.2770    magn:   -0.0000    constr:    0.0000
     atom:   51    charge:    1.3024    magn:    0.0000    constr:    0.0000

     total cpu time spent up to now is     2787.5 secs

     End of self-consistent calculation

 ------ SPIN UP ------------


          k = 0.0000 0.0000 0.0000 ( 34665 PWs)   bands (ev):

   -57.8081 -57.7731 -57.4950 -57.4393 -57.3686 -57.3324 -57.2624 -57.2271
   -57.1647 -57.1293 -57.0997 -57.0643 -56.8686 -56.7959 -56.2705 -56.2352
   -34.2444 -34.0892 -34.0606 -34.0418 -34.0096 -33.9153 -33.8546 -33.8444
   -33.8084 -33.7558 -33.7138 -33.7034 -33.6993 -33.6696 -33.6559 -33.6503
   -33.6311 -33.6219 -33.5980 -33.5409 -33.5054 -33.4437 -33.4394 -33.4231
   -33.4161 -33.4134 -33.3724 -33.3654 -33.3627 -33.3447 -33.3402 -33.3199
   -33.2958 -33.2895 -33.2636 -33.2566 -33.2310 -33.1294 -33.1248 -33.0668
   -33.0234 -32.9230 -32.6892 -32.6216 -32.5956 -32.4931 -32.4014 -32.2932
   -24.5524 -21.2326 -18.1582 -17.9600 -17.7337 -17.6132 -17.4778 -17.4761
   -17.1960 -17.1771 -17.1280 -17.0388 -17.0337 -16.9952 -16.9742 -16.9034
   -16.8561 -16.8458 -16.8209 -16.7808 -16.7222 -16.6742 -16.5544 -16.5342
   -16.5045 -16.4885 -16.4057 -16.2965 -16.2602 -16.2291 -16.0925 -16.0631
   -14.8530 -14.7683  -9.7240  -7.7252  -7.7089  -5.9771  -5.5508  -5.4961
    -5.3424  -5.3341  -5.2788  -4.9797  -4.9224  -4.5705  -4.5687  -4.5322
    -4.5212  -4.4749  -4.3525  -4.2536  -4.2050  -4.1877  -4.1544  -4.1508
    -4.1486  -4.1391  -4.0752  -4.0714  -3.9924  -3.9714  -3.9395  -3.8963
    -3.8654  -3.7879  -3.7574  -3.7329  -3.7025  -3.6283  -3.6067  -3.5313
    -3.5281  -3.5030  -3.4366  -3.3181  -3.1865  -3.1509  -3.0499  -2.9903
    -2.9586  -2.8582  -2.8376  -2.7983  -2.7267  -2.7235  -2.7105  -2.5847
    -2.5466  -2.4915  -2.4192  -2.3827  -2.3552  -2.3348  -2.3093  -2.2657
    -2.2617  -2.2299  -2.1948  -2.1631  -2.1598  -2.0341  -1.9770  -1.8765
    -1.7342  -1.7320  -1.7028  -1.6646  -1.6358  -1.6259  -1.5481  -1.5262
    -1.4267  -1.4163  -1.3927  -1.3808  -1.3734  -1.2661  -1.2158  -1.2067
    -1.1860  -1.1163  -1.0555  -0.9995  -0.9014  -0.7276  -0.6989  -0.6936
    -0.6285  -0.5015  -0.3577  -0.2206  -0.1556   0.0062   0.1326   0.1478
     1.5339   1.5631   1.8490   1.8895   1.8961   1.9197   2.0874   2.1045
     2.1401   2.2577   2.3758   2.3887   2.4223   2.4426   2.4820   2.4976
     2.5417   2.5805   2.6530   2.6837   2.6936   2.7682   2.7830   2.8452
     2.8879   2.9139   3.0025   3.0115   3.0136   3.0399   3.0814   3.1000
     3.1074   3.1151   3.1212   3.1541   3.2548   3.3125   3.3213   3.3690
     3.3986   3.4353   3.4697   3.5482   3.5525   3.6886   3.8945   4.0010
     4.0576   4.0880   4.0995   4.1976   4.2675   4.4745   4.5546   4.6740
     4.9263   4.9508   5.0295   5.1392   5.2208   5.4029   5.4106   5.4378
     5.5160   5.5999   5.6480   5.6530   5.7324   5.7484   5.7533   5.7535
     5.9366   5.9670   6.0258   6.0404   6.1154   6.1589   6.2065   6.2358
     6.4912   6.6205   6.7833   6.7972   6.8957   7.1782   7.2778   7.4440
     7.8974   7.9861   8.1664   8.4063   8.7154   8.8768   8.9187   8.9535
     9.1940   9.2562   9.2960   9.3489

          k = 0.0000 0.0280 0.0000 ( 34717 PWs)   bands (ev):

   -57.8057 -57.7755 -57.4935 -57.4409 -57.3663 -57.3347 -57.2601 -57.2295
   -57.1623 -57.1317 -57.0973 -57.0667 -56.8674 -56.7971 -56.2681 -56.2376
   -34.2191 -34.0871 -34.0625 -34.0160 -34.0034 -33.9218 -33.8816 -33.8192
   -33.8019 -33.7314 -33.7164 -33.7074 -33.6994 -33.6700 -33.6547 -33.6514
   -33.6306 -33.5979 -33.5916 -33.5339 -33.5143 -33.4647 -33.4416 -33.4328
   -33.4179 -33.4074 -33.3899 -33.3613 -33.3461 -33.3436 -33.3389 -33.3264
   -33.2959 -33.2946 -33.2883 -33.2584 -33.2567 -33.1288 -33.1218 -33.0674
   -33.0277 -32.9512 -32.6635 -32.6199 -32.5974 -32.4870 -32.4077 -32.3207
   -24.5524 -21.2325 -18.0966 -17.9020 -17.6807 -17.5599 -17.4564 -17.4298
   -17.2110 -17.1725 -17.1469 -17.1054 -17.0393 -16.9912 -16.9635 -16.8889
   -16.8717 -16.8283 -16.8135 -16.7817 -16.7529 -16.7317 -16.5785 -16.5192
   -16.5040 -16.4835 -16.4353 -16.2926 -16.2779 -16.2466 -16.1181 -16.1053
   -14.8629 -14.7915  -9.7239  -7.7266  -7.7088  -5.9761  -5.4626  -5.4119
    -5.2654  -5.2537  -5.2015  -4.8618  -4.8474  -4.5943  -4.5655  -4.5000
    -4.4712  -4.4366  -4.2993  -4.2780  -4.2704  -4.2237  -4.2168  -4.1781
    -4.1422  -4.1276  -4.0931  -4.0809  -4.0615  -4.0373  -3.9930  -3.9707
    -3.9121  -3.9050  -3.8469  -3.7883  -3.7209  -3.7059  -3.6844  -3.5494
    -3.4706  -3.4560  -3.3661  -3.2993  -3.1157  -3.0678  -2.9771  -2.9472
    -2.8377  -2.8046  -2.7419  -2.7350  -2.6546  -2.6227  -2.6180  -2.6005
    -2.5534  -2.5424  -2.5035  -2.4387  -2.3993  -2.3313  -2.3061  -2.2657
    -2.2201  -2.2026  -2.1851  -2.1093  -2.0364  -2.0027  -1.9253  -1.8543
    -1.8241  -1.8020  -1.7714  -1.7549  -1.6807  -1.6574  -1.6160  -1.5824
    -1.5409  -1.4779  -1.4519  -1.3933  -1.3717  -1.3403  -1.2581  -1.2205
    -1.1739  -1.1376  -1.0515  -1.0148  -0.9310  -0.8973  -0.8294  -0.7419
    -0.7147  -0.5161  -0.3980  -0.2109  -0.2099   0.0169   0.0872   0.1121
     1.6197   1.6664   1.8769   1.8909   1.9449   2.0176   2.0646   2.1324
     2.1879   2.2851   2.3368   2.3909   2.3961   2.4590   2.4699   2.4987
     2.5375   2.5662   2.6076   2.6699   2.7301   2.7841   2.8031   2.8136
     2.8531   2.8925   2.9617   2.9751   3.0041   3.0371   3.0611   3.0879
     3.1131   3.1215   3.2042   3.2267   3.2720   3.3349   3.3812   3.4313
     3.4715   3.5182   3.5218   3.5310   3.6168   3.6557   3.8454   3.9597
     4.0380   4.0789   4.1498   4.1989   4.2114   4.4173   4.6126   4.7722
     4.9321   5.0300   5.1276   5.2009   5.2250   5.4233   5.4464   5.4935
     5.5087   5.5822   5.6147   5.6385   5.6888   5.7134   5.7496   5.8363
     5.8579   5.9517   5.9933   6.0284   6.0307   6.0435   6.1329   6.2938
     6.4709   6.5555   6.7200   6.8010   6.8241   7.0830   7.3484   7.3820
     7.6748   7.9927   8.1032   8.2677   8.4159   8.6942   8.9963   9.0330
     9.0832   9.2900   9.3519   9.3982

          k = 0.0000 0.0560 0.0000 ( 34721 PWs)   bands (ev):

   -57.7994 -57.7819 -57.4902 -57.4442 -57.3602 -57.3409 -57.2536 -57.2360
   -57.1559 -57.1381 -57.0909 -57.0732 -56.8648 -56.7997 -56.2617 -56.2441
   -34.1493 -34.0819 -34.0675 -33.9864 -33.9546 -33.9454 -33.9392 -33.7859
   -33.7546 -33.7451 -33.7314 -33.6975 -33.6860 -33.6734 -33.6571 -33.6545
   -33.5741 -33.5606 -33.5547 -33.5294 -33.5156 -33.5144 -33.4632 -33.4567
   -33.4363 -33.4226 -33.3910 -33.3650 -33.3569 -33.3441 -33.3413 -33.3372
   -33.3221 -33.3077 -33.2863 -33.2848 -33.2503 -33.1282 -33.1181 -33.0687
   -33.0413 -33.0186 -32.6151 -32.6022 -32.5928 -32.4705 -32.4246 -32.3949
   -24.5523 -21.2324 -17.9251 -17.7420 -17.5408 -17.4287 -17.4103 -17.4046
   -17.3017 -17.2771 -17.1623 -17.0641 -17.0589 -17.0304 -17.0062 -16.9634
   -16.8468 -16.8381 -16.8366 -16.7954 -16.7353 -16.6690 -16.6423 -16.5968
   -16.5161 -16.4552 -16.4315 -16.3151 -16.3062 -16.2659 -16.2306 -16.1676
   -14.8805 -14.8419  -9.7236  -7.7294  -7.7084  -5.9743  -5.2195  -5.1767
    -5.0581  -5.0244  -4.9930  -4.7185  -4.6483  -4.6095  -4.5339  -4.5263
    -4.4977  -4.4803  -4.4505  -4.3756  -4.3432  -4.3344  -4.3117  -4.3071
    -4.2389  -4.2028  -4.1802  -4.1315  -4.1173  -4.0771  -4.0532  -4.0015
    -3.9392  -3.9116  -3.8411  -3.7666  -3.7105  -3.5886  -3.5597  -3.4678
    -3.4050  -3.3693  -3.3490  -3.2546  -3.1622  -3.0149  -2.9645  -2.9485
    -2.9449  -2.8656  -2.7780  -2.7241  -2.6745  -2.6385  -2.5935  -2.4526
    -2.4401  -2.4323  -2.3978  -2.3767  -2.3230  -2.2870  -2.2634  -2.2614
    -2.1865  -2.1649  -2.0823  -2.0529  -2.0295  -2.0221  -1.9939  -1.9721
    -1.9238  -1.8869  -1.8497  -1.7719  -1.6987  -1.6652  -1.6526  -1.6401
    -1.6235  -1.5547  -1.5019  -1.4865  -1.4664  -1.4258  -1.3552  -1.3406
    -1.2668  -1.2244  -1.1513  -1.1248  -1.0458  -0.9824  -0.9128  -0.8774
    -0.7840  -0.6979  -0.5786  -0.3755  -0.0290   0.0275   0.0582   0.0613
     1.7564   1.9060   1.9188   1.9984   2.0330   2.0747   2.1504   2.2195
     2.2385   2.2742   2.2801   2.2908   2.3270   2.3713   2.3935   2.5310
     2.5402   2.5757   2.6621   2.6793   2.7555   2.7693   2.7847   2.8212
     2.8277   2.8513   2.8714   2.9582   2.9848   3.0288   3.1061   3.1134
     3.1354   3.1924   3.2199   3.2361   3.3434   3.3916   3.4239   3.5028
     3.5718   3.6280   3.6320   3.6933   3.7038   3.7429   3.7569   3.8661
     4.0017   4.0107   4.0281   4.1268   4.2524   4.3672   4.7363   4.8619
     5.0483   5.1830   5.2674   5.3186   5.3492   5.4095   5.4196   5.4970
     5.5417   5.6124   5.6272   5.6356   5.6607   5.7062   5.7458   5.7549
     5.7728   5.8104   5.8480   5.9119   5.9950   6.0378   6.1958   6.3011
     6.3870   6.4192   6.6563   6.6592   6.7699   6.9208   7.0207   7.2761
     7.5843   7.6616   7.7802   8.2615   8.4060   8.5885   8.9059   9.0302
     9.2003   9.3577   9.4403   9.5588

          k = 0.0000-0.0840 0.0000 ( 34678 PWs)   bands (ev):

   -57.7906 -57.7906 -57.4884 -57.4460 -57.3544 -57.3467 -57.2449 -57.2447
   -57.1484 -57.1457 -57.0831 -57.0810 -56.8634 -56.8011 -56.2529 -56.2529
   -34.0747 -34.0747 -34.0527 -34.0527 -33.9629 -33.9628 -33.8627 -33.8297
   -33.7688 -33.7499 -33.6980 -33.6921 -33.6759 -33.6595 -33.6504 -33.6386
   -33.5616 -33.5614 -33.5511 -33.5438 -33.4868 -33.4863 -33.4648 -33.4624
   -33.4383 -33.4307 -33.4293 -33.4290 -33.3686 -33.3663 -33.3399 -33.3368
   -33.3259 -33.3238 -33.2796 -33.2778 -33.1843 -33.1506 -33.1249 -33.0748
   -33.0685 -33.0379 -32.6086 -32.6086 -32.4948 -32.4947 -32.4475 -32.4475
   -24.5523 -21.2323 -17.6871 -17.6751 -17.5211 -17.5206 -17.4021 -17.3845
   -17.2273 -17.2232 -17.1625 -17.1619 -17.1264 -17.1230 -16.9506 -16.9505
   -16.9260 -16.9219 -16.7540 -16.7294 -16.7006 -16.6991 -16.6294 -16.6226
   -16.5352 -16.4898 -16.3634 -16.3617 -16.3172 -16.3158 -16.2357 -16.2349
   -14.8787 -14.8786  -9.7235  -7.7307  -7.7082  -5.9734  -4.9079  -4.9045
    -4.8439  -4.8438  -4.7881  -4.7737  -4.7483  -4.7421  -4.7031  -4.6820
    -4.5116  -4.4931  -4.4788  -4.4770  -4.4092  -4.4077  -4.4031  -4.4004
    -4.2420  -4.2044  -4.1427  -4.1410  -4.1294  -4.1069  -3.9919  -3.9378
    -3.9369  -3.9009  -3.8253  -3.7813  -3.6395  -3.6008  -3.4479  -3.4364
    -3.2858  -3.2759  -3.2208  -3.1380  -3.1221  -3.0901  -2.9613  -2.9579
    -2.9293  -2.8737  -2.8440  -2.8084  -2.6999  -2.6737  -2.6527  -2.6357
    -2.6105  -2.6014  -2.5590  -2.4403  -2.4386  -2.4062  -2.1440  -2.1095
    -2.0861  -2.0387  -1.9992  -1.9661  -1.9191  -1.9186  -1.9122  -1.8638
    -1.8548  -1.8493  -1.8314  -1.7748  -1.7604  -1.6934  -1.6162  -1.6156
    -1.5745  -1.5559  -1.5417  -1.5398  -1.5325  -1.5272  -1.5074  -1.3990
    -1.3588  -1.2481  -1.2372  -1.2087  -1.1142  -1.1088  -1.0851  -1.0792
    -0.6678  -0.6174  -0.5810  -0.5743   0.0271   0.0274   0.0640   0.0643
     1.9221   1.9257   2.0286   2.0302   2.1139   2.1141   2.1226   2.1478
     2.2360   2.2361   2.2441   2.2589   2.3586   2.3995   2.4454   2.4478
     2.5412   2.5458   2.6085   2.6089   2.7665   2.7755   2.8124   2.8397
     2.8465   2.8836   2.9205   2.9647   2.9897   3.0111   3.0763   3.0933
     3.0985   3.2428   3.2733   3.3383   3.3448   3.3474   3.3480   3.6326
     3.6355   3.6601   3.7049   3.7158   3.7497   3.8027   3.8041   3.8864
     3.9368   3.9394   4.0025   4.0029   4.1574   4.4525   4.8092   4.8340
     5.1694   5.1886   5.3034   5.3416   5.3970   5.3970   5.5096   5.5359
     5.5715   5.5889   5.5986   5.6578   5.6743   5.7178   5.7205   5.7225
     5.7429   5.8461   5.8550   5.8772   6.0128   6.0195   6.0444   6.1059
     6.4275   6.4333   6.5625   6.6009   6.8539   6.8643   6.9732   6.9806
     7.4866   7.4944   7.7034   8.1896   8.3280   8.6362   9.0336   9.1171
     9.3320   9.4028   9.6240   9.6753

          k = 0.0253 0.0000 0.0000 ( 34707 PWs)   bands (ev):

   -57.8081 -57.7731 -57.4950 -57.4393 -57.3686 -57.3324 -57.2624 -57.2271
   -57.1647 -57.1293 -57.0997 -57.0643 -56.8686 -56.7959 -56.2705 -56.2352
   -34.2448 -34.0892 -34.0606 -34.0419 -34.0089 -33.9153 -33.8546 -33.8450
   -33.8084 -33.7572 -33.7133 -33.7026 -33.6990 -33.6707 -33.6616 -33.6563
   -33.6312 -33.6080 -33.5962 -33.5353 -33.5059 -33.4436 -33.4395 -33.4227
   -33.4161 -33.4136 -33.3718 -33.3688 -33.3627 -33.3501 -33.3390 -33.3200
   -33.2958 -33.2894 -33.2638 -33.2567 -33.2311 -33.1305 -33.1249 -33.0669
   -33.0235 -32.9231 -32.6891 -32.6227 -32.5951 -32.4931 -32.4014 -32.2933
   -24.5524 -21.2325 -18.1299 -17.9186 -17.6931 -17.5755 -17.4767 -17.4733
   -17.2552 -17.2150 -17.1272 -17.0419 -17.0383 -17.0272 -17.0004 -16.9461
   -16.9018 -16.8806 -16.8063 -16.7685 -16.6862 -16.5923 -16.5896 -16.5051
   -16.5029 -16.4948 -16.4486 -16.2969 -16.2505 -16.2296 -16.0919 -16.0631
   -14.8519 -14.7681  -9.7233  -7.7253  -7.7089  -5.9765  -5.5199  -5.3807
    -5.2327  -5.2209  -5.1715  -4.9715  -4.9211  -4.7638  -4.5651  -4.5530
    -4.4975  -4.4765  -4.4277  -4.4215  -4.3176  -4.1812  -4.1702  -4.1534
    -4.0769  -4.0601  -4.0555  -3.9701  -3.9535  -3.9195  -3.8613  -3.8245
    -3.8177  -3.7932  -3.7561  -3.7141  -3.6841  -3.6049  -3.5652  -3.4765
    -3.4465  -3.4079  -3.3203  -3.2442  -3.2020  -3.1418  -3.1234  -3.0288
    -3.0061  -2.9130  -2.8739  -2.8239  -2.7416  -2.7097  -2.6858  -2.6597
    -2.6355  -2.5961  -2.4864  -2.4822  -2.4347  -2.3613  -2.3427  -2.3010
    -2.2354  -2.1998  -2.1966  -2.1122  -2.0831  -2.0143  -1.9197  -1.8797
    -1.7848  -1.7623  -1.7343  -1.7084  -1.6883  -1.6169  -1.5932  -1.4804
    -1.4694  -1.4583  -1.4156  -1.3938  -1.3466  -1.3236  -1.2566  -1.2401
    -1.2151  -1.1013  -1.0795  -0.9773  -0.9438  -0.8827  -0.7935  -0.7560
    -0.6777  -0.5455  -0.3522  -0.2466  -0.1873  -0.0080   0.0901   0.0910
     1.5514   1.6182   1.8953   1.9172   2.0138   2.0262   2.0757   2.1519
     2.2347   2.2626   2.3351   2.3420   2.3865   2.4326   2.4533   2.4698
     2.4832   2.5521   2.5704   2.6260   2.6923   2.7183   2.8251   2.8492
     2.8641   2.9200   3.0130   3.0189   3.0292   3.0958   3.1049   3.1138
     3.1630   3.2065   3.2204   3.2602   3.3133   3.3496   3.4022   3.4095
     3.4517   3.4726   3.4795   3.5173   3.6118   3.6342   3.8254   3.9403
     4.0519   4.0937   4.1427   4.1909   4.2524   4.4280   4.6598   4.6999
     4.7865   4.9478   4.9565   5.0093   5.0278   5.0672   5.2311   5.5080
     5.5830   5.6571   5.7481   5.7556   5.7956   5.8478   5.9491   5.9702
     5.9900   6.0542   6.0580   6.0883   6.1515   6.1661   6.2513   6.3311
     6.5055   6.6343   6.7507   6.7923   6.8997   7.1108   7.1781   7.3359
     7.7193   8.0387   8.1435   8.3529   8.4003   8.7661   8.8160   8.9150
     8.9316   9.2468   9.3028   9.4272

          k = 0.0253 0.0280 0.0000 ( 34687 PWs)   bands (ev):

   -57.8057 -57.7755 -57.4935 -57.4409 -57.3663 -57.3347 -57.2600 -57.2295
   -57.1623 -57.1317 -57.0974 -57.0667 -56.8674 -56.7971 -56.2681 -56.2376
   -34.2194 -34.0872 -34.0625 -34.0161 -34.0027 -33.9217 -33.8816 -33.8198
   -33.8020 -33.7328 -33.7163 -33.7069 -33.6985 -33.6704 -33.6582 -33.6546
   -33.6309 -33.5899 -33.5890 -33.5285 -33.5144 -33.4648 -33.4415 -33.4314
   -33.4179 -33.4075 -33.3907 -33.3645 -33.3480 -33.3457 -33.3384 -33.3264
   -33.2960 -33.2946 -33.2884 -33.2584 -33.2566 -33.1297 -33.1219 -33.0675
   -33.0277 -32.9512 -32.6634 -32.6208 -32.5969 -32.4871 -32.4077 -32.3207
   -24.5524 -21.2324 -18.0697 -17.8615 -17.6417 -17.5236 -17.4558 -17.4246
   -17.2393 -17.2135 -17.1885 -17.0687 -17.0421 -17.0216 -16.9717 -16.9386
   -16.9092 -16.8432 -16.8251 -16.8006 -16.7304 -16.6437 -16.6112 -16.5225
   -16.4929 -16.4810 -16.4660 -16.2924 -16.2687 -16.2471 -16.1178 -16.1057
   -14.8618 -14.7916  -9.7231  -7.7267  -7.7087  -5.9756  -5.4355  -5.2959
    -5.1533  -5.1414  -5.0934  -4.8567  -4.8455  -4.7103  -4.5517  -4.5058
    -4.4599  -4.4273  -4.3972  -4.3387  -4.3059  -4.2682  -4.2061  -4.1796
    -4.1393  -4.1056  -4.0746  -4.0569  -4.0157  -3.9565  -3.9444  -3.9123
    -3.8945  -3.8409  -3.8281  -3.7404  -3.7204  -3.6652  -3.6601  -3.4644
    -3.4379  -3.3726  -3.3249  -3.2662  -3.1490  -3.0900  -3.0524  -2.9267
    -2.8504  -2.8275  -2.7880  -2.7728  -2.7367  -2.6602  -2.6165  -2.5969
    -2.5734  -2.5592  -2.5317  -2.5002  -2.4399  -2.3851  -2.3359  -2.3100
    -2.2487  -2.2310  -2.1788  -2.0879  -2.0458  -2.0164  -1.9769  -1.8899
    -1.8596  -1.8333  -1.7712  -1.7459  -1.7220  -1.7011  -1.6456  -1.6061
    -1.5514  -1.4925  -1.4658  -1.4486  -1.4000  -1.3591  -1.3074  -1.2153
    -1.1892  -1.1834  -1.0382  -0.9802  -0.9597  -0.8915  -0.8717  -0.8516
    -0.7668  -0.5554  -0.4090  -0.2638  -0.2038   0.0215   0.0631   0.0721
     1.6129   1.7393   1.9082   1.9231   2.0382   2.0562   2.1533   2.1895
     2.2509   2.2952   2.3325   2.3475   2.3963   2.4122   2.4242   2.4510
     2.5277   2.5601   2.5969   2.6304   2.6478   2.7725   2.8250   2.8420
     2.8683   2.9073   2.9955   3.0070   3.0125   3.0188   3.0718   3.1078
     3.1870   3.2488   3.2808   3.2877   3.3177   3.3646   3.4005   3.4696
     3.4850   3.5311   3.5477   3.5670   3.6043   3.6687   3.7820   3.9117
     4.0446   4.0669   4.1357   4.1829   4.2601   4.3775   4.7036   4.7866
     4.8391   4.9558   5.0031   5.0472   5.0565   5.1356   5.2824   5.5410
     5.5809   5.6113   5.6642   5.7422   5.7532   5.8365   5.8972   5.9413
     5.9721   6.0107   6.0347   6.0458   6.0668   6.0940   6.3109   6.3239
     6.4899   6.5636   6.7394   6.7799   6.8294   7.0737   7.1728   7.3933
     7.5527   8.0255   8.1436   8.2237   8.3202   8.5315   8.5775   8.8196
     9.0142   9.2700   9.3977   9.4704

          k = 0.0253 0.0560 0.0000 ( 34699 PWs)   bands (ev):

   -57.7994 -57.7819 -57.4902 -57.4442 -57.3602 -57.3409 -57.2536 -57.2359
   -57.1560 -57.1381 -57.0909 -57.0732 -56.8648 -56.7997 -56.2617 -56.2441
   -34.1496 -34.0818 -34.0676 -33.9858 -33.9547 -33.9455 -33.9390 -33.7859
   -33.7549 -33.7454 -33.7314 -33.6967 -33.6860 -33.6737 -33.6586 -33.6558
   -33.5729 -33.5611 -33.5545 -33.5258 -33.5154 -33.5100 -33.4639 -33.4536
   -33.4362 -33.4226 -33.3910 -33.3651 -33.3588 -33.3446 -33.3441 -33.3383
   -33.3223 -33.3083 -33.2863 -33.2847 -33.2503 -33.1288 -33.1182 -33.0691
   -33.0413 -33.0185 -32.6158 -32.6019 -32.5927 -32.4705 -32.4246 -32.3948
   -24.5523 -21.2323 -17.9026 -17.7049 -17.5079 -17.4222 -17.4017 -17.3814
   -17.2928 -17.2798 -17.1661 -17.1067 -17.0639 -17.0154 -16.9917 -16.9710
   -16.8847 -16.8746 -16.8336 -16.7893 -16.7524 -16.7179 -16.6642 -16.5709
   -16.5589 -16.4498 -16.4172 -16.3082 -16.3038 -16.2669 -16.2314 -16.1672
   -14.8799 -14.8421  -9.7229  -7.7295  -7.7083  -5.9739  -5.2042  -5.0614
    -4.9448  -4.9152  -4.8872  -4.7127  -4.6476  -4.6290  -4.5139  -4.5057
    -4.4864  -4.4765  -4.3759  -4.3369  -4.3325  -4.2991  -4.2690  -4.2538
    -4.2079  -4.1943  -4.1732  -4.1387  -4.0706  -4.0563  -4.0458  -3.9906
    -3.9552  -3.8992  -3.8301  -3.7921  -3.7085  -3.6147  -3.5277  -3.4580
    -3.4161  -3.3966  -3.3601  -3.1920  -3.1559  -3.0330  -2.9780  -2.9581
    -2.9326  -2.8631  -2.7915  -2.7509  -2.6963  -2.6564  -2.6179  -2.5663
    -2.5414  -2.4999  -2.4546  -2.4384  -2.3965  -2.3817  -2.3010  -2.2558
    -2.2412  -2.2103  -2.1543  -2.1194  -2.0737  -2.0604  -1.9955  -1.9827
    -1.9306  -1.9080  -1.8541  -1.8191  -1.8024  -1.7607  -1.7064  -1.6752
    -1.6475  -1.5696  -1.5499  -1.4768  -1.4532  -1.4011  -1.3638  -1.3272
    -1.2418  -1.2143  -1.1426  -1.0774  -1.0513  -0.9524  -0.9280  -0.8552
    -0.8052  -0.7185  -0.5838  -0.3874  -0.0276   0.0134   0.0384   0.0615
     1.7527   1.9324   1.9437   2.0666   2.0752   2.0993   2.1843   2.1937
[...]
    -2.6599  -2.6139  -2.6060  -2.5989  -2.5699  -2.5261  -2.4876  -2.4723
    -2.4718  -2.4083  -2.3671  -2.3541  -2.3167  -2.2859  -2.2422  -2.2401
    -2.2161  -2.1295  -2.1256  -2.1229  -1.9973  -1.9589  -1.8073  -1.7788
    -1.7192  -1.6709  -1.4167  -1.3714  -1.3085  -1.3073  -1.1492  -1.1364
    -1.1292  -1.1272  -1.1009  -1.0691  -1.0236  -0.8862  -0.8725  -0.7411
    -0.7314  -0.7150  -0.6477  -0.6472  -0.0486  -0.0485   0.0890   0.0893
     2.0074   2.0209   2.0617   2.0691   2.0903   2.0925   2.1066   2.1098
     2.3747   2.3860   2.3925   2.4083   2.4712   2.4763   2.5407   2.5583
     2.5750   2.5754   2.6384   2.7444   2.8487   2.8668   2.8722   2.8848
     2.8973   2.9777   3.0515   3.1217   3.1304   3.1830   3.2134   3.2753
     3.3006   3.3519   3.3701   3.3901   3.4134   3.4161   3.4600   3.5175
     3.5769   3.6230   3.7512   3.7875   3.8115   3.8313   3.8325   3.8355
     3.9650   3.9696   3.9889   3.9889   4.3178   4.5832   4.6751   4.6757
     4.7346   4.7566   4.7945   4.8001   4.8024   4.8279   5.0968   5.1244
     5.2468   5.2793   5.6391   5.6543   5.8269   5.8416   5.9559   6.0583
     6.1885   6.2234   6.2302   6.2622   6.3932   6.4544   6.4915   6.5460
     6.5473   6.5702   6.7238   6.7246   6.7760   6.7775   7.0183   7.1138
     7.6286   7.6648   7.7893   7.7973   8.0393   8.0905   8.3319   8.3903
     8.5396   8.6605   8.6803   9.1704

          k =-0.0253 0.0280 0.0000 ( 34687 PWs)   bands (ev):

   -57.8058 -57.7755 -57.4936 -57.4409 -57.3664 -57.3347 -57.2601 -57.2295
   -57.1624 -57.1317 -57.0974 -57.0668 -56.8675 -56.7972 -56.2683 -56.2378
   -34.2194 -34.0872 -34.0625 -34.0161 -34.0027 -33.9217 -33.8816 -33.8198
   -33.8021 -33.7328 -33.7163 -33.7071 -33.6985 -33.6705 -33.6583 -33.6546
   -33.6309 -33.5899 -33.5890 -33.5285 -33.5145 -33.4648 -33.4416 -33.4315
   -33.4179 -33.4075 -33.3907 -33.3645 -33.3480 -33.3458 -33.3384 -33.3264
   -33.2960 -33.2947 -33.2884 -33.2584 -33.2567 -33.1299 -33.1220 -33.0676
   -33.0278 -32.9514 -32.6636 -32.6210 -32.5970 -32.4872 -32.4078 -32.3209
   -24.5524 -21.2324 -18.0696 -17.8615 -17.6416 -17.5235 -17.4558 -17.4244
   -17.2393 -17.2139 -17.1884 -17.0687 -17.0422 -17.0216 -16.9722 -16.9386
   -16.9092 -16.8432 -16.8251 -16.8002 -16.7294 -16.6437 -16.6114 -16.5226
   -16.4928 -16.4807 -16.4660 -16.2923 -16.2687 -16.2470 -16.1176 -16.1056
   -14.8615 -14.7912  -9.7231  -7.7267  -7.7087  -5.9756  -5.4354  -5.2959
    -5.1531  -5.1411  -5.0934  -4.8569  -4.8456  -4.7111  -4.5505  -4.5062
    -4.4599  -4.4273  -4.3976  -4.3387  -4.3061  -4.2679  -4.2084  -4.1793
    -4.1395  -4.1060  -4.0748  -4.0570  -4.0147  -3.9567  -3.9440  -3.9131
    -3.8938  -3.8407  -3.8296  -3.7403  -3.7205  -3.6654  -3.6591  -3.4629
    -3.4366  -3.3702  -3.3230  -3.2673  -3.1484  -3.0901  -3.0523  -2.9277
    -2.8510  -2.8245  -2.7888  -2.7731  -2.7376  -2.6599  -2.6166  -2.5942
    -2.5763  -2.5583  -2.5316  -2.5006  -2.4417  -2.3845  -2.3340  -2.3111
    -2.2468  -2.2308  -2.1800  -2.0905  -2.0459  -2.0159  -1.9764  -1.8953
    -1.8570  -1.8353  -1.7743  -1.7445  -1.7230  -1.6997  -1.6455  -1.6064
    -1.5481  -1.4898  -1.4658  -1.4466  -1.4013  -1.3592  -1.3092  -1.2155
    -1.1919  -1.1845  -1.0384  -0.9775  -0.9567  -0.8938  -0.8714  -0.8485
    -0.7674  -0.5556  -0.4089  -0.2638  -0.2037   0.0217   0.0634   0.0724
     1.6128   1.7393   1.9081   1.9234   2.0384   2.0579   2.1539   2.1913
     2.2535   2.2942   2.3310   2.3433   2.3971   2.4125   2.4240   2.4526
     2.5272   2.5606   2.5968   2.6295   2.6480   2.7714   2.8222   2.8410
     2.8704   2.9072   2.9947   3.0058   3.0122   3.0175   3.0729   3.1058
     3.1885   3.2514   3.2809   3.2881   3.3174   3.3631   3.4018   3.4700
     3.4848   3.5310   3.5476   3.5674   3.6034   3.6682   3.7823   3.9119
     4.0447   4.0668   4.1356   4.1828   4.2595   4.3774   4.7036   4.7835
     4.8411   4.9553   5.0019   5.0464   5.0567   5.1347   5.2814   5.5407
     5.5796   5.6119   5.6645   5.7419   5.7532   5.8350   5.9031   5.9434
     5.9709   6.0102   6.0337   6.0456   6.0671   6.0935   6.3108   6.3236
     6.4914   6.5637   6.7392   6.7796   6.8294   7.0737   7.1785   7.3939
     7.5508   8.0255   8.1465   8.2197   8.3182   8.5311   8.5753   8.8206
     9.0150   9.2676   9.4012   9.4681

          k =-0.0253 0.0560 0.0000 ( 34699 PWs)   bands (ev):

   -57.7994 -57.7819 -57.4903 -57.4442 -57.3602 -57.3409 -57.2537 -57.2360
   -57.1560 -57.1382 -57.0910 -57.0732 -56.8649 -56.7999 -56.2619 -56.2442
   -34.1496 -34.0819 -34.0676 -33.9858 -33.9547 -33.9455 -33.9390 -33.7860
   -33.7549 -33.7454 -33.7315 -33.6968 -33.6860 -33.6738 -33.6586 -33.6559
   -33.5727 -33.5612 -33.5549 -33.5259 -33.5154 -33.5101 -33.4640 -33.4536
   -33.4363 -33.4227 -33.3911 -33.3652 -33.3589 -33.3446 -33.3441 -33.3383
   -33.3224 -33.3083 -33.2863 -33.2848 -33.2504 -33.1289 -33.1184 -33.0692
   -33.0414 -33.0187 -32.6159 -32.6021 -32.5928 -32.4706 -32.4248 -32.3950
   -24.5523 -21.2323 -17.9024 -17.7049 -17.5078 -17.4224 -17.4017 -17.3813
   -17.2923 -17.2799 -17.1661 -17.1067 -17.0644 -17.0154 -16.9917 -16.9726
   -16.8847 -16.8744 -16.8325 -16.7872 -16.7529 -16.7178 -16.6648 -16.5706
   -16.5589 -16.4497 -16.4171 -16.3081 -16.3037 -16.2667 -16.2314 -16.1671
   -14.8795 -14.8417  -9.7229  -7.7295  -7.7083  -5.9739  -5.2041  -5.0614
    -4.9437  -4.9147  -4.8871  -4.7123  -4.6478  -4.6300  -4.5142  -4.5084
    -4.4851  -4.4761  -4.3778  -4.3380  -4.3322  -4.2989  -4.2670  -4.2535
    -4.2081  -4.1950  -4.1726  -4.1391  -4.0704  -4.0578  -4.0462  -3.9915
    -3.9557  -3.8993  -3.8304  -3.7913  -3.7084  -3.6134  -3.5290  -3.4544
    -3.4149  -3.3943  -3.3577  -3.1931  -3.1577  -3.0322  -2.9778  -2.9572
    -2.9310  -2.8639  -2.7909  -2.7511  -2.6969  -2.6564  -2.6187  -2.5655
    -2.5412  -2.4994  -2.4549  -2.4391  -2.3961  -2.3822  -2.3011  -2.2569
    -2.2413  -2.2117  -2.1548  -2.1207  -2.0731  -2.0628  -1.9942  -1.9816
    -1.9332  -1.9104  -1.8574  -1.8198  -1.7999  -1.7605  -1.7041  -1.6770
    -1.6448  -1.5686  -1.5496  -1.4735  -1.4523  -1.4044  -1.3647  -1.3257
    -1.2422  -1.2138  -1.1412  -1.0769  -1.0511  -0.9523  -0.9275  -0.8564
    -0.8054  -0.7178  -0.5836  -0.3875  -0.0274   0.0136   0.0387   0.0617
     1.7527   1.9331   1.9436   2.0666   2.0748   2.1015   2.1866   2.1945
     2.2688   2.2880   2.3128   2.3255   2.3671   2.4108   2.4418   2.5281
     2.5784   2.5968   2.6636   2.6802   2.6975   2.7434   2.8012   2.8200
     2.8280   2.8469   2.8915   2.9040   3.0101   3.0811   3.1436   3.1650
     3.2195   3.2317   3.2640   3.2953   3.3444   3.3936   3.4451   3.4731
     3.5395   3.6357   3.6646   3.6923   3.7254   3.7529   3.7716   3.8395
     3.9574   3.9917   4.0294   4.1672   4.2227   4.4062   4.7943   4.8654
     5.0078   5.0405   5.1176   5.1343   5.1581   5.2425   5.3448   5.4436
     5.4649   5.5182   5.6144   5.6448   5.7344   5.7473   5.8109   5.8414
     5.8942   5.9227   5.9684   6.0300   6.0689   6.2335   6.2630   6.3556
     6.4245   6.4580   6.6617   6.6699   6.8083   6.9219   7.0515   7.2992
     7.4251   7.7173   7.8269   8.1125   8.3639   8.5564   8.6211   8.9016
     9.0305   9.0645   9.2785   9.3817

          k =-0.0506 0.0280 0.0000 ( 34685 PWs)   bands (ev):

   -57.8058 -57.7755 -57.4936 -57.4409 -57.3664 -57.3347 -57.2600 -57.2295
   -57.1624 -57.1317 -57.0974 -57.0668 -56.8675 -56.7972 -56.2683 -56.2378
   -34.2201 -34.0872 -34.0625 -34.0163 -34.0014 -33.9217 -33.8817 -33.8211
   -33.8021 -33.7356 -33.7162 -33.7066 -33.6977 -33.6722 -33.6651 -33.6546
   -33.6317 -33.5864 -33.5755 -33.5164 -33.5149 -33.4650 -33.4414 -33.4290
   -33.4179 -33.4077 -33.3937 -33.3710 -33.3573 -33.3451 -33.3369 -33.3264
   -33.2961 -33.2948 -33.2885 -33.2584 -33.2566 -33.1319 -33.1221 -33.0678
   -33.0278 -32.9514 -32.6635 -32.6228 -32.5961 -32.4872 -32.4078 -32.3209
   -24.5523 -21.2323 -18.0108 -17.7630 -17.5481 -17.4604 -17.4544 -17.3817
   -17.3257 -17.2396 -17.2228 -17.0904 -17.0744 -17.0451 -17.0415 -16.9845
   -16.9663 -16.9496 -16.8550 -16.7409 -16.7001 -16.6527 -16.5700 -16.5532
   -16.5132 -16.4735 -16.4456 -16.2911 -16.2573 -16.2480 -16.1175 -16.1065
   -14.8596 -14.7913  -9.7216  -7.7270  -7.7085  -5.9748  -5.4188  -5.0023
    -4.9273  -4.9131  -4.8445  -4.8214  -4.8012  -4.7616  -4.6261  -4.5609
    -4.5463  -4.4915  -4.4351  -4.3413  -4.2944  -4.2093  -4.1576  -4.1391
    -4.1197  -4.1108  -4.0381  -3.9938  -3.9614  -3.9321  -3.8922  -3.8674
    -3.8444  -3.8129  -3.7655  -3.7074  -3.6891  -3.5719  -3.4364  -3.4032
    -3.3762  -3.3210  -3.2891  -3.2388  -3.1705  -3.0863  -3.0441  -2.9895
    -2.9299  -2.9106  -2.8596  -2.8497  -2.7912  -2.7428  -2.7226  -2.6719
    -2.6317  -2.6026  -2.5714  -2.5238  -2.4850  -2.4620  -2.4178  -2.3892
    -2.3258  -2.2951  -2.2155  -2.1877  -2.1196  -2.0899  -2.0764  -2.0319
    -1.9812  -1.9175  -1.8897  -1.8581  -1.8308  -1.7612  -1.6761  -1.6222
    -1.5860  -1.5544  -1.4811  -1.4528  -1.4123  -1.3927  -1.3062  -1.2518
    -1.1688  -1.1302  -1.0188  -1.0053  -0.9366  -0.9093  -0.8749  -0.8400
    -0.8023  -0.6361  -0.4394  -0.3848  -0.1906  -0.0077   0.0230   0.0367
     1.5973   1.8034   1.9398   1.9537   1.9755   2.0498   2.0851   2.1638
     2.2588   2.2735   2.3162   2.3755   2.4253   2.4659   2.4679   2.5367
     2.5526   2.5961   2.6245   2.6737   2.7668   2.8205   2.8435   2.8677
     2.8945   2.9388   2.9674   3.0264   3.0369   3.0820   3.1603   3.1884
     3.2477   3.2817   3.3197   3.3500   3.3999   3.4443   3.4655   3.5096
     3.5130   3.5481   3.5612   3.6363   3.6900   3.7020   3.7618   3.8451
     3.9474   4.0443   4.1598   4.1884   4.2978   4.3779   4.5434   4.6484
     4.6732   4.6985   4.8647   4.9161   5.0133   5.3261   5.3738   5.4861
     5.5279   5.5937   5.6728   5.7258   5.7504   5.7686   5.8951   5.9455
     5.9945   6.0373   6.2521   6.2870   6.3105   6.3877   6.4479   6.5264
     6.5558   6.6250   6.7003   6.7374   6.8397   6.9572   7.0414   7.3927
     7.4868   7.6881   7.8129   8.0917   8.3062   8.4137   8.5212   8.9314
     9.0709   9.1599   9.3584   9.4623

          k =-0.0506 0.0560 0.0000 ( 34596 PWs)   bands (ev):

   -57.7994 -57.7819 -57.4903 -57.4442 -57.3602 -57.3409 -57.2536 -57.2360
   -57.1560 -57.1382 -57.0910 -57.0732 -56.8649 -56.7999 -56.2619 -56.2442
   -34.1501 -34.0819 -34.0675 -33.9846 -33.9548 -33.9456 -33.9386 -33.7860
   -33.7555 -33.7460 -33.7315 -33.6956 -33.6860 -33.6744 -33.6611 -33.6579
   -33.5699 -33.5622 -33.5550 -33.5191 -33.5149 -33.4998 -33.4667 -33.4473
   -33.4361 -33.4226 -33.3912 -33.3651 -33.3626 -33.3520 -33.3441 -33.3404
   -33.3226 -33.3096 -33.2863 -33.2846 -33.2502 -33.1301 -33.1185 -33.0698
   -33.0414 -33.0185 -32.6171 -32.6016 -32.5927 -32.4706 -32.4247 -32.3949
   -24.5523 -21.2321 -17.8539 -17.6119 -17.4333 -17.4116 -17.3947 -17.3231
   -17.2858 -17.2505 -17.1790 -17.1480 -17.0734 -17.0556 -16.9891 -16.9699
   -16.9677 -16.8973 -16.8868 -16.8195 -16.7822 -16.7554 -16.6906 -16.6449
   -16.5399 -16.4393 -16.3981 -16.2986 -16.2980 -16.2693 -16.2332 -16.1666
   -14.8783 -14.8421  -9.7213  -7.7296  -7.7081  -5.9732  -5.1960  -4.7676
    -4.7154  -4.7038  -4.6653  -4.6305  -4.6197  -4.5835  -4.4776  -4.4604
    -4.4353  -4.4212  -4.3296  -4.2750  -4.2609  -4.2539  -4.2111  -4.1909
    -4.1670  -4.1539  -4.1405  -4.1136  -4.0609  -4.0240  -4.0125  -3.9818
    -3.9275  -3.8685  -3.8031  -3.7675  -3.6647  -3.6360  -3.4924  -3.4664
    -3.4483  -3.3806  -3.3628  -3.1894  -3.1054  -3.0604  -3.0141  -2.9703
    -2.9519  -2.8964  -2.8786  -2.8397  -2.7973  -2.7500  -2.6966  -2.6915
    -2.6206  -2.6030  -2.5751  -2.4979  -2.4697  -2.4508  -2.4345  -2.4120
    -2.3831  -2.3393  -2.2698  -2.2582  -2.2322  -2.2084  -2.1602  -2.1459
    -2.0748  -2.0361  -2.0043  -1.9629  -1.9185  -1.8372  -1.7683  -1.7527
    -1.6852  -1.5852  -1.5115  -1.4675  -1.4324  -1.3543  -1.3172  -1.2084
    -1.1574  -1.1196  -1.0751  -1.0121  -0.9697  -0.9053  -0.8924  -0.8138
    -0.7828  -0.7676  -0.6369  -0.4477  -0.0390  -0.0019   0.0114   0.0675
     1.7557   1.9570   1.9726   2.0379   2.0921   2.1306   2.1427   2.1959
     2.2418   2.2875   2.4061   2.4408   2.4498   2.4767   2.4940   2.5216
     2.6154   2.6317   2.6633   2.6854   2.7388   2.8081   2.8252   2.8674
     2.9139   2.9256   2.9650   2.9967   3.0465   3.0872   3.2114   3.2391
     3.2698   3.2881   3.3413   3.3548   3.3961   3.4077   3.4477   3.4941
     3.5713   3.6263   3.6672   3.7365   3.7664   3.7882   3.8024   3.8197
     3.8606   3.9876   4.0405   4.1665   4.2423   4.4868   4.6676   4.6944
     4.7682   4.7722   4.9163   5.0215   5.0931   5.1579   5.2297   5.2565
     5.3270   5.4842   5.5850   5.6549   5.7075   5.7575   5.8500   5.9891
     6.0318   6.1353   6.1798   6.2279   6.2749   6.3229   6.4823   6.4992
     6.5611   6.6077   6.6433   6.6980   6.8497   6.8824   7.0202   7.3014
     7.3414   7.7372   7.7835   8.0119   8.0920   8.1707   8.5755   8.6693
     8.8518   8.9112   9.1360   9.3576

     the Fermi energy is     0.8816 ev

!    total energy              =   -3044.95482996 Ry
     Harris-Foulkes estimate   =   -3044.95483011 Ry
     estimated scf accuracy    <       0.00000058 Ry

     The total energy is the sum of the following terms:

     one-electron contribution =  -40864.94378467 Ry
     hartree contribution      =   20505.00295174 Ry
     xc contribution           =    -557.23211071 Ry
     ewald contribution        =   17872.21831826 Ry
     smearing contrib. (-TS)   =      -0.00020458 Ry

     total magnetization       =     0.00 Bohr mag/cell
     absolute magnetization    =     0.00 Bohr mag/cell

     convergence has been achieved in  10 iterations

     Forces acting on atoms (Ry/au):


     negative rho (up, down):  1.161E-02 1.161E-02
     atom    1 type  1   force =    -0.00008495    0.00030754   -0.13590704
     atom    2 type  2   force =     0.00010477   -0.00008124    0.07509504
     atom    3 type  1   force =     0.00126580    0.00108932   -0.05973532
     atom    4 type  2   force =     0.00661035   -0.00006647    0.00966253
     atom    5 type  1   force =    -0.00131211   -0.00013983    0.00012937
     atom    6 type  2   force =    -0.00184510   -0.00354451   -0.00918003
     atom    7 type  1   force =     0.01121898    0.00860895   -0.01603426
     atom    8 type  2   force =     0.00035232   -0.00011427    0.00076696
     atom    9 type  1   force =     0.00013043    0.00035095   -0.13598248
     atom   10 type  2   force =     0.00016677   -0.00003211    0.07504229
     atom   11 type  1   force =     0.00126256   -0.00086206   -0.05986424
     atom   12 type  2   force =     0.00604603   -0.00011110    0.00852830
     atom   13 type  1   force =     0.00014135   -0.00015547   -0.00022838
     atom   14 type  2   force =    -0.00202873    0.00296684   -0.00925444
     atom   15 type  1   force =     0.01139956   -0.00843283   -0.01627838
     atom   16 type  2   force =     0.00666803    0.00009079    0.01040661
     atom   17 type  2   force =    -0.00002373   -0.00005551    0.07993355
     atom   18 type  1   force =    -0.00006107    0.00022698    0.11917020
     atom   19 type  2   force =     0.00038969    0.00019051   -0.06818752
     atom   20 type  2   force =    -0.06268981    0.00005177   -0.03211428
     atom   21 type  2   force =     0.06273921    0.00015227   -0.03258805
     atom   22 type  1   force =    -0.00049322   -0.00012585    0.06436473
     atom   23 type  2   force =     0.00015916    0.00061882   -0.00274234
     atom   24 type  2   force =     0.00049529    0.00004041   -0.02247997
     atom   25 type  2   force =    -0.00645414   -0.00025280    0.00821810
     atom   26 type  1   force =    -0.00011111   -0.00005197    0.00256060
     atom   27 type  2   force =     0.00251009   -0.00146169   -0.00234293
     atom   28 type  2   force =    -0.00007803   -0.00001627   -0.00150055
     atom   29 type  2   force =     0.00015104   -0.00005563   -0.00055061
     atom   30 type  1   force =     0.00572098    0.00034173   -0.00102260
     atom   31 type  2   force =    -0.00206081    0.00149836    0.00145431
     atom   32 type  2   force =     0.00173031   -0.00009902    0.00192478
     atom   33 type  2   force =    -0.00000049    0.00015203    0.07999994
     atom   34 type  1   force =    -0.00007646    0.00023518    0.11917885
     atom   35 type  2   force =     0.00035844    0.00032563   -0.06813670
     atom   36 type  2   force =    -0.06268425    0.00009920   -0.03232293
     atom   37 type  2   force =     0.06285229    0.00017153   -0.03207881
     atom   38 type  1   force =    -0.00069540    0.00000920    0.06419954
     atom   39 type  2   force =     0.00019499   -0.00081983   -0.00272652
     atom   40 type  2   force =     0.00060582   -0.00227503   -0.02263752
     atom   41 type  2   force =    -0.00619728   -0.00030758    0.00761817
     atom   42 type  1   force =    -0.00009745   -0.00009154    0.00256636
     atom   43 type  2   force =     0.00256663    0.00145561   -0.00238270
     atom   44 type  2   force =     0.00032419   -0.00012932   -0.00074040
     atom   45 type  2   force =    -0.00018907   -0.00006321   -0.00096292
     atom   46 type  1   force =    -0.01920066    0.00042578   -0.00540125
     atom   47 type  2   force =    -0.00206481   -0.00133576    0.00146479
     atom   48 type  2   force =    -0.00084826   -0.00044637   -0.02831503
     atom   49 type  2   force =    -0.05012548    0.00086687    0.17100344
     atom   50 type  3   force =    -0.00245661   -0.00127019    0.10548806
     atom   51 type  3   force =     0.03571394    0.00212118   -0.20707832

     Total force =     0.474532     Total SCF correction =     0.001330
 !ASE

     Writing output data file calc.save
 
     init_run     :     55.52s CPU     69.36s WALL (       1 calls)
     electrons    :   2144.98s CPU   2717.97s WALL (       1 calls)
     forces       :     40.98s CPU     42.12s WALL (       1 calls)

     Called by init_run:
     wfcinit      :     47.34s CPU     60.57s WALL (       1 calls)
     potinit      :      1.45s CPU      1.71s WALL (       1 calls)

     Called by electrons:
     c_bands      :   1866.62s CPU   2367.77s WALL (      10 calls)
     sum_band     :    234.30s CPU    299.45s WALL (      10 calls)
     v_of_rho     :     10.66s CPU     13.59s WALL (      11 calls)
     newd         :     37.28s CPU     41.13s WALL (      11 calls)
     mix_rho      :      0.37s CPU      0.52s WALL (      10 calls)
     vdW_energy   :      1.96s CPU      2.44s WALL (      12 calls)
     vdW_ffts     :      2.77s CPU      3.73s WALL (      24 calls)
     vdW_v        :      1.19s CPU      1.36s WALL (      12 calls)

     Called by c_bands:
     init_us_2    :      5.90s CPU      6.50s WALL (     880 calls)
     cegterg      :   1829.82s CPU   2328.98s WALL (     400 calls)

     Called by *egterg:
     h_psi        :    700.27s CPU   1113.17s WALL (    2348 calls)
     s_psi        :     94.67s CPU    100.20s WALL (    2348 calls)
     g_psi        :      4.91s CPU      5.05s WALL (    1908 calls)
     cdiaghg      :    684.07s CPU    702.44s WALL (    2308 calls)

     Called by h_psi:
     add_vuspsi   :     95.25s CPU    100.37s WALL (    2348 calls)

     General routines
     calbec       :    143.63s CPU    147.65s WALL (    2788 calls)
     fft          :      5.75s CPU      7.61s WALL (     948 calls)
     ffts         :      0.06s CPU      0.07s WALL (      42 calls)
     fftw         :    454.40s CPU    895.61s WALL (  725164 calls)
     interpolate  :      0.34s CPU      0.54s WALL (      42 calls)
     davcio       :      0.09s CPU      3.89s WALL (      40 calls)
 
     Parallel routines
     fft_scatter  :    244.82s CPU    470.71s WALL (  726154 calls)
 
     PWSCF        : 37m22.51s CPU    47m15.39s WALL

 
   This run was terminated on:  14:14: 7  10Mar2018            

=------------------------------------------------------------------------------=
   JOB DONE.
=------------------------------------------------------------------------------=
