  python dir          : /home/vossj/suncat/lib/python2.7/site-packages/espresso
  espresso dir        : /home/vossj/suncat/esdld/espresso-dynpy-beef/bin
  pseudo dir          : /home/alatimer/bin/psp/esp_psp_w_gbrvRu/
  ase-espresso py git : ffa2778-git



     Program PWSCF v.5.1rc2 (svn rev. ) starts on 13Feb2018 at  2:11:33 

     This program is part of the open-source Quantum ESPRESSO suite
     for quantum simulation of materials; please cite
         "P. Giannozzi et al., J. Phys.:Condens. Matter 21 395502 (2009);
          URL http://www.quantum-espresso.org", 
     in publications or presentations arising from this work. More details at
     http://www.quantum-espresso.org/quote

     Parallel version (MPI), running on    16 processors
     R & G space division:  proc/nbgrp/npool/nimage =      16
     Reading input from pw.inp
     Message from routine read_cards :
     DEPRECATED: no units specified in CELL_PARAMETERS card

     Current dimensions of program PWSCF are:
     Max number of different atomic species (ntypx) = 10
     Max number of k-points (npk) =  40000
     Max angular momentum in pseudopotentials (lmaxx) =  3

     **************************************************************************
     Initializing libbeef V0.1.1 with the BEEF-vdW functional.
     Citation: Wellendorff et al., PRB 85, 235149 (2012).
     **************************************************************************


     IMPORTANT: XC functional enforced from input :
     Exchange-correlation      = BEEF ( 1  4 27 13 2)
     Any further DFT definition will be discarded
     Please, verify this is what you really want


     Subspace diagonalization in iterative solution of the eigenvalue problem:
     a serial algorithm will be used

 
     Parallelization info
     --------------------
     sticks:   dense  smooth     PW     G-vecs:    dense   smooth      PW
     Min         281     112     31                68535    17318    2565
     Max         282     113     32                68545    17369    2582
     Sum        4501    1795    503              1096637   277353   41113
 
     Generating pointlists ...
     new r_m :   0.4125 (alat units)  0.7795 (a.u.) for type    1
     new r_m :   0.3995 (alat units)  0.7549 (a.u.) for type    2
     new r_m :   0.4125 (alat units)  0.7795 (a.u.) for type    3
     new r_m :   0.3995 (alat units)  0.7549 (a.u.) for type    4


     bravais-lattice index     =            0
     lattice parameter (alat)  =       1.8897  a.u.
     unit-cell volume          =    7990.9933 (a.u.)^3
     number of atoms/cell      =           54
     number of atomic types    =            4
     number of electrons       =       398.00
     number of Kohn-Sham states=          299
     kinetic-energy cutoff     =      40.4243  Ry
     charge density cutoff     =     404.2426  Ry
     convergence threshold     =      7.3E-07
     mixing beta               =       0.1000
     number of iterations used =           10  plain     mixing
     Exchange-correlation      = BEEF ( 1  4 27 13 2)
     nstep                     =           50


     celldm(1)=   1.889726  celldm(2)=   0.000000  celldm(3)=   0.000000
     celldm(4)=   0.000000  celldm(5)=   0.000000  celldm(6)=   0.000000

     crystal axes: (cart. coord. in units of alat)
               a(1) = (   6.590708   0.000000   0.000000 )  
               a(2) = (   0.000000   5.950229   0.000000 )  
               a(3) = (   0.000000   0.000000  30.195235 )  

     reciprocal axes: (cart. coord. in units 2 pi/alat)
               b(1) = (  0.151729  0.000000  0.000000 )  
               b(2) = (  0.000000  0.168061  0.000000 )  
               b(3) = (  0.000000  0.000000  0.033118 )  


     PseudoPot. # 1 for Ti read from file:
     /home/alatimer/bin/psp/esp_psp_w_gbrvRu/Ti.UPF
     MD5 check sum: 8e4df49b7f0d34bbd5052bf3f5ea0213
     Pseudo is Ultrasoft, Zval = 12.0
     Generated by new atomic code, or converted to UPF format
     Using radial grid of  851 points,  6 beta functions with: 
                l(1) =   0
                l(2) =   0
                l(3) =   1
                l(4) =   1
                l(5) =   2
                l(6) =   2
     Q(r) pseudized with  8 coefficients,  rinner =    1.000   1.000   1.000
                                                       1.000   1.000

     PseudoPot. # 2 for  O read from file:
     /home/alatimer/bin/psp/esp_psp_w_gbrvRu/O.UPF
     MD5 check sum: e057bbcf3229fb5d8c36c0c92f9568b4
     Pseudo is Ultrasoft + core correction, Zval =  6.0
     Generated using "atomic" code by A. Dal Corso  v.5.0.2 svn rev. 9415
     Using radial grid of 1095 points,  4 beta functions with: 
                l(1) =   0
                l(2) =   0
                l(3) =   1
                l(4) =   1
     Q(r) pseudized with 0 coefficients 


     PseudoPot. # 3 for  C read from file:
     /home/alatimer/bin/psp/esp_psp_w_gbrvRu/C.UPF
     MD5 check sum: ab446d787031eba755f1d5ee46644bb0
     Pseudo is Ultrasoft + core correction, Zval =  4.0
     Generated using "atomic" code by A. Dal Corso  v.5.0.2 svn rev. 9415
     Using radial grid of 1073 points,  4 beta functions with: 
                l(1) =   0
                l(2) =   0
                l(3) =   1
                l(4) =   1
     Q(r) pseudized with 0 coefficients 


     PseudoPot. # 4 for  H read from file:
     /home/alatimer/bin/psp/esp_psp_w_gbrvRu/H.UPF
     MD5 check sum: bd57da0722753ddfd9833a65b40bb853
     Pseudo is Ultrasoft, Zval =  1.0
     Generated using "atomic" code by A. Dal Corso  v.5.0.2 svn rev. 9415
     Using radial grid of  929 points,  2 beta functions with: 
                l(1) =   0
                l(2) =   0
     Q(r) pseudized with 0 coefficients 


     vdW kernel table read from file vdW_kernel_table
     MD5 check sum: 095c7af220d748ca6e76c0b4c6cfb241

     atomic species   valence    mass     pseudopotential
        Ti1           12.00    47.88000     Ti( 1.00)
        O1             6.00    15.99940      O( 1.00)
        C1             4.00    12.01100      C( 1.00)
        H1             1.00     1.00794      H( 1.00)

     Starting magnetic structure 
     atomic species   magnetization
        Ti1          0.250
        O1           0.500
        C1           0.750
        H1           0.000

     No symmetry found



   Cartesian axes

     site n.     atom                  positions (alat units)
         1           Ti1 tau(   1) = (   1.6476770   0.7437786   2.6545865  )
         2           O1  tau(   2) = (   1.6476770   2.2313359   3.9361215  )
         3           Ti1 tau(   3) = (   1.6476770   2.2313359   5.9499405  )
         4           O1  tau(   4) = (   0.3661420   0.7437786   5.9499405  )
         5           Ti1 tau(   5) = (   1.7592931   0.7557636   9.1813031  )
         6           O1  tau(   6) = (   1.6162490   2.2572048  10.5951269  )
         7           Ti1 tau(   7) = (   1.5595004   2.2680265  12.4668274  )
         8           O1  tau(   8) = (   0.3709531   0.7738127  12.6996540  )
         9           Ti1 tau(   9) = (   1.6476770   3.7188931   2.6545865  )
        10           O1  tau(  10) = (   1.6476770   5.2064503   3.9361215  )
        11           Ti1 tau(  11) = (   1.6476770   5.2064503   5.9499405  )
        12           O1  tau(  12) = (   0.3661420   3.7188931   5.9499405  )
        13           Ti1 tau(  13) = (   1.7607536   3.7112867   9.1949733  )
        14           O1  tau(  14) = (   1.6133076   5.2250699  10.5465640  )
        15           Ti1 tau(  15) = (   1.6492307   5.2431137  12.3448001  )
        16           O1  tau(  16) = (   0.3719744   3.7598389  12.7007434  )
        17           O1  tau(  17) = (   1.6476770   2.2313359   1.3730516  )
        18           Ti1 tau(  18) = (   4.9430310   2.2313359   2.6545865  )
        19           O1  tau(  19) = (   4.9430310   2.2313359   4.6684056  )
        20           O1  tau(  20) = (   6.2245660   0.7437786   2.6545865  )
        21           O1  tau(  21) = (   3.6614961   0.7437786   2.6545865  )
        22           Ti1 tau(  22) = (   4.9430310   0.7437786   5.9499405  )
        23           O1  tau(  23) = (   1.6387103   2.2391978   8.0037664  )
        24           O1  tau(  24) = (   4.9430310   2.2313359   7.2314755  )
        25           O1  tau(  25) = (   2.9292120   0.7437786   5.9499405  )
        26           Ti1 tau(  26) = (   5.0158092   2.2383949   9.3973727  )
        27           O1  tau(  27) = (   4.9391445   2.2276729  11.2675731  )
        28           O1  tau(  28) = (   6.2094020   0.7514556   9.2742047  )
        29           O1  tau(  29) = (   3.6131301   0.7515640   9.2682932  )
        30           Ti1 tau(  30) = (   4.8940083   0.8207741  12.7348365  )
        31           O1  tau(  31) = (   4.8487174   2.2703822  13.8475395  )
        32           O1  tau(  32) = (   2.8766274   0.7418004  12.6316555  )
        33           O1  tau(  33) = (   1.6476770   5.2064503   1.3730516  )
        34           Ti1 tau(  34) = (   4.9430310   5.2064503   2.6545865  )
        35           O1  tau(  35) = (   4.9430310   5.2064503   4.6684056  )
        36           O1  tau(  36) = (   6.2245660   3.7188931   2.6545865  )
        37           O1  tau(  37) = (   3.6614961   3.7188931   2.6545865  )
        38           Ti1 tau(  38) = (   4.9430310   3.7188931   5.9499405  )
        39           O1  tau(  39) = (   1.6418458   5.2133935   8.0066417  )
        40           O1  tau(  40) = (   4.9430310   5.2064503   7.2314755  )
        41           O1  tau(  41) = (   2.9292120   3.7188931   5.9499405  )
        42           Ti1 tau(  42) = (   5.0218241   5.2139137   9.3870600  )
        43           O1  tau(  43) = (   4.9399496   5.2040061  11.2598200  )
        44           O1  tau(  44) = (   6.2073000   3.7245411   9.2731052  )
        45           O1  tau(  45) = (   3.6137513   3.7232133   9.2682466  )
        46           Ti1 tau(  46) = (   4.8936935   3.8094630  12.7397413  )
        47           O1  tau(  47) = (   4.9051259   5.2510468  13.8339921  )
        48           O1  tau(  48) = (   2.8743370   3.7938830  12.6403791  )
        49           C1  tau(  49) = (   1.0587210   2.2268971  15.9066084  )
        50           O1  tau(  50) = (   1.8917182   2.2355032  14.7378010  )
        51           H1  tau(  51) = (   0.0310076   2.2200215  15.5603933  )
        52           H1  tau(  52) = (   2.8355400   2.2288152  14.9543747  )
        53           H1  tau(  53) = (   1.2178062   1.3326534  16.5039879  )
        54           H1  tau(  54) = (   1.2341453   3.1195140  16.5098874  )

     number of k points=    40  Fermi-Dirac smearing, width (Ry)=  0.0073
                       cart. coord. in units 2pi/alat
        k(    1) = (   0.0000000   0.0000000   0.0000000), wk =   0.0277778
        k(    2) = (   0.0000000   0.0280101   0.0000000), wk =   0.0555556
        k(    3) = (   0.0000000   0.0560203   0.0000000), wk =   0.0555556
        k(    4) = (   0.0000000  -0.0840304   0.0000000), wk =   0.0277778
        k(    5) = (   0.0252881   0.0000000   0.0000000), wk =   0.0555556
        k(    6) = (   0.0252881   0.0280101   0.0000000), wk =   0.0555556
        k(    7) = (   0.0252881   0.0560203   0.0000000), wk =   0.0555556
        k(    8) = (   0.0252881  -0.0840304   0.0000000), wk =   0.0555556
        k(    9) = (   0.0505763   0.0000000   0.0000000), wk =   0.0555556
        k(   10) = (   0.0505763   0.0280101   0.0000000), wk =   0.0555556
        k(   11) = (   0.0505763   0.0560203   0.0000000), wk =   0.0555556
        k(   12) = (   0.0505763  -0.0840304   0.0000000), wk =   0.0555556
        k(   13) = (  -0.0758644   0.0000000   0.0000000), wk =   0.0277778
        k(   14) = (  -0.0758644   0.0280101   0.0000000), wk =   0.0555556
        k(   15) = (  -0.0758644   0.0560203   0.0000000), wk =   0.0555556
        k(   16) = (  -0.0758644  -0.0840304   0.0000000), wk =   0.0277778
        k(   17) = (  -0.0252881   0.0280101   0.0000000), wk =   0.0555556
        k(   18) = (  -0.0252881   0.0560203   0.0000000), wk =   0.0555556
        k(   19) = (  -0.0505763   0.0280101   0.0000000), wk =   0.0555556
        k(   20) = (  -0.0505763   0.0560203   0.0000000), wk =   0.0555556
        k(   21) = (   0.0000000   0.0000000   0.0000000), wk =   0.0277778
        k(   22) = (   0.0000000   0.0280101   0.0000000), wk =   0.0555556
        k(   23) = (   0.0000000   0.0560203   0.0000000), wk =   0.0555556
        k(   24) = (   0.0000000  -0.0840304   0.0000000), wk =   0.0277778
        k(   25) = (   0.0252881   0.0000000   0.0000000), wk =   0.0555556
        k(   26) = (   0.0252881   0.0280101   0.0000000), wk =   0.0555556
        k(   27) = (   0.0252881   0.0560203   0.0000000), wk =   0.0555556
        k(   28) = (   0.0252881  -0.0840304   0.0000000), wk =   0.0555556
        k(   29) = (   0.0505763   0.0000000   0.0000000), wk =   0.0555556
        k(   30) = (   0.0505763   0.0280101   0.0000000), wk =   0.0555556
        k(   31) = (   0.0505763   0.0560203   0.0000000), wk =   0.0555556
        k(   32) = (   0.0505763  -0.0840304   0.0000000), wk =   0.0555556
        k(   33) = (  -0.0758644   0.0000000   0.0000000), wk =   0.0277778
        k(   34) = (  -0.0758644   0.0280101   0.0000000), wk =   0.0555556
        k(   35) = (  -0.0758644   0.0560203   0.0000000), wk =   0.0555556
        k(   36) = (  -0.0758644  -0.0840304   0.0000000), wk =   0.0277778
        k(   37) = (  -0.0252881   0.0280101   0.0000000), wk =   0.0555556
        k(   38) = (  -0.0252881   0.0560203   0.0000000), wk =   0.0555556
        k(   39) = (  -0.0505763   0.0280101   0.0000000), wk =   0.0555556
        k(   40) = (  -0.0505763   0.0560203   0.0000000), wk =   0.0555556

     Dense  grid:  1096637 G-vectors     FFT dimensions: (  80,  72, 375)

     Smooth grid:   277353 G-vectors     FFT dimensions: (  54,  45, 240)

     Largest allocated arrays     est. size (Mb)     dimensions
        Kohn-Sham Wavefunctions         9.95 Mb     (    2180,  299)
        NL pseudopotentials            18.89 Mb     (    2180,  568)
        Each V/rho on FFT grid          4.22 Mb     (  138240,   2)
        Each G-vector array             0.52 Mb     (   68538)
        G-vector shells                 0.25 Mb     (   33046)
     Largest temporary arrays     est. size (Mb)     dimensions
        Auxiliary wavefunctions        39.78 Mb     (    2180, 1196)
        Each subspace H/S matrix       21.83 Mb     (    1196, 1196)
        Each <psi_i|beta_j> matrix      2.59 Mb     (     568,  299)
        Arrays for rho mixing          21.09 Mb     (  138240,   10)

     Check: negative/imaginary core charge=   -0.000049    0.000000

     The initial density is read from file :
     ./calc.save/charge-density.dat


     negative rho (up, down):  1.209E-02 1.209E-02


     ************************************************************************
     *
     * You are using vdW-DF for exchange-correlation in this calculation.
     * Please cite the following three references that made this development
     * possible:
     *
     *   M. Dion, H. Rydberg, E. Schroder, D. C. Langreth, and
     *   B. I. Lundqvist, Phys. Rev. Lett. 92, 246401 (2004).
     *
     *   T. Thonhauser, V. R. Cooper, S. Li, A. Puzder, P. Hyldgaard, and
     *   D. C. Langreth, Phys. Rev. B 76, 125112 (2007).
     *
     *   G. Roman-Perez and J. M. Soler, Phys. Rev. Lett. 103, 096102 (2009).
     *
     *
     * If you are using vdW-DF2, please also cite:
     *
     *   K. Lee, E. D. Murray, L. Kong, B. I. Lundqvist, and
     *   D. C. Langreth, Phys. Rev. B 82, 081101(R) (2010).
     *
     *
     * If you are calculating the stress with vdW-DF, please also cite:
     *
     *   R. Sabatini, E. Kucukbenli, B. Kolb, T. Thonhauser, and
     *   S. de Gironcoli, J. Phys.: Condens. Matter 24, 424209 (2012).
     *
     ************************************************************************

     Carrying out vdW-DF run using the following parameters:

     Nqs =      20    Nr_points =    1024   r_max =   100.000
     q_mesh =
               0.00001000     0.04494208     0.09755937     0.15916263
               0.23128650     0.31572767     0.41458969     0.53033537
               0.66584808     0.82450364     1.01025438     1.22772762
               1.48234092     1.78043706     2.12944203     2.53805004
               3.01644009     3.57652955     4.23227104     5.00000000

     Gradients computed in reciprocal space

     ************************************************************************


     Starting wfc are  300 randomized atomic wfcs

     total cpu time spent up to now is       74.4 secs

     Self-consistent Calculation

     iteration #  1     ecut=    40.42 Ry     beta=0.10
     Davidson diagonalization with overlap
     ethr =  1.00E-05,  avg # of iterations = 14.7

     Threshold (ethr) on eigenvalues was too large:
     Diagonalizing with lowered threshold

     Davidson diagonalization with overlap
     ethr =  3.17E-07,  avg # of iterations =  1.0

     negative rho (up, down):  1.209E-02 1.209E-02
 
     Magnetic moment per site:
     atom:    1    charge:    3.1250    magn:   -0.0002    constr:    0.0000
     atom:    2    charge:    1.9452    magn:    0.0000    constr:    0.0000
     atom:    3    charge:    3.1198    magn:    0.0000    constr:    0.0000
     atom:    4    charge:    1.9504    magn:   -0.0001    constr:    0.0000
     atom:    5    charge:    3.1166    magn:    0.0000    constr:    0.0000
     atom:    6    charge:    1.9476    magn:   -0.0001    constr:    0.0000
     atom:    7    charge:    3.1157    magn:    0.0001    constr:    0.0000
     atom:    8    charge:    1.9452    magn:   -0.0001    constr:    0.0000
     atom:    9    charge:    3.1250    magn:   -0.0002    constr:    0.0000
     atom:   10    charge:    1.9452    magn:    0.0000    constr:    0.0000
     atom:   11    charge:    3.1197    magn:    0.0000    constr:    0.0000
     atom:   12    charge:    1.9504    magn:   -0.0001    constr:    0.0000
     atom:   13    charge:    3.1158    magn:    0.0000    constr:    0.0000
     atom:   14    charge:    1.9587    magn:   -0.0001    constr:    0.0000
     atom:   15    charge:    3.1188    magn:    0.0001    constr:    0.0000
     atom:   16    charge:    1.9446    magn:   -0.0001    constr:    0.0000
     atom:   17    charge:    1.9184    magn:    0.0004    constr:    0.0000
     atom:   18    charge:    3.1239    magn:   -0.0001    constr:    0.0000
     atom:   19    charge:    1.9408    magn:   -0.0000    constr:    0.0000
     atom:   20    charge:    1.9471    magn:    0.0000    constr:    0.0000
     atom:   21    charge:    1.9471    magn:    0.0000    constr:    0.0000
     atom:   22    charge:    3.1196    magn:    0.0000    constr:    0.0000
     atom:   23    charge:    1.9566    magn:   -0.0001    constr:    0.0000
     atom:   24    charge:    1.9379    magn:   -0.0001    constr:    0.0000
     atom:   25    charge:    1.9505    magn:   -0.0001    constr:    0.0000
     atom:   26    charge:    3.1145    magn:    0.0001    constr:    0.0000
     atom:   27    charge:    1.9398    magn:   -0.0001    constr:    0.0000
     atom:   28    charge:    1.9517    magn:   -0.0001    constr:    0.0000
     atom:   29    charge:    1.9476    magn:   -0.0001    constr:    0.0000
     atom:   30    charge:    3.1167    magn:    0.0000    constr:    0.0000
     atom:   31    charge:    1.9447    magn:   -0.0000    constr:    0.0000
     atom:   32    charge:    1.9440    magn:   -0.0001    constr:    0.0000
     atom:   33    charge:    1.9184    magn:    0.0004    constr:    0.0000
     atom:   34    charge:    3.1239    magn:   -0.0001    constr:    0.0000
     atom:   35    charge:    1.9408    magn:   -0.0000    constr:    0.0000
     atom:   36    charge:    1.9471    magn:    0.0000    constr:    0.0000
     atom:   37    charge:    1.9471    magn:    0.0000    constr:    0.0000
     atom:   38    charge:    3.1196    magn:    0.0000    constr:    0.0000
     atom:   39    charge:    1.9549    magn:   -0.0001    constr:    0.0000
     atom:   40    charge:    1.9383    magn:   -0.0001    constr:    0.0000
     atom:   41    charge:    1.9505    magn:   -0.0001    constr:    0.0000
     atom:   42    charge:    3.1141    magn:    0.0001    constr:    0.0000
     atom:   43    charge:    1.9413    magn:   -0.0001    constr:    0.0000
     atom:   44    charge:    1.9517    magn:   -0.0001    constr:    0.0000
     atom:   45    charge:    1.9468    magn:   -0.0001    constr:    0.0000
     atom:   46    charge:    3.1165    magn:    0.0000    constr:    0.0000
     atom:   47    charge:    1.9431    magn:   -0.0000    constr:    0.0000
     atom:   48    charge:    1.9444    magn:   -0.0001    constr:    0.0000
     atom:   49    charge:    0.6583    magn:   -0.0001    constr:    0.0000
     atom:   50    charge:    1.9576    magn:   -0.0001    constr:    0.0000
     atom:   51    charge:    0.4024    magn:    0.0000    constr:    0.0000
     atom:   52    charge:    0.4006    magn:    0.0000    constr:    0.0000
     atom:   53    charge:    0.4052    magn:    0.0000    constr:    0.0000
     atom:   54    charge:    0.4039    magn:    0.0000    constr:    0.0000

     total cpu time spent up to now is     1011.2 secs

     total energy              =   -3021.42016392 Ry
     Harris-Foulkes estimate   =   -3021.42025250 Ry
     estimated scf accuracy    <       0.00126143 Ry

     total magnetization       =     0.00 Bohr mag/cell
     absolute magnetization    =     0.01 Bohr mag/cell

     iteration #  2     ecut=    40.42 Ry     beta=0.10
     Davidson diagonalization with overlap
     ethr =  3.17E-07,  avg # of iterations =  1.0

     negative rho (up, down):  1.209E-02 1.209E-02
 
     Magnetic moment per site:
     atom:    1    charge:    3.1250    magn:   -0.0001    constr:    0.0000
     atom:    2    charge:    1.9452    magn:    0.0000    constr:    0.0000
     atom:    3    charge:    3.1198    magn:    0.0000    constr:    0.0000
     atom:    4    charge:    1.9504    magn:   -0.0000    constr:    0.0000
     atom:    5    charge:    3.1166    magn:    0.0000    constr:    0.0000
     atom:    6    charge:    1.9477    magn:   -0.0001    constr:    0.0000
     atom:    7    charge:    3.1157    magn:    0.0000    constr:    0.0000
     atom:    8    charge:    1.9453    magn:   -0.0001    constr:    0.0000
     atom:    9    charge:    3.1250    magn:   -0.0001    constr:    0.0000
     atom:   10    charge:    1.9452    magn:    0.0000    constr:    0.0000
     atom:   11    charge:    3.1197    magn:    0.0000    constr:    0.0000
     atom:   12    charge:    1.9504    magn:   -0.0000    constr:    0.0000
     atom:   13    charge:    3.1158    magn:    0.0000    constr:    0.0000
     atom:   14    charge:    1.9587    magn:   -0.0001    constr:    0.0000
     atom:   15    charge:    3.1188    magn:    0.0000    constr:    0.0000
     atom:   16    charge:    1.9446    magn:   -0.0001    constr:    0.0000
     atom:   17    charge:    1.9184    magn:    0.0003    constr:    0.0000
     atom:   18    charge:    3.1239    magn:   -0.0001    constr:    0.0000
     atom:   19    charge:    1.9408    magn:   -0.0000    constr:    0.0000
     atom:   20    charge:    1.9471    magn:    0.0000    constr:    0.0000
     atom:   21    charge:    1.9471    magn:    0.0000    constr:    0.0000
     atom:   22    charge:    3.1196    magn:    0.0000    constr:    0.0000
     atom:   23    charge:    1.9566    magn:   -0.0001    constr:    0.0000
     atom:   24    charge:    1.9379    magn:   -0.0000    constr:    0.0000
     atom:   25    charge:    1.9505    magn:   -0.0000    constr:    0.0000
     atom:   26    charge:    3.1145    magn:    0.0000    constr:    0.0000
     atom:   27    charge:    1.9398    magn:   -0.0000    constr:    0.0000
     atom:   28    charge:    1.9517    magn:   -0.0001    constr:    0.0000
     atom:   29    charge:    1.9476    magn:   -0.0001    constr:    0.0000
     atom:   30    charge:    3.1167    magn:    0.0000    constr:    0.0000
     atom:   31    charge:    1.9447    magn:   -0.0000    constr:    0.0000
     atom:   32    charge:    1.9440    magn:   -0.0001    constr:    0.0000
     atom:   33    charge:    1.9184    magn:    0.0003    constr:    0.0000
     atom:   34    charge:    3.1239    magn:   -0.0001    constr:    0.0000
     atom:   35    charge:    1.9408    magn:   -0.0000    constr:    0.0000
     atom:   36    charge:    1.9471    magn:    0.0000    constr:    0.0000
     atom:   37    charge:    1.9471    magn:    0.0000    constr:    0.0000
     atom:   38    charge:    3.1196    magn:    0.0000    constr:    0.0000
     atom:   39    charge:    1.9550    magn:   -0.0001    constr:    0.0000
     atom:   40    charge:    1.9383    magn:   -0.0000    constr:    0.0000
     atom:   41    charge:    1.9505    magn:   -0.0000    constr:    0.0000
     atom:   42    charge:    3.1141    magn:    0.0000    constr:    0.0000
     atom:   43    charge:    1.9413    magn:   -0.0000    constr:    0.0000
     atom:   44    charge:    1.9517    magn:   -0.0001    constr:    0.0000
     atom:   45    charge:    1.9469    magn:   -0.0001    constr:    0.0000
     atom:   46    charge:    3.1165    magn:    0.0000    constr:    0.0000
     atom:   47    charge:    1.9431    magn:   -0.0000    constr:    0.0000
     atom:   48    charge:    1.9444    magn:   -0.0001    constr:    0.0000
     atom:   49    charge:    0.6595    magn:   -0.0000    constr:    0.0000
     atom:   50    charge:    1.9569    magn:   -0.0000    constr:    0.0000
     atom:   51    charge:    0.4030    magn:    0.0000    constr:    0.0000
     atom:   52    charge:    0.4004    magn:    0.0000    constr:    0.0000
     atom:   53    charge:    0.4057    magn:    0.0000    constr:    0.0000
     atom:   54    charge:    0.4035    magn:    0.0000    constr:    0.0000

     total cpu time spent up to now is     1185.9 secs

     total energy              =   -3021.41988497 Ry
     Harris-Foulkes estimate   =   -3021.42016895 Ry
     estimated scf accuracy    <       0.00094371 Ry

     total magnetization       =     0.00 Bohr mag/cell
     absolute magnetization    =     0.01 Bohr mag/cell

     iteration #  3     ecut=    40.42 Ry     beta=0.10
     Davidson diagonalization with overlap
     ethr =  2.37E-07,  avg # of iterations =  3.0

     negative rho (up, down):  1.209E-02 1.209E-02
 
     Magnetic moment per site:
     atom:    1    charge:    3.1250    magn:   -0.0001    constr:    0.0000
     atom:    2    charge:    1.9452    magn:    0.0000    constr:    0.0000
     atom:    3    charge:    3.1198    magn:    0.0000    constr:    0.0000
     atom:    4    charge:    1.9504    magn:   -0.0000    constr:    0.0000
     atom:    5    charge:    3.1166    magn:    0.0000    constr:    0.0000
     atom:    6    charge:    1.9476    magn:   -0.0001    constr:    0.0000
     atom:    7    charge:    3.1157    magn:    0.0000    constr:    0.0000
     atom:    8    charge:    1.9452    magn:   -0.0001    constr:    0.0000
     atom:    9    charge:    3.1250    magn:   -0.0001    constr:    0.0000
     atom:   10    charge:    1.9452    magn:    0.0000    constr:    0.0000
     atom:   11    charge:    3.1197    magn:    0.0000    constr:    0.0000
     atom:   12    charge:    1.9504    magn:   -0.0000    constr:    0.0000
     atom:   13    charge:    3.1158    magn:    0.0000    constr:    0.0000
     atom:   14    charge:    1.9587    magn:   -0.0001    constr:    0.0000
     atom:   15    charge:    3.1189    magn:    0.0000    constr:    0.0000
     atom:   16    charge:    1.9445    magn:   -0.0001    constr:    0.0000
     atom:   17    charge:    1.9184    magn:    0.0003    constr:    0.0000
     atom:   18    charge:    3.1239    magn:   -0.0001    constr:    0.0000
     atom:   19    charge:    1.9408    magn:   -0.0000    constr:    0.0000
     atom:   20    charge:    1.9471    magn:    0.0000    constr:    0.0000
     atom:   21    charge:    1.9471    magn:    0.0000    constr:    0.0000
     atom:   22    charge:    3.1196    magn:    0.0000    constr:    0.0000
     atom:   23    charge:    1.9566    magn:   -0.0001    constr:    0.0000
     atom:   24    charge:    1.9379    magn:   -0.0000    constr:    0.0000
     atom:   25    charge:    1.9505    magn:   -0.0000    constr:    0.0000
     atom:   26    charge:    3.1145    magn:    0.0000    constr:    0.0000
     atom:   27    charge:    1.9398    magn:   -0.0000    constr:    0.0000
     atom:   28    charge:    1.9517    magn:   -0.0000    constr:    0.0000
     atom:   29    charge:    1.9476    magn:   -0.0001    constr:    0.0000
     atom:   30    charge:    3.1167    magn:    0.0000    constr:    0.0000
     atom:   31    charge:    1.9446    magn:   -0.0000    constr:    0.0000
     atom:   32    charge:    1.9441    magn:   -0.0001    constr:    0.0000
     atom:   33    charge:    1.9184    magn:    0.0003    constr:    0.0000
     atom:   34    charge:    3.1239    magn:   -0.0001    constr:    0.0000
     atom:   35    charge:    1.9408    magn:   -0.0000    constr:    0.0000
     atom:   36    charge:    1.9471    magn:    0.0000    constr:    0.0000
     atom:   37    charge:    1.9471    magn:    0.0000    constr:    0.0000
     atom:   38    charge:    3.1196    magn:    0.0000    constr:    0.0000
     atom:   39    charge:    1.9549    magn:   -0.0001    constr:    0.0000
     atom:   40    charge:    1.9383    magn:   -0.0000    constr:    0.0000
     atom:   41    charge:    1.9505    magn:   -0.0000    constr:    0.0000
     atom:   42    charge:    3.1141    magn:    0.0000    constr:    0.0000
     atom:   43    charge:    1.9413    magn:   -0.0000    constr:    0.0000
     atom:   44    charge:    1.9517    magn:   -0.0000    constr:    0.0000
     atom:   45    charge:    1.9468    magn:   -0.0001    constr:    0.0000
     atom:   46    charge:    3.1165    magn:    0.0000    constr:    0.0000
     atom:   47    charge:    1.9431    magn:   -0.0000    constr:    0.0000
     atom:   48    charge:    1.9445    magn:   -0.0001    constr:    0.0000
     atom:   49    charge:    0.6592    magn:   -0.0000    constr:    0.0000
     atom:   50    charge:    1.9575    magn:   -0.0000    constr:    0.0000
     atom:   51    charge:    0.4028    magn:    0.0000    constr:    0.0000
     atom:   52    charge:    0.4004    magn:    0.0000    constr:    0.0000
     atom:   53    charge:    0.4059    magn:    0.0000    constr:    0.0000
     atom:   54    charge:    0.4036    magn:    0.0000    constr:    0.0000

     total cpu time spent up to now is     1392.5 secs

     total energy              =   -3021.41997695 Ry
     Harris-Foulkes estimate   =   -3021.41998773 Ry
     estimated scf accuracy    <       0.00008180 Ry

     total magnetization       =     0.00 Bohr mag/cell
     absolute magnetization    =     0.00 Bohr mag/cell

     iteration #  4     ecut=    40.42 Ry     beta=0.10
     Davidson diagonalization with overlap
     ethr =  2.06E-08,  avg # of iterations =  3.0

     negative rho (up, down):  1.209E-02 1.209E-02
 
     Magnetic moment per site:
     atom:    1    charge:    3.1250    magn:   -0.0001    constr:    0.0000
     atom:    2    charge:    1.9452    magn:    0.0000    constr:    0.0000
     atom:    3    charge:    3.1198    magn:    0.0000    constr:    0.0000
     atom:    4    charge:    1.9504    magn:   -0.0000    constr:    0.0000
     atom:    5    charge:    3.1166    magn:    0.0000    constr:    0.0000
     atom:    6    charge:    1.9476    magn:   -0.0000    constr:    0.0000
     atom:    7    charge:    3.1157    magn:    0.0000    constr:    0.0000
     atom:    8    charge:    1.9452    magn:   -0.0000    constr:    0.0000
     atom:    9    charge:    3.1250    magn:   -0.0001    constr:    0.0000
     atom:   10    charge:    1.9452    magn:    0.0000    constr:    0.0000
     atom:   11    charge:    3.1197    magn:    0.0000    constr:    0.0000
     atom:   12    charge:    1.9504    magn:   -0.0000    constr:    0.0000
     atom:   13    charge:    3.1158    magn:    0.0000    constr:    0.0000
     atom:   14    charge:    1.9587    magn:   -0.0000    constr:    0.0000
     atom:   15    charge:    3.1189    magn:    0.0000    constr:    0.0000
     atom:   16    charge:    1.9445    magn:   -0.0000    constr:    0.0000
     atom:   17    charge:    1.9184    magn:    0.0002    constr:    0.0000
     atom:   18    charge:    3.1239    magn:   -0.0000    constr:    0.0000
     atom:   19    charge:    1.9408    magn:   -0.0000    constr:    0.0000
     atom:   20    charge:    1.9471    magn:    0.0000    constr:    0.0000
     atom:   21    charge:    1.9471    magn:    0.0000    constr:    0.0000
     atom:   22    charge:    3.1196    magn:    0.0000    constr:    0.0000
     atom:   23    charge:    1.9566    magn:   -0.0000    constr:    0.0000
     atom:   24    charge:    1.9379    magn:   -0.0000    constr:    0.0000
     atom:   25    charge:    1.9505    magn:   -0.0000    constr:    0.0000
     atom:   26    charge:    3.1145    magn:    0.0000    constr:    0.0000
     atom:   27    charge:    1.9398    magn:   -0.0000    constr:    0.0000
     atom:   28    charge:    1.9517    magn:   -0.0000    constr:    0.0000
     atom:   29    charge:    1.9476    magn:   -0.0000    constr:    0.0000
     atom:   30    charge:    3.1167    magn:    0.0000    constr:    0.0000
     atom:   31    charge:    1.9446    magn:   -0.0000    constr:    0.0000
     atom:   32    charge:    1.9441    magn:   -0.0000    constr:    0.0000
     atom:   33    charge:    1.9184    magn:    0.0002    constr:    0.0000
     atom:   34    charge:    3.1239    magn:   -0.0000    constr:    0.0000
     atom:   35    charge:    1.9408    magn:   -0.0000    constr:    0.0000
     atom:   36    charge:    1.9471    magn:    0.0000    constr:    0.0000
     atom:   37    charge:    1.9471    magn:    0.0000    constr:    0.0000
     atom:   38    charge:    3.1196    magn:    0.0000    constr:    0.0000
     atom:   39    charge:    1.9549    magn:   -0.0000    constr:    0.0000
     atom:   40    charge:    1.9383    magn:   -0.0000    constr:    0.0000
     atom:   41    charge:    1.9505    magn:   -0.0000    constr:    0.0000
     atom:   42    charge:    3.1141    magn:    0.0000    constr:    0.0000
     atom:   43    charge:    1.9413    magn:   -0.0000    constr:    0.0000
     atom:   44    charge:    1.9518    magn:   -0.0000    constr:    0.0000
     atom:   45    charge:    1.9468    magn:   -0.0000    constr:    0.0000
     atom:   46    charge:    3.1165    magn:    0.0000    constr:    0.0000
     atom:   47    charge:    1.9431    magn:   -0.0000    constr:    0.0000
     atom:   48    charge:    1.9445    magn:   -0.0000    constr:    0.0000
     atom:   49    charge:    0.6590    magn:   -0.0000    constr:    0.0000
     atom:   50    charge:    1.9577    magn:   -0.0000    constr:    0.0000
     atom:   51    charge:    0.4028    magn:    0.0000    constr:    0.0000
     atom:   52    charge:    0.4005    magn:    0.0000    constr:    0.0000
     atom:   53    charge:    0.4060    magn:    0.0000    constr:    0.0000
     atom:   54    charge:    0.4036    magn:    0.0000    constr:    0.0000

     total cpu time spent up to now is     1596.5 secs

     total energy              =   -3021.41998241 Ry
     Harris-Foulkes estimate   =   -3021.41998061 Ry
     estimated scf accuracy    <       0.00003037 Ry

     total magnetization       =     0.00 Bohr mag/cell
     absolute magnetization    =     0.00 Bohr mag/cell

     iteration #  5     ecut=    40.42 Ry     beta=0.10
     Davidson diagonalization with overlap
     ethr =  7.63E-09,  avg # of iterations =  3.0

     negative rho (up, down):  1.209E-02 1.209E-02
 
     Magnetic moment per site:
     atom:    1    charge:    3.1250    magn:   -0.0001    constr:    0.0000
     atom:    2    charge:    1.9452    magn:    0.0000    constr:    0.0000
     atom:    3    charge:    3.1198    magn:    0.0000    constr:    0.0000
     atom:    4    charge:    1.9504    magn:   -0.0000    constr:    0.0000
     atom:    5    charge:    3.1166    magn:    0.0000    constr:    0.0000
     atom:    6    charge:    1.9476    magn:   -0.0000    constr:    0.0000
     atom:    7    charge:    3.1157    magn:    0.0000    constr:    0.0000
     atom:    8    charge:    1.9453    magn:   -0.0000    constr:    0.0000
     atom:    9    charge:    3.1250    magn:   -0.0001    constr:    0.0000
     atom:   10    charge:    1.9452    magn:    0.0000    constr:    0.0000
     atom:   11    charge:    3.1197    magn:    0.0000    constr:    0.0000
     atom:   12    charge:    1.9504    magn:   -0.0000    constr:    0.0000
     atom:   13    charge:    3.1158    magn:    0.0000    constr:    0.0000
     atom:   14    charge:    1.9587    magn:   -0.0000    constr:    0.0000
     atom:   15    charge:    3.1188    magn:    0.0000    constr:    0.0000
     atom:   16    charge:    1.9446    magn:   -0.0000    constr:    0.0000
     atom:   17    charge:    1.9184    magn:    0.0002    constr:    0.0000
     atom:   18    charge:    3.1239    magn:   -0.0000    constr:    0.0000
     atom:   19    charge:    1.9408    magn:   -0.0000    constr:    0.0000
     atom:   20    charge:    1.9471    magn:    0.0000    constr:    0.0000
     atom:   21    charge:    1.9471    magn:    0.0000    constr:    0.0000
     atom:   22    charge:    3.1196    magn:    0.0000    constr:    0.0000
     atom:   23    charge:    1.9566    magn:   -0.0000    constr:    0.0000
     atom:   24    charge:    1.9379    magn:   -0.0000    constr:    0.0000
     atom:   25    charge:    1.9505    magn:   -0.0000    constr:    0.0000
     atom:   26    charge:    3.1145    magn:    0.0000    constr:    0.0000
     atom:   27    charge:    1.9398    magn:   -0.0000    constr:    0.0000
     atom:   28    charge:    1.9517    magn:   -0.0000    constr:    0.0000
     atom:   29    charge:    1.9476    magn:   -0.0000    constr:    0.0000
     atom:   30    charge:    3.1167    magn:    0.0000    constr:    0.0000
     atom:   31    charge:    1.9447    magn:   -0.0000    constr:    0.0000
     atom:   32    charge:    1.9440    magn:   -0.0000    constr:    0.0000
     atom:   33    charge:    1.9184    magn:    0.0002    constr:    0.0000
     atom:   34    charge:    3.1239    magn:   -0.0000    constr:    0.0000
     atom:   35    charge:    1.9408    magn:   -0.0000    constr:    0.0000
     atom:   36    charge:    1.9471    magn:    0.0000    constr:    0.0000
     atom:   37    charge:    1.9471    magn:    0.0000    constr:    0.0000
     atom:   38    charge:    3.1196    magn:    0.0000    constr:    0.0000
     atom:   39    charge:    1.9549    magn:   -0.0000    constr:    0.0000
     atom:   40    charge:    1.9383    magn:   -0.0000    constr:    0.0000
     atom:   41    charge:    1.9505    magn:   -0.0000    constr:    0.0000
     atom:   42    charge:    3.1141    magn:    0.0000    constr:    0.0000
     atom:   43    charge:    1.9413    magn:   -0.0000    constr:    0.0000
     atom:   44    charge:    1.9518    magn:   -0.0000    constr:    0.0000
     atom:   45    charge:    1.9468    magn:   -0.0000    constr:    0.0000
     atom:   46    charge:    3.1165    magn:    0.0000    constr:    0.0000
     atom:   47    charge:    1.9431    magn:   -0.0000    constr:    0.0000
     atom:   48    charge:    1.9444    magn:   -0.0000    constr:    0.0000
     atom:   49    charge:    0.6587    magn:   -0.0000    constr:    0.0000
     atom:   50    charge:    1.9579    magn:   -0.0000    constr:    0.0000
     atom:   51    charge:    0.4026    magn:    0.0000    constr:    0.0000
     atom:   52    charge:    0.4006    magn:    0.0000    constr:    0.0000
     atom:   53    charge:    0.4061    magn:    0.0000    constr:    0.0000
     atom:   54    charge:    0.4038    magn:    0.0000    constr:    0.0000

     total cpu time spent up to now is     1801.3 secs

     total energy              =   -3021.41998031 Ry
     Harris-Foulkes estimate   =   -3021.41998335 Ry
     estimated scf accuracy    <       0.00001033 Ry

     total magnetization       =     0.00 Bohr mag/cell
     absolute magnetization    =     0.00 Bohr mag/cell

     iteration #  6     ecut=    40.42 Ry     beta=0.10
     Davidson diagonalization with overlap
     ethr =  2.59E-09,  avg # of iterations =  3.9

     negative rho (up, down):  1.209E-02 1.209E-02
 
     Magnetic moment per site:
     atom:    1    charge:    3.1250    magn:   -0.0001    constr:    0.0000
     atom:    2    charge:    1.9452    magn:    0.0000    constr:    0.0000
     atom:    3    charge:    3.1198    magn:    0.0000    constr:    0.0000
     atom:    4    charge:    1.9504    magn:   -0.0000    constr:    0.0000
     atom:    5    charge:    3.1166    magn:    0.0000    constr:    0.0000
     atom:    6    charge:    1.9476    magn:   -0.0000    constr:    0.0000
     atom:    7    charge:    3.1157    magn:    0.0000    constr:    0.0000
     atom:    8    charge:    1.9452    magn:   -0.0000    constr:    0.0000
     atom:    9    charge:    3.1250    magn:   -0.0001    constr:    0.0000
     atom:   10    charge:    1.9452    magn:    0.0000    constr:    0.0000
     atom:   11    charge:    3.1197    magn:    0.0000    constr:    0.0000
     atom:   12    charge:    1.9504    magn:   -0.0000    constr:    0.0000
     atom:   13    charge:    3.1158    magn:    0.0000    constr:    0.0000
     atom:   14    charge:    1.9587    magn:   -0.0000    constr:    0.0000
     atom:   15    charge:    3.1188    magn:    0.0000    constr:    0.0000
     atom:   16    charge:    1.9446    magn:   -0.0000    constr:    0.0000
     atom:   17    charge:    1.9184    magn:    0.0001    constr:    0.0000
     atom:   18    charge:    3.1239    magn:   -0.0000    constr:    0.0000
     atom:   19    charge:    1.9408    magn:   -0.0000    constr:    0.0000
     atom:   20    charge:    1.9471    magn:    0.0000    constr:    0.0000
     atom:   21    charge:    1.9471    magn:    0.0000    constr:    0.0000
     atom:   22    charge:    3.1196    magn:    0.0000    constr:    0.0000
     atom:   23    charge:    1.9566    magn:   -0.0000    constr:    0.0000
     atom:   24    charge:    1.9379    magn:   -0.0000    constr:    0.0000
     atom:   25    charge:    1.9505    magn:   -0.0000    constr:    0.0000
     atom:   26    charge:    3.1145    magn:    0.0000    constr:    0.0000
     atom:   27    charge:    1.9398    magn:   -0.0000    constr:    0.0000
     atom:   28    charge:    1.9517    magn:   -0.0000    constr:    0.0000
     atom:   29    charge:    1.9476    magn:   -0.0000    constr:    0.0000
     atom:   30    charge:    3.1167    magn:    0.0000    constr:    0.0000
     atom:   31    charge:    1.9447    magn:   -0.0000    constr:    0.0000
     atom:   32    charge:    1.9440    magn:   -0.0000    constr:    0.0000
     atom:   33    charge:    1.9184    magn:    0.0001    constr:    0.0000
     atom:   34    charge:    3.1239    magn:   -0.0000    constr:    0.0000
     atom:   35    charge:    1.9408    magn:   -0.0000    constr:    0.0000
     atom:   36    charge:    1.9471    magn:    0.0000    constr:    0.0000
     atom:   37    charge:    1.9471    magn:    0.0000    constr:    0.0000
     atom:   38    charge:    3.1196    magn:    0.0000    constr:    0.0000
     atom:   39    charge:    1.9549    magn:   -0.0000    constr:    0.0000
     atom:   40    charge:    1.9383    magn:   -0.0000    constr:    0.0000
     atom:   41    charge:    1.9505    magn:   -0.0000    constr:    0.0000
     atom:   42    charge:    3.1141    magn:    0.0000    constr:    0.0000
     atom:   43    charge:    1.9413    magn:   -0.0000    constr:    0.0000
     atom:   44    charge:    1.9517    magn:   -0.0000    constr:    0.0000
     atom:   45    charge:    1.9468    magn:   -0.0000    constr:    0.0000
     atom:   46    charge:    3.1165    magn:    0.0000    constr:    0.0000
     atom:   47    charge:    1.9431    magn:   -0.0000    constr:    0.0000
     atom:   48    charge:    1.9444    magn:   -0.0000    constr:    0.0000
     atom:   49    charge:    0.6588    magn:   -0.0000    constr:    0.0000
     atom:   50    charge:    1.9577    magn:   -0.0000    constr:    0.0000
     atom:   51    charge:    0.4025    magn:    0.0000    constr:    0.0000
     atom:   52    charge:    0.4006    magn:    0.0000    constr:    0.0000
     atom:   53    charge:    0.4061    magn:    0.0000    constr:    0.0000
     atom:   54    charge:    0.4038    magn:    0.0000    constr:    0.0000

     total cpu time spent up to now is     2025.3 secs

     total energy              =   -3021.41998180 Ry
     Harris-Foulkes estimate   =   -3021.41998226 Ry
     estimated scf accuracy    <       0.00000289 Ry

     total magnetization       =     0.00 Bohr mag/cell
     absolute magnetization    =     0.00 Bohr mag/cell

     iteration #  7     ecut=    40.42 Ry     beta=0.10
     Davidson diagonalization with overlap
     ethr =  7.25E-10,  avg # of iterations =  3.1

     negative rho (up, down):  1.209E-02 1.209E-02
 
     Magnetic moment per site:
     atom:    1    charge:    3.1250    magn:   -0.0000    constr:    0.0000
     atom:    2    charge:    1.9452    magn:    0.0000    constr:    0.0000
     atom:    3    charge:    3.1198    magn:    0.0000    constr:    0.0000
     atom:    4    charge:    1.9504    magn:   -0.0000    constr:    0.0000
     atom:    5    charge:    3.1166    magn:    0.0000    constr:    0.0000
     atom:    6    charge:    1.9476    magn:   -0.0000    constr:    0.0000
     atom:    7    charge:    3.1157    magn:    0.0000    constr:    0.0000
     atom:    8    charge:    1.9452    magn:   -0.0000    constr:    0.0000
     atom:    9    charge:    3.1250    magn:   -0.0000    constr:    0.0000
     atom:   10    charge:    1.9452    magn:    0.0000    constr:    0.0000
     atom:   11    charge:    3.1197    magn:    0.0000    constr:    0.0000
     atom:   12    charge:    1.9504    magn:   -0.0000    constr:    0.0000
     atom:   13    charge:    3.1158    magn:    0.0000    constr:    0.0000
     atom:   14    charge:    1.9587    magn:   -0.0000    constr:    0.0000
     atom:   15    charge:    3.1189    magn:    0.0000    constr:    0.0000
     atom:   16    charge:    1.9445    magn:   -0.0000    constr:    0.0000
     atom:   17    charge:    1.9184    magn:    0.0001    constr:    0.0000
     atom:   18    charge:    3.1239    magn:   -0.0000    constr:    0.0000
     atom:   19    charge:    1.9408    magn:   -0.0000    constr:    0.0000
     atom:   20    charge:    1.9471    magn:    0.0000    constr:    0.0000
     atom:   21    charge:    1.9471    magn:    0.0000    constr:    0.0000
     atom:   22    charge:    3.1196    magn:    0.0000    constr:    0.0000
     atom:   23    charge:    1.9566    magn:   -0.0000    constr:    0.0000
     atom:   24    charge:    1.9379    magn:   -0.0000    constr:    0.0000
     atom:   25    charge:    1.9505    magn:   -0.0000    constr:    0.0000
     atom:   26    charge:    3.1145    magn:    0.0000    constr:    0.0000
     atom:   27    charge:    1.9398    magn:   -0.0000    constr:    0.0000
     atom:   28    charge:    1.9517    magn:   -0.0000    constr:    0.0000
     atom:   29    charge:    1.9476    magn:   -0.0000    constr:    0.0000
     atom:   30    charge:    3.1167    magn:    0.0000    constr:    0.0000
     atom:   31    charge:    1.9447    magn:   -0.0000    constr:    0.0000
     atom:   32    charge:    1.9440    magn:   -0.0000    constr:    0.0000
     atom:   33    charge:    1.9184    magn:    0.0001    constr:    0.0000
     atom:   34    charge:    3.1239    magn:   -0.0000    constr:    0.0000
     atom:   35    charge:    1.9408    magn:   -0.0000    constr:    0.0000
     atom:   36    charge:    1.9471    magn:    0.0000    constr:    0.0000
     atom:   37    charge:    1.9471    magn:    0.0000    constr:    0.0000
     atom:   38    charge:    3.1196    magn:    0.0000    constr:    0.0000
     atom:   39    charge:    1.9549    magn:   -0.0000    constr:    0.0000
     atom:   40    charge:    1.9383    magn:   -0.0000    constr:    0.0000
     atom:   41    charge:    1.9505    magn:   -0.0000    constr:    0.0000
     atom:   42    charge:    3.1141    magn:    0.0000    constr:    0.0000
     atom:   43    charge:    1.9413    magn:   -0.0000    constr:    0.0000
     atom:   44    charge:    1.9517    magn:   -0.0000    constr:    0.0000
     atom:   45    charge:    1.9468    magn:   -0.0000    constr:    0.0000
     atom:   46    charge:    3.1165    magn:    0.0000    constr:    0.0000
     atom:   47    charge:    1.9431    magn:   -0.0000    constr:    0.0000
     atom:   48    charge:    1.9445    magn:   -0.0000    constr:    0.0000
     atom:   49    charge:    0.6589    magn:   -0.0000    constr:    0.0000
     atom:   50    charge:    1.9574    magn:   -0.0000    constr:    0.0000
     atom:   51    charge:    0.4026    magn:    0.0000    constr:    0.0000
     atom:   52    charge:    0.4006    magn:    0.0000    constr:    0.0000
     atom:   53    charge:    0.4061    magn:    0.0000    constr:    0.0000
     atom:   54    charge:    0.4037    magn:    0.0000    constr:    0.0000

     total cpu time spent up to now is     2232.6 secs

     End of self-consistent calculation

 ------ SPIN UP ------------


          k = 0.0000 0.0000 0.0000 ( 34665 PWs)   bands (ev):

   -57.6991 -57.6642 -57.3180 -57.2817 -57.2332 -57.1100 -57.0736 -57.0727
   -57.0513 -57.0379 -56.9901 -56.9546 -56.7302 -56.6927 -56.1496 -56.1143
   -34.1352 -33.9813 -33.9528 -33.9001 -33.8703 -33.8058 -33.7453 -33.6538
   -33.6187 -33.6054 -33.5679 -33.5409 -33.5187 -33.5079 -33.4899 -33.4863
   -33.4652 -33.4546 -33.4316 -33.3990 -33.3244 -33.2922 -33.2720 -33.2627
   -33.2553 -33.2543 -33.2434 -33.2427 -33.2373 -33.2298 -33.2298 -33.2127
   -33.1804 -33.1800 -33.1749 -33.1408 -33.1183 -32.9963 -32.9782 -32.9572
   -32.9078 -32.8049 -32.5674 -32.5019 -32.4758 -32.3716 -32.2799 -32.1716
   -20.3010 -18.0128 -17.8417 -17.5572 -17.4621 -17.3729 -17.2521 -17.0779
   -17.0667 -16.9747 -16.9390 -16.8845 -16.7842 -16.7779 -16.7295 -16.7076
   -16.7033 -16.6627 -16.6115 -16.6050 -16.5362 -16.4157 -16.4027 -16.3984
   -16.3218 -16.2680 -16.1947 -16.1675 -16.1501 -15.9790 -15.9296 -14.7342
   -14.6506 -11.4775  -7.2459  -5.4753  -5.3960  -5.3170  -5.2135  -5.2032
    -5.1457  -5.1263  -4.8394  -4.8181  -4.4722  -4.4431  -4.3597  -4.3556
    -4.3216  -4.2328  -4.0900  -4.0609  -4.0554  -4.0180  -3.9996  -3.9914
    -3.9610  -3.9520  -3.9510  -3.8402  -3.7891  -3.7657  -3.7363  -3.7179
    -3.6327  -3.6172  -3.5874  -3.5780  -3.5201  -3.5079  -3.4087  -3.3930
    -3.3707  -3.2657  -3.2334  -3.1855  -3.0138  -2.9356  -2.8791  -2.8325
    -2.6948  -2.6075  -2.5901  -2.5804  -2.5748  -2.5688  -2.4319  -2.4146
    -2.3363  -2.2694  -2.2475  -2.2050  -2.2005  -2.1678  -2.1389  -2.0931
    -2.0481  -2.0298  -2.0205  -1.8861  -1.8667  -1.7646  -1.7363  -1.6245
    -1.5433  -1.5418  -1.4908  -1.4810  -1.4632  -1.4237  -1.3221  -1.3096
    -1.3029  -1.2801  -1.2429  -1.1359  -1.0882  -1.0864  -1.0676  -1.0194
    -0.9547  -0.9156  -0.8234  -0.7661  -0.6106  -0.5876  -0.5696  -0.4792
    -0.3766  -0.2426  -0.0851  -0.0266   0.1310   0.2478   0.2615   1.6424
     1.6748   1.9855   2.0018   2.0652   2.0950   2.2048   2.2436   2.2869
     2.4297   2.4970   2.5258   2.5305   2.5418   2.6309   2.6488   2.6570
     2.7151   2.7995   2.8272   2.8389   2.9110   2.9995   3.0333   3.0988
     3.1050   3.1140   3.1609   3.2020   3.2081   3.2264   3.2398   3.2514
     3.2604   3.2887   3.3973   3.4315   3.4567   3.4664   3.5282   3.5855
     3.6533   3.6948   3.8078   3.9811   4.0162   4.0921   4.1798   4.3201
     4.3387   4.3916   4.5879   4.5994   4.8104   4.8389   5.0869   5.1667
     5.2455   5.3304   5.4790   5.5174   5.5289   5.5934   5.6780   5.7117
     5.7997   5.8652   5.8766   5.8863   5.9545   6.0388   6.0478   6.0723
     6.1443   6.2291   6.2431   6.2971   6.3780   6.5820   6.6363   6.7545
     6.8412   7.0062   7.0380   7.1616   7.3022   7.5817   7.9142   8.2535
     8.3466   8.6770   8.7944   8.8722   8.9393   9.0083   9.1770   9.2601
     9.3520   9.3813   9.5311

          k = 0.0000 0.0280 0.0000 ( 34717 PWs)   bands (ev):

   -57.6968 -57.6665 -57.3156 -57.2841 -57.2328 -57.1077 -57.0757 -57.0706
   -57.0518 -57.0403 -56.9877 -56.9570 -56.7277 -56.6952 -56.1472 -56.1167
   -34.1098 -33.9793 -33.9547 -33.8939 -33.8444 -33.8123 -33.7723 -33.6311
   -33.6119 -33.5804 -33.5426 -33.5379 -33.5209 -33.5008 -33.4932 -33.4843
   -33.4720 -33.4624 -33.4296 -33.3921 -33.3182 -33.2904 -33.2858 -33.2642
   -33.2596 -33.2530 -33.2504 -33.2399 -33.2382 -33.2364 -33.2360 -33.2172
   -33.2028 -33.1852 -33.1771 -33.1449 -33.1416 -32.9924 -32.9768 -32.9586
   -32.9128 -32.8329 -32.5417 -32.5002 -32.4777 -32.3655 -32.2862 -32.1991
   -20.3009 -17.9510 -17.7840 -17.5043 -17.4099 -17.3292 -17.2254 -17.0917
   -17.0364 -16.9986 -16.9932 -16.8862 -16.8199 -16.7617 -16.7073 -16.6896
   -16.6761 -16.6652 -16.6569 -16.6422 -16.5952 -16.4395 -16.3841 -16.3685
   -16.3484 -16.2975 -16.2117 -16.1740 -16.1540 -16.0097 -15.9666 -14.7443
   -14.6740 -11.4772  -7.2455  -5.4411  -5.3149  -5.2572  -5.2132  -5.1305
    -5.0686  -5.0472  -4.7638  -4.7036  -4.4357  -4.4005  -4.3943  -4.3121
    -4.3012  -4.1602  -4.1242  -4.1141  -4.0918  -4.0709  -4.0327  -4.0303
    -3.9660  -3.9615  -3.9501  -3.8918  -3.8533  -3.8467  -3.8377  -3.7661
    -3.7216  -3.7068  -3.6661  -3.6162  -3.5756  -3.5565  -3.4296  -3.3558
    -3.3075  -3.2351  -3.1973  -3.1031  -2.9347  -2.8710  -2.7454  -2.7250
    -2.6141  -2.6006  -2.5254  -2.5100  -2.4782  -2.4405  -2.4124  -2.4084
    -2.3869  -2.3622  -2.2885  -2.2770  -2.1685  -2.1427  -2.1365  -2.0946
    -2.0224  -1.9985  -1.9544  -1.8769  -1.8110  -1.7693  -1.7076  -1.6825
    -1.6431  -1.6261  -1.5640  -1.5259  -1.4815  -1.4385  -1.4357  -1.3964
    -1.3540  -1.2716  -1.2184  -1.2144  -1.1604  -1.0919  -1.0736  -1.0224
    -1.0097  -0.9047  -0.8706  -0.7911  -0.7623  -0.7067  -0.6083  -0.5911
    -0.3949  -0.2706  -0.0920  -0.0809   0.1458   0.2014   0.2280   1.7287
     1.7746   1.9856   2.0647   2.1302   2.1514   2.2182   2.2740   2.3128
     2.4243   2.4610   2.4987   2.5352   2.5858   2.6028   2.6301   2.6914
     2.7325   2.7703   2.7969   2.9122   2.9225   2.9511   2.9761   3.0098
     3.1107   3.1166   3.1344   3.1747   3.1923   3.2053   3.2580   3.3041
     3.3352   3.3707   3.4068   3.4732   3.5066   3.5517   3.5618   3.6487
     3.6647   3.6858   3.7714   3.9597   4.0343   4.1142   4.1909   4.2863
     4.3230   4.3962   4.5407   4.6911   4.8643   4.9254   5.0907   5.2584
     5.3037   5.3349   5.5372   5.5674   5.6036   5.6259   5.6858   5.7205
     5.7842   5.7923   5.8515   5.8780   5.8988   5.9475   6.0692   6.1221
     6.1492   6.1569   6.1760   6.2070   6.2751   6.5587   6.6031   6.6949
     6.8451   6.9484   6.9797   7.0832   7.2309   7.5856   7.9231   8.0185
     8.0601   8.4566   8.5687   8.8462   8.9096   8.9981   9.0889   9.1359
     9.2752   9.4340   9.5077

          k = 0.0000 0.0560 0.0000 ( 34721 PWs)   bands (ev):

   -57.6904 -57.6729 -57.3091 -57.2907 -57.2319 -57.1016 -57.0818 -57.0642
   -57.0526 -57.0467 -56.9813 -56.9635 -56.7211 -56.7019 -56.1408 -56.1232
   -34.0401 -33.9740 -33.9597 -33.8769 -33.8453 -33.8297 -33.7733 -33.5963
   -33.5734 -33.5722 -33.5352 -33.5276 -33.5066 -33.5043 -33.4774 -33.4725
   -33.4567 -33.4267 -33.4188 -33.3727 -33.3166 -33.3132 -33.3130 -33.3017
   -33.2862 -33.2764 -33.2679 -33.2643 -33.2536 -33.2464 -33.2344 -33.2323
   -33.2102 -33.1983 -33.1706 -33.1649 -33.1260 -32.9873 -32.9732 -32.9619
   -32.9258 -32.9026 -32.4954 -32.4824 -32.4710 -32.3490 -32.3031 -32.2732
   -20.3006 -17.7799 -17.6254 -17.3729 -17.2761 -17.2605 -17.2192 -17.1672
   -17.1364 -16.9628 -16.9535 -16.9190 -16.8740 -16.8199 -16.7886 -16.7259
   -16.7162 -16.6842 -16.6255 -16.5971 -16.5398 -16.5050 -16.4233 -16.3782
   -16.3625 -16.3021 -16.2408 -16.1951 -16.1574 -16.1102 -16.0395 -14.7625
   -14.7246 -11.4764  -7.2446  -5.4089  -5.2281  -5.0766  -5.0376  -4.9244
    -4.8586  -4.8244  -4.5620  -4.5053  -4.4732  -4.4180  -4.4098  -4.3667
    -4.3316  -4.2602  -4.2352  -4.2121  -4.1964  -4.1869  -4.1562  -4.0756
    -4.0579  -4.0059  -3.9875  -3.9689  -3.9309  -3.8915  -3.8566  -3.8174
    -3.7972  -3.7312  -3.6358  -3.5861  -3.4337  -3.4273  -3.3248  -3.2680
    -3.2390  -3.2126  -3.1922  -3.0824  -2.8904  -2.8435  -2.8370  -2.7989
    -2.7222  -2.6689  -2.5479  -2.4738  -2.4442  -2.3227  -2.3158  -2.3115
    -2.3037  -2.2493  -2.2072  -2.1795  -2.1483  -2.1179  -2.0322  -2.0105
    -1.9615  -1.9480  -1.9175  -1.9054  -1.8840  -1.8498  -1.8171  -1.7831
    -1.7457  -1.6950  -1.6255  -1.5423  -1.5276  -1.5101  -1.4559  -1.4203
    -1.3805  -1.3649  -1.3502  -1.2910  -1.2396  -1.2174  -1.1573  -1.1062
    -1.0865  -1.0240  -0.9255  -0.8931  -0.8508  -0.7855  -0.7635  -0.6605
    -0.5873  -0.4635  -0.2423   0.0907   0.1430   0.1781   0.1847   1.8643
     2.0243   2.0972   2.1087   2.2092   2.2341   2.2690   2.3661   2.3888
     2.3955   2.4109   2.4339   2.4758   2.5028   2.5373   2.6739   2.6949
     2.7334   2.7748   2.8299   2.9033   2.9151   2.9379   2.9713   2.9731
     3.0150   3.0984   3.1370   3.1567   3.2499   3.2612   3.2858   3.3290
     3.3677   3.3858   3.4402   3.5369   3.5431   3.6362   3.6768   3.7272
     3.7603   3.8228   3.8578   3.8896   3.9316   4.1301   4.1414   4.1580
     4.3267   4.3752   4.5631   4.9063   5.0154   5.0637   5.1745   5.3778
     5.3816   5.4778   5.5176   5.5491   5.6476   5.7228   5.7236   5.7330
     5.7789   5.7873   5.7989   5.8561   5.8852   5.9471   5.9772   5.9912
     6.0011   6.0542   6.1549   6.1706   6.3083   6.3742   6.4108   6.6151
     6.6613   6.7806   6.8709   7.0415   7.2126   7.3341   7.4446   7.7331
     8.0850   8.2152   8.3442   8.6163   8.8941   8.9908   9.3117   9.3321
     9.4282   9.4427   9.5602

          k = 0.0000-0.0840 0.0000 ( 34678 PWs)   bands (ev):

   -57.6818 -57.6816 -57.3015 -57.2982 -57.2315 -57.0961 -57.0873 -57.0555
   -57.0554 -57.0531 -56.9729 -56.9718 -56.7140 -56.7090 -56.1320 -56.1320
   -33.9669 -33.9667 -33.9435 -33.9434 -33.8534 -33.8533 -33.6864 -33.6624
   -33.5663 -33.5630 -33.5292 -33.5183 -33.5139 -33.4777 -33.4538 -33.4245
   -33.4142 -33.4077 -33.3754 -33.3751 -33.3631 -33.3473 -33.3414 -33.3242
   -33.3228 -33.2850 -33.2783 -33.2761 -33.2693 -33.2677 -33.2329 -33.2311
   -33.2157 -33.2138 -33.1637 -33.1628 -33.0487 -33.0278 -32.9700 -32.9648
   -32.9397 -32.9367 -32.4889 -32.4889 -32.3731 -32.3730 -32.3260 -32.3260
   -20.3004 -17.5692 -17.5057 -17.4107 -17.3904 -17.2296 -17.1757 -17.0663
   -17.0621 -17.0162 -17.0034 -16.9897 -16.8724 -16.8400 -16.8399 -16.8012
   -16.7945 -16.5965 -16.5945 -16.5262 -16.5238 -16.4887 -16.4873 -16.4048
   -16.4024 -16.2630 -16.2608 -16.2013 -16.1975 -16.1315 -16.1018 -14.7613
   -14.7612 -11.4760  -7.2441  -5.4007  -5.2331  -4.8000  -4.7336  -4.7326
    -4.6558  -4.6425  -4.6377  -4.6022  -4.5729  -4.5103  -4.5019  -4.4009
    -4.3735  -4.3396  -4.3377  -4.3089  -4.2958  -4.2806  -4.2752  -4.0550
    -4.0331  -4.0237  -4.0110  -3.9927  -3.9429  -3.8099  -3.7934  -3.7860
    -3.7165  -3.6948  -3.6403  -3.5056  -3.4742  -3.3398  -3.3267  -3.2381
    -3.1389  -3.1167  -3.0444  -3.0194  -2.9631  -2.9244  -2.8042  -2.7886
    -2.6980  -2.6938  -2.5769  -2.5395  -2.5130  -2.4954  -2.4769  -2.4477
    -2.4390  -2.4178  -2.3307  -2.2459  -2.0295  -2.0076  -1.9690  -1.9424
    -1.9277  -1.8288  -1.8227  -1.8094  -1.7820  -1.7453  -1.7313  -1.7004
    -1.6656  -1.6407  -1.6150  -1.5587  -1.5160  -1.4879  -1.4815  -1.4533
    -1.4255  -1.4178  -1.4103  -1.3820  -1.3596  -1.3266  -1.2232  -1.1886
    -1.1026  -1.0729  -1.0160  -0.9783  -0.9711  -0.9602  -0.9467  -0.5243
    -0.5195  -0.4572  -0.4430   0.1431   0.1431   0.1857   0.1875   2.0388
     2.0420   2.2181   2.2195   2.2204   2.2363   2.2844   2.3395   2.3467
     2.3468   2.3720   2.3828   2.5273   2.5536   2.5546   2.6008   2.6640
     2.7148   2.7368   2.7497   2.8912   2.9224   2.9895   2.9971   3.0571
     3.0584   3.1018   3.1126   3.1797   3.2176   3.2329   3.2457   3.4034
     3.4259   3.4369   3.4396   3.4726   3.4835   3.7252   3.7657   3.8043
     3.8078   3.8319   3.9087   3.9310   3.9685   4.0732   4.0755   4.1255
     4.1262   4.4178   4.6709   4.9601   5.0003   5.2602   5.3310   5.4571
     5.4888   5.5080   5.5080   5.5729   5.6064   5.6465   5.6650   5.6708
     5.7990   5.8041   5.8261   5.8516   5.8616   5.8665   5.8826   5.9736
     6.0199   6.0593   6.0716   6.1586   6.1959   6.4066   6.4666   6.5648
     6.6042   6.7466   6.7750   6.9805   7.0312   7.1009   7.3279   7.6994
     7.8932   8.1782   8.4145   8.7792   8.8394   8.8613   9.1449   9.6941
     9.7024   9.7494   9.7951

          k = 0.0253 0.0000 0.0000 ( 34707 PWs)   bands (ev):

   -57.6991 -57.6642 -57.3180 -57.2817 -57.2332 -57.1099 -57.0736 -57.0728
   -57.0513 -57.0379 -56.9901 -56.9546 -56.7302 -56.6927 -56.1496 -56.1143
   -34.1355 -33.9813 -33.9528 -33.8994 -33.8704 -33.8059 -33.7454 -33.6546
   -33.6187 -33.6071 -33.5682 -33.5375 -33.5325 -33.5088 -33.4863 -33.4750
   -33.4640 -33.4546 -33.4316 -33.3921 -33.3242 -33.2924 -33.2717 -33.2628
   -33.2584 -33.2577 -33.2445 -33.2415 -33.2392 -33.2299 -33.2298 -33.2125
   -33.1803 -33.1800 -33.1753 -33.1408 -33.1184 -32.9963 -32.9806 -32.9564
   -32.9078 -32.8050 -32.5673 -32.5030 -32.4753 -32.3716 -32.2800 -32.1717
   -20.3008 -17.9830 -17.8017 -17.5149 -17.4332 -17.3563 -17.2587 -17.1447
   -17.0924 -16.9756 -16.9386 -16.8714 -16.8191 -16.8061 -16.7895 -16.7806
   -16.7298 -16.6931 -16.5566 -16.5344 -16.4541 -16.4526 -16.4036 -16.3704
   -16.3393 -16.3126 -16.1832 -16.1654 -16.1514 -15.9788 -15.9293 -14.7331
   -14.6504 -11.4763  -7.2432  -5.4703  -5.3073  -5.2648  -5.2097  -5.0976
    -5.0445  -5.0164  -4.8340  -4.8135  -4.6179  -4.4693  -4.4359  -4.3311
    -4.3115  -4.3016  -4.2479  -4.0977  -4.0367  -4.0328  -3.9966  -3.9452
    -3.9380  -3.9099  -3.8308  -3.8005  -3.7519  -3.7195  -3.6949  -3.6925
    -3.6203  -3.5981  -3.5704  -3.5628  -3.5167  -3.4472  -3.3258  -3.3091
    -3.2503  -3.2306  -3.1786  -3.1067  -3.0337  -2.9766  -2.9232  -2.8962
    -2.7498  -2.6746  -2.6328  -2.6002  -2.5796  -2.5299  -2.5198  -2.5037
    -2.4318  -2.3357  -2.3226  -2.2368  -2.2208  -2.1822  -2.1599  -2.0707
    -2.0096  -2.0002  -1.9635  -1.8825  -1.8520  -1.7537  -1.7396  -1.6511
    -1.5861  -1.5824  -1.5383  -1.4640  -1.4582  -1.3672  -1.3581  -1.3436
    -1.3372  -1.2903  -1.2742  -1.1899  -1.1272  -1.1174  -1.0815  -1.0502
    -0.9736  -0.9151  -0.8304  -0.7883  -0.7745  -0.6511  -0.6425  -0.5511
    -0.4212  -0.2370  -0.1159  -0.0541   0.1169   0.2050   0.2059   1.6617
     1.7248   2.0010   2.0714   2.1485   2.2230   2.2377   2.2696   2.3780
     2.3853   2.4576   2.5043   2.5221   2.5410   2.5781   2.5973   2.6361
     2.6556   2.7343   2.7574   2.8671   2.8840   2.9697   3.0308   3.1035
     3.1210   3.1437   3.1624   3.2033   3.2085   3.2537   3.2693   3.3395
     3.3777   3.4027   3.4509   3.4729   3.5355   3.5603   3.5917   3.5997
     3.6641   3.7299   3.7472   3.9139   4.0018   4.0967   4.1740   4.2763
     4.3742   4.3948   4.5531   4.6771   4.8636   4.9112   4.9261   5.0695
     5.1213   5.1459   5.1887   5.3507   5.5686   5.6227   5.6937   5.8662
     5.8828   5.9247   5.9589   6.0294   6.0800   6.1149   6.1605   6.2095
     6.2188   6.2518   6.2586   6.3079   6.4484   6.5224   6.6414   6.6657
     6.8210   6.8692   7.0340   7.1476   7.3020   7.7522   7.8523   8.0898
     8.3369   8.3675   8.4318   8.6831   8.8453   8.9703   9.1500   9.3472
     9.3628   9.4769   9.4952

          k = 0.0253 0.0280 0.0000 ( 34687 PWs)   bands (ev):

   -57.6968 -57.6665 -57.3156 -57.2841 -57.2328 -57.1076 -57.0757 -57.0706
   -57.0518 -57.0403 -56.9877 -56.9570 -56.7277 -56.6952 -56.1472 -56.1167
   -34.1101 -33.9793 -33.9547 -33.8932 -33.8444 -33.8122 -33.7724 -33.6318
   -33.6119 -33.5821 -33.5428 -33.5347 -33.5221 -33.5163 -33.4934 -33.4727
   -33.4661 -33.4612 -33.4296 -33.3854 -33.3181 -33.2906 -33.2835 -33.2642
   -33.2596 -33.2542 -33.2531 -33.2478 -33.2378 -33.2364 -33.2352 -33.2160
   -33.2029 -33.1852 -33.1771 -33.1448 -33.1415 -32.9924 -32.9789 -32.9578
   -32.9128 -32.8328 -32.5416 -32.5011 -32.4771 -32.3655 -32.2862 -32.1991
   -20.3007 -17.9227 -17.7450 -17.4637 -17.3834 -17.3092 -17.2322 -17.1285
   -17.0980 -17.0063 -16.9632 -16.8586 -16.8304 -16.8058 -16.7842 -16.7702
   -16.7130 -16.6996 -16.6002 -16.5800 -16.5065 -16.4751 -16.3812 -16.3652
   -16.3564 -16.3295 -16.2003 -16.1735 -16.1537 -16.0101 -15.9664 -14.7433
   -14.6740 -11.4759  -7.2427  -5.4442  -5.2469  -5.2110  -5.1812  -5.0212
    -4.9662  -4.9361  -4.7588  -4.7006  -4.5622  -4.4033  -4.3713  -4.3457
    -4.2597  -4.2530  -4.1867  -4.1185  -4.0861  -4.0645  -4.0334  -4.0204
    -3.9763  -3.9426  -3.9129  -3.8678  -3.8221  -3.8100  -3.7842  -3.7195
    -3.6971  -3.6640  -3.6152  -3.6051  -3.5409  -3.5252  -3.3507  -3.2894
    -3.2517  -3.2136  -3.1484  -3.0728  -2.9821  -2.9496  -2.7840  -2.7061
    -2.6806  -2.6362  -2.6106  -2.5346  -2.5035  -2.4543  -2.4478  -2.4208
    -2.4052  -2.3865  -2.3404  -2.3025  -2.2159  -2.1781  -2.1159  -2.1002
    -2.0670  -1.9957  -1.9494  -1.8921  -1.8656  -1.8270  -1.7621  -1.6747
    -1.6451  -1.6169  -1.5887  -1.5624  -1.5092  -1.4616  -1.4403  -1.4011
    -1.3448  -1.3276  -1.2694  -1.2555  -1.2084  -1.1104  -1.0980  -1.0606
    -1.0137  -0.8885  -0.8410  -0.8353  -0.7645  -0.7397  -0.6962  -0.6587
    -0.4322  -0.2816  -0.1341  -0.0860   0.1490   0.1783   0.1885   1.7208
     1.8449   2.0163   2.0988   2.1956   2.2445   2.2819   2.3163   2.3969
     2.4175   2.4671   2.4889   2.5245   2.5326   2.5525   2.5904   2.6741
     2.7052   2.7274   2.7873   2.8067   2.9306   2.9870   3.0098   3.0347
     3.1063   3.1342   3.1458   3.1725   3.2085   3.2422   3.3445   3.3735
     3.4060   3.4364   3.4627   3.5105   3.5524   3.5691   3.6362   3.6610
     3.6734   3.7082   3.7500   3.8948   3.9940   4.1383   4.1855   4.2528
     4.3065   4.4520   4.5094   4.7722   4.9293   4.9521   4.9934   5.0779
     5.1599   5.1754   5.2234   5.3867   5.6431   5.6827   5.7322   5.7778
     5.8545   5.8651   5.8716   6.0071   6.0710   6.0852   6.1194   6.1449
     6.1968   6.2087   6.2193   6.2349   6.4285   6.5289   6.6122   6.6607
     6.7856   6.8667   6.9631   7.1509   7.2260   7.5037   7.9309   8.0313
     8.0936   8.2555   8.4466   8.5820   8.6572   8.7770   8.9448   9.2716
     9.3663   9.4680   9.5127

          k = 0.0253 0.0560 0.0000 ( 34699 PWs)   bands (ev):

   -57.6904 -57.6729 -57.3090 -57.2907 -57.2319 -57.1016 -57.0817 -57.0643
   -57.0526 -57.0467 -56.9813 -56.9635 -56.7211 -56.7019 -56.1408 -56.1232
   -34.0403 -33.9740 -33.9597 -33.8763 -33.8454 -33.8295 -33.7733 -33.5963
   -33.5740 -33.5722 -33.5353 -33.5256 -33.5089 -33.5078 -33.4775 -33.4728
   -33.4558 -33.4268 -33.4135 -33.3673 -33.3171 -33.3139 -33.3087 -33.3016
   -33.2863 -33.2768 -33.2679 -33.2631 -33.2537 -33.2486 -33.2384 -33.2346
   -33.2103 -33.1990 -33.1706 -33.1648 -33.1258 -32.9873 -32.9746 -32.9618
   -32.9258 -32.9025 -32.4961 -32.4822 -32.4709 -32.3490 -32.3031 -32.2732
   -20.3004 -17.7564 -17.5896 -17.3436 -17.2644 -17.2449 -17.1937 -17.1680
   -17.1395 -16.9960 -16.9704 -16.8807 -16.8763 -16.8295 -16.7967 -16.7727
   -16.7480 -16.6705 -16.6233 -16.6045 -16.5794 -16.5303 -16.4269 -16.4123
   -16.3558 -16.2851 -16.2339 -16.1944 -16.1572 -16.1110 -16.0389 -14.7619
   -14.7247 -11.4751  -7.2418  -5.4160  -5.2275  -5.0310  -4.9489  -4.8129
    -4.7569  -4.7146  -4.5583  -4.4980  -4.4902  -4.4140  -4.3943  -4.3393
    -4.2708  -4.2315  -4.2158  -4.1922  -4.1478  -4.1413  -4.1061  -4.0617
    -4.0326  -4.0125  -3.9933  -3.9355  -3.9245  -3.8752  -3.8594  -3.8214
    -3.7741  -3.7155  -3.6545  -3.5718  -3.4731  -3.3935  -3.3191  -3.2812
    -3.2370  -3.2233  -3.1825  -3.0121  -2.9349  -2.8631  -2.8296  -2.7797
    -2.7578  -2.6460  -2.5928  -2.5098  -2.4890  -2.4380  -2.3927  -2.3653
    -2.3429  -2.3245  -2.2882  -2.2633  -2.1899  -2.1413  -2.1279  -2.0405
    -2.0117  -2.0097  -1.9470  -1.9384  -1.9031  -1.8615  -1.8347  -1.8121
    -1.7455  -1.7041  -1.6787  -1.6376  -1.5735  -1.5381  -1.4947  -1.4754
    -1.4312  -1.3730  -1.3386  -1.3035  -1.2237  -1.2054  -1.1337  -1.1058
    -1.0639  -1.0138  -0.9118  -0.8777  -0.8211  -0.8002  -0.7442  -0.6810
    -0.6069  -0.4654  -0.2561   0.0917   0.1283   0.1553   0.1879   1.8616
     2.0479   2.1320   2.1787   2.2313   2.2716   2.3057   2.3474   2.3846
     2.4260   2.4619   2.4807   2.5077   2.5202   2.5835   2.6936   2.7213
     2.7389   2.7762   2.8237   2.8398   2.9039   2.9525   2.9746   2.9859
     3.0273   3.0336   3.1561   3.2074   3.2865   3.3295   3.3403   3.3830
     3.4073   3.4389   3.4606   3.5406   3.5596   3.6309   3.6560   3.7346
     3.7931   3.8198   3.8614   3.9006   3.9046   4.0719   4.1166   4.1652
     4.3429   4.3845   4.6147   4.9652   5.0123   5.1283   5.1425   5.1580
     5.2621   5.2891   5.3134   5.4364   5.5098   5.5611   5.6371   5.7583
     5.8233   5.8503   5.8913   5.9340   5.9606   6.0030   6.0490   6.0619
     6.1365   6.1571   6.2224   6.3312   6.3793   6.4039   6.4816   6.6425
     6.6924   6.7963   6.8480   7.0346   7.1485   7.3636   7.4859   7.5897
     7.9763   8.1833   8.3521   8.5218   8.6576   8.8616   9.0471   9.1141
     9.1850   9.4941   9.6238

          k = 0.0253-0.0840 0.0000 ( 34722 PWs)   bands (ev):

   -57.6818 -57.6816 -57.3015 -57.2982 -57.2315 -57.0961 -57.0872 -57.0555
   -57.0555 -57.0531 -56.9729 -56.9718 -56.7140 -56.7090 -56.1320 -56.1320
   -33.9669 -33.9668 -33.9438 -33.9436 -33.8531 -33.8530 -33.6865 -33.6626
   -33.5663 -33.5631 -33.5298 -33.5181 -33.5138 -33.4778 -33.4530 -33.4247
   -33.4163 -33.4102 -33.3763 -33.3762 -33.3638 -33.3405 -33.3345 -33.3228
   -33.3214 -33.2848 -33.2781 -33.2764 -33.2695 -33.2663 -33.2364 -33.2349
   -33.2173 -33.2155 -33.1637 -33.1628 -33.0486 -33.0278 -32.9706 -32.9656
   -32.9396 -32.9366 -32.4891 -32.4891 -32.3731 -32.3730 -32.3260 -32.3260
   -20.3003 -17.5559 -17.4876 -17.3824 -17.3639 -17.2135 -17.1546 -17.0595
   -17.0500 -17.0043 -16.9799 -16.9756 -16.8892 -16.8796 -16.8693 -16.7859
   -16.7806 -16.6348 -16.6290 -16.5688 -16.5650 -16.5225 -16.5211 -16.3885
   -16.3869 -16.2544 -16.2521 -16.1996 -16.1960 -16.1320 -16.1011 -14.7612
   -14.7611 -11.4748  -7.2413  -5.4078  -5.2328  -4.8001  -4.6453  -4.6358
    -4.6239  -4.5484  -4.5475  -4.5314  -4.5247  -4.4188  -4.4089  -4.3700
    -4.3469  -4.3164  -4.2982  -4.2849  -4.2634  -4.2317  -4.2280  -4.0425
    -4.0387  -4.0146  -3.9836  -3.9648  -3.9205  -3.8477  -3.8417  -3.8159
    -3.7388  -3.6620  -3.6402  -3.4147  -3.4004  -3.3478  -3.3194  -3.2289
    -3.1198  -3.0952  -3.0604  -3.0510  -3.0092  -2.9630  -2.9185  -2.8945
    -2.8090  -2.8050  -2.6223  -2.6017  -2.5769  -2.5583  -2.5303  -2.4658
    -2.4351  -2.3424  -2.3153  -2.2755  -2.1228  -2.0738  -2.0555  -2.0096
    -1.9232  -1.9208  -1.8791  -1.8672  -1.8570  -1.8161  -1.8058  -1.7953
    -1.7674  -1.7293  -1.6863  -1.6579  -1.6209  -1.6076  -1.5950  -1.4759
    -1.4021  -1.3888  -1.2797  -1.2619  -1.2420  -1.2265  -1.1881  -1.1303
    -1.0865  -1.0520  -1.0438  -1.0124  -0.9636  -0.8908  -0.8794  -0.5374
    -0.5299  -0.4577  -0.4451   0.1169   0.1170   0.1963   0.1979   2.0504
     2.0527   2.2175   2.2331   2.2362   2.2397   2.2779   2.3161   2.4234
     2.4255   2.4402   2.4423   2.5577   2.5592   2.5778   2.6553   2.7216
     2.7558   2.8201   2.8289   2.8800   2.8998   2.9381   2.9481   3.0258
     3.0396   3.0853   3.1147   3.2212   3.2691   3.2899   3.3067   3.4224
     3.4279   3.4520   3.4693   3.4941   3.5225   3.7148   3.7403   3.8085
     3.8263   3.8378   3.8860   3.9134   3.9204   4.0808   4.0833   4.1171
     4.1174   4.4733   4.7125   4.9846   5.0237   5.2699   5.3017   5.3099
     5.3281   5.3605   5.3850   5.4267   5.4790   5.5094   5.5533   5.6434
     5.6475   5.7630   5.8334   5.8763   5.8914   6.0162   6.0771   6.0885
     6.1319   6.1856   6.2179   6.2809   6.3014   6.4682   6.5205   6.5951
     6.6380   6.7891   6.7959   6.9900   7.0341   7.1210   7.3851   7.5933
     7.7432   8.0033   8.2831   8.7232   8.7435   8.9684   9.0051   9.2913
     9.3504   9.4505   9.5458

          k = 0.0506 0.0000 0.0000 ( 34729 PWs)   bands (ev):

   -57.6991 -57.6642 -57.3180 -57.2817 -57.2332 -57.1098 -57.0735 -57.0730
   -57.0513 -57.0379 -56.9901 -56.9546 -56.7302 -56.6927 -56.1496 -56.1143
   -34.1362 -33.9813 -33.9529 -33.8980 -33.8706 -33.8059 -33.7454 -33.6560
   -33.6186 -33.6104 -33.5687 -33.5493 -33.5296 -33.5090 -33.4862 -33.4615
   -33.4587 -33.4538 -33.4317 -33.3754 -33.3240 -33.2926 -33.2711 -33.2669
   -33.2628 -33.2617 -33.2607 -33.2377 -33.2341 -33.2299 -33.2299 -33.2120
   -33.1801 -33.1798 -33.1759 -33.1409 -33.1185 -32.9962 -32.9856 -32.9545
   -32.9079 -32.8051 -32.5672 -32.5051 -32.4741 -32.3715 -32.2800 -32.1718
   -20.3004 -17.9170 -17.7068 -17.4162 -17.3905 -17.2831 -17.2661 -17.2376
   -17.1400 -16.9786 -16.9678 -16.9378 -16.8953 -16.8862 -16.8681 -16.8460
   -16.7514 -16.7013 -16.5367 -16.4558 -16.4495 -16.4107 -16.4049 -16.3592
   -16.3543 -16.3279 -16.1753 -16.1605 -16.1539 -15.9789 -15.9289 -14.7309
   -14.6501 -11.4739  -7.2377  -5.4782  -5.2933  -5.2087  -4.9802  -4.9139
    -4.8038  -4.7980  -4.7715  -4.7484  -4.7142  -4.6334  -4.5253  -4.4650
    -4.4189  -4.2484  -4.1321  -4.0394  -4.0249  -4.0195  -3.9742  -3.9302
    -3.9122  -3.8291  -3.7887  -3.7621  -3.7528  -3.6590  -3.6373  -3.6138
    -3.5558  -3.5538  -3.5413  -3.5263  -3.5001  -3.2832  -3.2791  -3.2641
    -3.2398  -3.2023  -3.1562  -3.1109  -2.9952  -2.9427  -2.8846  -2.8516
    -2.8278  -2.7799  -2.7568  -2.6789  -2.6228  -2.6110  -2.5774  -2.5472
    -2.4629  -2.4598  -2.4274  -2.3659  -2.3139  -2.2067  -2.1985  -2.1232
    -2.0864  -1.9917  -1.9395  -1.9322  -1.8445  -1.8177  -1.8010  -1.7147
    -1.6368  -1.5752  -1.5582  -1.5554  -1.4865  -1.4782  -1.4426  -1.4006
    -1.3525  -1.3334  -1.3033  -1.2104  -1.1207  -1.1065  -1.0891  -1.0759
    -0.9940  -0.9539  -0.8885  -0.8160  -0.8106  -0.7940  -0.7573  -0.5327
    -0.5242  -0.2681  -0.2242  -0.0475   0.0926   0.1186   0.1369   1.6417
     1.8181   2.0000   2.0965   2.1005   2.1791   2.1965   2.2808   2.2933
     2.4540   2.4574   2.4702   2.5585   2.5636   2.5850   2.6258   2.6783
     2.7067   2.8222   2.8700   2.8732   2.8990   2.9234   3.0834   3.1077
     3.1473   3.1635   3.2006   3.2015   3.2864   3.2889   3.3311   3.4092
     3.4391   3.4482   3.5003   3.5524   3.5765   3.5854   3.6998   3.7107
     3.7592   3.7627   3.7983   3.8936   3.9250   4.0823   4.1570   4.2107
     4.3470   4.4652   4.5751   4.6511   4.7676   4.7973   4.8608   4.8968
     4.9111   5.0998   5.2084   5.4395   5.6434   5.7585   5.7608   5.8793
     5.8873   5.9180   5.9313   5.9647   6.0269   6.0950   6.1361   6.1577
     6.2402   6.4203   6.5134   6.5971   6.6062   6.6313   6.6846   6.7229
     6.8523   6.8531   7.0304   7.0440   7.2938   7.3021   7.4985   8.0102
     8.1405   8.4092   8.4750   8.7443   8.8123   8.9555   9.0421   9.2717
     9.3382   9.3738   9.6229

          k = 0.0506 0.0280 0.0000 ( 34685 PWs)   bands (ev):

   -57.6968 -57.6665 -57.3156 -57.2841 -57.2327 -57.1075 -57.0756 -57.0708
   -57.0518 -57.0403 -56.9877 -56.9570 -56.7277 -56.6952 -56.1472 -56.1167
   -34.1108 -33.9793 -33.9547 -33.8919 -33.8447 -33.8122 -33.7724 -33.6332
   -33.6119 -33.5854 -33.5434 -33.5356 -33.5276 -33.5199 -33.4934 -33.4724
   -33.4589 -33.4488 -33.4297 -33.3692 -33.3179 -33.2908 -33.2791 -33.2655
   -33.2642 -33.2613 -33.2593 -33.2537 -33.2378 -33.2364 -33.2341 -33.2137
   -33.2034 -33.1855 -33.1771 -33.1446 -33.1415 -32.9924 -32.9832 -32.9564
   -32.9129 -32.8329 -32.5415 -32.5029 -32.4762 -32.3655 -32.2862 -32.1991
   -20.3003 -17.8605 -17.6514 -17.3689 -17.3414 -17.2498 -17.2245 -17.2147
   -17.1220 -17.0440 -16.9635 -16.9201 -16.8706 -16.8577 -16.8549 -16.8328
   -16.7632 -16.7451 -16.5590 -16.5283 -16.5043 -16.4380 -16.4154 -16.3761
   -16.3683 -16.3118 -16.1911 -16.1720 -16.1525 -16.0113 -15.9662 -14.7413
   -14.6740 -11.4734  -7.2371  -5.4571  -5.2338  -5.2069  -4.8924  -4.8341
    -4.7187  -4.7039  -4.6753  -4.6561  -4.6303  -4.5095  -4.4276  -4.3460
    -4.3184  -4.3017  -4.1562  -4.1336  -4.0552  -4.0263  -4.0097  -3.9918
    -3.9830  -3.9096  -3.8604  -3.8153  -3.7738  -3.7609  -3.7178  -3.6899
    -3.6543  -3.6317  -3.5824  -3.5513  -3.4441  -3.3088  -3.2671  -3.2617
    -3.2269  -3.1732  -3.1046  -3.0632  -2.9539  -2.9384  -2.8761  -2.8424
    -2.7433  -2.6928  -2.6589  -2.6488  -2.6005  -2.5914  -2.5369  -2.4985
    -2.4364  -2.3863  -2.3810  -2.3411  -2.3099  -2.2524  -2.1775  -2.1373
    -2.1093  -2.0652  -2.0270  -1.9773  -1.9437  -1.9009  -1.8633  -1.8219
    -1.7528  -1.7375  -1.7111  -1.6306  -1.5374  -1.5058  -1.4793  -1.4327
    -1.3790  -1.3385  -1.2796  -1.2586  -1.2376  -1.1450  -1.1174  -1.0139
    -0.9771  -0.8856  -0.8583  -0.8057  -0.7857  -0.7654  -0.7030  -0.6885
    -0.5120  -0.3115  -0.2593  -0.0734   0.1095   0.1389   0.1623   1.7043
     1.9051   2.0604   2.1222   2.1272   2.1739   2.2511   2.3583   2.3724
     2.4080   2.4366   2.5139   2.5571   2.5746   2.6034   2.6722   2.6938
     2.7449   2.8036   2.8534   2.8974   2.9560   2.9738   3.0417   3.0589
     3.0983   3.1618   3.1714   3.1996   3.3002   3.3608   3.3757   3.4076
     3.4462   3.4782   3.5451   3.5808   3.6035   3.6469   3.6770   3.6863
     3.7186   3.7702   3.8188   3.8707   3.9350   4.0584   4.1689   4.2820
     4.2927   4.4230   4.6206   4.6895   4.7645   4.8119   4.8578   4.9867
     5.0134   5.1278   5.2241   5.4714   5.5954   5.6390   5.7331   5.8061
     5.8626   5.8712   5.9177   5.9479   5.9813   6.0892   6.1181   6.1393
     6.2290   6.4355   6.4737   6.5371   6.5774   6.6141   6.6869   6.7397
     6.8000   6.8176   6.9740   7.1158   7.1674   7.3954   7.5719   7.7103
     8.1328   8.1633   8.2455   8.3888   8.7759   8.9693   9.0170   9.0441
     9.3742   9.4427   9.6049

          k = 0.0506 0.0560 0.0000 ( 34596 PWs)   bands (ev):

   -57.6904 -57.6729 -57.3090 -57.2907 -57.2319 -57.1015 -57.0817 -57.0644
   -57.0526 -57.0468 -56.9813 -56.9635 -56.7211 -56.7019 -56.1408 -56.1232
   -34.0409 -33.9740 -33.9597 -33.8751 -33.8456 -33.8291 -33.7735 -33.5962
   -33.5751 -33.5723 -33.5357 -33.5215 -33.5154 -33.5111 -33.4775 -33.4736
   -33.4537 -33.4268 -33.4040 -33.3537 -33.3182 -33.3179 -33.3012 -33.2990
   -33.2866 -33.2767 -33.2678 -33.2608 -33.2538 -33.2532 -33.2477 -33.2397
   -33.2105 -33.2005 -33.1706 -33.1645 -33.1254 -32.9874 -32.9774 -32.9616
   -32.9258 -32.9023 -32.4972 -32.4817 -32.4708 -32.3490 -32.3031 -32.2731
   -20.3000 -17.7060 -17.5007 -17.2913 -17.2394 -17.1978 -17.1739 -17.1618
   -17.0899 -17.0371 -17.0063 -16.9134 -16.8562 -16.8486 -16.8443 -16.8064
   -16.7764 -16.7216 -16.6627 -16.6229 -16.6127 -16.5508 -16.5125 -16.3987
   -16.3431 -16.2637 -16.2260 -16.1929 -16.1565 -16.1127 -16.0380 -14.7607
   -14.7251 -11.4725  -7.2359  -5.4306  -5.2267  -5.0213  -4.6593  -4.6173
    -4.5141  -4.4990  -4.4854  -4.4556  -4.4316  -4.3681  -4.3237  -4.2996
    -4.2237  -4.2056  -4.1464  -4.1334  -4.0803  -4.0657  -4.0470  -4.0392
    -4.0145  -3.9981  -3.9657  -3.9178  -3.8954  -3.8882  -3.8213  -3.7832
    -3.7306  -3.6599  -3.6282  -3.5255  -3.4877  -3.3623  -3.3285  -3.2670
    -3.2564  -3.2420  -3.1370  -3.0170  -2.9310  -2.9059  -2.8486  -2.8331
    -2.7580  -2.7272  -2.6869  -2.6095  -2.5898  -2.5733  -2.5261  -2.4880
[...]
    -1.2982  -1.2674  -1.2574  -1.1900  -1.1560  -1.0312  -1.0200  -1.0119
    -0.9889  -0.9485  -0.9047  -0.8381  -0.7565  -0.7009  -0.6483  -0.5941
    -0.5900  -0.5347  -0.5187   0.0659   0.0660   0.2106   0.2123   2.1534
     2.1542   2.2007   2.2026   2.2382   2.2390   2.2661   2.2977   2.4879
     2.4933   2.5254   2.5553   2.6089   2.6166   2.6793   2.6812   2.6908
     2.6920   2.8440   2.9096   2.9828   2.9978   3.0341   3.0417   3.0979
     3.2197   3.2492   3.2723   3.3327   3.3736   3.3904   3.4446   3.4926
     3.5001   3.5226   3.5490   3.5809   3.6036   3.6800   3.7002   3.7454
     3.8347   3.8913   3.9075   3.9526   3.9530   4.0960   4.1029   4.1116
     4.1121   4.6141   4.7829   4.7869   4.8014   4.8706   4.9203   4.9255
     4.9417   4.9844   5.0268   5.2488   5.3394   5.3590   5.3696   5.7319
     5.8000   5.9115   5.9270   5.9802   6.0463   6.1496   6.3060   6.3493
     6.3653   6.3745   6.4111   6.5745   6.6174   6.6649   6.6650   6.7034
     6.7637   6.8443   6.8453   6.8522   6.8531   7.3603   7.4088   7.5252
     7.6625   7.8264   8.0146   8.1717   8.2252   8.3189   8.3946   8.8237
     8.9152   9.0454   9.0820

          k =-0.0253 0.0280 0.0000 ( 34687 PWs)   bands (ev):

   -57.6969 -57.6666 -57.3155 -57.2840 -57.2327 -57.1076 -57.0756 -57.0706
   -57.0517 -57.0402 -56.9877 -56.9569 -56.7277 -56.6951 -56.1475 -56.1169
   -34.1102 -33.9795 -33.9548 -33.8933 -33.8444 -33.8123 -33.7725 -33.6318
   -33.6119 -33.5821 -33.5428 -33.5347 -33.5221 -33.5162 -33.4933 -33.4727
   -33.4660 -33.4611 -33.4296 -33.3853 -33.3181 -33.2906 -33.2835 -33.2642
   -33.2593 -33.2542 -33.2532 -33.2477 -33.2377 -33.2363 -33.2352 -33.2160
   -33.2029 -33.1852 -33.1771 -33.1447 -33.1415 -32.9924 -32.9788 -32.9578
   -32.9128 -32.8328 -32.5419 -32.5013 -32.4774 -32.3657 -32.2864 -32.1993
   -20.3007 -17.9228 -17.7450 -17.4637 -17.3835 -17.3093 -17.2323 -17.1284
   -17.0982 -17.0060 -16.9633 -16.8591 -16.8304 -16.8067 -16.7838 -16.7701
   -16.7130 -16.6998 -16.6000 -16.5797 -16.5065 -16.4751 -16.3813 -16.3654
   -16.3564 -16.3295 -16.2004 -16.1736 -16.1536 -16.0102 -15.9664 -14.7428
   -14.6735 -11.4759  -7.2427  -5.4441  -5.2468  -5.2110  -5.1812  -5.0216
    -4.9663  -4.9365  -4.7589  -4.7014  -4.5619  -4.4029  -4.3713  -4.3460
    -4.2610  -4.2497  -4.1880  -4.1168  -4.0907  -4.0641  -4.0361  -4.0203
    -3.9750  -3.9409  -3.9142  -3.8690  -3.8222  -3.8114  -3.7845  -3.7196
    -3.6998  -3.6627  -3.6150  -3.6044  -3.5395  -3.5242  -3.3541  -3.2843
    -3.2519  -3.2146  -3.1470  -3.0710  -2.9832  -2.9458  -2.7829  -2.7055
    -2.6800  -2.6368  -2.6103  -2.5322  -2.5046  -2.4516  -2.4475  -2.4228
    -2.4060  -2.3846  -2.3397  -2.3014  -2.2179  -2.1755  -2.1216  -2.1037
    -2.0626  -1.9918  -1.9508  -1.8952  -1.8640  -1.8274  -1.7427  -1.7082
    -1.6529  -1.5990  -1.5930  -1.5600  -1.5159  -1.4700  -1.4361  -1.3929
    -1.3448  -1.3323  -1.2806  -1.2424  -1.1977  -1.1145  -1.0996  -1.0589
    -1.0123  -0.8933  -0.8407  -0.8325  -0.7553  -0.7393  -0.7082  -0.6595
    -0.4332  -0.2815  -0.1347  -0.0857   0.1493   0.1787   0.1889   1.7206
     1.8448   2.0162   2.1002   2.1954   2.2459   2.2851   2.3190   2.4040
     2.4154   2.4501   2.4859   2.5299   2.5325   2.5474   2.6078   2.6686
     2.7054   2.7390   2.7757   2.8122   2.9392   2.9863   3.0041   3.0271
     3.1074   3.1358   3.1463   3.1741   3.2087   3.2394   3.3480   3.3725
     3.4037   3.4199   3.4643   3.5069   3.5614   3.5710   3.6371   3.6608
     3.6731   3.7092   3.7495   3.8936   3.9928   4.1402   4.1855   4.2533
     4.3065   4.4522   4.5096   4.7728   4.9374   4.9513   4.9841   5.0778
     5.1588   5.1750   5.2233   5.3856   5.6446   5.6761   5.7290   5.7875
     5.8527   5.8650   5.8725   6.0061   6.0734   6.0784   6.1239   6.1456
     6.1969   6.2073   6.2153   6.2436   6.4284   6.5258   6.6121   6.6662
     6.7888   6.8600   6.9630   7.1509   7.2263   7.5171   7.9325   8.0296
     8.0936   8.2500   8.4478   8.5802   8.6478   8.7775   8.9502   9.2681
     9.3534   9.4664   9.5087

          k =-0.0253 0.0560 0.0000 ( 34699 PWs)   bands (ev):

   -57.6905 -57.6730 -57.3090 -57.2906 -57.2319 -57.1016 -57.0817 -57.0642
   -57.0526 -57.0467 -56.9812 -56.9634 -56.7210 -56.7018 -56.1411 -56.1234
   -34.0404 -33.9741 -33.9598 -33.8764 -33.8455 -33.8296 -33.7733 -33.5962
   -33.5739 -33.5722 -33.5353 -33.5255 -33.5089 -33.5077 -33.4774 -33.4728
   -33.4557 -33.4267 -33.4134 -33.3672 -33.3170 -33.3139 -33.3086 -33.3015
   -33.2863 -33.2768 -33.2679 -33.2631 -33.2537 -33.2487 -33.2384 -33.2346
   -33.2101 -33.1989 -33.1705 -33.1648 -33.1258 -32.9873 -32.9745 -32.9618
   -32.9258 -32.9025 -32.4963 -32.4824 -32.4712 -32.3492 -32.3034 -32.2734
   -20.3004 -17.7565 -17.5896 -17.3436 -17.2644 -17.2450 -17.1939 -17.1680
   -17.1393 -16.9960 -16.9704 -16.8808 -16.8765 -16.8300 -16.7971 -16.7727
   -16.7478 -16.6703 -16.6232 -16.6042 -16.5794 -16.5306 -16.4269 -16.4124
   -16.3559 -16.2850 -16.2339 -16.1944 -16.1571 -16.1111 -16.0389 -14.7614
   -14.7242 -11.4752  -7.2418  -5.4159  -5.2276  -5.0306  -4.9489  -4.8135
    -4.7570  -4.7147  -4.5583  -4.4963  -4.4908  -4.4136  -4.3945  -4.3442
    -4.2712  -4.2325  -4.2153  -4.1921  -4.1477  -4.1407  -4.1078  -4.0618
    -4.0316  -4.0099  -3.9945  -3.9365  -3.9243  -3.8733  -3.8630  -3.8219
    -3.7737  -3.7138  -3.6554  -3.5718  -3.4727  -3.3932  -3.3257  -3.2804
    -3.2379  -3.2167  -3.1762  -3.0130  -2.9327  -2.8643  -2.8263  -2.7831
    -2.7552  -2.6455  -2.5920  -2.5104  -2.4875  -2.4392  -2.3939  -2.3624
    -2.3431  -2.3240  -2.2907  -2.2660  -2.1899  -2.1412  -2.1270  -2.0369
    -2.0200  -2.0030  -1.9453  -1.9427  -1.9047  -1.8619  -1.8301  -1.8068
    -1.7433  -1.7108  -1.6724  -1.6423  -1.5799  -1.5394  -1.5048  -1.4603
    -1.4310  -1.3720  -1.3472  -1.3016  -1.2244  -1.2065  -1.1331  -1.1041
    -1.0645  -1.0150  -0.9238  -0.8781  -0.8136  -0.8001  -0.7380  -0.6806
    -0.6068  -0.4671  -0.2576   0.0920   0.1286   0.1557   0.1882   1.8614
     2.0478   2.1349   2.1787   2.2281   2.2698   2.3064   2.3333   2.3836
     2.4444   2.4590   2.4856   2.5131   2.5206   2.5836   2.6928   2.7243
     2.7447   2.7757   2.8278   2.8409   2.8932   2.9499   2.9709   2.9867
     3.0240   3.0347   3.1703   3.2080   3.2905   3.3168   3.3340   3.3708
     3.4116   3.4366   3.4600   3.5431   3.5593   3.6349   3.6574   3.7352
     3.7934   3.8173   3.8623   3.8989   3.9068   4.0727   4.1166   4.1653
     4.3427   4.3845   4.6154   4.9662   5.0193   5.1247   5.1392   5.1561
     5.2595   5.2871   5.3153   5.4280   5.5117   5.5609   5.6401   5.7627
     5.8246   5.8483   5.8949   5.9364   5.9557   5.9969   6.0524   6.0639
     6.1360   6.1553   6.2295   6.3214   6.3795   6.4112   6.4786   6.6454
     6.6950   6.7961   6.8436   7.0358   7.1523   7.3637   7.4876   7.5963
     7.9794   8.1758   8.3527   8.5222   8.6472   8.8585   9.0484   9.1151
     9.1799   9.4940   9.6245

          k =-0.0506 0.0280 0.0000 ( 34685 PWs)   bands (ev):

   -57.6969 -57.6666 -57.3155 -57.2840 -57.2327 -57.1075 -57.0756 -57.0708
   -57.0517 -57.0402 -56.9877 -56.9569 -56.7277 -56.6951 -56.1475 -56.1169
   -34.1109 -33.9794 -33.9548 -33.8919 -33.8446 -33.8123 -33.7725 -33.6332
   -33.6118 -33.5854 -33.5434 -33.5356 -33.5276 -33.5198 -33.4933 -33.4723
   -33.4588 -33.4487 -33.4296 -33.3692 -33.3178 -33.2908 -33.2791 -33.2654
   -33.2642 -33.2613 -33.2590 -33.2539 -33.2378 -33.2363 -33.2341 -33.2137
   -33.2034 -33.1854 -33.1770 -33.1446 -33.1414 -32.9924 -32.9832 -32.9564
   -32.9128 -32.8328 -32.5418 -32.5032 -32.4765 -32.3657 -32.2864 -32.1993
   -20.3003 -17.8606 -17.6513 -17.3689 -17.3415 -17.2498 -17.2245 -17.2147
   -17.1225 -17.0433 -16.9635 -16.9207 -16.8710 -16.8577 -16.8550 -16.8326
   -16.7635 -16.7451 -16.5593 -16.5280 -16.5041 -16.4381 -16.4155 -16.3762
   -16.3685 -16.3117 -16.1912 -16.1720 -16.1525 -16.0114 -15.9662 -14.7409
   -14.6735 -11.4735  -7.2371  -5.4571  -5.2339  -5.2068  -4.8924  -4.8341
    -4.7208  -4.7047  -4.6752  -4.6552  -4.6303  -4.5095  -4.4279  -4.3455
    -4.3186  -4.3020  -4.1594  -4.1261  -4.0606  -4.0266  -4.0086  -3.9931
    -3.9825  -3.9096  -3.8597  -3.8158  -3.7735  -3.7611  -3.7186  -3.6906
    -3.6551  -3.6333  -3.5827  -3.5511  -3.4436  -3.3139  -3.2772  -3.2603
    -3.2190  -3.1702  -3.1008  -3.0581  -2.9529  -2.9371  -2.8732  -2.8401
    -2.7432  -2.6929  -2.6595  -2.6499  -2.6045  -2.5908  -2.5358  -2.4953
    -2.4368  -2.3874  -2.3810  -2.3355  -2.3087  -2.2543  -2.1793  -2.1360
    -2.1135  -2.0622  -2.0266  -1.9743  -1.9401  -1.9054  -1.8596  -1.8313
    -1.7545  -1.7398  -1.7117  -1.6408  -1.5402  -1.5066  -1.4847  -1.4172
    -1.3667  -1.3477  -1.2785  -1.2616  -1.2374  -1.1472  -1.1187  -1.0130
    -0.9791  -0.8805  -0.8560  -0.8139  -0.7789  -0.7640  -0.7049  -0.6898
    -0.5129  -0.3119  -0.2595  -0.0731   0.1099   0.1393   0.1626   1.7041
     1.9050   2.0603   2.1228   2.1276   2.1727   2.2412   2.3615   2.3723
     2.4063   2.4381   2.5181   2.5677   2.5745   2.6029   2.6840   2.6968
     2.7433   2.8029   2.8334   2.9030   2.9561   2.9818   3.0417   3.0606
     3.0912   3.1608   3.1713   3.2007   3.3025   3.3567   3.3763   3.4107
     3.4463   3.4585   3.5471   3.5867   3.6043   3.6536   3.6761   3.6849
     3.7173   3.7712   3.8185   3.8697   3.9330   4.0593   4.1687   4.2820
     4.2932   4.4228   4.6222   4.6899   4.7643   4.8113   4.8557   4.9883
     5.0129   5.1266   5.2242   5.4703   5.5946   5.6408   5.7217   5.8056
     5.8615   5.8730   5.9255   5.9469   5.9806   6.0934   6.1172   6.1391
     6.2299   6.4324   6.4825   6.5406   6.5780   6.6084   6.6859   6.7422
     6.7976   6.8174   6.9739   7.1153   7.1673   7.3962   7.5756   7.7155
     8.1331   8.1634   8.2451   8.3927   8.7534   8.9677   9.0130   9.0493
     9.3731   9.4422   9.6112

          k =-0.0506 0.0560 0.0000 ( 34596 PWs)   bands (ev):

   -57.6905 -57.6730 -57.3090 -57.2906 -57.2318 -57.1015 -57.0817 -57.0643
   -57.0526 -57.0467 -56.9812 -56.9634 -56.7210 -56.7018 -56.1411 -56.1234
   -34.0409 -33.9741 -33.9598 -33.8752 -33.8457 -33.8292 -33.7734 -33.5961
   -33.5751 -33.5723 -33.5356 -33.5215 -33.5153 -33.5110 -33.4775 -33.4736
   -33.4537 -33.4267 -33.4038 -33.3537 -33.3181 -33.3178 -33.3012 -33.2990
   -33.2866 -33.2767 -33.2678 -33.2607 -33.2537 -33.2533 -33.2477 -33.2397
   -33.2103 -33.2004 -33.1705 -33.1644 -33.1254 -32.9873 -32.9773 -32.9616
   -32.9257 -32.9023 -32.4974 -32.4820 -32.4710 -32.3492 -32.3033 -32.2733
   -20.3000 -17.7061 -17.5007 -17.2912 -17.2397 -17.1977 -17.1738 -17.1620
   -17.0898 -17.0371 -17.0060 -16.9136 -16.8566 -16.8491 -16.8446 -16.8064
   -16.7763 -16.7219 -16.6625 -16.6224 -16.6128 -16.5508 -16.5126 -16.3988
   -16.3432 -16.2637 -16.2261 -16.1929 -16.1565 -16.1127 -16.0380 -14.7602
   -14.7246 -11.4726  -7.2359  -5.4306  -5.2267  -5.0211  -4.6593  -4.6172
    -4.5154  -4.4991  -4.4837  -4.4560  -4.4323  -4.3676  -4.3248  -4.3017
    -4.2260  -4.2058  -4.1465  -4.1321  -4.0825  -4.0671  -4.0462  -4.0366
    -4.0143  -3.9965  -3.9688  -3.9149  -3.8941  -3.8884  -3.8221  -3.7872
    -3.7307  -3.6598  -3.6296  -3.5227  -3.4859  -3.3687  -3.3279  -3.2617
    -3.2556  -3.2446  -3.1337  -3.0110  -2.9329  -2.9042  -2.8509  -2.8300
    -2.7565  -2.7266  -2.6847  -2.6099  -2.5920  -2.5677  -2.5283  -2.4899
    -2.4283  -2.4055  -2.3661  -2.3295  -2.3166  -2.3004  -2.2555  -2.1786
    -2.1529  -2.1214  -2.1144  -2.0776  -2.0474  -2.0023  -1.9842  -1.9018
    -1.8913  -1.8518  -1.8326  -1.7250  -1.6381  -1.6061  -1.5728  -1.4785
    -1.4086  -1.3748  -1.3072  -1.2549  -1.2065  -1.1117  -1.0755  -1.0184
    -1.0032  -0.9369  -0.8536  -0.8195  -0.7703  -0.7560  -0.6930  -0.6571
    -0.6517  -0.5180  -0.3246   0.0779   0.1121   0.1301   0.1936   1.8667
     2.0766   2.1653   2.1995   2.2211   2.2436   2.2985   2.3481   2.3933
     2.4036   2.5375   2.5703   2.5794   2.6075   2.6285   2.6836   2.7549
     2.7821   2.8045   2.8391   2.8812   2.9637   3.0044   3.0285   3.0623
     3.0974   3.1365   3.1679   3.2569   3.3358   3.3676   3.3973   3.4412
     3.4790   3.5000   3.5221   3.5428   3.6152   3.6477   3.7117   3.7444
     3.7804   3.8520   3.8806   3.9194   3.9253   3.9545   4.1117   4.1749
     4.2894   4.4734   4.7246   4.8068   4.8168   4.8964   4.9424   5.0922
     5.1657   5.2317   5.2719   5.3308   5.3724   5.4351   5.4958   5.6263
     5.7809   5.8303   5.8817   5.9522   6.0395   6.1241   6.2173   6.2592
     6.2870   6.3478   6.4165   6.4506   6.5038   6.5784   6.6508   6.7166
     6.7309   6.8251   6.8549   6.9846   7.0574   7.4107   7.4352   7.5757
     7.7458   7.9421   8.0717   8.3868   8.5772   8.6105   8.7424   9.0079
     9.2227   9.3236   9.4534

     the Fermi energy is     0.9969 ev

!    total energy              =   -3021.41998168 Ry
     Harris-Foulkes estimate   =   -3021.41998198 Ry
     estimated scf accuracy    <       0.00000067 Ry

     The total energy is the sum of the following terms:

     one-electron contribution =  -41241.38949945 Ry
     hartree contribution      =   20694.93272360 Ry
     xc contribution           =    -553.69371026 Ry
     ewald contribution        =   18078.73071552 Ry
     smearing contrib. (-TS)   =      -0.00021110 Ry

     total magnetization       =     0.00 Bohr mag/cell
     absolute magnetization    =     0.00 Bohr mag/cell

     convergence has been achieved in   7 iterations

     Forces acting on atoms (Ry/au):


     negative rho (up, down):  1.209E-02 1.209E-02
     atom    1 type  1   force =     0.00001272   -0.00035610   -0.13378028
     atom    2 type  2   force =     0.00000173    0.00002809    0.07212854
     atom    3 type  1   force =    -0.00135815    0.00030811   -0.06095817
     atom    4 type  2   force =     0.00290035    0.00048631    0.00638762
     atom    5 type  1   force =     0.00027490    0.00184379    0.00351913
     atom    6 type  2   force =     0.00004866    0.00000241   -0.00283095
     atom    7 type  1   force =    -0.00039268   -0.00076899    0.00430325
     atom    8 type  2   force =     0.00097127   -0.00019166   -0.00068521
     atom    9 type  1   force =    -0.00003109    0.00002016   -0.13354010
     atom   10 type  2   force =    -0.00007029    0.00006491    0.07130836
     atom   11 type  1   force =    -0.00132033   -0.00024207   -0.05587481
     atom   12 type  2   force =     0.00299354   -0.00006940    0.00610475
     atom   13 type  1   force =     0.00029416   -0.00147237    0.00345798
     atom   14 type  2   force =    -0.00120117   -0.00038984   -0.00288887
     atom   15 type  1   force =    -0.00057165    0.00022477    0.00447080
     atom   16 type  2   force =     0.00060788   -0.00021631   -0.00009165
     atom   17 type  2   force =    -0.00007402   -0.00007210    0.07938049
     atom   18 type  1   force =     0.00013305   -0.00017338    0.11913144
     atom   19 type  2   force =    -0.00011164   -0.00017486   -0.06668665
     atom   20 type  2   force =    -0.06322622    0.00014670   -0.03223875
     atom   21 type  2   force =     0.06319792    0.00001393   -0.03244404
     atom   22 type  1   force =     0.00071956    0.00108203    0.05976020
     atom   23 type  2   force =    -0.00017508    0.00005627   -0.00174791
     atom   24 type  2   force =    -0.00143756   -0.00000530   -0.02327252
     atom   25 type  2   force =    -0.00313590    0.00058814    0.00787440
     atom   26 type  1   force =     0.00063451    0.00028988    0.00463333
     atom   27 type  2   force =     0.00052429    0.00060069   -0.00383502
     atom   28 type  2   force =     0.00013659   -0.00008992   -0.00119896
     atom   29 type  2   force =     0.00020245   -0.00034620   -0.00058911
     atom   30 type  1   force =     0.00028483   -0.00063003    0.00390241
     atom   31 type  2   force =    -0.00001190    0.00007906   -0.00274100
     atom   32 type  2   force =     0.00000135   -0.00005458   -0.00120930
     atom   33 type  2   force =    -0.00012238    0.00003599    0.07898283
     atom   34 type  1   force =     0.00006604   -0.00021981    0.11904723
     atom   35 type  2   force =    -0.00030757   -0.00005534   -0.06638693
     atom   36 type  2   force =    -0.06318683   -0.00005357   -0.03232631
     atom   37 type  2   force =     0.06332707   -0.00020326   -0.03248234
     atom   38 type  1   force =     0.00065735   -0.00098448    0.05997748
     atom   39 type  2   force =    -0.00045718    0.00010282   -0.00249290
     atom   40 type  2   force =    -0.00119489    0.00030563   -0.02218272
     atom   41 type  2   force =    -0.00317580   -0.00015065    0.00790061
     atom   42 type  1   force =     0.00051428    0.00006351    0.00374390
     atom   43 type  2   force =     0.00068989    0.00023125   -0.00301095
     atom   44 type  2   force =     0.00022171    0.00010172   -0.00115801
     atom   45 type  2   force =     0.00017848    0.00030627   -0.00061544
     atom   46 type  1   force =     0.00058565    0.00024896    0.00399811
     atom   47 type  2   force =     0.00006546   -0.00031643   -0.00133246
     atom   48 type  2   force =     0.00006292    0.00004398   -0.00088519
     atom   49 type  3   force =    -0.00786209    0.00420112   -0.00061207
     atom   50 type  2   force =     0.00129599   -0.00210479   -0.00047749
     atom   51 type  4   force =    -0.00014632    0.00298891   -0.00172692
     atom   52 type  4   force =     0.00054766    0.00021480    0.00080714
     atom   53 type  4   force =     0.00678535   -0.00388722    0.00173811
     atom   54 type  4   force =     0.00063314   -0.00145157   -0.00025509

     Total force =     0.362805     Total SCF correction =     0.001408
 !ASE

     Writing output data file calc.save
 
     init_run     :     57.76s CPU     73.97s WALL (       1 calls)
     electrons    :   1739.21s CPU   2158.48s WALL (       1 calls)
     forces       :     40.47s CPU     41.81s WALL (       1 calls)

     Called by init_run:
     wfcinit      :     49.32s CPU     64.64s WALL (       1 calls)
     potinit      :      1.35s CPU      1.85s WALL (       1 calls)

     Called by electrons:
     c_bands      :   1520.55s CPU   1883.95s WALL (       8 calls)
     sum_band     :    187.69s CPU    238.95s WALL (       8 calls)
     v_of_rho     :      7.78s CPU      9.90s WALL (       8 calls)
     newd         :     27.22s CPU     29.96s WALL (       8 calls)
     mix_rho      :      0.22s CPU      0.34s WALL (       8 calls)
     vdW_energy   :      1.47s CPU      1.85s WALL (       9 calls)
     vdW_ffts     :      2.18s CPU      2.85s WALL (      18 calls)
     vdW_v        :      0.83s CPU      0.96s WALL (       9 calls)

     Called by c_bands:
     init_us_2    :      4.93s CPU      5.38s WALL (     720 calls)
     cegterg      :   1491.37s CPU   1853.23s WALL (     320 calls)

     Called by *egterg:
     h_psi        :    627.22s CPU    928.75s WALL (    1667 calls)
     s_psi        :     75.62s CPU     79.25s WALL (    1667 calls)
     g_psi        :      4.17s CPU      4.26s WALL (    1307 calls)
     cdiaghg      :    506.88s CPU    519.60s WALL (    1587 calls)

     Called by h_psi:
     add_vuspsi   :     76.17s CPU     80.03s WALL (    1667 calls)

     General routines
     calbec       :    115.37s CPU    118.35s WALL (    2027 calls)
     fft          :      4.60s CPU      5.96s WALL (     713 calls)
     ffts         :      0.03s CPU      0.07s WALL (      32 calls)
     fftw         :    418.12s CPU    752.20s WALL (  601844 calls)
     interpolate  :      0.23s CPU      0.40s WALL (      32 calls)
     davcio       :      0.01s CPU      0.75s WALL (      40 calls)
 
     Parallel routines
     fft_scatter  :    229.48s CPU    400.90s WALL (  602589 calls)
 
     PWSCF        : 30m40.85s CPU    37m59.25s WALL

 
   This run was terminated on:   2:49:33  13Feb2018            

=------------------------------------------------------------------------------=
   JOB DONE.
=------------------------------------------------------------------------------=
