  python dir          : /home/vossj/suncat/lib/python2.7/site-packages/espresso
  espresso dir        : /home/vossj/suncat/esdld/espresso-dynpy-beef/bin
  pseudo dir          : /home/alatimer/bin/psp/esp_psp_w_gbrvRu/
  ase-espresso py git : ffa2778-git



     Program PWSCF v.5.1rc2 (svn rev. ) starts on 12Feb2018 at 11:53:32 

     This program is part of the open-source Quantum ESPRESSO suite
     for quantum simulation of materials; please cite
         "P. Giannozzi et al., J. Phys.:Condens. Matter 21 395502 (2009);
          URL http://www.quantum-espresso.org", 
     in publications or presentations arising from this work. More details at
     http://www.quantum-espresso.org/quote

     Parallel version (MPI), running on    16 processors
     R & G space division:  proc/nbgrp/npool/nimage =      16
     Reading input from pw.inp
     Message from routine read_cards :
     DEPRECATED: no units specified in CELL_PARAMETERS card

     Current dimensions of program PWSCF are:
     Max number of different atomic species (ntypx) = 10
     Max number of k-points (npk) =  40000
     Max angular momentum in pseudopotentials (lmaxx) =  3

     **************************************************************************
     Initializing libbeef V0.1.1 with the BEEF-vdW functional.
     Citation: Wellendorff et al., PRB 85, 235149 (2012).
     **************************************************************************


     IMPORTANT: XC functional enforced from input :
     Exchange-correlation      = BEEF ( 1  4 27 13 2)
     Any further DFT definition will be discarded
     Please, verify this is what you really want


     Subspace diagonalization in iterative solution of the eigenvalue problem:
     a serial algorithm will be used

 
     Parallelization info
     --------------------
     sticks:   dense  smooth     PW     G-vecs:    dense   smooth      PW
     Min         281     112     31                68535    17318    2565
     Max         282     113     32                68545    17369    2582
     Sum        4501    1795    503              1096637   277353   41113
 
     Generating pointlists ...
     new r_m :   0.4125 (alat units)  0.7795 (a.u.) for type    1
     new r_m :   0.3995 (alat units)  0.7549 (a.u.) for type    2
     new r_m :   0.4125 (alat units)  0.7795 (a.u.) for type    3
     new r_m :   0.3995 (alat units)  0.7549 (a.u.) for type    4


     bravais-lattice index     =            0
     lattice parameter (alat)  =       1.8897  a.u.
     unit-cell volume          =    7990.9933 (a.u.)^3
     number of atoms/cell      =           54
     number of atomic types    =            4
     number of electrons       =       398.00
     number of Kohn-Sham states=          299
     kinetic-energy cutoff     =      40.4243  Ry
     charge density cutoff     =     404.2426  Ry
     convergence threshold     =      7.3E-07
     mixing beta               =       0.1000
     number of iterations used =           10  plain     mixing
     Exchange-correlation      = BEEF ( 1  4 27 13 2)
     nstep                     =           50


     celldm(1)=   1.889726  celldm(2)=   0.000000  celldm(3)=   0.000000
     celldm(4)=   0.000000  celldm(5)=   0.000000  celldm(6)=   0.000000

     crystal axes: (cart. coord. in units of alat)
               a(1) = (   6.590708   0.000000   0.000000 )  
               a(2) = (   0.000000   5.950229   0.000000 )  
               a(3) = (   0.000000   0.000000  30.195235 )  

     reciprocal axes: (cart. coord. in units 2 pi/alat)
               b(1) = (  0.151729  0.000000  0.000000 )  
               b(2) = (  0.000000  0.168061  0.000000 )  
               b(3) = (  0.000000  0.000000  0.033118 )  


     PseudoPot. # 1 for Ti read from file:
     /home/alatimer/bin/psp/esp_psp_w_gbrvRu/Ti.UPF
     MD5 check sum: 8e4df49b7f0d34bbd5052bf3f5ea0213
     Pseudo is Ultrasoft, Zval = 12.0
     Generated by new atomic code, or converted to UPF format
     Using radial grid of  851 points,  6 beta functions with: 
                l(1) =   0
                l(2) =   0
                l(3) =   1
                l(4) =   1
                l(5) =   2
                l(6) =   2
     Q(r) pseudized with  8 coefficients,  rinner =    1.000   1.000   1.000
                                                       1.000   1.000

     PseudoPot. # 2 for  O read from file:
     /home/alatimer/bin/psp/esp_psp_w_gbrvRu/O.UPF
     MD5 check sum: e057bbcf3229fb5d8c36c0c92f9568b4
     Pseudo is Ultrasoft + core correction, Zval =  6.0
     Generated using "atomic" code by A. Dal Corso  v.5.0.2 svn rev. 9415
     Using radial grid of 1095 points,  4 beta functions with: 
                l(1) =   0
                l(2) =   0
                l(3) =   1
                l(4) =   1
     Q(r) pseudized with 0 coefficients 


     PseudoPot. # 3 for  C read from file:
     /home/alatimer/bin/psp/esp_psp_w_gbrvRu/C.UPF
     MD5 check sum: ab446d787031eba755f1d5ee46644bb0
     Pseudo is Ultrasoft + core correction, Zval =  4.0
     Generated using "atomic" code by A. Dal Corso  v.5.0.2 svn rev. 9415
     Using radial grid of 1073 points,  4 beta functions with: 
                l(1) =   0
                l(2) =   0
                l(3) =   1
                l(4) =   1
     Q(r) pseudized with 0 coefficients 


     PseudoPot. # 4 for  H read from file:
     /home/alatimer/bin/psp/esp_psp_w_gbrvRu/H.UPF
     MD5 check sum: bd57da0722753ddfd9833a65b40bb853
     Pseudo is Ultrasoft, Zval =  1.0
     Generated using "atomic" code by A. Dal Corso  v.5.0.2 svn rev. 9415
     Using radial grid of  929 points,  2 beta functions with: 
                l(1) =   0
                l(2) =   0
     Q(r) pseudized with 0 coefficients 


     vdW kernel table read from file vdW_kernel_table
     MD5 check sum: 095c7af220d748ca6e76c0b4c6cfb241

     atomic species   valence    mass     pseudopotential
        Ti1           12.00    47.88000     Ti( 1.00)
        O1             6.00    15.99940      O( 1.00)
        C1             4.00    12.01100      C( 1.00)
        H1             1.00     1.00794      H( 1.00)

     Starting magnetic structure 
     atomic species   magnetization
        Ti1          0.250
        O1           0.500
        C1           0.750
        H1           0.000

     No symmetry found



   Cartesian axes

     site n.     atom                  positions (alat units)
         1           Ti1 tau(   1) = (   1.6476770   0.7437786   2.6545865  )
         2           O1  tau(   2) = (   1.6476770   2.2313359   3.9361215  )
         3           Ti1 tau(   3) = (   1.6476770   2.2313359   5.9499405  )
         4           O1  tau(   4) = (   0.3661420   0.7437786   5.9499405  )
         5           Ti1 tau(   5) = (   1.7592931   0.7557636   9.1813031  )
         6           O1  tau(   6) = (   1.6162490   2.2572048  10.5951269  )
         7           Ti1 tau(   7) = (   1.5595004   2.2680265  12.4668274  )
         8           O1  tau(   8) = (   0.3709531   0.7738127  12.6996540  )
         9           Ti1 tau(   9) = (   1.6476770   3.7188931   2.6545865  )
        10           O1  tau(  10) = (   1.6476770   5.2064503   3.9361215  )
        11           Ti1 tau(  11) = (   1.6476770   5.2064503   5.9499405  )
        12           O1  tau(  12) = (   0.3661420   3.7188931   5.9499405  )
        13           Ti1 tau(  13) = (   1.7607536   3.7112867   9.1949733  )
        14           O1  tau(  14) = (   1.6133076   5.2250699  10.5465640  )
        15           Ti1 tau(  15) = (   1.6492307   5.2431137  12.3448001  )
        16           O1  tau(  16) = (   0.3719744   3.7598389  12.7007434  )
        17           O1  tau(  17) = (   1.6476770   2.2313359   1.3730516  )
        18           Ti1 tau(  18) = (   4.9430310   2.2313359   2.6545865  )
        19           O1  tau(  19) = (   4.9430310   2.2313359   4.6684056  )
        20           O1  tau(  20) = (   6.2245660   0.7437786   2.6545865  )
        21           O1  tau(  21) = (   3.6614961   0.7437786   2.6545865  )
        22           Ti1 tau(  22) = (   4.9430310   0.7437786   5.9499405  )
        23           O1  tau(  23) = (   1.6387103   2.2391978   8.0037664  )
        24           O1  tau(  24) = (   4.9430310   2.2313359   7.2314755  )
        25           O1  tau(  25) = (   2.9292120   0.7437786   5.9499405  )
        26           Ti1 tau(  26) = (   5.0158092   2.2383949   9.3973727  )
        27           O1  tau(  27) = (   4.9391445   2.2276729  11.2675731  )
        28           O1  tau(  28) = (   6.2094020   0.7514556   9.2742047  )
        29           O1  tau(  29) = (   3.6131301   0.7515640   9.2682932  )
        30           Ti1 tau(  30) = (   4.8940083   0.8207741  12.7348365  )
        31           O1  tau(  31) = (   4.8487174   2.2703822  13.8475395  )
        32           O1  tau(  32) = (   2.8766274   0.7418004  12.6316555  )
        33           O1  tau(  33) = (   1.6476770   5.2064503   1.3730516  )
        34           Ti1 tau(  34) = (   4.9430310   5.2064503   2.6545865  )
        35           O1  tau(  35) = (   4.9430310   5.2064503   4.6684056  )
        36           O1  tau(  36) = (   6.2245660   3.7188931   2.6545865  )
        37           O1  tau(  37) = (   3.6614961   3.7188931   2.6545865  )
        38           Ti1 tau(  38) = (   4.9430310   3.7188931   5.9499405  )
        39           O1  tau(  39) = (   1.6418458   5.2133935   8.0066417  )
        40           O1  tau(  40) = (   4.9430310   5.2064503   7.2314755  )
        41           O1  tau(  41) = (   2.9292120   3.7188931   5.9499405  )
        42           Ti1 tau(  42) = (   5.0218241   5.2139137   9.3870600  )
        43           O1  tau(  43) = (   4.9399496   5.2040061  11.2598200  )
        44           O1  tau(  44) = (   6.2073000   3.7245411   9.2731052  )
        45           O1  tau(  45) = (   3.6137513   3.7232133   9.2682466  )
        46           Ti1 tau(  46) = (   4.8936935   3.8094630  12.7397413  )
        47           O1  tau(  47) = (   4.9051259   5.2510468  13.8339921  )
        48           O1  tau(  48) = (   2.8743370   3.7938830  12.6403791  )
        49           C1  tau(  49) = (   1.0587210   2.2268971  15.8766084  )
        50           O1  tau(  50) = (   1.8917182   2.2355032  14.7378010  )
        51           H1  tau(  51) = (   0.0310076   2.2200215  15.5603933  )
        52           H1  tau(  52) = (   2.8355400   2.2288152  14.9543747  )
        53           H1  tau(  53) = (   1.2478062   1.3326534  16.5039879  )
        54           H1  tau(  54) = (   1.2341453   3.1195140  16.5098874  )

     number of k points=    40  Fermi-Dirac smearing, width (Ry)=  0.0073
                       cart. coord. in units 2pi/alat
        k(    1) = (   0.0000000   0.0000000   0.0000000), wk =   0.0277778
        k(    2) = (   0.0000000   0.0280101   0.0000000), wk =   0.0555556
        k(    3) = (   0.0000000   0.0560203   0.0000000), wk =   0.0555556
        k(    4) = (   0.0000000  -0.0840304   0.0000000), wk =   0.0277778
        k(    5) = (   0.0252881   0.0000000   0.0000000), wk =   0.0555556
        k(    6) = (   0.0252881   0.0280101   0.0000000), wk =   0.0555556
        k(    7) = (   0.0252881   0.0560203   0.0000000), wk =   0.0555556
        k(    8) = (   0.0252881  -0.0840304   0.0000000), wk =   0.0555556
        k(    9) = (   0.0505763   0.0000000   0.0000000), wk =   0.0555556
        k(   10) = (   0.0505763   0.0280101   0.0000000), wk =   0.0555556
        k(   11) = (   0.0505763   0.0560203   0.0000000), wk =   0.0555556
        k(   12) = (   0.0505763  -0.0840304   0.0000000), wk =   0.0555556
        k(   13) = (  -0.0758644   0.0000000   0.0000000), wk =   0.0277778
        k(   14) = (  -0.0758644   0.0280101   0.0000000), wk =   0.0555556
        k(   15) = (  -0.0758644   0.0560203   0.0000000), wk =   0.0555556
        k(   16) = (  -0.0758644  -0.0840304   0.0000000), wk =   0.0277778
        k(   17) = (  -0.0252881   0.0280101   0.0000000), wk =   0.0555556
        k(   18) = (  -0.0252881   0.0560203   0.0000000), wk =   0.0555556
        k(   19) = (  -0.0505763   0.0280101   0.0000000), wk =   0.0555556
        k(   20) = (  -0.0505763   0.0560203   0.0000000), wk =   0.0555556
        k(   21) = (   0.0000000   0.0000000   0.0000000), wk =   0.0277778
        k(   22) = (   0.0000000   0.0280101   0.0000000), wk =   0.0555556
        k(   23) = (   0.0000000   0.0560203   0.0000000), wk =   0.0555556
        k(   24) = (   0.0000000  -0.0840304   0.0000000), wk =   0.0277778
        k(   25) = (   0.0252881   0.0000000   0.0000000), wk =   0.0555556
        k(   26) = (   0.0252881   0.0280101   0.0000000), wk =   0.0555556
        k(   27) = (   0.0252881   0.0560203   0.0000000), wk =   0.0555556
        k(   28) = (   0.0252881  -0.0840304   0.0000000), wk =   0.0555556
        k(   29) = (   0.0505763   0.0000000   0.0000000), wk =   0.0555556
        k(   30) = (   0.0505763   0.0280101   0.0000000), wk =   0.0555556
        k(   31) = (   0.0505763   0.0560203   0.0000000), wk =   0.0555556
        k(   32) = (   0.0505763  -0.0840304   0.0000000), wk =   0.0555556
        k(   33) = (  -0.0758644   0.0000000   0.0000000), wk =   0.0277778
        k(   34) = (  -0.0758644   0.0280101   0.0000000), wk =   0.0555556
        k(   35) = (  -0.0758644   0.0560203   0.0000000), wk =   0.0555556
        k(   36) = (  -0.0758644  -0.0840304   0.0000000), wk =   0.0277778
        k(   37) = (  -0.0252881   0.0280101   0.0000000), wk =   0.0555556
        k(   38) = (  -0.0252881   0.0560203   0.0000000), wk =   0.0555556
        k(   39) = (  -0.0505763   0.0280101   0.0000000), wk =   0.0555556
        k(   40) = (  -0.0505763   0.0560203   0.0000000), wk =   0.0555556

     Dense  grid:  1096637 G-vectors     FFT dimensions: (  80,  72, 375)

     Smooth grid:   277353 G-vectors     FFT dimensions: (  54,  45, 240)

     Largest allocated arrays     est. size (Mb)     dimensions
        Kohn-Sham Wavefunctions         9.95 Mb     (    2180,  299)
        NL pseudopotentials            18.89 Mb     (    2180,  568)
        Each V/rho on FFT grid          4.22 Mb     (  138240,   2)
        Each G-vector array             0.52 Mb     (   68538)
        G-vector shells                 0.25 Mb     (   33046)
     Largest temporary arrays     est. size (Mb)     dimensions
        Auxiliary wavefunctions        39.78 Mb     (    2180, 1196)
        Each subspace H/S matrix       21.83 Mb     (    1196, 1196)
        Each <psi_i|beta_j> matrix      2.59 Mb     (     568,  299)
        Arrays for rho mixing          21.09 Mb     (  138240,   10)

     Check: negative/imaginary core charge=   -0.000049    0.000000

     The initial density is read from file :
     ./calc.save/charge-density.dat


     negative rho (up, down):  1.209E-02 1.209E-02


     ************************************************************************
     *
     * You are using vdW-DF for exchange-correlation in this calculation.
     * Please cite the following three references that made this development
     * possible:
     *
     *   M. Dion, H. Rydberg, E. Schroder, D. C. Langreth, and
     *   B. I. Lundqvist, Phys. Rev. Lett. 92, 246401 (2004).
     *
     *   T. Thonhauser, V. R. Cooper, S. Li, A. Puzder, P. Hyldgaard, and
     *   D. C. Langreth, Phys. Rev. B 76, 125112 (2007).
     *
     *   G. Roman-Perez and J. M. Soler, Phys. Rev. Lett. 103, 096102 (2009).
     *
     *
     * If you are using vdW-DF2, please also cite:
     *
     *   K. Lee, E. D. Murray, L. Kong, B. I. Lundqvist, and
     *   D. C. Langreth, Phys. Rev. B 82, 081101(R) (2010).
     *
     *
     * If you are calculating the stress with vdW-DF, please also cite:
     *
     *   R. Sabatini, E. Kucukbenli, B. Kolb, T. Thonhauser, and
     *   S. de Gironcoli, J. Phys.: Condens. Matter 24, 424209 (2012).
     *
     ************************************************************************

     Carrying out vdW-DF run using the following parameters:

     Nqs =      20    Nr_points =    1024   r_max =   100.000
     q_mesh =
               0.00001000     0.04494208     0.09755937     0.15916263
               0.23128650     0.31572767     0.41458969     0.53033537
               0.66584808     0.82450364     1.01025438     1.22772762
               1.48234092     1.78043706     2.12944203     2.53805004
               3.01644009     3.57652955     4.23227104     5.00000000

     Gradients computed in reciprocal space

     ************************************************************************


     Starting wfc are  300 randomized atomic wfcs

     total cpu time spent up to now is       69.4 secs

     Self-consistent Calculation

     iteration #  1     ecut=    40.42 Ry     beta=0.10
     Davidson diagonalization with overlap
     ethr =  1.00E-05,  avg # of iterations = 14.9

     negative rho (up, down):  1.209E-02 1.209E-02
 
     Magnetic moment per site:
     atom:    1    charge:    3.1251    magn:   -0.0002    constr:    0.0000
     atom:    2    charge:    1.9451    magn:    0.0000    constr:    0.0000
     atom:    3    charge:    3.1198    magn:    0.0000    constr:    0.0000
     atom:    4    charge:    1.9504    magn:   -0.0001    constr:    0.0000
     atom:    5    charge:    3.1166    magn:    0.0000    constr:    0.0000
     atom:    6    charge:    1.9476    magn:   -0.0001    constr:    0.0000
     atom:    7    charge:    3.1161    magn:    0.0001    constr:    0.0000
     atom:    8    charge:    1.9453    magn:   -0.0001    constr:    0.0000
     atom:    9    charge:    3.1251    magn:   -0.0002    constr:    0.0000
     atom:   10    charge:    1.9451    magn:    0.0000    constr:    0.0000
     atom:   11    charge:    3.1197    magn:    0.0000    constr:    0.0000
     atom:   12    charge:    1.9504    magn:   -0.0001    constr:    0.0000
     atom:   13    charge:    3.1159    magn:    0.0000    constr:    0.0000
     atom:   14    charge:    1.9586    magn:   -0.0001    constr:    0.0000
     atom:   15    charge:    3.1188    magn:    0.0001    constr:    0.0000
     atom:   16    charge:    1.9446    magn:   -0.0001    constr:    0.0000
     atom:   17    charge:    1.9181    magn:    0.0004    constr:    0.0000
     atom:   18    charge:    3.1239    magn:   -0.0001    constr:    0.0000
     atom:   19    charge:    1.9408    magn:   -0.0000    constr:    0.0000
     atom:   20    charge:    1.9471    magn:    0.0000    constr:    0.0000
     atom:   21    charge:    1.9471    magn:    0.0000    constr:    0.0000
     atom:   22    charge:    3.1196    magn:    0.0000    constr:    0.0000
     atom:   23    charge:    1.9565    magn:   -0.0001    constr:    0.0000
     atom:   24    charge:    1.9380    magn:   -0.0001    constr:    0.0000
     atom:   25    charge:    1.9505    magn:   -0.0001    constr:    0.0000
     atom:   26    charge:    3.1145    magn:    0.0001    constr:    0.0000
     atom:   27    charge:    1.9399    magn:   -0.0001    constr:    0.0000
     atom:   28    charge:    1.9517    magn:   -0.0001    constr:    0.0000
     atom:   29    charge:    1.9476    magn:   -0.0001    constr:    0.0000
     atom:   30    charge:    3.1167    magn:    0.0000    constr:    0.0000
     atom:   31    charge:    1.9447    magn:   -0.0000    constr:    0.0000
     atom:   32    charge:    1.9440    magn:   -0.0001    constr:    0.0000
     atom:   33    charge:    1.9181    magn:    0.0004    constr:    0.0000
     atom:   34    charge:    3.1239    magn:   -0.0001    constr:    0.0000
     atom:   35    charge:    1.9409    magn:   -0.0000    constr:    0.0000
     atom:   36    charge:    1.9471    magn:    0.0000    constr:    0.0000
     atom:   37    charge:    1.9471    magn:    0.0000    constr:    0.0000
     atom:   38    charge:    3.1196    magn:    0.0000    constr:    0.0000
     atom:   39    charge:    1.9548    magn:   -0.0001    constr:    0.0000
     atom:   40    charge:    1.9384    magn:   -0.0001    constr:    0.0000
     atom:   41    charge:    1.9505    magn:   -0.0001    constr:    0.0000
     atom:   42    charge:    3.1141    magn:    0.0001    constr:    0.0000
     atom:   43    charge:    1.9414    magn:   -0.0001    constr:    0.0000
     atom:   44    charge:    1.9517    magn:   -0.0001    constr:    0.0000
     atom:   45    charge:    1.9468    magn:   -0.0001    constr:    0.0000
     atom:   46    charge:    3.1166    magn:    0.0000    constr:    0.0000
     atom:   47    charge:    1.9428    magn:   -0.0000    constr:    0.0000
     atom:   48    charge:    1.9444    magn:   -0.0001    constr:    0.0000
     atom:   49    charge:    0.6556    magn:   -0.0001    constr:    0.0000
     atom:   50    charge:    1.9609    magn:   -0.0001    constr:    0.0000
     atom:   51    charge:    0.4032    magn:    0.0000    constr:    0.0000
     atom:   52    charge:    0.4000    magn:    0.0000    constr:    0.0000
     atom:   53    charge:    0.4017    magn:    0.0000    constr:    0.0000
     atom:   54    charge:    0.4023    magn:    0.0000    constr:    0.0000

     total cpu time spent up to now is      802.3 secs

     total energy              =   -3021.42348016 Ry
     Harris-Foulkes estimate   =   -3021.42695241 Ry
     estimated scf accuracy    <       0.02242435 Ry

     total magnetization       =     0.00 Bohr mag/cell
     absolute magnetization    =     0.01 Bohr mag/cell

     iteration #  2     ecut=    40.42 Ry     beta=0.10
     Davidson diagonalization with overlap
     ethr =  5.63E-06,  avg # of iterations =  2.4

     negative rho (up, down):  1.209E-02 1.209E-02
 
     Magnetic moment per site:
     atom:    1    charge:    3.1250    magn:   -0.0002    constr:    0.0000
     atom:    2    charge:    1.9451    magn:    0.0000    constr:    0.0000
     atom:    3    charge:    3.1198    magn:    0.0000    constr:    0.0000
     atom:    4    charge:    1.9504    magn:   -0.0000    constr:    0.0000
     atom:    5    charge:    3.1166    magn:    0.0000    constr:    0.0000
     atom:    6    charge:    1.9475    magn:   -0.0001    constr:    0.0000
     atom:    7    charge:    3.1162    magn:    0.0000    constr:    0.0000
     atom:    8    charge:    1.9455    magn:   -0.0001    constr:    0.0000
     atom:    9    charge:    3.1250    magn:   -0.0002    constr:    0.0000
     atom:   10    charge:    1.9452    magn:    0.0000    constr:    0.0000
     atom:   11    charge:    3.1197    magn:    0.0000    constr:    0.0000
     atom:   12    charge:    1.9504    magn:   -0.0000    constr:    0.0000
     atom:   13    charge:    3.1158    magn:    0.0000    constr:    0.0000
     atom:   14    charge:    1.9586    magn:   -0.0001    constr:    0.0000
     atom:   15    charge:    3.1188    magn:    0.0001    constr:    0.0000
     atom:   16    charge:    1.9448    magn:   -0.0001    constr:    0.0000
     atom:   17    charge:    1.9182    magn:    0.0004    constr:    0.0000
     atom:   18    charge:    3.1239    magn:   -0.0001    constr:    0.0000
     atom:   19    charge:    1.9408    magn:   -0.0000    constr:    0.0000
     atom:   20    charge:    1.9471    magn:    0.0000    constr:    0.0000
     atom:   21    charge:    1.9471    magn:    0.0000    constr:    0.0000
     atom:   22    charge:    3.1196    magn:    0.0000    constr:    0.0000
     atom:   23    charge:    1.9565    magn:   -0.0001    constr:    0.0000
     atom:   24    charge:    1.9380    magn:   -0.0000    constr:    0.0000
     atom:   25    charge:    1.9505    magn:   -0.0000    constr:    0.0000
     atom:   26    charge:    3.1145    magn:    0.0000    constr:    0.0000
     atom:   27    charge:    1.9399    magn:   -0.0001    constr:    0.0000
     atom:   28    charge:    1.9517    magn:   -0.0001    constr:    0.0000
     atom:   29    charge:    1.9476    magn:   -0.0001    constr:    0.0000
     atom:   30    charge:    3.1167    magn:    0.0000    constr:    0.0000
     atom:   31    charge:    1.9447    magn:   -0.0000    constr:    0.0000
     atom:   32    charge:    1.9440    magn:   -0.0001    constr:    0.0000
     atom:   33    charge:    1.9182    magn:    0.0004    constr:    0.0000
     atom:   34    charge:    3.1239    magn:   -0.0001    constr:    0.0000
     atom:   35    charge:    1.9408    magn:   -0.0000    constr:    0.0000
     atom:   36    charge:    1.9471    magn:    0.0000    constr:    0.0000
     atom:   37    charge:    1.9471    magn:    0.0000    constr:    0.0000
     atom:   38    charge:    3.1196    magn:    0.0000    constr:    0.0000
     atom:   39    charge:    1.9549    magn:   -0.0001    constr:    0.0000
     atom:   40    charge:    1.9383    magn:   -0.0000    constr:    0.0000
     atom:   41    charge:    1.9505    magn:   -0.0000    constr:    0.0000
     atom:   42    charge:    3.1141    magn:    0.0000    constr:    0.0000
     atom:   43    charge:    1.9414    magn:   -0.0001    constr:    0.0000
     atom:   44    charge:    1.9517    magn:   -0.0001    constr:    0.0000
     atom:   45    charge:    1.9468    magn:   -0.0001    constr:    0.0000
     atom:   46    charge:    3.1165    magn:    0.0000    constr:    0.0000
     atom:   47    charge:    1.9427    magn:   -0.0000    constr:    0.0000
     atom:   48    charge:    1.9444    magn:   -0.0001    constr:    0.0000
     atom:   49    charge:    0.6570    magn:   -0.0000    constr:    0.0000
     atom:   50    charge:    1.9667    magn:   -0.0001    constr:    0.0000
     atom:   51    charge:    0.4056    magn:    0.0000    constr:    0.0000
     atom:   52    charge:    0.3989    magn:    0.0000    constr:    0.0000
     atom:   53    charge:    0.3975    magn:    0.0000    constr:    0.0000
     atom:   54    charge:    0.3980    magn:    0.0000    constr:    0.0000

     total cpu time spent up to now is      988.9 secs

     total energy              =   -3021.41825440 Ry
     Harris-Foulkes estimate   =   -3021.42378188 Ry
     estimated scf accuracy    <       0.01345566 Ry

     total magnetization       =     0.00 Bohr mag/cell
     absolute magnetization    =     0.01 Bohr mag/cell

     iteration #  3     ecut=    40.42 Ry     beta=0.10
     Davidson diagonalization with overlap
     ethr =  3.38E-06,  avg # of iterations =  8.0

     negative rho (up, down):  1.209E-02 1.209E-02
 
     Magnetic moment per site:
     atom:    1    charge:    3.1250    magn:   -0.0001    constr:    0.0000
     atom:    2    charge:    1.9452    magn:    0.0000    constr:    0.0000
     atom:    3    charge:    3.1197    magn:    0.0000    constr:    0.0000
     atom:    4    charge:    1.9504    magn:   -0.0000    constr:    0.0000
     atom:    5    charge:    3.1166    magn:    0.0000    constr:    0.0000
     atom:    6    charge:    1.9477    magn:   -0.0001    constr:    0.0000
     atom:    7    charge:    3.1156    magn:    0.0000    constr:    0.0000
     atom:    8    charge:    1.9453    magn:   -0.0001    constr:    0.0000
     atom:    9    charge:    3.1250    magn:   -0.0001    constr:    0.0000
     atom:   10    charge:    1.9452    magn:    0.0000    constr:    0.0000
     atom:   11    charge:    3.1196    magn:    0.0000    constr:    0.0000
     atom:   12    charge:    1.9504    magn:   -0.0000    constr:    0.0000
     atom:   13    charge:    3.1158    magn:    0.0000    constr:    0.0000
     atom:   14    charge:    1.9587    magn:   -0.0001    constr:    0.0000
     atom:   15    charge:    3.1188    magn:    0.0000    constr:    0.0000
     atom:   16    charge:    1.9446    magn:   -0.0001    constr:    0.0000
     atom:   17    charge:    1.9186    magn:    0.0003    constr:    0.0000
     atom:   18    charge:    3.1240    magn:   -0.0001    constr:    0.0000
     atom:   19    charge:    1.9408    magn:   -0.0000    constr:    0.0000
     atom:   20    charge:    1.9471    magn:    0.0000    constr:    0.0000
     atom:   21    charge:    1.9471    magn:    0.0000    constr:    0.0000
     atom:   22    charge:    3.1197    magn:    0.0000    constr:    0.0000
     atom:   23    charge:    1.9567    magn:   -0.0001    constr:    0.0000
     atom:   24    charge:    1.9378    magn:   -0.0000    constr:    0.0000
     atom:   25    charge:    1.9505    magn:   -0.0000    constr:    0.0000
     atom:   26    charge:    3.1146    magn:    0.0000    constr:    0.0000
     atom:   27    charge:    1.9397    magn:   -0.0000    constr:    0.0000
     atom:   28    charge:    1.9517    magn:   -0.0001    constr:    0.0000
     atom:   29    charge:    1.9476    magn:   -0.0001    constr:    0.0000
     atom:   30    charge:    3.1166    magn:    0.0000    constr:    0.0000
     atom:   31    charge:    1.9447    magn:   -0.0000    constr:    0.0000
     atom:   32    charge:    1.9441    magn:   -0.0001    constr:    0.0000
     atom:   33    charge:    1.9186    magn:    0.0003    constr:    0.0000
     atom:   34    charge:    3.1240    magn:   -0.0001    constr:    0.0000
     atom:   35    charge:    1.9408    magn:   -0.0000    constr:    0.0000
     atom:   36    charge:    1.9471    magn:    0.0000    constr:    0.0000
     atom:   37    charge:    1.9471    magn:    0.0000    constr:    0.0000
     atom:   38    charge:    3.1197    magn:    0.0000    constr:    0.0000
     atom:   39    charge:    1.9550    magn:   -0.0001    constr:    0.0000
     atom:   40    charge:    1.9381    magn:   -0.0000    constr:    0.0000
     atom:   41    charge:    1.9505    magn:   -0.0000    constr:    0.0000
     atom:   42    charge:    3.1142    magn:    0.0000    constr:    0.0000
     atom:   43    charge:    1.9412    magn:   -0.0000    constr:    0.0000
     atom:   44    charge:    1.9518    magn:   -0.0001    constr:    0.0000
     atom:   45    charge:    1.9468    magn:   -0.0001    constr:    0.0000
     atom:   46    charge:    3.1164    magn:    0.0000    constr:    0.0000
     atom:   47    charge:    1.9431    magn:   -0.0000    constr:    0.0000
     atom:   48    charge:    1.9445    magn:   -0.0001    constr:    0.0000
     atom:   49    charge:    0.6577    magn:   -0.0000    constr:    0.0000
     atom:   50    charge:    1.9659    magn:   -0.0000    constr:    0.0000
     atom:   51    charge:    0.4067    magn:    0.0000    constr:    0.0000
     atom:   52    charge:    0.3989    magn:    0.0000    constr:    0.0000
     atom:   53    charge:    0.3959    magn:    0.0000    constr:    0.0000
     atom:   54    charge:    0.3964    magn:    0.0000    constr:    0.0000

     total cpu time spent up to now is     1272.6 secs

     total energy              =   -3021.41863122 Ry
     Harris-Foulkes estimate   =   -3021.41957964 Ry
     estimated scf accuracy    <       0.00266420 Ry

     total magnetization       =     0.00 Bohr mag/cell
     absolute magnetization    =     0.00 Bohr mag/cell

     iteration #  4     ecut=    40.42 Ry     beta=0.10
     Davidson diagonalization with overlap
     ethr =  6.69E-07,  avg # of iterations =  4.8

     negative rho (up, down):  1.209E-02 1.209E-02
 
     Magnetic moment per site:
     atom:    1    charge:    3.1250    magn:   -0.0001    constr:    0.0000
     atom:    2    charge:    1.9452    magn:    0.0000    constr:    0.0000
     atom:    3    charge:    3.1197    magn:    0.0000    constr:    0.0000
     atom:    4    charge:    1.9504    magn:   -0.0000    constr:    0.0000
     atom:    5    charge:    3.1166    magn:    0.0000    constr:    0.0000
     atom:    6    charge:    1.9478    magn:   -0.0001    constr:    0.0000
     atom:    7    charge:    3.1154    magn:    0.0000    constr:    0.0000
     atom:    8    charge:    1.9451    magn:   -0.0001    constr:    0.0000
     atom:    9    charge:    3.1250    magn:   -0.0001    constr:    0.0000
     atom:   10    charge:    1.9452    magn:    0.0000    constr:    0.0000
     atom:   11    charge:    3.1197    magn:    0.0000    constr:    0.0000
     atom:   12    charge:    1.9503    magn:   -0.0000    constr:    0.0000
     atom:   13    charge:    3.1158    magn:    0.0000    constr:    0.0000
     atom:   14    charge:    1.9587    magn:   -0.0001    constr:    0.0000
     atom:   15    charge:    3.1188    magn:    0.0000    constr:    0.0000
     atom:   16    charge:    1.9444    magn:   -0.0001    constr:    0.0000
     atom:   17    charge:    1.9185    magn:    0.0003    constr:    0.0000
     atom:   18    charge:    3.1240    magn:   -0.0001    constr:    0.0000
     atom:   19    charge:    1.9408    magn:   -0.0000    constr:    0.0000
     atom:   20    charge:    1.9471    magn:    0.0000    constr:    0.0000
     atom:   21    charge:    1.9471    magn:    0.0000    constr:    0.0000
     atom:   22    charge:    3.1196    magn:    0.0000    constr:    0.0000
     atom:   23    charge:    1.9567    magn:   -0.0001    constr:    0.0000
     atom:   24    charge:    1.9378    magn:   -0.0000    constr:    0.0000
     atom:   25    charge:    1.9505    magn:   -0.0000    constr:    0.0000
     atom:   26    charge:    3.1145    magn:    0.0000    constr:    0.0000
     atom:   27    charge:    1.9397    magn:   -0.0000    constr:    0.0000
     atom:   28    charge:    1.9517    magn:   -0.0000    constr:    0.0000
     atom:   29    charge:    1.9476    magn:   -0.0001    constr:    0.0000
     atom:   30    charge:    3.1166    magn:    0.0000    constr:    0.0000
     atom:   31    charge:    1.9447    magn:   -0.0000    constr:    0.0000
     atom:   32    charge:    1.9441    magn:   -0.0001    constr:    0.0000
     atom:   33    charge:    1.9185    magn:    0.0003    constr:    0.0000
     atom:   34    charge:    3.1240    magn:   -0.0001    constr:    0.0000
     atom:   35    charge:    1.9408    magn:   -0.0000    constr:    0.0000
     atom:   36    charge:    1.9471    magn:    0.0000    constr:    0.0000
     atom:   37    charge:    1.9471    magn:    0.0000    constr:    0.0000
     atom:   38    charge:    3.1196    magn:    0.0000    constr:    0.0000
     atom:   39    charge:    1.9550    magn:   -0.0001    constr:    0.0000
     atom:   40    charge:    1.9382    magn:   -0.0000    constr:    0.0000
     atom:   41    charge:    1.9505    magn:   -0.0000    constr:    0.0000
     atom:   42    charge:    3.1142    magn:    0.0000    constr:    0.0000
     atom:   43    charge:    1.9413    magn:   -0.0000    constr:    0.0000
     atom:   44    charge:    1.9518    magn:   -0.0000    constr:    0.0000
     atom:   45    charge:    1.9469    magn:   -0.0001    constr:    0.0000
     atom:   46    charge:    3.1165    magn:    0.0000    constr:    0.0000
     atom:   47    charge:    1.9432    magn:   -0.0000    constr:    0.0000
     atom:   48    charge:    1.9445    magn:   -0.0001    constr:    0.0000
     atom:   49    charge:    0.6583    magn:   -0.0000    constr:    0.0000
     atom:   50    charge:    1.9636    magn:   -0.0000    constr:    0.0000
     atom:   51    charge:    0.4078    magn:    0.0000    constr:    0.0000
     atom:   52    charge:    0.3992    magn:    0.0000    constr:    0.0000
     atom:   53    charge:    0.3946    magn:    0.0000    constr:    0.0000
     atom:   54    charge:    0.3951    magn:    0.0000    constr:    0.0000

     total cpu time spent up to now is     1495.4 secs

     total energy              =   -3021.41842263 Ry
     Harris-Foulkes estimate   =   -3021.41877905 Ry
     estimated scf accuracy    <       0.00076529 Ry

     total magnetization       =     0.00 Bohr mag/cell
     absolute magnetization    =     0.00 Bohr mag/cell

     iteration #  5     ecut=    40.42 Ry     beta=0.10
     Davidson diagonalization with overlap
     c_bands:  1 eigenvalues not converged
     ethr =  1.92E-07,  avg # of iterations =  5.2

     negative rho (up, down):  1.208E-02 1.208E-02
 
     Magnetic moment per site:
     atom:    1    charge:    3.1250    magn:   -0.0001    constr:    0.0000
     atom:    2    charge:    1.9451    magn:    0.0000    constr:    0.0000
     atom:    3    charge:    3.1198    magn:    0.0000    constr:    0.0000
     atom:    4    charge:    1.9504    magn:   -0.0000    constr:    0.0000
     atom:    5    charge:    3.1166    magn:    0.0000    constr:    0.0000
     atom:    6    charge:    1.9477    magn:   -0.0000    constr:    0.0000
     atom:    7    charge:    3.1157    magn:    0.0000    constr:    0.0000
     atom:    8    charge:    1.9451    magn:   -0.0000    constr:    0.0000
     atom:    9    charge:    3.1250    magn:   -0.0001    constr:    0.0000
     atom:   10    charge:    1.9452    magn:    0.0000    constr:    0.0000
     atom:   11    charge:    3.1197    magn:    0.0000    constr:    0.0000
     atom:   12    charge:    1.9504    magn:   -0.0000    constr:    0.0000
     atom:   13    charge:    3.1158    magn:    0.0000    constr:    0.0000
     atom:   14    charge:    1.9587    magn:   -0.0000    constr:    0.0000
     atom:   15    charge:    3.1188    magn:    0.0000    constr:    0.0000
     atom:   16    charge:    1.9444    magn:   -0.0000    constr:    0.0000
     atom:   17    charge:    1.9184    magn:    0.0002    constr:    0.0000
     atom:   18    charge:    3.1239    magn:   -0.0000    constr:    0.0000
     atom:   19    charge:    1.9408    magn:   -0.0000    constr:    0.0000
     atom:   20    charge:    1.9471    magn:    0.0000    constr:    0.0000
     atom:   21    charge:    1.9471    magn:    0.0000    constr:    0.0000
     atom:   22    charge:    3.1196    magn:    0.0000    constr:    0.0000
     atom:   23    charge:    1.9566    magn:   -0.0000    constr:    0.0000
     atom:   24    charge:    1.9380    magn:   -0.0000    constr:    0.0000
     atom:   25    charge:    1.9505    magn:   -0.0000    constr:    0.0000
     atom:   26    charge:    3.1145    magn:    0.0000    constr:    0.0000
     atom:   27    charge:    1.9399    magn:   -0.0000    constr:    0.0000
     atom:   28    charge:    1.9517    magn:   -0.0000    constr:    0.0000
     atom:   29    charge:    1.9476    magn:   -0.0000    constr:    0.0000
     atom:   30    charge:    3.1167    magn:    0.0000    constr:    0.0000
     atom:   31    charge:    1.9447    magn:   -0.0000    constr:    0.0000
     atom:   32    charge:    1.9440    magn:   -0.0000    constr:    0.0000
     atom:   33    charge:    1.9184    magn:    0.0002    constr:    0.0000
     atom:   34    charge:    3.1239    magn:   -0.0000    constr:    0.0000
     atom:   35    charge:    1.9408    magn:   -0.0000    constr:    0.0000
     atom:   36    charge:    1.9471    magn:    0.0000    constr:    0.0000
     atom:   37    charge:    1.9471    magn:    0.0000    constr:    0.0000
     atom:   38    charge:    3.1196    magn:    0.0000    constr:    0.0000
     atom:   39    charge:    1.9549    magn:   -0.0000    constr:    0.0000
     atom:   40    charge:    1.9383    magn:   -0.0000    constr:    0.0000
     atom:   41    charge:    1.9505    magn:   -0.0000    constr:    0.0000
     atom:   42    charge:    3.1141    magn:    0.0000    constr:    0.0000
     atom:   43    charge:    1.9413    magn:   -0.0000    constr:    0.0000
     atom:   44    charge:    1.9517    magn:   -0.0000    constr:    0.0000
     atom:   45    charge:    1.9469    magn:   -0.0000    constr:    0.0000
     atom:   46    charge:    3.1165    magn:    0.0000    constr:    0.0000
     atom:   47    charge:    1.9432    magn:   -0.0000    constr:    0.0000
     atom:   48    charge:    1.9444    magn:   -0.0000    constr:    0.0000
     atom:   49    charge:    0.6582    magn:   -0.0000    constr:    0.0000
     atom:   50    charge:    1.9613    magn:   -0.0000    constr:    0.0000
     atom:   51    charge:    0.4076    magn:    0.0000    constr:    0.0000
     atom:   52    charge:    0.3997    magn:    0.0000    constr:    0.0000
     atom:   53    charge:    0.3951    magn:    0.0000    constr:    0.0000
     atom:   54    charge:    0.3956    magn:    0.0000    constr:    0.0000

     total cpu time spent up to now is     1728.4 secs

     total energy              =   -3021.41845837 Ry
     Harris-Foulkes estimate   =   -3021.41851929 Ry
     estimated scf accuracy    <       0.00016010 Ry

     total magnetization       =     0.00 Bohr mag/cell
     absolute magnetization    =     0.00 Bohr mag/cell

     iteration #  6     ecut=    40.42 Ry     beta=0.10
     Davidson diagonalization with overlap
     ethr =  4.02E-08,  avg # of iterations =  3.0

     negative rho (up, down):  1.208E-02 1.208E-02
 
     Magnetic moment per site:
     atom:    1    charge:    3.1250    magn:   -0.0001    constr:    0.0000
     atom:    2    charge:    1.9451    magn:    0.0000    constr:    0.0000
     atom:    3    charge:    3.1198    magn:    0.0000    constr:    0.0000
     atom:    4    charge:    1.9504    magn:   -0.0000    constr:    0.0000
     atom:    5    charge:    3.1166    magn:    0.0000    constr:    0.0000
     atom:    6    charge:    1.9476    magn:   -0.0000    constr:    0.0000
     atom:    7    charge:    3.1157    magn:    0.0000    constr:    0.0000
     atom:    8    charge:    1.9452    magn:   -0.0000    constr:    0.0000
     atom:    9    charge:    3.1250    magn:   -0.0001    constr:    0.0000
     atom:   10    charge:    1.9452    magn:    0.0000    constr:    0.0000
     atom:   11    charge:    3.1197    magn:    0.0000    constr:    0.0000
     atom:   12    charge:    1.9504    magn:   -0.0000    constr:    0.0000
     atom:   13    charge:    3.1158    magn:    0.0000    constr:    0.0000
     atom:   14    charge:    1.9587    magn:   -0.0000    constr:    0.0000
     atom:   15    charge:    3.1188    magn:    0.0000    constr:    0.0000
     atom:   16    charge:    1.9445    magn:   -0.0000    constr:    0.0000
     atom:   17    charge:    1.9184    magn:    0.0002    constr:    0.0000
     atom:   18    charge:    3.1239    magn:   -0.0000    constr:    0.0000
     atom:   19    charge:    1.9408    magn:   -0.0000    constr:    0.0000
     atom:   20    charge:    1.9471    magn:    0.0000    constr:    0.0000
     atom:   21    charge:    1.9471    magn:    0.0000    constr:    0.0000
     atom:   22    charge:    3.1196    magn:    0.0000    constr:    0.0000
     atom:   23    charge:    1.9566    magn:   -0.0000    constr:    0.0000
     atom:   24    charge:    1.9379    magn:   -0.0000    constr:    0.0000
     atom:   25    charge:    1.9505    magn:   -0.0000    constr:    0.0000
     atom:   26    charge:    3.1145    magn:    0.0000    constr:    0.0000
     atom:   27    charge:    1.9398    magn:   -0.0000    constr:    0.0000
     atom:   28    charge:    1.9517    magn:   -0.0000    constr:    0.0000
     atom:   29    charge:    1.9476    magn:   -0.0000    constr:    0.0000
     atom:   30    charge:    3.1167    magn:    0.0000    constr:    0.0000
     atom:   31    charge:    1.9447    magn:   -0.0000    constr:    0.0000
     atom:   32    charge:    1.9440    magn:   -0.0000    constr:    0.0000
     atom:   33    charge:    1.9184    magn:    0.0002    constr:    0.0000
     atom:   34    charge:    3.1239    magn:   -0.0000    constr:    0.0000
     atom:   35    charge:    1.9408    magn:   -0.0000    constr:    0.0000
     atom:   36    charge:    1.9471    magn:    0.0000    constr:    0.0000
     atom:   37    charge:    1.9471    magn:    0.0000    constr:    0.0000
     atom:   38    charge:    3.1196    magn:    0.0000    constr:    0.0000
     atom:   39    charge:    1.9549    magn:   -0.0000    constr:    0.0000
     atom:   40    charge:    1.9383    magn:   -0.0000    constr:    0.0000
     atom:   41    charge:    1.9505    magn:   -0.0000    constr:    0.0000
     atom:   42    charge:    3.1141    magn:    0.0000    constr:    0.0000
     atom:   43    charge:    1.9413    magn:   -0.0000    constr:    0.0000
     atom:   44    charge:    1.9517    magn:   -0.0000    constr:    0.0000
     atom:   45    charge:    1.9468    magn:   -0.0000    constr:    0.0000
     atom:   46    charge:    3.1165    magn:    0.0000    constr:    0.0000
     atom:   47    charge:    1.9431    magn:   -0.0000    constr:    0.0000
     atom:   48    charge:    1.9444    magn:   -0.0000    constr:    0.0000
     atom:   49    charge:    0.6583    magn:   -0.0000    constr:    0.0000
     atom:   50    charge:    1.9615    magn:   -0.0000    constr:    0.0000
     atom:   51    charge:    0.4077    magn:    0.0000    constr:    0.0000
     atom:   52    charge:    0.3997    magn:    0.0000    constr:    0.0000
     atom:   53    charge:    0.3949    magn:    0.0000    constr:    0.0000
     atom:   54    charge:    0.3954    magn:    0.0000    constr:    0.0000

     total cpu time spent up to now is     1931.6 secs

     total energy              =   -3021.41847742 Ry
     Harris-Foulkes estimate   =   -3021.41848623 Ry
     estimated scf accuracy    <       0.00003086 Ry

     total magnetization       =     0.00 Bohr mag/cell
     absolute magnetization    =     0.00 Bohr mag/cell

     iteration #  7     ecut=    40.42 Ry     beta=0.10
     Davidson diagonalization with overlap
     ethr =  7.75E-09,  avg # of iterations =  4.0

     negative rho (up, down):  1.208E-02 1.208E-02
 
     Magnetic moment per site:
     atom:    1    charge:    3.1250    magn:   -0.0001    constr:    0.0000
     atom:    2    charge:    1.9452    magn:    0.0000    constr:    0.0000
     atom:    3    charge:    3.1198    magn:    0.0000    constr:    0.0000
     atom:    4    charge:    1.9504    magn:   -0.0000    constr:    0.0000
     atom:    5    charge:    3.1166    magn:    0.0000    constr:    0.0000
     atom:    6    charge:    1.9476    magn:   -0.0000    constr:    0.0000
     atom:    7    charge:    3.1157    magn:    0.0000    constr:    0.0000
     atom:    8    charge:    1.9453    magn:   -0.0000    constr:    0.0000
     atom:    9    charge:    3.1250    magn:   -0.0001    constr:    0.0000
     atom:   10    charge:    1.9452    magn:    0.0000    constr:    0.0000
     atom:   11    charge:    3.1197    magn:    0.0000    constr:    0.0000
     atom:   12    charge:    1.9504    magn:   -0.0000    constr:    0.0000
     atom:   13    charge:    3.1158    magn:    0.0000    constr:    0.0000
     atom:   14    charge:    1.9587    magn:   -0.0000    constr:    0.0000
     atom:   15    charge:    3.1188    magn:    0.0000    constr:    0.0000
     atom:   16    charge:    1.9446    magn:   -0.0000    constr:    0.0000
     atom:   17    charge:    1.9184    magn:    0.0002    constr:    0.0000
     atom:   18    charge:    3.1239    magn:   -0.0000    constr:    0.0000
     atom:   19    charge:    1.9408    magn:   -0.0000    constr:    0.0000
     atom:   20    charge:    1.9471    magn:    0.0000    constr:    0.0000
     atom:   21    charge:    1.9471    magn:    0.0000    constr:    0.0000
     atom:   22    charge:    3.1196    magn:    0.0000    constr:    0.0000
     atom:   23    charge:    1.9566    magn:   -0.0000    constr:    0.0000
     atom:   24    charge:    1.9379    magn:   -0.0000    constr:    0.0000
     atom:   25    charge:    1.9505    magn:   -0.0000    constr:    0.0000
     atom:   26    charge:    3.1145    magn:    0.0000    constr:    0.0000
     atom:   27    charge:    1.9398    magn:   -0.0000    constr:    0.0000
     atom:   28    charge:    1.9517    magn:   -0.0000    constr:    0.0000
     atom:   29    charge:    1.9476    magn:   -0.0000    constr:    0.0000
     atom:   30    charge:    3.1167    magn:    0.0000    constr:    0.0000
     atom:   31    charge:    1.9447    magn:   -0.0000    constr:    0.0000
     atom:   32    charge:    1.9440    magn:   -0.0000    constr:    0.0000
     atom:   33    charge:    1.9184    magn:    0.0002    constr:    0.0000
     atom:   34    charge:    3.1239    magn:   -0.0000    constr:    0.0000
     atom:   35    charge:    1.9408    magn:   -0.0000    constr:    0.0000
     atom:   36    charge:    1.9471    magn:    0.0000    constr:    0.0000
     atom:   37    charge:    1.9471    magn:    0.0000    constr:    0.0000
     atom:   38    charge:    3.1196    magn:    0.0000    constr:    0.0000
     atom:   39    charge:    1.9549    magn:   -0.0000    constr:    0.0000
     atom:   40    charge:    1.9383    magn:   -0.0000    constr:    0.0000
     atom:   41    charge:    1.9505    magn:   -0.0000    constr:    0.0000
     atom:   42    charge:    3.1141    magn:    0.0000    constr:    0.0000
     atom:   43    charge:    1.9413    magn:   -0.0000    constr:    0.0000
     atom:   44    charge:    1.9517    magn:   -0.0000    constr:    0.0000
     atom:   45    charge:    1.9468    magn:   -0.0000    constr:    0.0000
     atom:   46    charge:    3.1165    magn:    0.0000    constr:    0.0000
     atom:   47    charge:    1.9431    magn:   -0.0000    constr:    0.0000
     atom:   48    charge:    1.9444    magn:   -0.0000    constr:    0.0000
     atom:   49    charge:    0.6583    magn:   -0.0000    constr:    0.0000
     atom:   50    charge:    1.9612    magn:   -0.0000    constr:    0.0000
     atom:   51    charge:    0.4075    magn:    0.0000    constr:    0.0000
     atom:   52    charge:    0.3998    magn:    0.0000    constr:    0.0000
     atom:   53    charge:    0.3953    magn:    0.0000    constr:    0.0000
     atom:   54    charge:    0.3958    magn:    0.0000    constr:    0.0000

     total cpu time spent up to now is     2149.7 secs

     total energy              =   -3021.41847799 Ry
     Harris-Foulkes estimate   =   -3021.41848402 Ry
     estimated scf accuracy    <       0.00001786 Ry

     total magnetization       =     0.00 Bohr mag/cell
     absolute magnetization    =     0.00 Bohr mag/cell

     iteration #  8     ecut=    40.42 Ry     beta=0.10
     Davidson diagonalization with overlap
     ethr =  4.49E-09,  avg # of iterations =  3.0

     negative rho (up, down):  1.208E-02 1.208E-02
 
     Magnetic moment per site:
     atom:    1    charge:    3.1250    magn:   -0.0001    constr:    0.0000
     atom:    2    charge:    1.9452    magn:    0.0000    constr:    0.0000
     atom:    3    charge:    3.1198    magn:    0.0000    constr:    0.0000
     atom:    4    charge:    1.9504    magn:   -0.0000    constr:    0.0000
     atom:    5    charge:    3.1166    magn:    0.0000    constr:    0.0000
     atom:    6    charge:    1.9477    magn:   -0.0000    constr:    0.0000
     atom:    7    charge:    3.1157    magn:    0.0000    constr:    0.0000
     atom:    8    charge:    1.9452    magn:   -0.0000    constr:    0.0000
     atom:    9    charge:    3.1250    magn:   -0.0001    constr:    0.0000
     atom:   10    charge:    1.9452    magn:    0.0000    constr:    0.0000
     atom:   11    charge:    3.1197    magn:    0.0000    constr:    0.0000
     atom:   12    charge:    1.9504    magn:   -0.0000    constr:    0.0000
     atom:   13    charge:    3.1158    magn:    0.0000    constr:    0.0000
     atom:   14    charge:    1.9587    magn:   -0.0000    constr:    0.0000
     atom:   15    charge:    3.1188    magn:    0.0000    constr:    0.0000
     atom:   16    charge:    1.9446    magn:   -0.0000    constr:    0.0000
     atom:   17    charge:    1.9184    magn:    0.0001    constr:    0.0000
     atom:   18    charge:    3.1239    magn:   -0.0000    constr:    0.0000
     atom:   19    charge:    1.9408    magn:   -0.0000    constr:    0.0000
     atom:   20    charge:    1.9471    magn:    0.0000    constr:    0.0000
     atom:   21    charge:    1.9471    magn:    0.0000    constr:    0.0000
     atom:   22    charge:    3.1196    magn:    0.0000    constr:    0.0000
     atom:   23    charge:    1.9566    magn:   -0.0000    constr:    0.0000
     atom:   24    charge:    1.9379    magn:   -0.0000    constr:    0.0000
     atom:   25    charge:    1.9505    magn:   -0.0000    constr:    0.0000
     atom:   26    charge:    3.1145    magn:    0.0000    constr:    0.0000
     atom:   27    charge:    1.9398    magn:   -0.0000    constr:    0.0000
     atom:   28    charge:    1.9517    magn:   -0.0000    constr:    0.0000
     atom:   29    charge:    1.9476    magn:   -0.0000    constr:    0.0000
     atom:   30    charge:    3.1167    magn:    0.0000    constr:    0.0000
     atom:   31    charge:    1.9447    magn:   -0.0000    constr:    0.0000
     atom:   32    charge:    1.9440    magn:   -0.0000    constr:    0.0000
     atom:   33    charge:    1.9184    magn:    0.0001    constr:    0.0000
     atom:   34    charge:    3.1239    magn:   -0.0000    constr:    0.0000
     atom:   35    charge:    1.9408    magn:   -0.0000    constr:    0.0000
     atom:   36    charge:    1.9471    magn:    0.0000    constr:    0.0000
     atom:   37    charge:    1.9471    magn:    0.0000    constr:    0.0000
     atom:   38    charge:    3.1196    magn:    0.0000    constr:    0.0000
     atom:   39    charge:    1.9549    magn:   -0.0000    constr:    0.0000
     atom:   40    charge:    1.9383    magn:   -0.0000    constr:    0.0000
     atom:   41    charge:    1.9505    magn:   -0.0000    constr:    0.0000
     atom:   42    charge:    3.1141    magn:    0.0000    constr:    0.0000
     atom:   43    charge:    1.9413    magn:   -0.0000    constr:    0.0000
     atom:   44    charge:    1.9517    magn:   -0.0000    constr:    0.0000
     atom:   45    charge:    1.9468    magn:   -0.0000    constr:    0.0000
     atom:   46    charge:    3.1165    magn:    0.0000    constr:    0.0000
     atom:   47    charge:    1.9431    magn:   -0.0000    constr:    0.0000
     atom:   48    charge:    1.9444    magn:   -0.0000    constr:    0.0000
     atom:   49    charge:    0.6584    magn:   -0.0000    constr:    0.0000
     atom:   50    charge:    1.9613    magn:   -0.0000    constr:    0.0000
     atom:   51    charge:    0.4074    magn:    0.0000    constr:    0.0000
     atom:   52    charge:    0.3998    magn:    0.0000    constr:    0.0000
     atom:   53    charge:    0.3955    magn:    0.0000    constr:    0.0000
     atom:   54    charge:    0.3960    magn:    0.0000    constr:    0.0000

     total cpu time spent up to now is     2350.8 secs

     total energy              =   -3021.41847971 Ry
     Harris-Foulkes estimate   =   -3021.41848001 Ry
     estimated scf accuracy    <       0.00000323 Ry

     total magnetization       =     0.00 Bohr mag/cell
     absolute magnetization    =     0.00 Bohr mag/cell

     iteration #  9     ecut=    40.42 Ry     beta=0.10
     Davidson diagonalization with overlap
     ethr =  8.12E-10,  avg # of iterations =  3.0

     negative rho (up, down):  1.208E-02 1.208E-02
 
     Magnetic moment per site:
     atom:    1    charge:    3.1250    magn:   -0.0000    constr:    0.0000
     atom:    2    charge:    1.9451    magn:    0.0000    constr:    0.0000
     atom:    3    charge:    3.1198    magn:    0.0000    constr:    0.0000
     atom:    4    charge:    1.9504    magn:   -0.0000    constr:    0.0000
     atom:    5    charge:    3.1166    magn:    0.0000    constr:    0.0000
     atom:    6    charge:    1.9476    magn:   -0.0000    constr:    0.0000
     atom:    7    charge:    3.1158    magn:    0.0000    constr:    0.0000
     atom:    8    charge:    1.9452    magn:   -0.0000    constr:    0.0000
     atom:    9    charge:    3.1250    magn:   -0.0000    constr:    0.0000
     atom:   10    charge:    1.9452    magn:    0.0000    constr:    0.0000
     atom:   11    charge:    3.1197    magn:    0.0000    constr:    0.0000
     atom:   12    charge:    1.9504    magn:   -0.0000    constr:    0.0000
     atom:   13    charge:    3.1158    magn:    0.0000    constr:    0.0000
     atom:   14    charge:    1.9587    magn:   -0.0000    constr:    0.0000
     atom:   15    charge:    3.1188    magn:    0.0000    constr:    0.0000
     atom:   16    charge:    1.9445    magn:   -0.0000    constr:    0.0000
     atom:   17    charge:    1.9184    magn:    0.0001    constr:    0.0000
     atom:   18    charge:    3.1239    magn:   -0.0000    constr:    0.0000
     atom:   19    charge:    1.9408    magn:   -0.0000    constr:    0.0000
     atom:   20    charge:    1.9471    magn:    0.0000    constr:    0.0000
     atom:   21    charge:    1.9471    magn:    0.0000    constr:    0.0000
     atom:   22    charge:    3.1196    magn:    0.0000    constr:    0.0000
     atom:   23    charge:    1.9566    magn:   -0.0000    constr:    0.0000
     atom:   24    charge:    1.9379    magn:   -0.0000    constr:    0.0000
     atom:   25    charge:    1.9505    magn:   -0.0000    constr:    0.0000
     atom:   26    charge:    3.1145    magn:    0.0000    constr:    0.0000
     atom:   27    charge:    1.9398    magn:   -0.0000    constr:    0.0000
     atom:   28    charge:    1.9517    magn:   -0.0000    constr:    0.0000
     atom:   29    charge:    1.9476    magn:   -0.0000    constr:    0.0000
     atom:   30    charge:    3.1167    magn:    0.0000    constr:    0.0000
     atom:   31    charge:    1.9447    magn:   -0.0000    constr:    0.0000
     atom:   32    charge:    1.9440    magn:   -0.0000    constr:    0.0000
     atom:   33    charge:    1.9184    magn:    0.0001    constr:    0.0000
     atom:   34    charge:    3.1239    magn:   -0.0000    constr:    0.0000
     atom:   35    charge:    1.9408    magn:   -0.0000    constr:    0.0000
     atom:   36    charge:    1.9471    magn:    0.0000    constr:    0.0000
     atom:   37    charge:    1.9471    magn:    0.0000    constr:    0.0000
     atom:   38    charge:    3.1196    magn:    0.0000    constr:    0.0000
     atom:   39    charge:    1.9549    magn:   -0.0000    constr:    0.0000
     atom:   40    charge:    1.9383    magn:   -0.0000    constr:    0.0000
     atom:   41    charge:    1.9505    magn:   -0.0000    constr:    0.0000
     atom:   42    charge:    3.1141    magn:    0.0000    constr:    0.0000
     atom:   43    charge:    1.9413    magn:   -0.0000    constr:    0.0000
     atom:   44    charge:    1.9517    magn:   -0.0000    constr:    0.0000
     atom:   45    charge:    1.9469    magn:   -0.0000    constr:    0.0000
     atom:   46    charge:    3.1165    magn:    0.0000    constr:    0.0000
     atom:   47    charge:    1.9431    magn:   -0.0000    constr:    0.0000
     atom:   48    charge:    1.9444    magn:   -0.0000    constr:    0.0000
     atom:   49    charge:    0.6586    magn:   -0.0000    constr:    0.0000
     atom:   50    charge:    1.9613    magn:   -0.0000    constr:    0.0000
     atom:   51    charge:    0.4074    magn:    0.0000    constr:    0.0000
     atom:   52    charge:    0.3998    magn:    0.0000    constr:    0.0000
     atom:   53    charge:    0.3956    magn:    0.0000    constr:    0.0000
     atom:   54    charge:    0.3961    magn:    0.0000    constr:    0.0000

     total cpu time spent up to now is     2548.1 secs

     End of self-consistent calculation

 ------ SPIN UP ------------


          k = 0.0000 0.0000 0.0000 ( 34665 PWs)   bands (ev):

   -57.7128 -57.6778 -57.3351 -57.2988 -57.2527 -57.1252 -57.0889 -57.0880
   -57.0709 -57.0534 -57.0075 -56.9720 -56.7488 -56.7113 -56.1629 -56.1276
   -34.1488 -33.9950 -33.9665 -33.9137 -33.8874 -33.8194 -33.7590 -33.6735
   -33.6361 -33.6206 -33.5834 -33.5581 -33.5360 -33.5251 -33.5071 -33.5059
   -33.4850 -33.4717 -33.4510 -33.4143 -33.3398 -33.3075 -33.2872 -33.2779
   -33.2748 -33.2717 -33.2612 -33.2588 -33.2527 -33.2494 -33.2452 -33.2279
   -33.1977 -33.1974 -33.1904 -33.1583 -33.1357 -33.0148 -32.9971 -32.9760
   -32.9263 -32.8234 -32.5807 -32.5152 -32.4891 -32.3849 -32.2932 -32.1849
   -20.5017 -18.0298 -17.8559 -17.5743 -17.4804 -17.3902 -17.2690 -17.0938
   -17.0800 -16.9915 -16.9537 -16.8979 -16.8017 -16.7953 -16.7495 -16.7232
   -16.7217 -16.6802 -16.6249 -16.6248 -16.5516 -16.4331 -16.4206 -16.4125
   -16.3419 -16.2833 -16.2108 -16.1831 -16.1649 -15.9978 -15.9470 -14.7469
   -14.6631 -11.4430  -7.3512  -5.5809  -5.4172  -5.3622  -5.2234  -5.1632
    -5.1484  -5.1336  -4.8549  -4.8282  -4.4873  -4.4602  -4.3743  -4.3724
    -4.3390  -4.2467  -4.1063  -4.0777  -4.0723  -4.0333  -4.0166  -4.0076
    -3.9744  -3.9715  -3.9659  -3.8556  -3.8048  -3.7850  -3.7533  -3.7329
    -3.6483  -3.6336  -3.6059  -3.5947  -3.5353  -3.5225  -3.4248  -3.4082
    -3.3851  -3.2758  -3.2466  -3.1908  -3.0292  -2.9511  -2.8925  -2.8441
    -2.7098  -2.6261  -2.6054  -2.5940  -2.5924  -2.5870  -2.4472  -2.4306
    -2.3510  -2.2847  -2.2629  -2.2204  -2.2167  -2.1750  -2.1556  -2.1094
    -2.0640  -2.0475  -2.0373  -1.9020  -1.8798  -1.7675  -1.7531  -1.6385
    -1.5614  -1.5559  -1.5074  -1.4978  -1.4787  -1.4391  -1.3393  -1.3250
    -1.3182  -1.2964  -1.2593  -1.1530  -1.1024  -1.0850  -1.0785  -1.0371
    -0.9711  -0.9325  -0.8291  -0.7772  -0.6261  -0.6031  -0.5833  -0.4978
    -0.3936  -0.2549  -0.0982  -0.0429   0.1179   0.2350   0.2487   1.6288
     1.6609   1.9701   1.9881   2.0480   2.0757   2.1895   2.2264   2.2699
     2.4124   2.4810   2.5100   2.5169   2.5264   2.6147   2.6330   2.6422
     2.6989   2.7832   2.8089   2.8211   2.8930   2.9815   3.0155   3.0796
     3.0914   3.0954   3.1457   3.1863   3.1912   3.2130   3.2233   3.2344
     3.2469   3.2716   3.3794   3.4181   3.4392   3.4490   3.5147   3.5683
     3.6355   3.6781   3.7902   3.9638   3.9998   4.0742   4.1665   4.3082
     4.3209   4.3782   4.5820   4.5897   4.7986   4.8217   5.0717   5.1495
     5.2340   5.3169   5.4733   5.5019   5.5366   5.5743   5.6646   5.6925
     5.7845   5.8491   5.8603   5.8721   5.9374   6.0343   6.0496   6.0669
     6.1310   6.2134   6.2234   6.2799   6.3628   6.5765   6.6200   6.7579
     6.8277   7.0058   7.0345   7.1638   7.2889   7.5977   7.9051   8.2441
     8.2999   8.6998   8.7842   8.8866   8.9383   9.0113   9.2012   9.3445
     9.3456   9.3919   9.5420

          k = 0.0000 0.0280 0.0000 ( 34717 PWs)   bands (ev):

   -57.7104 -57.6802 -57.3327 -57.3013 -57.2523 -57.1229 -57.0909 -57.0860
   -57.0713 -57.0557 -57.0051 -56.9744 -56.7464 -56.7138 -56.1605 -56.1300
   -34.1235 -33.9930 -33.9683 -33.9075 -33.8615 -33.8259 -33.7860 -33.6508
   -33.6293 -33.5957 -33.5580 -33.5552 -33.5381 -33.5181 -33.5119 -33.5016
   -33.4900 -33.4821 -33.4489 -33.4074 -33.3337 -33.3057 -33.3010 -33.2795
   -33.2792 -33.2726 -33.2678 -33.2551 -33.2536 -33.2519 -33.2514 -33.2356
   -33.2183 -33.2026 -33.1944 -33.1622 -33.1590 -33.0109 -32.9957 -32.9774
   -32.9314 -32.8514 -32.5550 -32.5135 -32.4910 -32.3788 -32.2995 -32.2124
   -20.5016 -17.9681 -17.7982 -17.5213 -17.4282 -17.3466 -17.2423 -17.1086
   -17.0497 -17.0128 -17.0088 -16.9003 -16.8371 -16.7792 -16.7274 -16.7067
   -16.6921 -16.6844 -16.6759 -16.6555 -16.6106 -16.4569 -16.4021 -16.3825
   -16.3685 -16.3129 -16.2278 -16.1904 -16.1680 -16.0286 -15.9839 -14.7569
   -14.6865 -11.4427  -7.3508  -5.5670  -5.3326  -5.2843  -5.1483  -5.1368
    -5.0853  -5.0673  -4.7793  -4.7169  -4.4529  -4.4166  -4.4089  -4.3288
    -4.3181  -4.1740  -4.1413  -4.1302  -4.1072  -4.0863  -4.0487  -4.0469
    -3.9809  -3.9779  -3.9666  -3.9083  -3.8706  -3.8634  -3.8563  -3.7823
    -3.7361  -3.7271  -3.6811  -3.6312  -3.5916  -3.5713  -3.4454  -3.3695
    -3.3158  -3.2517  -3.2027  -3.1164  -2.9497  -2.8868  -2.7578  -2.7407
    -2.6282  -2.6140  -2.5404  -2.5254  -2.4947  -2.4563  -2.4275  -2.4231
    -2.4034  -2.3793  -2.3025  -2.2930  -2.1830  -2.1576  -2.1520  -2.1121
    -2.0378  -2.0122  -1.9696  -1.8922  -1.8252  -1.7763  -1.7231  -1.6993
    -1.6599  -1.6432  -1.5811  -1.5417  -1.4963  -1.4561  -1.4520  -1.4125
    -1.3704  -1.2863  -1.2351  -1.2293  -1.1746  -1.1039  -1.0761  -1.0379
    -1.0226  -0.9200  -0.8744  -0.8069  -0.7741  -0.7223  -0.6243  -0.6095
    -0.4119  -0.2837  -0.1046  -0.0973   0.1328   0.1886   0.2152   1.7148
     1.7610   1.9717   2.0473   2.1111   2.1362   2.2015   2.2584   2.2963
     2.4076   2.4457   2.4852   2.5183   2.5695   2.5887   2.6133   2.6749
     2.7161   2.7532   2.7800   2.8940   2.9051   2.9327   2.9585   2.9949
     3.0929   3.0990   3.1195   3.1592   3.1771   3.1887   3.2408   3.2871
     3.3208   3.3558   3.3892   3.4559   3.4894   3.5377   3.5445   3.6349
     3.6481   3.6682   3.7541   3.9428   4.0164   4.0972   4.1773   4.2684
     4.3095   4.3833   4.5272   4.6890   4.8540   4.9082   5.0751   5.2423
     5.2902   5.3214   5.5218   5.5603   5.5848   5.6288   5.6692   5.7099
     5.7689   5.7767   5.8352   5.8612   5.8857   5.9340   6.0593   6.1141
     6.1359   6.1378   6.1735   6.1982   6.2598   6.5481   6.5874   6.6878
     6.8424   6.9387   6.9846   7.0878   7.2212   7.5960   7.9192   8.0095
     8.0512   8.4454   8.5767   8.8541   8.9559   9.0062   9.0854   9.1515
     9.2706   9.4567   9.5021

          k = 0.0000 0.0560 0.0000 ( 34721 PWs)   bands (ev):

   -57.7041 -57.6866 -57.3262 -57.3078 -57.2515 -57.1168 -57.0970 -57.0797
   -57.0722 -57.0621 -56.9986 -56.9809 -56.7398 -56.7205 -56.1541 -56.1365
   -34.0537 -33.9877 -33.9734 -33.8905 -33.8589 -33.8434 -33.7904 -33.6136
   -33.5930 -33.5896 -33.5526 -33.5448 -33.5222 -33.5214 -33.4966 -33.4879
   -33.4765 -33.4460 -33.4362 -33.3879 -33.3363 -33.3284 -33.3282 -33.3172
   -33.3014 -33.2919 -33.2838 -33.2831 -33.2691 -33.2637 -33.2498 -33.2477
   -33.2275 -33.2156 -33.1880 -33.1826 -33.1443 -33.0059 -32.9921 -32.9807
   -32.9443 -32.9211 -32.5087 -32.4957 -32.4843 -32.3622 -32.3164 -32.2865
   -20.5014 -17.7970 -17.6395 -17.3898 -17.2937 -17.2781 -17.2364 -17.1815
   -17.1531 -16.9798 -16.9669 -16.9334 -16.8901 -16.8394 -16.8064 -16.7393
   -16.7315 -16.7016 -16.6454 -16.6126 -16.5583 -16.5224 -16.4434 -16.3936
   -16.3800 -16.3166 -16.2566 -16.2117 -16.1719 -16.1289 -16.0570 -14.7751
   -14.7371 -11.4419  -7.3497  -5.5501  -5.1453  -5.0916  -5.0575  -4.9418
    -4.8745  -4.8443  -4.5773  -4.5232  -4.4901  -4.4345  -4.4240  -4.3833
    -4.3489  -4.2746  -4.2519  -4.2277  -4.2115  -4.2031  -4.1721  -4.0912
    -4.0748  -4.0229  -4.0067  -3.9856  -3.9455  -3.9098  -3.8753  -3.8330
    -3.8137  -3.7467  -3.6511  -3.6007  -3.4493  -3.4416  -3.3227  -3.2841
    -3.2560  -3.2252  -3.2067  -3.0970  -2.9005  -2.8591  -2.8514  -2.8151
    -2.7377  -2.6832  -2.5619  -2.4880  -2.4588  -2.3370  -2.3315  -2.3270
    -2.3195  -2.2659  -2.2237  -2.1957  -2.1617  -2.1333  -2.0473  -2.0274
    -1.9769  -1.9634  -1.9353  -1.9196  -1.8983  -1.8640  -1.8340  -1.7979
    -1.7607  -1.7105  -1.6422  -1.5584  -1.5441  -1.5265  -1.4733  -1.4361
    -1.3969  -1.3803  -1.3668  -1.3074  -1.2558  -1.2331  -1.1680  -1.1147
    -1.0846  -1.0394  -0.9368  -0.9021  -0.8674  -0.8001  -0.7804  -0.6739
    -0.6034  -0.4800  -0.2592   0.0781   0.1300   0.1653   0.1719   1.8505
     2.0106   2.0796   2.0950   2.1911   2.2175   2.2542   2.3486   2.3728
     2.3818   2.3944   2.4166   2.4608   2.4891   2.5194   2.6573   2.6780
     2.7154   2.7601   2.8144   2.8864   2.8981   2.9204   2.9552   2.9563
     2.9979   3.0820   3.1188   3.1406   3.2331   3.2440   3.2689   3.3146
     3.3507   3.3673   3.4252   3.5211   3.5278   3.6184   3.6597   3.7099
     3.7427   3.8085   3.8411   3.8758   3.9139   4.1141   4.1261   4.1440
     4.3090   4.3616   4.5494   4.8937   4.9993   5.0650   5.1591   5.3643
     5.3673   5.4614   5.5008   5.5329   5.6285   5.7052   5.7101   5.7168
     5.7635   5.7719   5.7872   5.8416   5.8700   5.9425   5.9598   5.9823
     5.9976   6.0390   6.1417   6.1573   6.3059   6.3656   6.4126   6.6164
     6.6505   6.7678   6.8614   7.0371   7.2388   7.3289   7.4522   7.7358
     8.0918   8.2120   8.3438   8.6415   8.8857   8.9813   9.3255   9.3479
     9.4279   9.4562   9.5604

          k = 0.0000-0.0840 0.0000 ( 34678 PWs)   bands (ev):

   -57.6954 -57.6952 -57.3187 -57.3154 -57.2511 -57.1113 -57.1025 -57.0726
   -57.0709 -57.0709 -56.9902 -56.9893 -56.7328 -56.7274 -56.1453 -56.1453
   -33.9806 -33.9804 -33.9571 -33.9570 -33.8671 -33.8669 -33.7036 -33.6796
   -33.5837 -33.5807 -33.5489 -33.5355 -33.5311 -33.4971 -33.4736 -33.4435
   -33.4296 -33.4230 -33.3908 -33.3906 -33.3827 -33.3626 -33.3567 -33.3415
   -33.3402 -33.3003 -33.2937 -33.2916 -33.2873 -33.2846 -33.2483 -33.2465
   -33.2330 -33.2312 -33.1810 -33.1802 -33.0671 -33.0465 -32.9891 -32.9835
   -32.9583 -32.9551 -32.5022 -32.5022 -32.3864 -32.3863 -32.3393 -32.3393
   -20.5012 -17.5869 -17.5221 -17.4247 -17.4045 -17.2461 -17.1939 -17.0817
   -17.0798 -17.0333 -17.0220 -17.0071 -16.8903 -16.8533 -16.8533 -16.8163
   -16.8097 -16.6139 -16.6120 -16.5461 -16.5439 -16.5042 -16.5027 -16.4225
   -16.4207 -16.2794 -16.2773 -16.2161 -16.2119 -16.1502 -16.1189 -14.7738
   -14.7737 -11.4416  -7.3491  -5.5444  -5.1504  -4.8176  -4.7471  -4.7460
    -4.6739  -4.6598  -4.6548  -4.6179  -4.5917  -4.5288  -4.5224  -4.4174
    -4.3903  -4.3550  -4.3541  -4.3240  -4.3104  -4.2951  -4.2903  -4.0733
    -4.0495  -4.0401  -4.0287  -4.0093  -3.9623  -3.8274  -3.8101  -3.8033
    -3.7288  -3.7114  -3.6576  -3.5199  -3.4858  -3.3555  -3.3420  -3.2255
    -3.1543  -3.1321  -3.0580  -3.0347  -2.9784  -2.9375  -2.8204  -2.8054
    -2.7138  -2.7095  -2.5931  -2.5554  -2.5299  -2.5111  -2.4950  -2.4630
    -2.4548  -2.4332  -2.3460  -2.2620  -2.0405  -2.0224  -1.9822  -1.9521
    -1.9443  -1.8443  -1.8381  -1.8246  -1.7982  -1.7602  -1.7466  -1.7173
    -1.6818  -1.6573  -1.6322  -1.5769  -1.5352  -1.5033  -1.4968  -1.4714
    -1.4400  -1.4328  -1.4246  -1.4002  -1.3764  -1.3440  -1.2314  -1.2044
    -1.1121  -1.0891  -1.0143  -0.9933  -0.9853  -0.9755  -0.9505  -0.5413
    -0.5360  -0.4739  -0.4601   0.1301   0.1302   0.1730   0.1748   2.0246
     2.0279   2.2012   2.2058   2.2063   2.2186   2.2660   2.3217   2.3332
     2.3333   2.3549   2.3652   2.5095   2.5391   2.5400   2.5831   2.6471
     2.6982   2.7216   2.7340   2.8741   2.9059   2.9737   2.9808   3.0397
     3.0407   3.0855   3.0959   3.1622   3.1991   3.2158   3.2284   3.3864
     3.4102   3.4213   3.4243   3.4566   3.4667   3.7068   3.7489   3.7868
     3.7904   3.8154   3.8936   3.9158   3.9506   4.0595   4.0619   4.1119
     4.1125   4.3994   4.6576   4.9439   4.9846   5.2470   5.3165   5.4411
     5.4726   5.4944   5.4945   5.5776   5.6027   5.6305   5.6482   5.6529
     5.7820   5.7873   5.8099   5.8370   5.8464   5.8512   5.8632   5.9583
     6.0066   6.0462   6.0617   6.1454   6.1861   6.4147   6.4619   6.5600
     6.5961   6.7485   6.7698   6.9866   7.0217   7.1189   7.3314   7.7307
     7.8763   8.1734   8.4271   8.7841   8.8446   8.8553   9.1576   9.6967
     9.7224   9.7559   9.8257

          k = 0.0253 0.0000 0.0000 ( 34707 PWs)   bands (ev):

   -57.7128 -57.6778 -57.3351 -57.2988 -57.2527 -57.1251 -57.0889 -57.0881
   -57.0709 -57.0534 -57.0075 -56.9720 -56.7488 -56.7113 -56.1629 -56.1276
   -34.1491 -33.9950 -33.9665 -33.9130 -33.8875 -33.8195 -33.7590 -33.6742
   -33.6361 -33.6223 -33.5836 -33.5547 -33.5498 -33.5260 -33.5059 -33.4923
   -33.4838 -33.4717 -33.4510 -33.4074 -33.3397 -33.3076 -33.2869 -33.2780
   -33.2772 -33.2756 -33.2599 -33.2579 -33.2569 -33.2495 -33.2453 -33.2278
   -33.1976 -33.1974 -33.1907 -33.1583 -33.1358 -33.0148 -32.9995 -32.9752
   -32.9264 -32.8236 -32.5806 -32.5163 -32.4886 -32.3849 -32.2933 -32.1850
   -20.5016 -18.0001 -17.8158 -17.5319 -17.4513 -17.3737 -17.2756 -17.1581
   -17.1083 -16.9925 -16.9533 -16.8887 -16.8334 -16.8264 -16.8072 -16.7950
   -16.7481 -16.7065 -16.5742 -16.5544 -16.4700 -16.4693 -16.4216 -16.3844
   -16.3592 -16.3281 -16.1994 -16.1808 -16.1662 -15.9976 -15.9467 -14.7457
   -14.6630 -11.4417  -7.3488  -5.5857  -5.3503  -5.2802  -5.1329  -5.1150
    -5.0604  -5.0365  -4.8495  -4.8236  -4.6353  -4.4843  -4.4497  -4.3458
    -4.3279  -4.3179  -4.2668  -4.1155  -4.0551  -4.0508  -4.0137  -3.9586
    -3.9523  -3.9263  -3.8457  -3.8168  -3.7688  -3.7340  -3.7103  -3.7069
    -3.6387  -3.6153  -3.5887  -3.5797  -3.5320  -3.4614  -3.3362  -3.3226
    -3.2671  -3.2424  -3.1856  -3.1219  -3.0494  -2.9931  -2.9385  -2.9098
    -2.7612  -2.6917  -2.6498  -2.6175  -2.5932  -2.5457  -2.5356  -2.5193
    -2.4480  -2.3505  -2.3380  -2.2528  -2.2375  -2.1967  -2.1673  -2.0879
    -2.0261  -2.0176  -1.9777  -1.8986  -1.8596  -1.7683  -1.7560  -1.6652
    -1.6019  -1.5979  -1.5550  -1.4799  -1.4745  -1.3822  -1.3730  -1.3613
    -1.3533  -1.3072  -1.2885  -1.2077  -1.1431  -1.1325  -1.0894  -1.0506
    -0.9860  -0.9316  -0.8453  -0.7952  -0.7898  -0.6672  -0.6603  -0.5647
    -0.4381  -0.2493  -0.1311  -0.0685   0.1038   0.1923   0.1931   1.6478
     1.7111   1.9873   2.0548   2.1330   2.2047   2.2203   2.2535   2.3624
     2.3686   2.4413   2.4876   2.5051   2.5274   2.5629   2.5812   2.6200
     2.6399   2.7168   2.7408   2.8494   2.8662   2.9520   3.0129   3.0840
     3.1074   3.1252   3.1472   3.1878   3.1912   3.2376   3.2557   3.3262
     3.3597   3.3848   3.4343   3.4571   3.5220   3.5419   3.5747   3.5857
     3.6470   3.7122   3.7296   3.8970   3.9847   4.0793   4.1607   4.2593
     4.3610   4.3829   4.5401   4.6741   4.8463   4.8992   4.9088   5.0558
     5.1062   5.1305   5.1696   5.3396   5.5660   5.6217   5.6844   5.8531
     5.8681   5.9075   5.9454   6.0226   6.0644   6.1220   6.1433   6.1928
     6.2031   6.2357   6.2394   6.2926   6.4350   6.5206   6.6303   6.6613
     6.8079   6.8574   7.0205   7.1499   7.2887   7.7737   7.8732   8.1036
     8.3141   8.3358   8.4279   8.7017   8.8352   9.0353   9.1629   9.3441
     9.3548   9.4666   9.4930

          k = 0.0253 0.0280 0.0000 ( 34687 PWs)   bands (ev):

   -57.7104 -57.6802 -57.3327 -57.3013 -57.2523 -57.1228 -57.0909 -57.0861
   -57.0713 -57.0557 -57.0051 -56.9744 -56.7464 -56.7138 -56.1605 -56.1300
   -34.1238 -33.9930 -33.9683 -33.9069 -33.8616 -33.8258 -33.7860 -33.6515
   -33.6293 -33.5974 -33.5583 -33.5519 -33.5393 -33.5335 -33.5122 -33.4907
   -33.4834 -33.4810 -33.4489 -33.4006 -33.3336 -33.3058 -33.2987 -33.2794
   -33.2792 -33.2728 -33.2715 -33.2631 -33.2532 -33.2518 -33.2505 -33.2345
   -33.2184 -33.2026 -33.1945 -33.1622 -33.1590 -33.0110 -32.9978 -32.9766
   -32.9314 -32.8514 -32.5549 -32.5144 -32.4904 -32.3788 -32.2995 -32.2124
   -20.5014 -17.9399 -17.7591 -17.4807 -17.4016 -17.3266 -17.2490 -17.1419
   -17.1147 -17.0224 -16.9777 -16.8758 -16.8442 -16.8245 -16.8025 -16.7860
   -16.7265 -16.7182 -16.6174 -16.6003 -16.5218 -16.4923 -16.3992 -16.3834
   -16.3727 -16.3443 -16.2165 -16.1899 -16.1677 -16.0290 -15.9837 -14.7559
   -14.6865 -11.4413  -7.3482  -5.5737  -5.2737  -5.1960  -5.1349  -5.0385
    -4.9820  -4.9560  -4.7743  -4.7138  -4.5795  -4.4180  -4.3870  -4.3598
    -4.2761  -4.2700  -4.2026  -4.1366  -4.1033  -4.0813  -4.0506  -4.0370
    -3.9913  -3.9582  -3.9292  -3.8842  -3.8377  -3.8262  -3.7998  -3.7343
    -3.7160  -3.6818  -3.6305  -3.6209  -3.5562  -3.5403  -3.3645  -3.2944
    -3.2671  -3.2273  -3.1617  -3.0864  -2.9963  -2.9661  -2.7972  -2.7198
    -2.6940  -2.6511  -2.6255  -2.5508  -2.5196  -2.4697  -2.4635  -2.4364
    -2.4202  -2.4019  -2.3567  -2.3179  -2.2312  -2.1942  -2.1315  -2.1167
    -2.0815  -2.0067  -1.9659  -1.9066  -1.8787  -1.8403  -1.7786  -1.6916
    -1.6611  -1.6327  -1.6050  -1.5783  -1.5254  -1.4781  -1.4565  -1.4165
    -1.3594  -1.3436  -1.2864  -1.2725  -1.2222  -1.1183  -1.1092  -1.0764
    -1.0173  -0.8992  -0.8524  -0.8483  -0.7810  -0.7531  -0.7141  -0.6744
    -0.4490  -0.2947  -0.1505  -0.0986   0.1360   0.1655   0.1757   1.7070
     1.8312   2.0026   2.0814   2.1790   2.2260   2.2664   2.3004   2.3802
     2.4032   2.4503   2.4726   2.5085   2.5189   2.5350   2.5728   2.6580
     2.6892   2.7113   2.7706   2.7896   2.9127   2.9694   2.9936   3.0170
     3.0890   3.1166   3.1308   3.1565   3.1931   3.2249   3.3270   3.3585
     3.3920   3.4200   3.4468   3.4930   3.5348   3.5514   3.6199   3.6472
     3.6586   3.6909   3.7326   3.8781   3.9760   4.1214   4.1715   4.2354
     4.2931   4.4395   4.4963   4.7693   4.9121   4.9413   4.9764   5.0642
     5.1446   5.1598   5.2048   5.3742   5.6327   5.6758   5.7256   5.7696
     5.8421   5.8521   5.8587   5.9892   6.0564   6.0728   6.1033   6.1288
     6.1816   6.1936   6.2096   6.2365   6.4151   6.5204   6.5997   6.6530
     6.7833   6.8526   6.9497   7.1513   7.2218   7.5090   7.9489   8.0415
     8.0847   8.2815   8.4540   8.5732   8.6591   8.7845   8.9493   9.2725
     9.3677   9.4876   9.5217

          k = 0.0253 0.0560 0.0000 ( 34699 PWs)   bands (ev):

   -57.7041 -57.6866 -57.3262 -57.3078 -57.2515 -57.1168 -57.0969 -57.0797
   -57.0722 -57.0622 -56.9986 -56.9809 -56.7398 -56.7205 -56.1541 -56.1365
   -34.0539 -33.9877 -33.9734 -33.8900 -33.8590 -33.8431 -33.7905 -33.6136
   -33.5936 -33.5896 -33.5527 -33.5427 -33.5258 -33.5236 -33.4966 -33.4883
   -33.4755 -33.4460 -33.4309 -33.3825 -33.3367 -33.3291 -33.3239 -33.3170
   -33.3015 -33.2923 -33.2831 -33.2827 -33.2692 -33.2659 -33.2538 -33.2500
   -33.2277 -33.2163 -33.1880 -33.1825 -33.1441 -33.0059 -32.9936 -32.9806
   -32.9443 -32.9210 -32.5094 -32.4955 -32.4842 -32.3622 -32.3164 -32.2865
   -20.5012 -17.7736 -17.6037 -17.3605 -17.2809 -17.2635 -17.2104 -17.1823
   -17.1565 -17.0099 -16.9872 -16.8959 -16.8912 -16.8491 -16.8142 -16.7863
   -16.7635 -16.6878 -16.6432 -16.6235 -16.5948 -16.5477 -16.4431 -16.4311
   -16.3733 -16.2995 -16.2499 -16.2110 -16.1715 -16.1297 -16.0564 -14.7745
   -14.7373 -11.4405  -7.3471  -5.5574  -5.1442  -5.0526  -4.9625  -4.8302
    -4.7725  -4.7344  -4.5737  -4.5158  -4.5076  -4.4304  -4.4082  -4.3561
    -4.2874  -4.2468  -4.2307  -4.2084  -4.1639  -4.1568  -4.1231  -4.0767
    -4.0496  -4.0301  -4.0110  -3.9528  -3.9397  -3.8920  -3.8772  -3.8379
    -3.7909  -3.7300  -3.6705  -3.5872  -3.4876  -3.4054  -3.3272  -3.2961
    -3.2524  -3.2403  -3.1876  -3.0288  -2.9443  -2.8798  -2.8445  -2.7956
    -2.7713  -2.6609  -2.6072  -2.5240  -2.5034  -2.4543  -2.4082  -2.3821
    -2.3578  -2.3394  -2.3049  -2.2796  -2.2052  -2.1552  -2.1428  -2.0548
    -2.0286  -2.0250  -1.9624  -1.9541  -1.9190  -1.8775  -1.8510  -1.8288
    -1.7600  -1.7196  -1.6949  -1.6535  -1.5882  -1.5550  -1.5111  -1.4925
    -1.4457  -1.3900  -1.3548  -1.3165  -1.2393  -1.2211  -1.1384  -1.1202
    -1.0653  -1.0253  -0.9290  -0.8859  -0.8378  -0.8140  -0.7610  -0.6945
    -0.6227  -0.4820  -0.2727   0.0790   0.1154   0.1426   0.1751   1.8478
     2.0342   2.1142   2.1650   2.2146   2.2540   2.2912   2.3299   2.3707
     2.4084   2.4470   2.4635   2.4901   2.5064   2.5680   2.6763   2.7040
     2.7223   2.7618   2.8070   2.8240   2.8873   2.9349   2.9575   2.9681
     3.0103   3.0181   3.1388   3.1903   3.2695   3.3144   3.3229   3.3664
     3.3905   3.4235   3.4436   3.5237   3.5447   3.6144   3.6383   3.7175
     3.7756   3.8027   3.8470   3.8839   3.8902   4.0543   4.1030   4.1515
     4.3292   4.3667   4.6017   4.9519   4.9958   5.1196   5.1353   5.1439
     5.2464   5.2737   5.2952   5.4224   5.4928   5.5475   5.6200   5.7417
     5.8092   5.8344   5.8757   5.9211   5.9493   5.9921   6.0357   6.0622
     6.1211   6.1435   6.2095   6.3250   6.3659   6.3967   6.4789   6.6393
     6.6840   6.7833   6.8427   7.0277   7.1622   7.3558   7.4917   7.6025
     8.0029   8.1905   8.3672   8.5354   8.6508   8.8609   9.0608   9.1035
     9.1942   9.5023   9.6557

          k = 0.0253-0.0840 0.0000 ( 34722 PWs)   bands (ev):

   -57.6954 -57.6952 -57.3187 -57.3154 -57.2511 -57.1113 -57.1024 -57.0726
   -57.0710 -57.0709 -56.9903 -56.9893 -56.7328 -56.7274 -56.1453 -56.1453
   -33.9806 -33.9804 -33.9574 -33.9572 -33.8667 -33.8666 -33.7037 -33.6797
   -33.5836 -33.5807 -33.5494 -33.5353 -33.5310 -33.4971 -33.4728 -33.4436
   -33.4318 -33.4254 -33.3917 -33.3916 -33.3835 -33.3557 -33.3498 -33.3401
   -33.3387 -33.3001 -33.2935 -33.2918 -33.2859 -33.2848 -33.2518 -33.2503
   -33.2346 -33.2329 -33.1810 -33.1802 -33.0671 -33.0465 -32.9897 -32.9843
   -32.9582 -32.9550 -32.5024 -32.5024 -32.3864 -32.3863 -32.3393 -32.3393
   -20.5011 -17.5736 -17.5041 -17.3965 -17.3780 -17.2301 -17.1729 -17.0745
[...]
    -1.3133  -1.2834  -1.2463  -1.2041  -1.1524  -1.0478  -1.0347  -1.0266
    -1.0038  -0.9659  -0.9226  -0.8551  -0.7751  -0.7182  -0.6605  -0.6089
    -0.6047  -0.5512  -0.5340   0.0531   0.0532   0.1979   0.1996   2.1390
     2.1399   2.1866   2.1885   2.2205   2.2213   2.2487   2.2802   2.4728
     2.4791   2.5087   2.5378   2.5923   2.5997   2.6648   2.6671   2.6751
     2.6764   2.8257   2.8921   2.9671   2.9814   3.0180   3.0256   3.0797
     3.2025   3.2335   3.2559   3.3161   3.3572   3.3742   3.4284   3.4758
     3.4836   3.5062   3.5318   3.5639   3.5869   3.6623   3.6818   3.7275
     3.8169   3.8736   3.8899   3.9394   3.9398   4.0824   4.0891   4.0980
     4.0985   4.5955   4.7695   4.7734   4.7887   4.8528   4.9049   4.9100
     4.9254   4.9656   5.0085   5.2328   5.3258   5.3421   5.3538   5.7220
     5.7847   5.8955   5.9099   5.9632   6.0301   6.1543   6.2936   6.3330
     6.3489   6.3583   6.3940   6.5676   6.6341   6.6519   6.6520   6.6884
     6.7677   6.8352   6.8361   6.8388   6.8397   7.3739   7.4271   7.5410
     7.6752   7.8283   8.0282   8.1769   8.2326   8.3212   8.4595   8.8546
     8.9127   9.0805   9.0891

          k =-0.0253 0.0280 0.0000 ( 34687 PWs)   bands (ev):

   -57.7105 -57.6803 -57.3327 -57.3012 -57.2523 -57.1228 -57.0909 -57.0861
   -57.0713 -57.0557 -57.0050 -56.9743 -56.7464 -56.7138 -56.1608 -56.1302
   -34.1238 -33.9931 -33.9684 -33.9069 -33.8615 -33.8259 -33.7861 -33.6514
   -33.6293 -33.5973 -33.5582 -33.5519 -33.5393 -33.5335 -33.5121 -33.4906
   -33.4833 -33.4809 -33.4488 -33.4006 -33.3336 -33.3058 -33.2987 -33.2794
   -33.2789 -33.2729 -33.2715 -33.2631 -33.2531 -33.2518 -33.2505 -33.2344
   -33.2184 -33.2026 -33.1944 -33.1621 -33.1589 -33.0109 -32.9977 -32.9766
   -32.9313 -32.8514 -32.5552 -32.5146 -32.4907 -32.3790 -32.2997 -32.2126
   -20.5015 -17.9399 -17.7591 -17.4807 -17.4016 -17.3267 -17.2491 -17.1418
   -17.1149 -17.0221 -16.9777 -16.8763 -16.8441 -16.8255 -16.8021 -16.7859
   -16.7265 -16.7184 -16.6173 -16.5999 -16.5218 -16.4924 -16.3993 -16.3835
   -16.3727 -16.3442 -16.2166 -16.1900 -16.1677 -16.0290 -15.9837 -14.7555
   -14.6861 -11.4413  -7.3482  -5.5736  -5.2735  -5.1960  -5.1349  -5.0389
    -4.9821  -4.9564  -4.7744  -4.7146  -4.5793  -4.4177  -4.3870  -4.3601
    -4.2775  -4.2666  -4.2040  -4.1349  -4.1081  -4.0808  -4.0531  -4.0369
    -3.9900  -3.9564  -3.9306  -3.8853  -3.8379  -3.8276  -3.7999  -3.7344
    -3.7188  -3.6805  -3.6302  -3.6201  -3.5548  -3.5393  -3.3663  -3.2932
    -3.2655  -3.2276  -3.1606  -3.0842  -2.9975  -2.9623  -2.7961  -2.7191
    -2.6934  -2.6517  -2.6254  -2.5483  -2.5206  -2.4672  -2.4629  -2.4384
    -2.4210  -2.4001  -2.3559  -2.3169  -2.2332  -2.1914  -2.1371  -2.1197
    -2.0776  -2.0032  -1.9673  -1.9099  -1.8767  -1.8411  -1.7592  -1.7247
    -1.6691  -1.6152  -1.6091  -1.5762  -1.5322  -1.4868  -1.4524  -1.4082
    -1.3595  -1.3481  -1.2977  -1.2595  -1.2123  -1.1204  -1.1068  -1.0746
    -1.0193  -0.9052  -0.8564  -0.8407  -0.7719  -0.7525  -0.7262  -0.6753
    -0.4500  -0.2947  -0.1510  -0.0984   0.1362   0.1658   0.1761   1.7068
     1.8311   2.0024   2.0828   2.1788   2.2277   2.2694   2.3033   2.3871
     2.4008   2.4335   2.4698   2.5142   2.5184   2.5300   2.5907   2.6523
     2.6894   2.7230   2.7593   2.7949   2.9214   2.9686   2.9869   3.0106
     3.0900   3.1179   3.1313   3.1583   3.1930   3.2222   3.3306   3.3573
     3.3893   3.4039   3.4486   3.4896   3.5437   3.5535   3.6208   3.6471
     3.6583   3.6918   3.7321   3.8770   3.9747   4.1233   4.1715   4.2360
     4.2931   4.4397   4.4965   4.7703   4.9203   4.9402   4.9672   5.0641
     5.1434   5.1595   5.2048   5.3730   5.6329   5.6703   5.7243   5.7779
     5.8401   5.8521   5.8597   5.9878   6.0600   6.0651   6.1085   6.1292
     6.1817   6.1933   6.2078   6.2413   6.4150   6.5188   6.5994   6.6582
     6.7876   6.8460   6.9496   7.1513   7.2221   7.5076   7.9482   8.0410
     8.0847   8.2805   8.4488   8.5752   8.6561   8.7848   8.9536   9.2782
     9.3656   9.4918   9.5172

          k =-0.0253 0.0560 0.0000 ( 34699 PWs)   bands (ev):

   -57.7042 -57.6867 -57.3261 -57.3078 -57.2514 -57.1168 -57.0969 -57.0797
   -57.0721 -57.0621 -56.9986 -56.9808 -56.7397 -56.7204 -56.1543 -56.1367
   -34.0540 -33.9878 -33.9735 -33.8900 -33.8591 -33.8432 -33.7905 -33.6135
   -33.5935 -33.5896 -33.5527 -33.5426 -33.5258 -33.5236 -33.4966 -33.4883
   -33.4755 -33.4459 -33.4307 -33.3825 -33.3367 -33.3291 -33.3239 -33.3170
   -33.3015 -33.2922 -33.2831 -33.2826 -33.2691 -33.2660 -33.2538 -33.2500
   -33.2275 -33.2163 -33.1879 -33.1825 -33.1440 -33.0059 -32.9934 -32.9806
   -32.9443 -32.9210 -32.5096 -32.4957 -32.4844 -32.3625 -32.3166 -32.2867
   -20.5012 -17.7736 -17.6037 -17.3605 -17.2809 -17.2637 -17.2107 -17.1822
   -17.1563 -17.0099 -16.9872 -16.8961 -16.8914 -16.8496 -16.8146 -16.7862
   -16.7633 -16.6876 -16.6430 -16.6232 -16.5948 -16.5480 -16.4431 -16.4312
   -16.3734 -16.2994 -16.2499 -16.2111 -16.1715 -16.1297 -16.0564 -14.7740
   -14.7368 -11.4406  -7.3471  -5.5574  -5.1442  -5.0522  -4.9625  -4.8308
    -4.7726  -4.7345  -4.5737  -4.5140  -4.5082  -4.4300  -4.4085  -4.3609
    -4.2876  -4.2480  -4.2301  -4.2086  -4.1637  -4.1562  -4.1246  -4.0768
    -4.0485  -4.0276  -4.0122  -3.9539  -3.9393  -3.8897  -3.8814  -3.8384
    -3.7905  -3.7282  -3.6714  -3.5873  -3.4871  -3.4049  -3.3342  -3.2948
    -3.2536  -3.2337  -3.1813  -3.0295  -2.9427  -2.8805  -2.8411  -2.7991
    -2.7689  -2.6604  -2.6063  -2.5246  -2.5019  -2.4557  -2.4096  -2.3787
    -2.3582  -2.3391  -2.3076  -2.2819  -2.2051  -2.1549  -2.1416  -2.0520
    -2.0366  -2.0189  -1.9608  -1.9580  -1.9200  -1.8775  -1.8466  -1.8240
    -1.7585  -1.7269  -1.6883  -1.6581  -1.5954  -1.5561  -1.5219  -1.4765
    -1.4457  -1.3889  -1.3633  -1.3161  -1.2387  -1.2211  -1.1366  -1.1186
    -1.0667  -1.0260  -0.9411  -0.8871  -0.8304  -0.8143  -0.7545  -0.6941
    -0.6227  -0.4837  -0.2741   0.0793   0.1157   0.1430   0.1754   1.8476
     2.0341   2.1170   2.1650   2.2114   2.2522   2.2920   2.3157   2.3698
     2.4273   2.4432   2.4687   2.4956   2.5066   2.5680   2.6757   2.7074
     2.7277   2.7613   2.8110   2.8250   2.8765   2.9323   2.9534   2.9695
     3.0074   3.0192   3.1529   3.1907   3.2734   3.2998   3.3185   3.3541
     3.3945   3.4210   3.4437   3.5261   3.5444   3.6187   3.6395   3.7180
     3.7760   3.8001   3.8479   3.8825   3.8920   4.0551   4.1030   4.1516
     4.3290   4.3668   4.6024   4.9529   5.0029   5.1140   5.1343   5.1420
     5.2438   5.2717   5.2974   5.4138   5.4949   5.5473   5.6229   5.7465
     5.8103   5.8324   5.8796   5.9236   5.9446   5.9870   6.0406   6.0623
     6.1211   6.1419   6.2156   6.3193   6.3661   6.4012   6.4765   6.6428
     6.6872   6.7832   6.8361   7.0282   7.1599   7.3558   7.4923   7.6004
     8.0009   8.1908   8.3677   8.5380   8.6516   8.8640   9.0646   9.1065
     9.1903   9.5081   9.6537

          k =-0.0506 0.0280 0.0000 ( 34685 PWs)   bands (ev):

   -57.7105 -57.6803 -57.3327 -57.3012 -57.2522 -57.1227 -57.0908 -57.0862
   -57.0713 -57.0557 -57.0051 -56.9743 -56.7464 -56.7138 -56.1608 -56.1302
   -34.1245 -33.9931 -33.9684 -33.9056 -33.8618 -33.8259 -33.7861 -33.6529
   -33.6292 -33.6007 -33.5588 -33.5528 -33.5448 -33.5371 -33.5120 -33.4903
   -33.4786 -33.4660 -33.4489 -33.3844 -33.3333 -33.3061 -33.2944 -33.2811
   -33.2794 -33.2787 -33.2783 -33.2735 -33.2532 -33.2518 -33.2493 -33.2322
   -33.2189 -33.2028 -33.1944 -33.1619 -33.1589 -33.0110 -33.0020 -32.9752
   -32.9313 -32.8514 -32.5550 -32.5165 -32.4897 -32.3790 -32.2997 -32.2126
   -20.5011 -17.8779 -17.6653 -17.3850 -17.3597 -17.2669 -17.2420 -17.2281
   -17.1389 -17.0600 -16.9782 -16.9378 -16.8909 -16.8731 -16.8692 -16.8507
   -16.7812 -16.7585 -16.5765 -16.5453 -16.5244 -16.4533 -16.4308 -16.3957
   -16.3865 -16.3257 -16.2076 -16.1883 -16.1665 -16.0303 -15.9835 -14.7535
   -14.6861 -11.4386  -7.3431  -5.5893  -5.2554  -5.1329  -4.9060  -4.8495
    -4.7365  -4.7209  -4.6935  -4.6716  -4.6463  -4.5233  -4.4428  -4.3617
    -4.3380  -4.3177  -4.1766  -4.1437  -4.0786  -4.0423  -4.0242  -4.0091
    -3.9979  -3.9250  -3.8755  -3.8319  -3.7903  -3.7782  -3.7347  -3.7060
    -3.6728  -3.6498  -3.5988  -3.5684  -3.4576  -3.3263  -3.2863  -3.2746
    -3.2284  -3.1851  -3.1160  -3.0739  -2.9687  -2.9521  -2.8842  -2.8554
    -2.7574  -2.7053  -2.6764  -2.6660  -2.6203  -2.6047  -2.5503  -2.5119
    -2.4531  -2.4026  -2.3960  -2.3513  -2.3241  -2.2707  -2.1959  -2.1526
    -2.1293  -2.0780  -2.0385  -1.9893  -1.9544  -1.9195  -1.8772  -1.8481
    -1.7705  -1.7560  -1.7275  -1.6574  -1.5551  -1.5217  -1.5008  -1.4329
    -1.3844  -1.3632  -1.2952  -1.2730  -1.2539  -1.1628  -1.1122  -1.0288
    -0.9865  -0.8942  -0.8702  -0.8287  -0.7926  -0.7790  -0.7220  -0.7039
    -0.5292  -0.3263  -0.2745  -0.0857   0.0971   0.1265   0.1495   1.6903
     1.8912   2.0467   2.1056   2.1115   2.1579   2.2241   2.3435   2.3565
     2.3904   2.4201   2.5020   2.5511   2.5609   2.5874   2.6671   2.6796
     2.7273   2.7857   2.8161   2.8871   2.9386   2.9649   3.0266   3.0432
     3.0722   3.1434   3.1561   3.1863   3.2864   3.3381   3.3613   3.3938
     3.4293   3.4410   3.5303   3.5693   3.5898   3.6369   3.6616   3.6687
     3.7007   3.7547   3.8046   3.8527   3.9147   4.0418   4.1552   4.2678
     4.2768   4.4093   4.6116   4.6726   4.7507   4.7956   4.8371   4.9828
     4.9958   5.1155   5.2101   5.4552   5.5811   5.6293   5.7093   5.7966
     5.8479   5.8591   5.9103   5.9363   5.9718   6.0830   6.1077   6.1273
     6.2280   6.4157   6.4724   6.5229   6.5624   6.6015   6.6689   6.7416
     6.7866   6.8040   6.9605   7.1246   7.1591   7.4097   7.5678   7.7027
     8.1505   8.1541   8.2608   8.4100   8.7994   8.9641   9.0281   9.0678
     9.3836   9.5034   9.6216

          k =-0.0506 0.0560 0.0000 ( 34596 PWs)   bands (ev):

   -57.7042 -57.6867 -57.3261 -57.3078 -57.2514 -57.1167 -57.0969 -57.0798
   -57.0721 -57.0622 -56.9986 -56.9808 -56.7397 -56.7204 -56.1543 -56.1367
   -34.0545 -33.9878 -33.9735 -33.8889 -33.8593 -33.8428 -33.7906 -33.6135
   -33.5947 -33.5896 -33.5530 -33.5387 -33.5325 -33.5267 -33.4966 -33.4890
   -33.4735 -33.4460 -33.4212 -33.3689 -33.3375 -33.3333 -33.3166 -33.3142
   -33.3018 -33.2921 -33.2830 -33.2803 -33.2706 -33.2692 -33.2631 -33.2551
   -33.2276 -33.2178 -33.1879 -33.1821 -33.1436 -33.0059 -32.9962 -32.9804
   -32.9442 -32.9208 -32.5107 -32.4953 -32.4843 -32.3625 -32.3166 -32.2866
   -20.5009 -17.7234 -17.5146 -17.3084 -17.2559 -17.2154 -17.1881 -17.1783
   -17.1076 -17.0513 -17.0220 -16.9292 -16.8735 -16.8652 -16.8611 -16.8235
   -16.7915 -16.7411 -16.6798 -16.6414 -16.6313 -16.5661 -16.5279 -16.4180
   -16.3607 -16.2778 -16.2423 -16.2097 -16.1707 -16.1314 -16.0556 -14.7728
   -14.7372 -11.4378  -7.3418  -5.5721  -5.1426  -5.0426  -4.6731  -4.6322
    -4.5324  -4.5162  -4.5011  -4.4743  -4.4507  -4.3835  -4.3401  -4.3169
    -4.2409  -4.2207  -4.1603  -4.1476  -4.0996  -4.0841  -4.0623  -4.0535
    -4.0320  -4.0143  -3.9851  -3.9315  -3.9108  -3.9036  -3.8393  -3.8043
    -3.7471  -3.6743  -3.6457  -3.5374  -3.5017  -3.3778  -3.3441  -3.2786
    -3.2700  -3.2600  -3.1359  -3.0219  -2.9474  -2.9197  -2.8653  -2.8450
    -2.7720  -2.7414  -2.7000  -2.6257  -2.6059  -2.5839  -2.5468  -2.5052
    -2.4442  -2.4212  -2.3816  -2.3449  -2.3319  -2.3146  -2.2710  -2.1952
    -2.1677  -2.1363  -2.1290  -2.0925  -2.0644  -2.0195  -2.0013  -1.9178
    -1.9079  -1.8681  -1.8496  -1.7393  -1.6535  -1.6226  -1.5892  -1.4944
    -1.4236  -1.3909  -1.3236  -1.2510  -1.2201  -1.1231  -1.0850  -1.0306
    -1.0137  -0.9518  -0.8669  -0.8360  -0.7859  -0.7729  -0.7086  -0.6721
    -0.6660  -0.5342  -0.3406   0.0651   0.0993   0.1173   0.1808   1.8528
     2.0629   2.1475   2.1822   2.2059   2.2295   2.2823   2.3307   2.3761
     2.3893   2.5227   2.5536   2.5633   2.5928   2.6113   2.6662   2.7389
     2.7674   2.7881   2.8223   2.8641   2.9471   2.9867   3.0124   3.0450
     3.0807   3.1196   3.1515   3.2403   3.3200   3.3513   3.3806   3.4241
     3.4620   3.4831   3.5050   3.5253   3.5994   3.6309   3.6945   3.7296
     3.7628   3.8340   3.8635   3.9055   3.9113   3.9374   4.0983   4.1612
     4.2759   4.4553   4.7127   4.7928   4.7999   4.8810   4.9236   5.0774
     5.1490   5.2199   5.2585   5.3253   5.3566   5.4173   5.4802   5.6096
     5.7663   5.8179   5.8669   5.9382   6.0373   6.1101   6.2050   6.2479
     6.2743   6.3461   6.4004   6.4354   6.5013   6.5670   6.6384   6.7033
     6.7182   6.8126   6.8541   6.9721   7.0616   7.4019   7.4480   7.5951
     7.7518   7.9503   8.0804   8.4084   8.5835   8.6328   8.7966   9.0266
     9.2410   9.3279   9.4501

     the Fermi energy is     0.9835 ev

!    total energy              =   -3021.41847992 Ry
     Harris-Foulkes estimate   =   -3021.41847996 Ry
     estimated scf accuracy    <       0.00000072 Ry

     The total energy is the sum of the following terms:

     one-electron contribution =  -41248.36852292 Ry
     hartree contribution      =   20698.18596260 Ry
     xc contribution           =    -553.69568852 Ry
     ewald contribution        =   18082.45998112 Ry
     smearing contrib. (-TS)   =      -0.00021219 Ry

     total magnetization       =     0.00 Bohr mag/cell
     absolute magnetization    =     0.00 Bohr mag/cell

     convergence has been achieved in   9 iterations

     Forces acting on atoms (Ry/au):


     negative rho (up, down):  1.208E-02 1.208E-02
     atom    1 type  1   force =     0.00002165   -0.00035640   -0.13393627
     atom    2 type  2   force =     0.00000774    0.00003075    0.07221660
     atom    3 type  1   force =    -0.00135335    0.00031007   -0.06110917
     atom    4 type  2   force =     0.00290991    0.00048819    0.00641479
     atom    5 type  1   force =     0.00026742    0.00186133    0.00340088
     atom    6 type  2   force =     0.00005568    0.00001162   -0.00273208
     atom    7 type  1   force =    -0.00017124   -0.00074145    0.00353042
     atom    8 type  2   force =     0.00107290   -0.00010521   -0.00056173
     atom    9 type  1   force =    -0.00002491    0.00002149   -0.13369359
     atom   10 type  2   force =    -0.00006467    0.00006584    0.07139429
     atom   11 type  1   force =    -0.00131680   -0.00024116   -0.05602364
     atom   12 type  2   force =     0.00300128   -0.00006948    0.00613110
     atom   13 type  1   force =     0.00029089   -0.00148817    0.00333690
     atom   14 type  2   force =    -0.00119960   -0.00038543   -0.00272933
     atom   15 type  1   force =    -0.00054397    0.00019414    0.00435136
     atom   16 type  2   force =     0.00069609   -0.00028225    0.00004433
     atom   17 type  2   force =    -0.00007015   -0.00007032    0.07946237
     atom   18 type  1   force =     0.00013673   -0.00017326    0.11897247
     atom   19 type  2   force =    -0.00010769   -0.00017297   -0.06661442
     atom   20 type  2   force =    -0.06322595    0.00014787   -0.03223582
     atom   21 type  2   force =     0.06320678    0.00001428   -0.03244283
     atom   22 type  1   force =     0.00072615    0.00108224    0.05963660
     atom   23 type  2   force =    -0.00016896    0.00005793   -0.00163206
     atom   24 type  2   force =    -0.00142882   -0.00000527   -0.02315529
     atom   25 type  2   force =    -0.00313277    0.00059317    0.00789696
     atom   26 type  1   force =     0.00065606    0.00029443    0.00449333
     atom   27 type  2   force =     0.00053288    0.00059305   -0.00376047
     atom   28 type  2   force =     0.00015021   -0.00009040   -0.00116943
     atom   29 type  2   force =     0.00020266   -0.00034530   -0.00055549
     atom   30 type  1   force =     0.00031202   -0.00081393    0.00396638
     atom   31 type  2   force =    -0.00040374    0.00009934   -0.00266832
     atom   32 type  2   force =    -0.00005237   -0.00003156   -0.00104790
     atom   33 type  2   force =    -0.00011727    0.00003897    0.07906493
     atom   34 type  1   force =     0.00007032   -0.00021830    0.11888663
     atom   35 type  2   force =    -0.00030234   -0.00005343   -0.06631288
     atom   36 type  2   force =    -0.06318643   -0.00005166   -0.03232539
     atom   37 type  2   force =     0.06333636   -0.00020416   -0.03248168
     atom   38 type  1   force =     0.00066337   -0.00097861    0.05985294
     atom   39 type  2   force =    -0.00045608    0.00010362   -0.00237557
     atom   40 type  2   force =    -0.00118426    0.00030603   -0.02205981
     atom   41 type  2   force =    -0.00317368   -0.00015251    0.00792539
     atom   42 type  1   force =     0.00052825    0.00006315    0.00360495
     atom   43 type  2   force =     0.00069571    0.00023171   -0.00293374
     atom   44 type  2   force =     0.00023483    0.00010234   -0.00111820
     atom   45 type  2   force =     0.00017858    0.00031263   -0.00058347
     atom   46 type  1   force =     0.00057876    0.00044958    0.00405928
     atom   47 type  2   force =    -0.00000447   -0.00034280   -0.00151461
     atom   48 type  2   force =     0.00001882    0.00006075   -0.00079173
     atom   49 type  3   force =     0.00704723   -0.00060473    0.05734227
     atom   50 type  2   force =     0.00981768   -0.00009291   -0.02349421
     atom   51 type  4   force =    -0.00936506   -0.00001379   -0.00921866
     atom   52 type  4   force =    -0.00009798    0.00033821    0.00145843
     atom   53 type  4   force =    -0.00332444    0.01231728   -0.01307171
     atom   54 type  4   force =    -0.00294002   -0.01210454   -0.01309410

     Total force =     0.369197     Total SCF correction =     0.001729
 !ASE

     Writing output data file calc.save
 
     init_run     :     54.16s CPU     68.96s WALL (       1 calls)
     electrons    :   2084.45s CPU   2478.98s WALL (       1 calls)
     forces       :     39.64s CPU     41.52s WALL (       1 calls)

     Called by init_run:
     wfcinit      :     46.04s CPU     59.62s WALL (       1 calls)
     potinit      :      1.36s CPU      1.69s WALL (       1 calls)

     Called by electrons:
     c_bands      :   1836.02s CPU   2168.41s WALL (       9 calls)
     sum_band     :    208.61s CPU    265.19s WALL (       9 calls)
     v_of_rho     :      9.86s CPU     12.38s WALL (      10 calls)
     newd         :     33.71s CPU     37.00s WALL (      10 calls)
     mix_rho      :      0.35s CPU      0.49s WALL (       9 calls)
     vdW_energy   :      1.79s CPU      2.16s WALL (      11 calls)
     vdW_ffts     :      2.68s CPU      3.55s WALL (      22 calls)
     vdW_v        :      1.07s CPU      1.29s WALL (      11 calls)

     Called by c_bands:
     init_us_2    :      5.42s CPU      5.90s WALL (     800 calls)
     cegterg      :   1804.19s CPU   2134.68s WALL (     360 calls)

     Called by *egterg:
     h_psi        :    689.59s CPU    949.55s WALL (    2328 calls)
     s_psi        :     85.91s CPU     89.48s WALL (    2328 calls)
     g_psi        :      4.62s CPU      4.80s WALL (    1928 calls)
     cdiaghg      :    700.75s CPU    715.91s WALL (    2288 calls)

     Called by h_psi:
     add_vuspsi   :     86.31s CPU     90.84s WALL (    2328 calls)

     General routines
     calbec       :    129.35s CPU    132.90s WALL (    2728 calls)
     fft          :      5.57s CPU      7.38s WALL (     867 calls)
     ffts         :      0.04s CPU      0.07s WALL (      38 calls)
     fftw         :    440.74s CPU    742.14s WALL (  671740 calls)
     interpolate  :      0.29s CPU      0.48s WALL (      38 calls)
     davcio       :      0.02s CPU      0.96s WALL (      40 calls)
 
     Parallel routines
     fft_scatter  :    226.79s CPU    407.22s WALL (  672645 calls)
 
     PWSCF        : 36m20.72s CPU    43m13.72s WALL

 
   This run was terminated on:  12:36:45  12Feb2018            

=------------------------------------------------------------------------------=
   JOB DONE.
=------------------------------------------------------------------------------=
