  python dir          : /home/vossj/suncat/lib/python2.7/site-packages/espresso
  espresso dir        : /home/vossj/suncat/esdld/espresso-dynpy-beef/bin
  pseudo dir          : /home/alatimer/bin/psp/esp_psp_w_gbrvRu/
  ase-espresso py git : ffa2778-git



     Program PWSCF v.5.1rc2 (svn rev. ) starts on 26Feb2018 at  5:25:45 

     This program is part of the open-source Quantum ESPRESSO suite
     for quantum simulation of materials; please cite
         "P. Giannozzi et al., J. Phys.:Condens. Matter 21 395502 (2009);
          URL http://www.quantum-espresso.org", 
     in publications or presentations arising from this work. More details at
     http://www.quantum-espresso.org/quote

     Parallel version (MPI), running on    16 processors
     R & G space division:  proc/nbgrp/npool/nimage =      16
     Reading input from pw.inp
     Message from routine read_cards :
     DEPRECATED: no units specified in CELL_PARAMETERS card

     Current dimensions of program PWSCF are:
     Max number of different atomic species (ntypx) = 10
     Max number of k-points (npk) =  40000
     Max angular momentum in pseudopotentials (lmaxx) =  3

     **************************************************************************
     Initializing libbeef V0.1.1 with the BEEF-vdW functional.
     Citation: Wellendorff et al., PRB 85, 235149 (2012).
     **************************************************************************


     IMPORTANT: XC functional enforced from input :
     Exchange-correlation      = BEEF ( 1  4 27 13 2)
     Any further DFT definition will be discarded
     Please, verify this is what you really want


     Subspace diagonalization in iterative solution of the eigenvalue problem:
     a serial algorithm will be used

 
     Parallelization info
     --------------------
     sticks:   dense  smooth     PW     G-vecs:    dense   smooth      PW
     Min         281     112     31                68535    17318    2565
     Max         282     113     32                68545    17369    2582
     Sum        4501    1795    503              1096637   277353   41113
 
     Generating pointlists ...
     new r_m :   0.4125 (alat units)  0.7795 (a.u.) for type    1
     new r_m :   0.4125 (alat units)  0.7795 (a.u.) for type    2
     new r_m :   0.4125 (alat units)  0.7795 (a.u.) for type    3
     new r_m :   0.4125 (alat units)  0.7795 (a.u.) for type    4


     bravais-lattice index     =            0
     lattice parameter (alat)  =       1.8897  a.u.
     unit-cell volume          =    7990.9933 (a.u.)^3
     number of atoms/cell      =           54
     number of atomic types    =            4
     number of electrons       =       398.00
     number of Kohn-Sham states=          299
     kinetic-energy cutoff     =      40.4243  Ry
     charge density cutoff     =     404.2426  Ry
     convergence threshold     =      7.3E-07
     mixing beta               =       0.1000
     number of iterations used =           10  plain     mixing
     Exchange-correlation      = BEEF ( 1  4 27 13 2)
     nstep                     =           50


     celldm(1)=   1.889726  celldm(2)=   0.000000  celldm(3)=   0.000000
     celldm(4)=   0.000000  celldm(5)=   0.000000  celldm(6)=   0.000000

     crystal axes: (cart. coord. in units of alat)
               a(1) = (   6.590708   0.000000   0.000000 )  
               a(2) = (   0.000000   5.950229   0.000000 )  
               a(3) = (   0.000000   0.000000  30.195235 )  

     reciprocal axes: (cart. coord. in units 2 pi/alat)
               b(1) = (  0.151729  0.000000  0.000000 )  
               b(2) = (  0.000000  0.168061  0.000000 )  
               b(3) = (  0.000000  0.000000  0.033118 )  


     PseudoPot. # 1 for Ti read from file:
     /home/alatimer/bin/psp/esp_psp_w_gbrvRu/Ti.UPF
     MD5 check sum: 8e4df49b7f0d34bbd5052bf3f5ea0213
     Pseudo is Ultrasoft, Zval = 12.0
     Generated by new atomic code, or converted to UPF format
     Using radial grid of  851 points,  6 beta functions with: 
                l(1) =   0
                l(2) =   0
                l(3) =   1
                l(4) =   1
                l(5) =   2
                l(6) =   2
     Q(r) pseudized with  8 coefficients,  rinner =    1.000   1.000   1.000
                                                       1.000   1.000

     PseudoPot. # 2 for  O read from file:
     /home/alatimer/bin/psp/esp_psp_w_gbrvRu/O.UPF
     MD5 check sum: e057bbcf3229fb5d8c36c0c92f9568b4
     Pseudo is Ultrasoft + core correction, Zval =  6.0
     Generated using "atomic" code by A. Dal Corso  v.5.0.2 svn rev. 9415
     Using radial grid of 1095 points,  4 beta functions with: 
                l(1) =   0
                l(2) =   0
                l(3) =   1
                l(4) =   1
     Q(r) pseudized with 0 coefficients 


     PseudoPot. # 3 for  C read from file:
     /home/alatimer/bin/psp/esp_psp_w_gbrvRu/C.UPF
     MD5 check sum: ab446d787031eba755f1d5ee46644bb0
     Pseudo is Ultrasoft + core correction, Zval =  4.0
     Generated using "atomic" code by A. Dal Corso  v.5.0.2 svn rev. 9415
     Using radial grid of 1073 points,  4 beta functions with: 
                l(1) =   0
                l(2) =   0
                l(3) =   1
                l(4) =   1
     Q(r) pseudized with 0 coefficients 


     PseudoPot. # 4 for  H read from file:
     /home/alatimer/bin/psp/esp_psp_w_gbrvRu/H.UPF
     MD5 check sum: bd57da0722753ddfd9833a65b40bb853
     Pseudo is Ultrasoft, Zval =  1.0
     Generated using "atomic" code by A. Dal Corso  v.5.0.2 svn rev. 9415
     Using radial grid of  929 points,  2 beta functions with: 
                l(1) =   0
                l(2) =   0
     Q(r) pseudized with 0 coefficients 


     vdW kernel table read from file vdW_kernel_table
     MD5 check sum: 095c7af220d748ca6e76c0b4c6cfb241

     atomic species   valence    mass     pseudopotential
        Ti1           12.00    47.88000     Ti( 1.00)
        O1             6.00    15.99940      O( 1.00)
        C1             4.00    12.01100      C( 1.00)
        H1             1.00     1.00794      H( 1.00)

     Starting magnetic structure 
     atomic species   magnetization
        Ti1          0.250
        O1           0.500
        C1           0.750
        H1           0.000

     No symmetry found



   Cartesian axes

     site n.     atom                  positions (alat units)
         1           Ti1 tau(   1) = (   1.6476770   0.7437786   2.6545865  )
         2           O1  tau(   2) = (   1.6476770   2.2313359   3.9361215  )
         3           Ti1 tau(   3) = (   1.6476770   2.2313359   5.9499405  )
         4           O1  tau(   4) = (   0.3661420   0.7437786   5.9499405  )
         5           Ti1 tau(   5) = (   1.6407309   0.9134410   9.3139491  )
         6           O1  tau(   6) = (   1.6648823   2.2608486  10.4895904  )
         7           Ti1 tau(   7) = (   1.7578240   2.2899216  13.0472362  )
         8           O1  tau(   8) = (   0.4801583   0.7600008  12.7739736  )
         9           Ti1 tau(   9) = (   1.6476770   3.7188931   2.6545865  )
        10           O1  tau(  10) = (   1.6476770   5.2064503   3.9361215  )
        11           Ti1 tau(  11) = (   1.6476770   5.2064503   5.9499405  )
        12           O1  tau(  12) = (   0.3661420   3.7188931   5.9499405  )
        13           Ti1 tau(  13) = (   1.6336050   3.7786827   9.1566831  )
        14           O1  tau(  14) = (   1.6678212   5.2513959  10.5409436  )
        15           Ti1 tau(  15) = (   1.7144009   5.2558216  12.3462911  )
        16           O1  tau(  16) = (   0.4635505   3.7986228  12.7318280  )
        17           O1  tau(  17) = (   1.6476770   2.2313359   1.3730516  )
        18           Ti1 tau(  18) = (   4.9430310   2.2313359   2.6545865  )
        19           O1  tau(  19) = (   4.9430310   2.2313359   4.6684056  )
        20           O1  tau(  20) = (   6.2245660   0.7437786   2.6545865  )
        21           O1  tau(  21) = (   3.6614961   0.7437786   2.6545865  )
        22           Ti1 tau(  22) = (   4.9430310   0.7437786   5.9499405  )
        23           O1  tau(  23) = (   1.6683653   2.2752577   7.9427336  )
        24           O1  tau(  24) = (   4.9430310   2.2313359   7.2314755  )
        25           O1  tau(  25) = (   2.9292120   0.7437786   5.9499405  )
        26           Ti1 tau(  26) = (   4.9404121   2.2664794   9.4552217  )
        27           O1  tau(  27) = (   5.0099888   2.2616732  11.2946145  )
        28           O1  tau(  28) = (   6.2612001   0.7714827   9.2659748  )
        29           O1  tau(  29) = (   3.6791272   0.7744986   9.2965846  )
        30           Ti1 tau(  30) = (   5.0117873   0.7976728  12.8161605  )
        31           O1  tau(  31) = (   4.9963122   2.2836652  13.8750618  )
        32           O1  tau(  32) = (   2.9819382   0.7448324  12.7109220  )
        33           O1  tau(  33) = (   1.6476770   5.2064503   1.3730516  )
        34           Ti1 tau(  34) = (   4.9430310   5.2064503   2.6545865  )
        35           O1  tau(  35) = (   4.9430310   5.2064503   4.6684056  )
        36           O1  tau(  36) = (   6.2245660   3.7188931   2.6545865  )
        37           O1  tau(  37) = (   3.6614961   3.7188931   2.6545865  )
        38           Ti1 tau(  38) = (   4.9430310   3.7188931   5.9499405  )
        39           O1  tau(  39) = (   1.6664207   5.2035600   7.9365221  )
        40           O1  tau(  40) = (   4.9430310   5.2064503   7.2314755  )
        41           O1  tau(  41) = (   2.9292120   3.7188931   5.9499405  )
        42           Ti1 tau(  42) = (   4.9524353   5.2460635   9.4426343  )
        43           O1  tau(  43) = (   5.0107556   5.2394944  11.2927493  )
        44           O1  tau(  44) = (   6.2663940   3.7551737   9.2646230  )
        45           O1  tau(  45) = (   3.6780957   3.7542261   9.2971476  )
        46           Ti1 tau(  46) = (   5.0587989   3.7766986  12.8010349  )
        47           O1  tau(  47) = (   5.0196089   5.2502198  13.8813978  )
        48           O1  tau(  48) = (   2.9624133   3.7943242  12.7299881  )
        49           O1  tau(  49) = (   1.7427453   2.2533568  14.8370015  )
        50           C1  tau(  50) = (   2.7196098   4.2826273  16.2618421  )
        51           H1  tau(  51) = (   3.3037454   4.9255546  15.5827400  )
        52           H1  tau(  52) = (   3.3286606   3.7870117  16.9822022  )
        53           H1  tau(  53) = (   2.3125587   3.4026405  15.5729816  )
        54           H1  tau(  54) = (   1.8391288   4.7650601  16.6448379  )

     number of k points=    40  Fermi-Dirac smearing, width (Ry)=  0.0073
                       cart. coord. in units 2pi/alat
        k(    1) = (   0.0000000   0.0000000   0.0000000), wk =   0.0277778
        k(    2) = (   0.0000000   0.0280101   0.0000000), wk =   0.0555556
        k(    3) = (   0.0000000   0.0560203   0.0000000), wk =   0.0555556
        k(    4) = (   0.0000000  -0.0840304   0.0000000), wk =   0.0277778
        k(    5) = (   0.0252881   0.0000000   0.0000000), wk =   0.0555556
        k(    6) = (   0.0252881   0.0280101   0.0000000), wk =   0.0555556
        k(    7) = (   0.0252881   0.0560203   0.0000000), wk =   0.0555556
        k(    8) = (   0.0252881  -0.0840304   0.0000000), wk =   0.0555556
        k(    9) = (   0.0505763   0.0000000   0.0000000), wk =   0.0555556
        k(   10) = (   0.0505763   0.0280101   0.0000000), wk =   0.0555556
        k(   11) = (   0.0505763   0.0560203   0.0000000), wk =   0.0555556
        k(   12) = (   0.0505763  -0.0840304   0.0000000), wk =   0.0555556
        k(   13) = (  -0.0758644   0.0000000   0.0000000), wk =   0.0277778
        k(   14) = (  -0.0758644   0.0280101   0.0000000), wk =   0.0555556
        k(   15) = (  -0.0758644   0.0560203   0.0000000), wk =   0.0555556
        k(   16) = (  -0.0758644  -0.0840304   0.0000000), wk =   0.0277778
        k(   17) = (  -0.0252881   0.0280101   0.0000000), wk =   0.0555556
        k(   18) = (  -0.0252881   0.0560203   0.0000000), wk =   0.0555556
        k(   19) = (  -0.0505763   0.0280101   0.0000000), wk =   0.0555556
        k(   20) = (  -0.0505763   0.0560203   0.0000000), wk =   0.0555556
        k(   21) = (   0.0000000   0.0000000   0.0000000), wk =   0.0277778
        k(   22) = (   0.0000000   0.0280101   0.0000000), wk =   0.0555556
        k(   23) = (   0.0000000   0.0560203   0.0000000), wk =   0.0555556
        k(   24) = (   0.0000000  -0.0840304   0.0000000), wk =   0.0277778
        k(   25) = (   0.0252881   0.0000000   0.0000000), wk =   0.0555556
        k(   26) = (   0.0252881   0.0280101   0.0000000), wk =   0.0555556
        k(   27) = (   0.0252881   0.0560203   0.0000000), wk =   0.0555556
        k(   28) = (   0.0252881  -0.0840304   0.0000000), wk =   0.0555556
        k(   29) = (   0.0505763   0.0000000   0.0000000), wk =   0.0555556
        k(   30) = (   0.0505763   0.0280101   0.0000000), wk =   0.0555556
        k(   31) = (   0.0505763   0.0560203   0.0000000), wk =   0.0555556
        k(   32) = (   0.0505763  -0.0840304   0.0000000), wk =   0.0555556
        k(   33) = (  -0.0758644   0.0000000   0.0000000), wk =   0.0277778
        k(   34) = (  -0.0758644   0.0280101   0.0000000), wk =   0.0555556
        k(   35) = (  -0.0758644   0.0560203   0.0000000), wk =   0.0555556
        k(   36) = (  -0.0758644  -0.0840304   0.0000000), wk =   0.0277778
        k(   37) = (  -0.0252881   0.0280101   0.0000000), wk =   0.0555556
        k(   38) = (  -0.0252881   0.0560203   0.0000000), wk =   0.0555556
        k(   39) = (  -0.0505763   0.0280101   0.0000000), wk =   0.0555556
        k(   40) = (  -0.0505763   0.0560203   0.0000000), wk =   0.0555556

     Dense  grid:  1096637 G-vectors     FFT dimensions: (  80,  72, 375)

     Smooth grid:   277353 G-vectors     FFT dimensions: (  54,  45, 240)

     Largest allocated arrays     est. size (Mb)     dimensions
        Kohn-Sham Wavefunctions         9.95 Mb     (    2180,  299)
        NL pseudopotentials            18.89 Mb     (    2180,  568)
        Each V/rho on FFT grid          4.22 Mb     (  138240,   2)
        Each G-vector array             0.52 Mb     (   68538)
        G-vector shells                 0.25 Mb     (   33046)
     Largest temporary arrays     est. size (Mb)     dimensions
        Auxiliary wavefunctions        39.78 Mb     (    2180, 1196)
        Each subspace H/S matrix       21.83 Mb     (    1196, 1196)
        Each <psi_i|beta_j> matrix      2.59 Mb     (     568,  299)
        Arrays for rho mixing          21.09 Mb     (  138240,   10)

     Check: negative/imaginary core charge=   -0.000049    0.000000

     The initial density is read from file :
     ./calc.save/charge-density.dat


     negative rho (up, down):  1.189E-02 1.196E-02


     ************************************************************************
     *
     * You are using vdW-DF for exchange-correlation in this calculation.
     * Please cite the following three references that made this development
     * possible:
     *
     *   M. Dion, H. Rydberg, E. Schroder, D. C. Langreth, and
     *   B. I. Lundqvist, Phys. Rev. Lett. 92, 246401 (2004).
     *
     *   T. Thonhauser, V. R. Cooper, S. Li, A. Puzder, P. Hyldgaard, and
     *   D. C. Langreth, Phys. Rev. B 76, 125112 (2007).
     *
     *   G. Roman-Perez and J. M. Soler, Phys. Rev. Lett. 103, 096102 (2009).
     *
     *
     * If you are using vdW-DF2, please also cite:
     *
     *   K. Lee, E. D. Murray, L. Kong, B. I. Lundqvist, and
     *   D. C. Langreth, Phys. Rev. B 82, 081101(R) (2010).
     *
     *
     * If you are calculating the stress with vdW-DF, please also cite:
     *
     *   R. Sabatini, E. Kucukbenli, B. Kolb, T. Thonhauser, and
     *   S. de Gironcoli, J. Phys.: Condens. Matter 24, 424209 (2012).
     *
     ************************************************************************

     Carrying out vdW-DF run using the following parameters:

     Nqs =      20    Nr_points =    1024   r_max =   100.000
     q_mesh =
               0.00001000     0.04494208     0.09755937     0.15916263
               0.23128650     0.31572767     0.41458969     0.53033537
               0.66584808     0.82450364     1.01025438     1.22772762
               1.48234092     1.78043706     2.12944203     2.53805004
               3.01644009     3.57652955     4.23227104     5.00000000

     Gradients computed in reciprocal space

     ************************************************************************


     Starting wfc are  300 randomized atomic wfcs

     total cpu time spent up to now is       76.8 secs

     Self-consistent Calculation

     iteration #  1     ecut=    40.42 Ry     beta=0.10
     Davidson diagonalization with overlap
     ethr =  1.00E-05,  avg # of iterations = 14.7

     negative rho (up, down):  1.189E-02 1.195E-02
 
     Magnetic moment per site:
     atom:    1    charge:    3.1245    magn:   -0.0003    constr:    0.0000
     atom:    2    charge:    2.0901    magn:    0.0003    constr:    0.0000
     atom:    3    charge:    3.1198    magn:   -0.0000    constr:    0.0000
     atom:    4    charge:    2.0869    magn:   -0.0001    constr:    0.0000
     atom:    5    charge:    3.1161    magn:   -0.0002    constr:    0.0000
     atom:    6    charge:    2.0791    magn:    0.0021    constr:    0.0000
     atom:    7    charge:    3.1165    magn:   -0.0053    constr:    0.0000
     atom:    8    charge:    2.0791    magn:    0.0248    constr:    0.0000
     atom:    9    charge:    3.1245    magn:   -0.0003    constr:    0.0000
     atom:   10    charge:    2.0903    magn:    0.0003    constr:    0.0000
     atom:   11    charge:    3.1198    magn:   -0.0000    constr:    0.0000
     atom:   12    charge:    2.0872    magn:   -0.0000    constr:    0.0000
     atom:   13    charge:    3.1150    magn:   -0.0002    constr:    0.0000
     atom:   14    charge:    2.0937    magn:    0.0023    constr:    0.0000
     atom:   15    charge:    3.1182    magn:   -0.0008    constr:    0.0000
     atom:   16    charge:    2.0822    magn:    0.0048    constr:    0.0000
     atom:   17    charge:    2.0643    magn:    0.0017    constr:    0.0000
     atom:   18    charge:    3.1241    magn:   -0.0001    constr:    0.0000
     atom:   19    charge:    2.0876    magn:    0.0001    constr:    0.0000
     atom:   20    charge:    2.0848    magn:    0.0002    constr:    0.0000
     atom:   21    charge:    2.0848    magn:    0.0002    constr:    0.0000
     atom:   22    charge:    3.1200    magn:    0.0000    constr:    0.0000
     atom:   23    charge:    2.0908    magn:    0.0002    constr:    0.0000
     atom:   24    charge:    2.0753    magn:   -0.0002    constr:    0.0000
     atom:   25    charge:    2.0869    magn:    0.0000    constr:    0.0000
     atom:   26    charge:    3.1127    magn:   -0.0002    constr:    0.0000
     atom:   27    charge:    2.0796    magn:    0.0025    constr:    0.0000
     atom:   28    charge:    2.0836    magn:    0.0006    constr:    0.0000
     atom:   29    charge:    2.0858    magn:    0.0008    constr:    0.0000
     atom:   30    charge:    3.1171    magn:   -0.0008    constr:    0.0000
     atom:   31    charge:    2.0824    magn:    0.0007    constr:    0.0000
     atom:   32    charge:    2.0822    magn:    0.0066    constr:    0.0000
     atom:   33    charge:    2.0643    magn:    0.0017    constr:    0.0000
     atom:   34    charge:    3.1241    magn:   -0.0001    constr:    0.0000
     atom:   35    charge:    2.0876    magn:    0.0001    constr:    0.0000
     atom:   36    charge:    2.0848    magn:    0.0002    constr:    0.0000
     atom:   37    charge:    2.0848    magn:    0.0002    constr:    0.0000
     atom:   38    charge:    3.1200    magn:    0.0000    constr:    0.0000
     atom:   39    charge:    2.0840    magn:    0.0002    constr:    0.0000
     atom:   40    charge:    2.0756    magn:   -0.0003    constr:    0.0000
     atom:   41    charge:    2.0872    magn:   -0.0000    constr:    0.0000
     atom:   42    charge:    3.1152    magn:   -0.0002    constr:    0.0000
     atom:   43    charge:    2.0796    magn:    0.0030    constr:    0.0000
     atom:   44    charge:    2.0848    magn:    0.0008    constr:    0.0000
     atom:   45    charge:    2.0856    magn:    0.0004    constr:    0.0000
     atom:   46    charge:    3.1146    magn:   -0.0007    constr:    0.0000
     atom:   47    charge:    2.0801    magn:    0.0047    constr:    0.0000
     atom:   48    charge:    2.0830    magn:    0.0137    constr:    0.0000
     atom:   49    charge:    2.0514    magn:    0.2397    constr:    0.0000
     atom:   50    charge:    0.6721    magn:    0.0536    constr:    0.0000
     atom:   51    charge:    0.4199    magn:    0.0008    constr:    0.0000
     atom:   52    charge:    0.4250    magn:    0.0008    constr:    0.0000
     atom:   53    charge:    0.3657    magn:    0.0232    constr:    0.0000
     atom:   54    charge:    0.4243    magn:    0.0006    constr:    0.0000

     total cpu time spent up to now is     1050.2 secs

     total energy              =   -3021.14779833 Ry
     Harris-Foulkes estimate   =   -3021.15889859 Ry
     estimated scf accuracy    <       0.06342658 Ry

     total magnetization       =     1.09 Bohr mag/cell
     absolute magnetization    =     1.26 Bohr mag/cell

     iteration #  2     ecut=    40.42 Ry     beta=0.10
     Davidson diagonalization with overlap
     ethr =  1.59E-05,  avg # of iterations =  6.7

     negative rho (up, down):  1.189E-02 1.195E-02
 
     Magnetic moment per site:
     atom:    1    charge:    3.1244    magn:   -0.0003    constr:    0.0000
     atom:    2    charge:    2.0897    magn:    0.0003    constr:    0.0000
     atom:    3    charge:    3.1198    magn:   -0.0000    constr:    0.0000
     atom:    4    charge:    2.0869    magn:   -0.0001    constr:    0.0000
     atom:    5    charge:    3.1161    magn:   -0.0002    constr:    0.0000
     atom:    6    charge:    2.0795    magn:    0.0020    constr:    0.0000
     atom:    7    charge:    3.1166    magn:   -0.0053    constr:    0.0000
     atom:    8    charge:    2.0793    magn:    0.0248    constr:    0.0000
     atom:    9    charge:    3.1244    magn:   -0.0003    constr:    0.0000
     atom:   10    charge:    2.0899    magn:    0.0003    constr:    0.0000
     atom:   11    charge:    3.1198    magn:   -0.0000    constr:    0.0000
     atom:   12    charge:    2.0872    magn:   -0.0000    constr:    0.0000
     atom:   13    charge:    3.1150    magn:   -0.0002    constr:    0.0000
     atom:   14    charge:    2.0939    magn:    0.0023    constr:    0.0000
     atom:   15    charge:    3.1182    magn:   -0.0008    constr:    0.0000
     atom:   16    charge:    2.0826    magn:    0.0047    constr:    0.0000
     atom:   17    charge:    2.0625    magn:    0.0017    constr:    0.0000
     atom:   18    charge:    3.1240    magn:   -0.0001    constr:    0.0000
     atom:   19    charge:    2.0875    magn:    0.0001    constr:    0.0000
     atom:   20    charge:    2.0847    magn:    0.0002    constr:    0.0000
     atom:   21    charge:    2.0847    magn:    0.0002    constr:    0.0000
     atom:   22    charge:    3.1199    magn:    0.0000    constr:    0.0000
     atom:   23    charge:    2.0909    magn:    0.0002    constr:    0.0000
     atom:   24    charge:    2.0756    magn:   -0.0002    constr:    0.0000
     atom:   25    charge:    2.0869    magn:    0.0000    constr:    0.0000
     atom:   26    charge:    3.1127    magn:   -0.0002    constr:    0.0000
     atom:   27    charge:    2.0802    magn:    0.0025    constr:    0.0000
     atom:   28    charge:    2.0840    magn:    0.0006    constr:    0.0000
     atom:   29    charge:    2.0861    magn:    0.0007    constr:    0.0000
     atom:   30    charge:    3.1171    magn:   -0.0008    constr:    0.0000
     atom:   31    charge:    2.0825    magn:    0.0006    constr:    0.0000
     atom:   32    charge:    2.0826    magn:    0.0066    constr:    0.0000
     atom:   33    charge:    2.0624    magn:    0.0018    constr:    0.0000
     atom:   34    charge:    3.1240    magn:   -0.0001    constr:    0.0000
     atom:   35    charge:    2.0876    magn:    0.0001    constr:    0.0000
     atom:   36    charge:    2.0847    magn:    0.0002    constr:    0.0000
     atom:   37    charge:    2.0847    magn:    0.0002    constr:    0.0000
     atom:   38    charge:    3.1200    magn:    0.0000    constr:    0.0000
     atom:   39    charge:    2.0841    magn:    0.0002    constr:    0.0000
     atom:   40    charge:    2.0759    magn:   -0.0003    constr:    0.0000
     atom:   41    charge:    2.0872    magn:   -0.0000    constr:    0.0000
     atom:   42    charge:    3.1151    magn:   -0.0002    constr:    0.0000
     atom:   43    charge:    2.0802    magn:    0.0030    constr:    0.0000
     atom:   44    charge:    2.0852    magn:    0.0008    constr:    0.0000
     atom:   45    charge:    2.0859    magn:    0.0004    constr:    0.0000
     atom:   46    charge:    3.1147    magn:   -0.0007    constr:    0.0000
     atom:   47    charge:    2.0803    magn:    0.0047    constr:    0.0000
     atom:   48    charge:    2.0832    magn:    0.0137    constr:    0.0000
     atom:   49    charge:    2.0518    magn:    0.2394    constr:    0.0000
     atom:   50    charge:    0.6722    magn:    0.0537    constr:    0.0000
     atom:   51    charge:    0.4194    magn:    0.0008    constr:    0.0000
     atom:   52    charge:    0.4256    magn:    0.0007    constr:    0.0000
     atom:   53    charge:    0.3653    magn:    0.0232    constr:    0.0000
     atom:   54    charge:    0.4246    magn:    0.0006    constr:    0.0000

     total cpu time spent up to now is     1351.8 secs

     total energy              =   -3021.14654066 Ry
     Harris-Foulkes estimate   =   -3021.16168243 Ry
     estimated scf accuracy    <       0.26745939 Ry

     total magnetization       =     1.00 Bohr mag/cell
     absolute magnetization    =     1.18 Bohr mag/cell

     iteration #  3     ecut=    40.42 Ry     beta=0.10
     Davidson diagonalization with overlap
     ethr =  1.59E-05,  avg # of iterations =  5.8

     negative rho (up, down):  1.188E-02 1.195E-02
 
     Magnetic moment per site:
     atom:    1    charge:    3.1244    magn:   -0.0003    constr:    0.0000
     atom:    2    charge:    2.0896    magn:    0.0003    constr:    0.0000
     atom:    3    charge:    3.1198    magn:   -0.0000    constr:    0.0000
     atom:    4    charge:    2.0867    magn:   -0.0001    constr:    0.0000
     atom:    5    charge:    3.1161    magn:   -0.0002    constr:    0.0000
     atom:    6    charge:    2.0796    magn:    0.0020    constr:    0.0000
     atom:    7    charge:    3.1165    magn:   -0.0053    constr:    0.0000
     atom:    8    charge:    2.0795    magn:    0.0247    constr:    0.0000
     atom:    9    charge:    3.1244    magn:   -0.0003    constr:    0.0000
     atom:   10    charge:    2.0898    magn:    0.0003    constr:    0.0000
     atom:   11    charge:    3.1198    magn:   -0.0000    constr:    0.0000
     atom:   12    charge:    2.0870    magn:   -0.0000    constr:    0.0000
     atom:   13    charge:    3.1150    magn:   -0.0002    constr:    0.0000
     atom:   14    charge:    2.0939    magn:    0.0022    constr:    0.0000
     atom:   15    charge:    3.1183    magn:   -0.0008    constr:    0.0000
     atom:   16    charge:    2.0828    magn:    0.0047    constr:    0.0000
     atom:   17    charge:    2.0627    magn:    0.0017    constr:    0.0000
     atom:   18    charge:    3.1241    magn:   -0.0001    constr:    0.0000
     atom:   19    charge:    2.0875    magn:    0.0001    constr:    0.0000
     atom:   20    charge:    2.0847    magn:    0.0002    constr:    0.0000
     atom:   21    charge:    2.0847    magn:    0.0002    constr:    0.0000
     atom:   22    charge:    3.1199    magn:    0.0000    constr:    0.0000
     atom:   23    charge:    2.0907    magn:    0.0002    constr:    0.0000
     atom:   24    charge:    2.0753    magn:   -0.0002    constr:    0.0000
     atom:   25    charge:    2.0867    magn:    0.0000    constr:    0.0000
     atom:   26    charge:    3.1126    magn:   -0.0002    constr:    0.0000
     atom:   27    charge:    2.0803    magn:    0.0025    constr:    0.0000
     atom:   28    charge:    2.0839    magn:    0.0006    constr:    0.0000
     atom:   29    charge:    2.0860    magn:    0.0008    constr:    0.0000
     atom:   30    charge:    3.1171    magn:   -0.0008    constr:    0.0000
     atom:   31    charge:    2.0827    magn:    0.0006    constr:    0.0000
     atom:   32    charge:    2.0829    magn:    0.0065    constr:    0.0000
     atom:   33    charge:    2.0627    magn:    0.0017    constr:    0.0000
     atom:   34    charge:    3.1240    magn:   -0.0001    constr:    0.0000
     atom:   35    charge:    2.0875    magn:    0.0001    constr:    0.0000
     atom:   36    charge:    2.0847    magn:    0.0002    constr:    0.0000
     atom:   37    charge:    2.0847    magn:    0.0002    constr:    0.0000
     atom:   38    charge:    3.1200    magn:    0.0000    constr:    0.0000
     atom:   39    charge:    2.0839    magn:    0.0002    constr:    0.0000
     atom:   40    charge:    2.0756    magn:   -0.0003    constr:    0.0000
     atom:   41    charge:    2.0870    magn:   -0.0000    constr:    0.0000
     atom:   42    charge:    3.1151    magn:   -0.0002    constr:    0.0000
     atom:   43    charge:    2.0804    magn:    0.0030    constr:    0.0000
     atom:   44    charge:    2.0851    magn:    0.0008    constr:    0.0000
     atom:   45    charge:    2.0858    magn:    0.0004    constr:    0.0000
     atom:   46    charge:    3.1146    magn:   -0.0007    constr:    0.0000
     atom:   47    charge:    2.0806    magn:    0.0047    constr:    0.0000
     atom:   48    charge:    2.0834    magn:    0.0136    constr:    0.0000
     atom:   49    charge:    2.0521    magn:    0.2390    constr:    0.0000
     atom:   50    charge:    0.6723    magn:    0.0540    constr:    0.0000
     atom:   51    charge:    0.4179    magn:    0.0008    constr:    0.0000
     atom:   52    charge:    0.4272    magn:    0.0007    constr:    0.0000
     atom:   53    charge:    0.3642    magn:    0.0232    constr:    0.0000
     atom:   54    charge:    0.4254    magn:    0.0006    constr:    0.0000

     total cpu time spent up to now is     1635.9 secs

     total energy              =   -3021.15204940 Ry
     Harris-Foulkes estimate   =   -3021.15409684 Ry
     estimated scf accuracy    <       0.01573937 Ry

     total magnetization       =     1.05 Bohr mag/cell
     absolute magnetization    =     1.23 Bohr mag/cell

     iteration #  4     ecut=    40.42 Ry     beta=0.10
     Davidson diagonalization with overlap
     ethr =  3.95E-06,  avg # of iterations =  5.6

     negative rho (up, down):  1.187E-02 1.195E-02
 
     Magnetic moment per site:
     atom:    1    charge:    3.1244    magn:   -0.0003    constr:    0.0000
     atom:    2    charge:    2.0895    magn:    0.0003    constr:    0.0000
     atom:    3    charge:    3.1198    magn:   -0.0000    constr:    0.0000
     atom:    4    charge:    2.0865    magn:   -0.0001    constr:    0.0000
     atom:    5    charge:    3.1161    magn:   -0.0002    constr:    0.0000
     atom:    6    charge:    2.0797    magn:    0.0021    constr:    0.0000
     atom:    7    charge:    3.1166    magn:   -0.0052    constr:    0.0000
     atom:    8    charge:    2.0796    magn:    0.0244    constr:    0.0000
     atom:    9    charge:    3.1244    magn:   -0.0003    constr:    0.0000
     atom:   10    charge:    2.0896    magn:    0.0003    constr:    0.0000
     atom:   11    charge:    3.1198    magn:   -0.0000    constr:    0.0000
     atom:   12    charge:    2.0868    magn:   -0.0000    constr:    0.0000
     atom:   13    charge:    3.1150    magn:   -0.0002    constr:    0.0000
     atom:   14    charge:    2.0940    magn:    0.0022    constr:    0.0000
     atom:   15    charge:    3.1184    magn:   -0.0008    constr:    0.0000
     atom:   16    charge:    2.0832    magn:    0.0046    constr:    0.0000
     atom:   17    charge:    2.0623    magn:    0.0015    constr:    0.0000
     atom:   18    charge:    3.1239    magn:   -0.0001    constr:    0.0000
     atom:   19    charge:    2.0875    magn:    0.0001    constr:    0.0000
     atom:   20    charge:    2.0848    magn:    0.0001    constr:    0.0000
     atom:   21    charge:    2.0847    magn:    0.0001    constr:    0.0000
     atom:   22    charge:    3.1199    magn:    0.0000    constr:    0.0000
     atom:   23    charge:    2.0906    magn:    0.0002    constr:    0.0000
     atom:   24    charge:    2.0751    magn:   -0.0001    constr:    0.0000
     atom:   25    charge:    2.0865    magn:    0.0000    constr:    0.0000
     atom:   26    charge:    3.1126    magn:   -0.0002    constr:    0.0000
     atom:   27    charge:    2.0805    magn:    0.0025    constr:    0.0000
     atom:   28    charge:    2.0838    magn:    0.0006    constr:    0.0000
     atom:   29    charge:    2.0860    magn:    0.0008    constr:    0.0000
     atom:   30    charge:    3.1171    magn:   -0.0008    constr:    0.0000
     atom:   31    charge:    2.0828    magn:    0.0006    constr:    0.0000
     atom:   32    charge:    2.0833    magn:    0.0064    constr:    0.0000
     atom:   33    charge:    2.0623    magn:    0.0015    constr:    0.0000
     atom:   34    charge:    3.1239    magn:   -0.0001    constr:    0.0000
     atom:   35    charge:    2.0875    magn:    0.0001    constr:    0.0000
     atom:   36    charge:    2.0847    magn:    0.0001    constr:    0.0000
     atom:   37    charge:    2.0847    magn:    0.0001    constr:    0.0000
     atom:   38    charge:    3.1200    magn:    0.0000    constr:    0.0000
     atom:   39    charge:    2.0837    magn:    0.0002    constr:    0.0000
     atom:   40    charge:    2.0754    magn:   -0.0002    constr:    0.0000
     atom:   41    charge:    2.0868    magn:   -0.0000    constr:    0.0000
     atom:   42    charge:    3.1151    magn:   -0.0002    constr:    0.0000
     atom:   43    charge:    2.0806    magn:    0.0030    constr:    0.0000
     atom:   44    charge:    2.0850    magn:    0.0009    constr:    0.0000
     atom:   45    charge:    2.0858    magn:    0.0004    constr:    0.0000
     atom:   46    charge:    3.1147    magn:   -0.0007    constr:    0.0000
     atom:   47    charge:    2.0811    magn:    0.0046    constr:    0.0000
     atom:   48    charge:    2.0839    magn:    0.0136    constr:    0.0000
     atom:   49    charge:    2.0525    magn:    0.2375    constr:    0.0000
     atom:   50    charge:    0.6727    magn:    0.0552    constr:    0.0000
     atom:   51    charge:    0.4111    magn:    0.0006    constr:    0.0000
     atom:   52    charge:    0.4347    magn:    0.0007    constr:    0.0000
     atom:   53    charge:    0.3587    magn:    0.0231    constr:    0.0000
     atom:   54    charge:    0.4292    magn:    0.0005    constr:    0.0000

     total cpu time spent up to now is     1917.0 secs

     total energy              =   -3021.14719229 Ry
     Harris-Foulkes estimate   =   -3021.15235010 Ry
     estimated scf accuracy    <       0.00929913 Ry

     total magnetization       =     1.07 Bohr mag/cell
     absolute magnetization    =     1.23 Bohr mag/cell

     iteration #  5     ecut=    40.42 Ry     beta=0.10
     Davidson diagonalization with overlap
     ethr =  2.34E-06,  avg # of iterations =  6.8

     negative rho (up, down):  1.188E-02 1.195E-02
 
     Magnetic moment per site:
     atom:    1    charge:    3.1244    magn:   -0.0003    constr:    0.0000
     atom:    2    charge:    2.0896    magn:    0.0002    constr:    0.0000
     atom:    3    charge:    3.1198    magn:   -0.0000    constr:    0.0000
     atom:    4    charge:    2.0867    magn:   -0.0001    constr:    0.0000
     atom:    5    charge:    3.1161    magn:   -0.0002    constr:    0.0000
     atom:    6    charge:    2.0795    magn:    0.0021    constr:    0.0000
     atom:    7    charge:    3.1167    magn:   -0.0052    constr:    0.0000
     atom:    8    charge:    2.0793    magn:    0.0244    constr:    0.0000
     atom:    9    charge:    3.1244    magn:   -0.0003    constr:    0.0000
     atom:   10    charge:    2.0898    magn:    0.0003    constr:    0.0000
     atom:   11    charge:    3.1198    magn:   -0.0000    constr:    0.0000
     atom:   12    charge:    2.0870    magn:   -0.0000    constr:    0.0000
     atom:   13    charge:    3.1150    magn:   -0.0002    constr:    0.0000
     atom:   14    charge:    2.0939    magn:    0.0022    constr:    0.0000
     atom:   15    charge:    3.1185    magn:   -0.0008    constr:    0.0000
     atom:   16    charge:    2.0830    magn:    0.0047    constr:    0.0000
     atom:   17    charge:    2.0620    magn:    0.0014    constr:    0.0000
     atom:   18    charge:    3.1238    magn:   -0.0001    constr:    0.0000
     atom:   19    charge:    2.0876    magn:    0.0001    constr:    0.0000
     atom:   20    charge:    2.0847    magn:    0.0001    constr:    0.0000
     atom:   21    charge:    2.0847    magn:    0.0001    constr:    0.0000
     atom:   22    charge:    3.1199    magn:    0.0000    constr:    0.0000
     atom:   23    charge:    2.0908    magn:    0.0002    constr:    0.0000
     atom:   24    charge:    2.0754    magn:   -0.0001    constr:    0.0000
     atom:   25    charge:    2.0867    magn:    0.0000    constr:    0.0000
     atom:   26    charge:    3.1127    magn:   -0.0002    constr:    0.0000
     atom:   27    charge:    2.0803    magn:    0.0025    constr:    0.0000
     atom:   28    charge:    2.0839    magn:    0.0006    constr:    0.0000
     atom:   29    charge:    2.0861    magn:    0.0008    constr:    0.0000
     atom:   30    charge:    3.1171    magn:   -0.0008    constr:    0.0000
     atom:   31    charge:    2.0826    magn:    0.0006    constr:    0.0000
     atom:   32    charge:    2.0831    magn:    0.0065    constr:    0.0000
     atom:   33    charge:    2.0620    magn:    0.0015    constr:    0.0000
     atom:   34    charge:    3.1238    magn:   -0.0001    constr:    0.0000
     atom:   35    charge:    2.0876    magn:    0.0001    constr:    0.0000
     atom:   36    charge:    2.0847    magn:    0.0001    constr:    0.0000
     atom:   37    charge:    2.0847    magn:    0.0001    constr:    0.0000
     atom:   38    charge:    3.1200    magn:    0.0000    constr:    0.0000
     atom:   39    charge:    2.0839    magn:    0.0002    constr:    0.0000
     atom:   40    charge:    2.0756    magn:   -0.0002    constr:    0.0000
     atom:   41    charge:    2.0870    magn:   -0.0000    constr:    0.0000
     atom:   42    charge:    3.1152    magn:   -0.0002    constr:    0.0000
     atom:   43    charge:    2.0803    magn:    0.0030    constr:    0.0000
     atom:   44    charge:    2.0851    magn:    0.0009    constr:    0.0000
     atom:   45    charge:    2.0859    magn:    0.0004    constr:    0.0000
     atom:   46    charge:    3.1148    magn:   -0.0007    constr:    0.0000
     atom:   47    charge:    2.0809    magn:    0.0046    constr:    0.0000
     atom:   48    charge:    2.0840    magn:    0.0135    constr:    0.0000
     atom:   49    charge:    2.0522    magn:    0.2373    constr:    0.0000
     atom:   50    charge:    0.6727    magn:    0.0554    constr:    0.0000
     atom:   51    charge:    0.4106    magn:    0.0006    constr:    0.0000
     atom:   52    charge:    0.4352    magn:    0.0006    constr:    0.0000
     atom:   53    charge:    0.3585    magn:    0.0231    constr:    0.0000
     atom:   54    charge:    0.4295    magn:    0.0005    constr:    0.0000

     total cpu time spent up to now is     2251.4 secs

     total energy              =   -3021.14828096 Ry
     Harris-Foulkes estimate   =   -3021.14875275 Ry
     estimated scf accuracy    <       0.00369539 Ry

     total magnetization       =     1.07 Bohr mag/cell
     absolute magnetization    =     1.23 Bohr mag/cell

     iteration #  6     ecut=    40.42 Ry     beta=0.10
     Davidson diagonalization with overlap
     ethr =  9.28E-07,  avg # of iterations =  1.1

     negative rho (up, down):  1.188E-02 1.195E-02
 
     Magnetic moment per site:
     atom:    1    charge:    3.1244    magn:   -0.0002    constr:    0.0000
     atom:    2    charge:    2.0897    magn:    0.0002    constr:    0.0000
     atom:    3    charge:    3.1198    magn:   -0.0000    constr:    0.0000
     atom:    4    charge:    2.0867    magn:   -0.0001    constr:    0.0000
     atom:    5    charge:    3.1161    magn:   -0.0002    constr:    0.0000
     atom:    6    charge:    2.0795    magn:    0.0021    constr:    0.0000
     atom:    7    charge:    3.1168    magn:   -0.0051    constr:    0.0000
     atom:    8    charge:    2.0792    magn:    0.0244    constr:    0.0000
     atom:    9    charge:    3.1244    magn:   -0.0002    constr:    0.0000
     atom:   10    charge:    2.0899    magn:    0.0002    constr:    0.0000
     atom:   11    charge:    3.1198    magn:   -0.0000    constr:    0.0000
     atom:   12    charge:    2.0871    magn:   -0.0000    constr:    0.0000
     atom:   13    charge:    3.1150    magn:   -0.0002    constr:    0.0000
     atom:   14    charge:    2.0938    magn:    0.0022    constr:    0.0000
     atom:   15    charge:    3.1185    magn:   -0.0008    constr:    0.0000
     atom:   16    charge:    2.0829    magn:    0.0046    constr:    0.0000
     atom:   17    charge:    2.0623    magn:    0.0014    constr:    0.0000
     atom:   18    charge:    3.1239    magn:   -0.0001    constr:    0.0000
     atom:   19    charge:    2.0876    magn:    0.0001    constr:    0.0000
     atom:   20    charge:    2.0847    magn:    0.0001    constr:    0.0000
     atom:   21    charge:    2.0847    magn:    0.0001    constr:    0.0000
     atom:   22    charge:    3.1199    magn:    0.0000    constr:    0.0000
     atom:   23    charge:    2.0908    magn:    0.0002    constr:    0.0000
     atom:   24    charge:    2.0754    magn:   -0.0001    constr:    0.0000
     atom:   25    charge:    2.0868    magn:    0.0000    constr:    0.0000
     atom:   26    charge:    3.1127    magn:   -0.0002    constr:    0.0000
     atom:   27    charge:    2.0802    magn:    0.0026    constr:    0.0000
     atom:   28    charge:    2.0839    magn:    0.0007    constr:    0.0000
     atom:   29    charge:    2.0860    magn:    0.0008    constr:    0.0000
     atom:   30    charge:    3.1171    magn:   -0.0008    constr:    0.0000
     atom:   31    charge:    2.0825    magn:    0.0006    constr:    0.0000
     atom:   32    charge:    2.0830    magn:    0.0064    constr:    0.0000
     atom:   33    charge:    2.0623    magn:    0.0014    constr:    0.0000
     atom:   34    charge:    3.1239    magn:   -0.0001    constr:    0.0000
     atom:   35    charge:    2.0876    magn:    0.0000    constr:    0.0000
     atom:   36    charge:    2.0847    magn:    0.0001    constr:    0.0000
     atom:   37    charge:    2.0847    magn:    0.0001    constr:    0.0000
     atom:   38    charge:    3.1200    magn:    0.0000    constr:    0.0000
     atom:   39    charge:    2.0839    magn:    0.0002    constr:    0.0000
     atom:   40    charge:    2.0757    magn:   -0.0002    constr:    0.0000
     atom:   41    charge:    2.0871    magn:   -0.0000    constr:    0.0000
     atom:   42    charge:    3.1151    magn:   -0.0002    constr:    0.0000
     atom:   43    charge:    2.0802    magn:    0.0030    constr:    0.0000
     atom:   44    charge:    2.0851    magn:    0.0009    constr:    0.0000
     atom:   45    charge:    2.0858    magn:    0.0005    constr:    0.0000
     atom:   46    charge:    3.1148    magn:   -0.0007    constr:    0.0000
     atom:   47    charge:    2.0809    magn:    0.0046    constr:    0.0000
     atom:   48    charge:    2.0841    magn:    0.0135    constr:    0.0000
     atom:   49    charge:    2.0520    magn:    0.2369    constr:    0.0000
     atom:   50    charge:    0.6728    magn:    0.0556    constr:    0.0000
     atom:   51    charge:    0.4105    magn:    0.0007    constr:    0.0000
     atom:   52    charge:    0.4354    magn:    0.0006    constr:    0.0000
     atom:   53    charge:    0.3586    magn:    0.0231    constr:    0.0000
     atom:   54    charge:    0.4296    magn:    0.0005    constr:    0.0000

     total cpu time spent up to now is     2453.4 secs

     total energy              =   -3021.14847356 Ry
     Harris-Foulkes estimate   =   -3021.14852420 Ry
     estimated scf accuracy    <       0.00039047 Ry

     total magnetization       =     1.06 Bohr mag/cell
     absolute magnetization    =     1.23 Bohr mag/cell

     iteration #  7     ecut=    40.42 Ry     beta=0.10
     Davidson diagonalization with overlap
     ethr =  9.81E-08,  avg # of iterations =  3.0

     negative rho (up, down):  1.188E-02 1.196E-02
 
     Magnetic moment per site:
     atom:    1    charge:    3.1244    magn:   -0.0002    constr:    0.0000
     atom:    2    charge:    2.0897    magn:    0.0002    constr:    0.0000
     atom:    3    charge:    3.1198    magn:   -0.0000    constr:    0.0000
     atom:    4    charge:    2.0867    magn:   -0.0001    constr:    0.0000
     atom:    5    charge:    3.1161    magn:   -0.0002    constr:    0.0000
     atom:    6    charge:    2.0795    magn:    0.0021    constr:    0.0000
     atom:    7    charge:    3.1167    magn:   -0.0051    constr:    0.0000
     atom:    8    charge:    2.0792    magn:    0.0244    constr:    0.0000
     atom:    9    charge:    3.1244    magn:   -0.0002    constr:    0.0000
     atom:   10    charge:    2.0898    magn:    0.0002    constr:    0.0000
     atom:   11    charge:    3.1198    magn:   -0.0000    constr:    0.0000
     atom:   12    charge:    2.0871    magn:   -0.0000    constr:    0.0000
     atom:   13    charge:    3.1150    magn:   -0.0002    constr:    0.0000
     atom:   14    charge:    2.0939    magn:    0.0022    constr:    0.0000
     atom:   15    charge:    3.1185    magn:   -0.0008    constr:    0.0000
     atom:   16    charge:    2.0829    magn:    0.0046    constr:    0.0000
     atom:   17    charge:    2.0624    magn:    0.0013    constr:    0.0000
     atom:   18    charge:    3.1239    magn:   -0.0001    constr:    0.0000
     atom:   19    charge:    2.0875    magn:    0.0001    constr:    0.0000
     atom:   20    charge:    2.0847    magn:    0.0001    constr:    0.0000
     atom:   21    charge:    2.0847    magn:    0.0001    constr:    0.0000
     atom:   22    charge:    3.1199    magn:    0.0000    constr:    0.0000
     atom:   23    charge:    2.0908    magn:    0.0002    constr:    0.0000
     atom:   24    charge:    2.0754    magn:   -0.0001    constr:    0.0000
     atom:   25    charge:    2.0867    magn:    0.0000    constr:    0.0000
     atom:   26    charge:    3.1127    magn:   -0.0002    constr:    0.0000
     atom:   27    charge:    2.0802    magn:    0.0026    constr:    0.0000
     atom:   28    charge:    2.0839    magn:    0.0007    constr:    0.0000
     atom:   29    charge:    2.0860    magn:    0.0008    constr:    0.0000
     atom:   30    charge:    3.1171    magn:   -0.0008    constr:    0.0000
     atom:   31    charge:    2.0825    magn:    0.0006    constr:    0.0000
     atom:   32    charge:    2.0830    magn:    0.0064    constr:    0.0000
     atom:   33    charge:    2.0624    magn:    0.0013    constr:    0.0000
     atom:   34    charge:    3.1239    magn:   -0.0001    constr:    0.0000
     atom:   35    charge:    2.0876    magn:    0.0000    constr:    0.0000
     atom:   36    charge:    2.0847    magn:    0.0001    constr:    0.0000
     atom:   37    charge:    2.0847    magn:    0.0001    constr:    0.0000
     atom:   38    charge:    3.1200    magn:    0.0000    constr:    0.0000
     atom:   39    charge:    2.0839    magn:    0.0002    constr:    0.0000
     atom:   40    charge:    2.0756    magn:   -0.0002    constr:    0.0000
     atom:   41    charge:    2.0870    magn:   -0.0000    constr:    0.0000
     atom:   42    charge:    3.1151    magn:   -0.0002    constr:    0.0000
     atom:   43    charge:    2.0803    magn:    0.0031    constr:    0.0000
     atom:   44    charge:    2.0851    magn:    0.0009    constr:    0.0000
     atom:   45    charge:    2.0858    magn:    0.0005    constr:    0.0000
     atom:   46    charge:    3.1148    magn:   -0.0007    constr:    0.0000
     atom:   47    charge:    2.0808    magn:    0.0046    constr:    0.0000
     atom:   48    charge:    2.0840    magn:    0.0135    constr:    0.0000
     atom:   49    charge:    2.0519    magn:    0.2368    constr:    0.0000
     atom:   50    charge:    0.6728    magn:    0.0557    constr:    0.0000
     atom:   51    charge:    0.4108    magn:    0.0007    constr:    0.0000
     atom:   52    charge:    0.4351    magn:    0.0006    constr:    0.0000
     atom:   53    charge:    0.3589    magn:    0.0231    constr:    0.0000
     atom:   54    charge:    0.4295    magn:    0.0005    constr:    0.0000

     total cpu time spent up to now is     2693.0 secs

     total energy              =   -3021.14849057 Ry
     Harris-Foulkes estimate   =   -3021.14850707 Ry
     estimated scf accuracy    <       0.00017772 Ry

     total magnetization       =     1.06 Bohr mag/cell
     absolute magnetization    =     1.23 Bohr mag/cell

     iteration #  8     ecut=    40.42 Ry     beta=0.10
     Davidson diagonalization with overlap
     ethr =  4.47E-08,  avg # of iterations =  2.0

     negative rho (up, down):  1.189E-02 1.196E-02
 
     Magnetic moment per site:
     atom:    1    charge:    3.1245    magn:   -0.0002    constr:    0.0000
     atom:    2    charge:    2.0897    magn:    0.0002    constr:    0.0000
     atom:    3    charge:    3.1198    magn:   -0.0000    constr:    0.0000
     atom:    4    charge:    2.0867    magn:   -0.0001    constr:    0.0000
     atom:    5    charge:    3.1161    magn:   -0.0002    constr:    0.0000
     atom:    6    charge:    2.0795    magn:    0.0021    constr:    0.0000
     atom:    7    charge:    3.1167    magn:   -0.0051    constr:    0.0000
     atom:    8    charge:    2.0793    magn:    0.0243    constr:    0.0000
     atom:    9    charge:    3.1245    magn:   -0.0002    constr:    0.0000
     atom:   10    charge:    2.0898    magn:    0.0002    constr:    0.0000
     atom:   11    charge:    3.1198    magn:   -0.0000    constr:    0.0000
     atom:   12    charge:    2.0871    magn:   -0.0000    constr:    0.0000
     atom:   13    charge:    3.1150    magn:   -0.0002    constr:    0.0000
     atom:   14    charge:    2.0939    magn:    0.0022    constr:    0.0000
     atom:   15    charge:    3.1184    magn:   -0.0008    constr:    0.0000
     atom:   16    charge:    2.0828    magn:    0.0046    constr:    0.0000
     atom:   17    charge:    2.0625    magn:    0.0012    constr:    0.0000
     atom:   18    charge:    3.1240    magn:   -0.0000    constr:    0.0000
     atom:   19    charge:    2.0875    magn:    0.0000    constr:    0.0000
     atom:   20    charge:    2.0847    magn:    0.0001    constr:    0.0000
     atom:   21    charge:    2.0847    magn:    0.0001    constr:    0.0000
     atom:   22    charge:    3.1199    magn:    0.0000    constr:    0.0000
     atom:   23    charge:    2.0908    magn:    0.0002    constr:    0.0000
     atom:   24    charge:    2.0754    magn:   -0.0001    constr:    0.0000
     atom:   25    charge:    2.0868    magn:    0.0000    constr:    0.0000
     atom:   26    charge:    3.1127    magn:   -0.0002    constr:    0.0000
     atom:   27    charge:    2.0802    magn:    0.0026    constr:    0.0000
     atom:   28    charge:    2.0839    magn:    0.0007    constr:    0.0000
     atom:   29    charge:    2.0860    magn:    0.0008    constr:    0.0000
     atom:   30    charge:    3.1171    magn:   -0.0008    constr:    0.0000
     atom:   31    charge:    2.0825    magn:    0.0006    constr:    0.0000
     atom:   32    charge:    2.0829    magn:    0.0064    constr:    0.0000
     atom:   33    charge:    2.0625    magn:    0.0012    constr:    0.0000
     atom:   34    charge:    3.1240    magn:   -0.0000    constr:    0.0000
     atom:   35    charge:    2.0875    magn:    0.0000    constr:    0.0000
     atom:   36    charge:    2.0847    magn:    0.0001    constr:    0.0000
     atom:   37    charge:    2.0847    magn:    0.0001    constr:    0.0000
     atom:   38    charge:    3.1200    magn:    0.0000    constr:    0.0000
     atom:   39    charge:    2.0839    magn:    0.0002    constr:    0.0000
     atom:   40    charge:    2.0756    magn:   -0.0001    constr:    0.0000
     atom:   41    charge:    2.0870    magn:   -0.0000    constr:    0.0000
     atom:   42    charge:    3.1151    magn:   -0.0002    constr:    0.0000
     atom:   43    charge:    2.0802    magn:    0.0031    constr:    0.0000
     atom:   44    charge:    2.0851    magn:    0.0009    constr:    0.0000
     atom:   45    charge:    2.0858    magn:    0.0005    constr:    0.0000
     atom:   46    charge:    3.1147    magn:   -0.0007    constr:    0.0000
     atom:   47    charge:    2.0807    magn:    0.0046    constr:    0.0000
     atom:   48    charge:    2.0838    magn:    0.0134    constr:    0.0000
     atom:   49    charge:    2.0517    magn:    0.2364    constr:    0.0000
     atom:   50    charge:    0.6728    magn:    0.0560    constr:    0.0000
     atom:   51    charge:    0.4112    magn:    0.0008    constr:    0.0000
     atom:   52    charge:    0.4347    magn:    0.0006    constr:    0.0000
     atom:   53    charge:    0.3595    magn:    0.0231    constr:    0.0000
     atom:   54    charge:    0.4293    magn:    0.0005    constr:    0.0000

     total cpu time spent up to now is     2912.3 secs

     total energy              =   -3021.14848989 Ry
     Harris-Foulkes estimate   =   -3021.14849736 Ry
     estimated scf accuracy    <       0.00003990 Ry

     total magnetization       =     1.06 Bohr mag/cell
     absolute magnetization    =     1.23 Bohr mag/cell

     iteration #  9     ecut=    40.42 Ry     beta=0.10
     Davidson diagonalization with overlap
     ethr =  1.00E-08,  avg # of iterations =  3.0

     negative rho (up, down):  1.189E-02 1.196E-02
 
     Magnetic moment per site:
     atom:    1    charge:    3.1245    magn:   -0.0002    constr:    0.0000
     atom:    2    charge:    2.0897    magn:    0.0002    constr:    0.0000
     atom:    3    charge:    3.1198    magn:   -0.0000    constr:    0.0000
     atom:    4    charge:    2.0867    magn:   -0.0001    constr:    0.0000
     atom:    5    charge:    3.1161    magn:   -0.0003    constr:    0.0000
     atom:    6    charge:    2.0795    magn:    0.0021    constr:    0.0000
     atom:    7    charge:    3.1166    magn:   -0.0050    constr:    0.0000
     atom:    8    charge:    2.0793    magn:    0.0243    constr:    0.0000
     atom:    9    charge:    3.1245    magn:   -0.0002    constr:    0.0000
     atom:   10    charge:    2.0898    magn:    0.0002    constr:    0.0000
     atom:   11    charge:    3.1198    magn:   -0.0000    constr:    0.0000
     atom:   12    charge:    2.0871    magn:   -0.0000    constr:    0.0000
     atom:   13    charge:    3.1150    magn:   -0.0002    constr:    0.0000
     atom:   14    charge:    2.0939    magn:    0.0022    constr:    0.0000
     atom:   15    charge:    3.1184    magn:   -0.0008    constr:    0.0000
     atom:   16    charge:    2.0828    magn:    0.0046    constr:    0.0000
     atom:   17    charge:    2.0625    magn:    0.0011    constr:    0.0000
     atom:   18    charge:    3.1240    magn:   -0.0000    constr:    0.0000
     atom:   19    charge:    2.0875    magn:    0.0000    constr:    0.0000
     atom:   20    charge:    2.0847    magn:    0.0001    constr:    0.0000
     atom:   21    charge:    2.0847    magn:    0.0001    constr:    0.0000
     atom:   22    charge:    3.1199    magn:    0.0000    constr:    0.0000
     atom:   23    charge:    2.0908    magn:    0.0002    constr:    0.0000
     atom:   24    charge:    2.0754    magn:   -0.0001    constr:    0.0000
     atom:   25    charge:    2.0867    magn:    0.0000    constr:    0.0000
     atom:   26    charge:    3.1127    magn:   -0.0003    constr:    0.0000
     atom:   27    charge:    2.0803    magn:    0.0026    constr:    0.0000
     atom:   28    charge:    2.0839    magn:    0.0007    constr:    0.0000
     atom:   29    charge:    2.0860    magn:    0.0009    constr:    0.0000
     atom:   30    charge:    3.1171    magn:   -0.0008    constr:    0.0000
     atom:   31    charge:    2.0825    magn:    0.0006    constr:    0.0000
     atom:   32    charge:    2.0829    magn:    0.0064    constr:    0.0000
     atom:   33    charge:    2.0625    magn:    0.0011    constr:    0.0000
     atom:   34    charge:    3.1240    magn:   -0.0000    constr:    0.0000
     atom:   35    charge:    2.0875    magn:    0.0000    constr:    0.0000
     atom:   36    charge:    2.0847    magn:    0.0001    constr:    0.0000
     atom:   37    charge:    2.0847    magn:    0.0001    constr:    0.0000
     atom:   38    charge:    3.1200    magn:    0.0000    constr:    0.0000
     atom:   39    charge:    2.0839    magn:    0.0002    constr:    0.0000
     atom:   40    charge:    2.0756    magn:   -0.0001    constr:    0.0000
     atom:   41    charge:    2.0870    magn:   -0.0000    constr:    0.0000
     atom:   42    charge:    3.1151    magn:   -0.0002    constr:    0.0000
     atom:   43    charge:    2.0803    magn:    0.0031    constr:    0.0000
     atom:   44    charge:    2.0851    magn:    0.0010    constr:    0.0000
     atom:   45    charge:    2.0858    magn:    0.0005    constr:    0.0000
     atom:   46    charge:    3.1147    magn:   -0.0007    constr:    0.0000
     atom:   47    charge:    2.0807    magn:    0.0046    constr:    0.0000
     atom:   48    charge:    2.0837    magn:    0.0134    constr:    0.0000
     atom:   49    charge:    2.0517    magn:    0.2361    constr:    0.0000
     atom:   50    charge:    0.6728    magn:    0.0562    constr:    0.0000
     atom:   51    charge:    0.4113    magn:    0.0008    constr:    0.0000
     atom:   52    charge:    0.4346    magn:    0.0006    constr:    0.0000
     atom:   53    charge:    0.3596    magn:    0.0231    constr:    0.0000
     atom:   54    charge:    0.4292    magn:    0.0005    constr:    0.0000

     total cpu time spent up to now is     3153.4 secs

     total energy              =   -3021.14849236 Ry
     Harris-Foulkes estimate   =   -3021.14849338 Ry
     estimated scf accuracy    <       0.00002669 Ry

     total magnetization       =     1.06 Bohr mag/cell
     absolute magnetization    =     1.23 Bohr mag/cell

     iteration # 10     ecut=    40.42 Ry     beta=0.10
     Davidson diagonalization with overlap
     ethr =  6.71E-09,  avg # of iterations =  2.4

     negative rho (up, down):  1.189E-02 1.196E-02
 
     Magnetic moment per site:
     atom:    1    charge:    3.1244    magn:   -0.0002    constr:    0.0000
     atom:    2    charge:    2.0897    magn:    0.0002    constr:    0.0000
     atom:    3    charge:    3.1198    magn:   -0.0000    constr:    0.0000
     atom:    4    charge:    2.0867    magn:   -0.0001    constr:    0.0000
     atom:    5    charge:    3.1161    magn:   -0.0003    constr:    0.0000
     atom:    6    charge:    2.0795    magn:    0.0021    constr:    0.0000
     atom:    7    charge:    3.1166    magn:   -0.0050    constr:    0.0000
     atom:    8    charge:    2.0793    magn:    0.0242    constr:    0.0000
     atom:    9    charge:    3.1244    magn:   -0.0002    constr:    0.0000
     atom:   10    charge:    2.0898    magn:    0.0002    constr:    0.0000
     atom:   11    charge:    3.1198    magn:   -0.0000    constr:    0.0000
     atom:   12    charge:    2.0870    magn:   -0.0000    constr:    0.0000
     atom:   13    charge:    3.1150    magn:   -0.0002    constr:    0.0000
     atom:   14    charge:    2.0939    magn:    0.0022    constr:    0.0000
     atom:   15    charge:    3.1184    magn:   -0.0008    constr:    0.0000
     atom:   16    charge:    2.0828    magn:    0.0046    constr:    0.0000
     atom:   17    charge:    2.0625    magn:    0.0010    constr:    0.0000
     atom:   18    charge:    3.1240    magn:   -0.0000    constr:    0.0000
     atom:   19    charge:    2.0875    magn:    0.0000    constr:    0.0000
     atom:   20    charge:    2.0847    magn:    0.0001    constr:    0.0000
     atom:   21    charge:    2.0847    magn:    0.0001    constr:    0.0000
     atom:   22    charge:    3.1199    magn:    0.0000    constr:    0.0000
     atom:   23    charge:    2.0908    magn:    0.0003    constr:    0.0000
     atom:   24    charge:    2.0754    magn:   -0.0000    constr:    0.0000
     atom:   25    charge:    2.0867    magn:    0.0000    constr:    0.0000
     atom:   26    charge:    3.1127    magn:   -0.0003    constr:    0.0000
     atom:   27    charge:    2.0802    magn:    0.0026    constr:    0.0000
     atom:   28    charge:    2.0839    magn:    0.0007    constr:    0.0000
     atom:   29    charge:    2.0860    magn:    0.0009    constr:    0.0000
     atom:   30    charge:    3.1171    magn:   -0.0008    constr:    0.0000
     atom:   31    charge:    2.0826    magn:    0.0006    constr:    0.0000
     atom:   32    charge:    2.0829    magn:    0.0064    constr:    0.0000
     atom:   33    charge:    2.0625    magn:    0.0010    constr:    0.0000
     atom:   34    charge:    3.1240    magn:   -0.0000    constr:    0.0000
     atom:   35    charge:    2.0875    magn:    0.0000    constr:    0.0000
     atom:   36    charge:    2.0847    magn:    0.0001    constr:    0.0000
     atom:   37    charge:    2.0847    magn:    0.0001    constr:    0.0000
     atom:   38    charge:    3.1200    magn:    0.0000    constr:    0.0000
     atom:   39    charge:    2.0839    magn:    0.0002    constr:    0.0000
     atom:   40    charge:    2.0756    magn:   -0.0001    constr:    0.0000
     atom:   41    charge:    2.0870    magn:   -0.0000    constr:    0.0000
     atom:   42    charge:    3.1151    magn:   -0.0002    constr:    0.0000
     atom:   43    charge:    2.0803    magn:    0.0031    constr:    0.0000
     atom:   44    charge:    2.0851    magn:    0.0010    constr:    0.0000
     atom:   45    charge:    2.0858    magn:    0.0005    constr:    0.0000
     atom:   46    charge:    3.1147    magn:   -0.0007    constr:    0.0000
     atom:   47    charge:    2.0807    magn:    0.0045    constr:    0.0000
     atom:   48    charge:    2.0837    magn:    0.0134    constr:    0.0000
     atom:   49    charge:    2.0517    magn:    0.2359    constr:    0.0000
     atom:   50    charge:    0.6728    magn:    0.0563    constr:    0.0000
     atom:   51    charge:    0.4115    magn:    0.0008    constr:    0.0000
     atom:   52    charge:    0.4345    magn:    0.0006    constr:    0.0000
     atom:   53    charge:    0.3598    magn:    0.0230    constr:    0.0000
     atom:   54    charge:    0.4292    magn:    0.0005    constr:    0.0000

     total cpu time spent up to now is     3377.8 secs

     total energy              =   -3021.14849350 Ry
     Harris-Foulkes estimate   =   -3021.14849334 Ry
     estimated scf accuracy    <       0.00000228 Ry

     total magnetization       =     1.06 Bohr mag/cell
     absolute magnetization    =     1.23 Bohr mag/cell

     iteration # 11     ecut=    40.42 Ry     beta=0.10
     Davidson diagonalization with overlap
     ethr =  5.73E-10,  avg # of iterations =  3.0

     negative rho (up, down):  1.189E-02 1.196E-02
 
     Magnetic moment per site:
     atom:    1    charge:    3.1244    magn:   -0.0002    constr:    0.0000
     atom:    2    charge:    2.0897    magn:    0.0001    constr:    0.0000
     atom:    3    charge:    3.1198    magn:   -0.0000    constr:    0.0000
     atom:    4    charge:    2.0867    magn:   -0.0001    constr:    0.0000
     atom:    5    charge:    3.1161    magn:   -0.0003    constr:    0.0000
     atom:    6    charge:    2.0795    magn:    0.0022    constr:    0.0000
     atom:    7    charge:    3.1166    magn:   -0.0050    constr:    0.0000
     atom:    8    charge:    2.0793    magn:    0.0242    constr:    0.0000
     atom:    9    charge:    3.1244    magn:   -0.0002    constr:    0.0000
     atom:   10    charge:    2.0898    magn:    0.0001    constr:    0.0000
     atom:   11    charge:    3.1198    magn:   -0.0000    constr:    0.0000
     atom:   12    charge:    2.0870    magn:   -0.0000    constr:    0.0000
     atom:   13    charge:    3.1150    magn:   -0.0002    constr:    0.0000
     atom:   14    charge:    2.0939    magn:    0.0022    constr:    0.0000
     atom:   15    charge:    3.1184    magn:   -0.0008    constr:    0.0000
     atom:   16    charge:    2.0828    magn:    0.0046    constr:    0.0000
     atom:   17    charge:    2.0624    magn:    0.0009    constr:    0.0000
     atom:   18    charge:    3.1239    magn:   -0.0000    constr:    0.0000
     atom:   19    charge:    2.0875    magn:    0.0000    constr:    0.0000
     atom:   20    charge:    2.0847    magn:    0.0001    constr:    0.0000
     atom:   21    charge:    2.0847    magn:    0.0001    constr:    0.0000
     atom:   22    charge:    3.1199    magn:    0.0000    constr:    0.0000
     atom:   23    charge:    2.0908    magn:    0.0003    constr:    0.0000
     atom:   24    charge:    2.0754    magn:   -0.0000    constr:    0.0000
     atom:   25    charge:    2.0867    magn:    0.0000    constr:    0.0000
     atom:   26    charge:    3.1127    magn:   -0.0003    constr:    0.0000
     atom:   27    charge:    2.0802    magn:    0.0026    constr:    0.0000
     atom:   28    charge:    2.0839    magn:    0.0008    constr:    0.0000
     atom:   29    charge:    2.0860    magn:    0.0009    constr:    0.0000
     atom:   30    charge:    3.1171    magn:   -0.0008    constr:    0.0000
     atom:   31    charge:    2.0826    magn:    0.0006    constr:    0.0000
     atom:   32    charge:    2.0829    magn:    0.0064    constr:    0.0000
     atom:   33    charge:    2.0624    magn:    0.0009    constr:    0.0000
     atom:   34    charge:    3.1239    magn:   -0.0000    constr:    0.0000
     atom:   35    charge:    2.0876    magn:    0.0000    constr:    0.0000
     atom:   36    charge:    2.0847    magn:    0.0001    constr:    0.0000
     atom:   37    charge:    2.0847    magn:    0.0001    constr:    0.0000
     atom:   38    charge:    3.1200    magn:    0.0000    constr:    0.0000
     atom:   39    charge:    2.0839    magn:    0.0002    constr:    0.0000
     atom:   40    charge:    2.0756    magn:   -0.0001    constr:    0.0000
     atom:   41    charge:    2.0870    magn:   -0.0000    constr:    0.0000
     atom:   42    charge:    3.1151    magn:   -0.0002    constr:    0.0000
     atom:   43    charge:    2.0803    magn:    0.0031    constr:    0.0000
     atom:   44    charge:    2.0851    magn:    0.0010    constr:    0.0000
     atom:   45    charge:    2.0858    magn:    0.0005    constr:    0.0000
     atom:   46    charge:    3.1147    magn:   -0.0007    constr:    0.0000
     atom:   47    charge:    2.0807    magn:    0.0045    constr:    0.0000
     atom:   48    charge:    2.0837    magn:    0.0134    constr:    0.0000
     atom:   49    charge:    2.0517    magn:    0.2358    constr:    0.0000
     atom:   50    charge:    0.6728    magn:    0.0564    constr:    0.0000
     atom:   51    charge:    0.4115    magn:    0.0008    constr:    0.0000
     atom:   52    charge:    0.4344    magn:    0.0006    constr:    0.0000
     atom:   53    charge:    0.3597    magn:    0.0230    constr:    0.0000
     atom:   54    charge:    0.4292    magn:    0.0005    constr:    0.0000

     total cpu time spent up to now is     3620.3 secs

     total energy              =   -3021.14849363 Ry
     Harris-Foulkes estimate   =   -3021.14849381 Ry
     estimated scf accuracy    <       0.00000293 Ry

     total magnetization       =     1.06 Bohr mag/cell
     absolute magnetization    =     1.23 Bohr mag/cell

     iteration # 12     ecut=    40.42 Ry     beta=0.10
     Davidson diagonalization with overlap
     ethr =  5.73E-10,  avg # of iterations =  2.2

     negative rho (up, down):  1.189E-02 1.196E-02
 
     Magnetic moment per site:
     atom:    1    charge:    3.1245    magn:   -0.0001    constr:    0.0000
     atom:    2    charge:    2.0897    magn:    0.0001    constr:    0.0000
     atom:    3    charge:    3.1198    magn:   -0.0000    constr:    0.0000
     atom:    4    charge:    2.0867    magn:   -0.0001    constr:    0.0000
     atom:    5    charge:    3.1161    magn:   -0.0003    constr:    0.0000
     atom:    6    charge:    2.0795    magn:    0.0022    constr:    0.0000
     atom:    7    charge:    3.1167    magn:   -0.0049    constr:    0.0000
     atom:    8    charge:    2.0793    magn:    0.0242    constr:    0.0000
     atom:    9    charge:    3.1245    magn:   -0.0001    constr:    0.0000
     atom:   10    charge:    2.0898    magn:    0.0001    constr:    0.0000
     atom:   11    charge:    3.1198    magn:   -0.0000    constr:    0.0000
     atom:   12    charge:    2.0871    magn:   -0.0000    constr:    0.0000
     atom:   13    charge:    3.1150    magn:   -0.0002    constr:    0.0000
     atom:   14    charge:    2.0939    magn:    0.0022    constr:    0.0000
     atom:   15    charge:    3.1184    magn:   -0.0008    constr:    0.0000
     atom:   16    charge:    2.0828    magn:    0.0046    constr:    0.0000
     atom:   17    charge:    2.0625    magn:    0.0007    constr:    0.0000
     atom:   18    charge:    3.1240    magn:   -0.0000    constr:    0.0000
     atom:   19    charge:    2.0875    magn:    0.0000    constr:    0.0000
     atom:   20    charge:    2.0847    magn:    0.0000    constr:    0.0000
     atom:   21    charge:    2.0847    magn:    0.0000    constr:    0.0000
     atom:   22    charge:    3.1199    magn:    0.0000    constr:    0.0000
     atom:   23    charge:    2.0908    magn:    0.0003    constr:    0.0000
     atom:   24    charge:    2.0754    magn:   -0.0000    constr:    0.0000
     atom:   25    charge:    2.0868    magn:    0.0000    constr:    0.0000
     atom:   26    charge:    3.1127    magn:   -0.0003    constr:    0.0000
     atom:   27    charge:    2.0802    magn:    0.0027    constr:    0.0000
     atom:   28    charge:    2.0839    magn:    0.0008    constr:    0.0000
     atom:   29    charge:    2.0860    magn:    0.0009    constr:    0.0000
     atom:   30    charge:    3.1171    magn:   -0.0008    constr:    0.0000
     atom:   31    charge:    2.0825    magn:    0.0006    constr:    0.0000
     atom:   32    charge:    2.0829    magn:    0.0064    constr:    0.0000
     atom:   33    charge:    2.0625    magn:    0.0007    constr:    0.0000
     atom:   34    charge:    3.1239    magn:   -0.0000    constr:    0.0000
     atom:   35    charge:    2.0875    magn:    0.0000    constr:    0.0000
     atom:   36    charge:    2.0847    magn:    0.0000    constr:    0.0000
     atom:   37    charge:    2.0847    magn:    0.0000    constr:    0.0000
     atom:   38    charge:    3.1200    magn:    0.0000    constr:    0.0000
     atom:   39    charge:    2.0839    magn:    0.0002    constr:    0.0000
     atom:   40    charge:    2.0756    magn:   -0.0001    constr:    0.0000
     atom:   41    charge:    2.0870    magn:   -0.0000    constr:    0.0000
     atom:   42    charge:    3.1151    magn:   -0.0003    constr:    0.0000
     atom:   43    charge:    2.0802    magn:    0.0032    constr:    0.0000
     atom:   44    charge:    2.0851    magn:    0.0010    constr:    0.0000
     atom:   45    charge:    2.0858    magn:    0.0006    constr:    0.0000
     atom:   46    charge:    3.1147    magn:   -0.0007    constr:    0.0000
     atom:   47    charge:    2.0807    magn:    0.0045    constr:    0.0000
     atom:   48    charge:    2.0837    magn:    0.0134    constr:    0.0000
     atom:   49    charge:    2.0517    magn:    0.2355    constr:    0.0000
     atom:   50    charge:    0.6728    magn:    0.0565    constr:    0.0000
     atom:   51    charge:    0.4116    magn:    0.0009    constr:    0.0000
     atom:   52    charge:    0.4344    magn:    0.0006    constr:    0.0000
     atom:   53    charge:    0.3598    magn:    0.0230    constr:    0.0000
     atom:   54    charge:    0.4291    magn:    0.0004    constr:    0.0000

     total cpu time spent up to now is     3842.3 secs

     End of self-consistent calculation

 ------ SPIN UP ------------


          k = 0.0000 0.0000 0.0000 ( 34665 PWs)   bands (ev):

   -58.2913 -58.2562 -57.3730 -57.3673 -57.3343 -57.2966 -57.2449 -57.0752
   -57.0494 -57.0441 -57.0057 -56.9077 -56.8809 -56.8725 -56.7887 -56.7503
   -34.7365 -34.5599 -34.5311 -34.4979 -34.4029 -34.3460 -33.8680 -33.8557
   -33.7373 -33.6646 -33.6226 -33.5797 -33.5474 -33.5405 -33.5346 -33.5280
   -33.5162 -33.5016 -33.4762 -33.4745 -33.4600 -33.4574 -33.4559 -33.4361
   -33.3271 -33.3237 -33.3168 -33.3140 -33.3005 -33.2731 -33.2680 -33.2485
   -33.2273 -33.2229 -33.2220 -33.2125 -33.1820 -33.1619 -33.1263 -33.1256
   -33.0864 -33.0667 -33.0364 -33.0159 -33.0026 -32.9776 -32.9347 -32.8702
   -18.4565 -18.0233 -17.7988 -17.6990 -17.5377 -17.5170 -17.4717 -17.3711
   -17.3440 -17.2445 -17.0319 -17.0115 -17.0033 -16.9640 -16.9014 -16.8415
   -16.8217 -16.7847 -16.7271 -16.6933 -16.6756 -16.6428 -16.5803 -16.5757
   -16.4528 -16.4048 -16.3865 -16.3471 -16.3121 -16.1354 -16.0753 -15.5867
   -15.5259 -11.2503  -6.0351  -5.4837  -5.2693  -5.1895  -5.0803  -4.9772
    -4.9686  -4.8841  -4.8657  -4.7186  -4.6369  -4.5868  -4.5726  -4.4969
    -4.4155  -4.4007  -4.3395  -4.3030  -4.2194  -4.2062  -4.1833  -4.1294
    -4.0183  -4.0104  -3.9683  -3.9278  -3.8940  -3.8787  -3.8728  -3.8698
    -3.8102  -3.7636  -3.7377  -3.6444  -3.6137  -3.5705  -3.5285  -3.5150
    -3.5034  -3.4077  -3.3955  -3.3477  -3.2600  -3.2204  -3.1752  -3.0740
    -2.9086  -2.8836  -2.8363  -2.7897  -2.7324  -2.6805  -2.6590  -2.6500
    -2.6195  -2.5237  -2.4745  -2.4254  -2.3646  -2.3185  -2.2304  -2.2160
    -2.2110  -2.1466  -2.0574  -2.0279  -1.9775  -1.9459  -1.9160  -1.8850
    -1.8396  -1.7232  -1.6781  -1.6524  -1.6267  -1.6167  -1.5704  -1.4880
    -1.4068  -1.3529  -1.3391  -1.3234  -1.3030  -1.2546  -1.2084  -1.1566
    -1.1466  -1.0977  -1.0940  -1.0749  -1.0459  -0.9654  -0.8597  -0.8137
    -0.7949  -0.6800  -0.6733  -0.6109  -0.5390  -0.4973  -0.4696  -0.1726
     1.0395   1.1363   1.4312   1.7097   1.8177   1.9357   1.9835   2.0298
     2.0599   2.1475   2.2245   2.2448   2.2914   2.4098   2.4851   2.4983
     2.5061   2.5332   2.6353   2.6806   2.6855   2.7012   2.7244   2.8410
     2.8564   2.9009   2.9152   2.9668   2.9831   3.0359   3.0455   3.0660
     3.1205   3.1745   3.2135   3.2147   3.2620   3.2703   3.4253   3.4580
     3.4922   3.5350   3.6121   3.6405   3.6857   3.7287   3.8428   3.9697
     4.1175   4.1482   4.3405   4.4859   4.6079   4.7208   4.7985   4.8473
     5.0984   5.1470   5.2186   5.3663   5.4088   5.4175   5.4286   5.4470
     5.4521   5.5370   5.5684   5.6760   5.7329   5.7438   5.9172   5.9209
     5.9683   6.0885   6.1085   6.1509   6.2270   6.3109   6.4358   6.5036
     6.5542   6.5627   6.7944   6.8259   7.2090   7.9127   8.1558   8.1884
     8.3387   8.3983   8.6299   8.7140   8.7629   8.9767   9.1369   9.2314
     9.2784   9.4466   9.6133

          k = 0.0000 0.0280 0.0000 ( 34717 PWs)   bands (ev):

   -58.2890 -58.2586 -57.3713 -57.3657 -57.3366 -57.2977 -57.2445 -57.0750
   -57.0495 -57.0425 -57.0078 -56.9054 -56.8812 -56.8748 -56.7862 -56.7528
   -34.7111 -34.5579 -34.5330 -34.4916 -34.4094 -34.3731 -33.8426 -33.8302
   -33.7164 -33.6583 -33.6164 -33.5771 -33.5544 -33.5369 -33.5289 -33.5207
   -33.5155 -33.5035 -33.5002 -33.4831 -33.4750 -33.4584 -33.4495 -33.4295
   -33.3204 -33.3148 -33.3021 -33.2990 -33.2966 -33.2896 -33.2656 -33.2468
   -33.2321 -33.2247 -33.2228 -33.2118 -33.1881 -33.1840 -33.1317 -33.1203
   -33.0983 -33.0632 -33.0426 -33.0159 -33.0023 -32.9824 -32.9621 -32.8988
   -18.3982 -17.9637 -17.7488 -17.6688 -17.5933 -17.4931 -17.4226 -17.3591
   -17.3128 -17.2752 -17.0828 -16.9890 -16.9824 -16.9521 -16.9079 -16.8609
   -16.7833 -16.7603 -16.7475 -16.7222 -16.6927 -16.6677 -16.6050 -16.5536
   -16.4669 -16.4301 -16.3933 -16.3704 -16.3443 -16.1543 -16.1169 -15.6008
   -15.5514 -11.2512  -5.9497  -5.3995  -5.1900  -5.1189  -5.0099  -4.9374
    -4.9113  -4.8679  -4.7946  -4.7164  -4.6555  -4.6405  -4.5136  -4.5021
    -4.4030  -4.3636  -4.3499  -4.3100  -4.2446  -4.1995  -4.1857  -4.1650
    -4.0864  -4.0547  -4.0039  -3.9871  -3.9655  -3.9576  -3.9340  -3.9080
    -3.8393  -3.8002  -3.7406  -3.7292  -3.6998  -3.6305  -3.5433  -3.4248
    -3.3902  -3.3088  -3.2904  -3.2875  -3.2549  -3.1119  -3.0915  -2.9318
    -2.8912  -2.8693  -2.7887  -2.7349  -2.7308  -2.7078  -2.6752  -2.6381
    -2.5835  -2.5041  -2.4451  -2.4308  -2.4029  -2.2653  -2.2419  -2.2084
    -2.1981  -2.1388  -2.1294  -2.0125  -1.9709  -1.9432  -1.9122  -1.8991
    -1.8573  -1.7540  -1.7440  -1.7043  -1.6650  -1.5936  -1.5688  -1.5578
    -1.4878  -1.4472  -1.3761  -1.3665  -1.3617  -1.3446  -1.2710  -1.2565
    -1.2208  -1.1611  -1.1223  -1.0563  -0.9799  -0.9395  -0.9100  -0.8833
    -0.8628  -0.8235  -0.7158  -0.5859  -0.5597  -0.5460  -0.5255  -0.2137
     1.1721   1.1773   1.4324   1.8459   1.8903   1.9076   1.9402   2.0166
     2.0754   2.0935   2.3148   2.3226   2.3558   2.4726   2.5084   2.5289
     2.5365   2.5584   2.5632   2.6116   2.7287   2.7460   2.8163   2.8281
     2.8498   2.9148   2.9508   2.9794   2.9957   3.0086   3.0296   3.0808
     3.1009   3.1369   3.1911   3.2494   3.2616   3.3419   3.4501   3.4916
     3.5271   3.5580   3.5781   3.6026   3.6581   3.6817   3.8011   3.9218
     4.0719   4.2155   4.2968   4.5396   4.7187   4.7221   4.8287   4.9225
     5.1256   5.1874   5.2679   5.3170   5.3874   5.4262   5.4489   5.4894
     5.5214   5.5257   5.5625   5.6756   5.7173   5.7279   5.8356   5.8975
     5.9560   6.0062   6.0361   6.0654   6.1957   6.2630   6.4024   6.4469
     6.4649   6.5575   6.7279   6.8283   7.3128   7.4643   7.9821   8.0595
     8.3485   8.5067   8.5294   8.6929   8.7702   8.9805   9.1073   9.2987
     9.3601   9.4308   9.5171

          k = 0.0000 0.0560 0.0000 ( 34721 PWs)   bands (ev):

   -58.2826 -58.2650 -57.3679 -57.3605 -57.3430 -57.2999 -57.2438 -57.0746
   -57.0499 -57.0380 -57.0127 -56.8989 -56.8816 -56.8813 -56.7795 -56.7595
   -34.6412 -34.5527 -34.5382 -34.4745 -34.4462 -34.4270 -33.7728 -33.7608
   -33.6658 -33.6413 -33.5997 -33.5775 -33.5767 -33.5708 -33.5562 -33.5528
   -33.5248 -33.5154 -33.4985 -33.4796 -33.4564 -33.4518 -33.4481 -33.3952
   -33.3550 -33.3105 -33.3079 -33.2923 -33.2669 -33.2570 -33.2421 -33.2417
   -33.2406 -33.2324 -33.2293 -33.2104 -33.2051 -33.1938 -33.1486 -33.1179
   -33.1041 -33.0604 -33.0592 -33.0360 -33.0156 -33.0021 -32.9944 -32.9693
   -18.2371 -17.7990 -17.7770 -17.6190 -17.5861 -17.3956 -17.3766 -17.3588
   -17.2913 -17.2503 -17.2161 -17.0285 -16.9635 -16.9050 -16.9028 -16.8840
   -16.8210 -16.8019 -16.7136 -16.6900 -16.6847 -16.6592 -16.6074 -16.5462
   -16.4994 -16.4942 -16.4372 -16.4258 -16.3999 -16.2209 -16.1970 -15.6293
[...]
    -1.7150  -1.4918  -1.4514  -1.4409  -1.4202  -1.3833  -1.3036  -1.1366
    -1.1301  -1.0729  -1.0556  -1.0395  -0.9537  -0.8966  -0.8562  -0.7724
    -0.7193  -0.7124  -0.6821  -0.6555  -0.5804  -0.5592  -0.5449   0.3207
     1.6162   1.6197   1.6323   1.6377   1.9800   1.9808   2.1097   2.1107
     2.2938   2.3143   2.3276   2.4095   2.4323   2.5026   2.5880   2.6486
     2.6705   2.7151   2.7987   2.8318   2.8896   2.9408   2.9628   2.9907
     3.0053   3.0136   3.0545   3.1127   3.1275   3.2238   3.2493   3.2587
     3.2745   3.2980   3.3556   3.4016   3.4150   3.4204   3.4764   3.4882
     3.4979   3.5263   3.5404   3.5946   3.6516   3.6675   3.7913   3.8913
     3.9256   3.9378   4.1550   4.1554   4.6051   4.6348   4.6573   4.7428
     4.8978   4.9141   4.9472   5.0969   5.1755   5.1804   5.1998   5.4629
     5.6881   5.6970   5.7084   5.9407   5.9460   5.9804   6.0296   6.0323
     6.1072   6.1204   6.1877   6.2788   6.2854   6.2913   6.3980   6.4755
     6.5129   6.6201   7.0550   7.2152   7.3249   7.3797   7.5523   7.5894
     7.7094   7.7632   7.9122   8.1070   8.2921   8.3332   8.4427   8.8665
     8.9795   9.0694   9.2032

          k =-0.0253 0.0280 0.0000 ( 34687 PWs)   bands (ev):

   -58.2891 -58.2588 -57.3710 -57.3660 -57.3366 -57.2977 -57.2454 -57.0790
   -57.0505 -57.0439 -57.0090 -56.9061 -56.9040 -56.8756 -56.7898 -56.7564
   -34.7116 -34.5581 -34.5332 -34.4910 -34.4095 -34.3733 -33.8428 -33.8323
   -33.7174 -33.6506 -33.6163 -33.5774 -33.5515 -33.5373 -33.5339 -33.5248
   -33.5167 -33.5044 -33.5027 -33.4827 -33.4760 -33.4529 -33.4514 -33.4324
   -33.3214 -33.3123 -33.3048 -33.3027 -33.2975 -33.2908 -33.2671 -33.2484
   -33.2370 -33.2247 -33.2243 -33.2151 -33.1951 -33.1884 -33.1492 -33.1210
   -33.1160 -33.0666 -33.0432 -33.0257 -33.0067 -32.9857 -32.9628 -32.9015
   -18.3543 -17.9248 -17.7598 -17.7172 -17.5069 -17.5002 -17.3590 -17.3521
   -17.3288 -17.2988 -17.0952 -17.0523 -16.9677 -16.9226 -16.8564 -16.8147
   -16.7761 -16.7335 -16.7165 -16.6529 -16.6463 -16.5660 -16.5276 -16.4688
   -16.4446 -16.3895 -16.3490 -16.3311 -16.1422 -16.1085 -15.8656 -15.5964
   -15.5477 -10.8397  -5.8252  -5.2935  -5.1274  -5.1089  -4.9776  -4.9362
    -4.8976  -4.8081  -4.6824  -4.6614  -4.6202  -4.5200  -4.4821  -4.4254
    -4.3917  -4.2973  -4.2739  -4.2327  -4.1854  -4.1645  -4.1260  -4.1108
    -4.0759  -4.0266  -3.9906  -3.9735  -3.9391  -3.8966  -3.8529  -3.8219
    -3.7813  -3.7694  -3.7077  -3.6558  -3.6035  -3.5726  -3.4948  -3.3778
    -3.3287  -3.3047  -3.2751  -3.2472  -3.2085  -3.1671  -3.0974  -3.0804
    -2.9050  -2.8669  -2.8072  -2.7619  -2.7058  -2.6702  -2.6585  -2.6014
    -2.5721  -2.4933  -2.4838  -2.4266  -2.3952  -2.3424  -2.2719  -2.2495
    -2.1978  -2.1769  -2.0884  -2.0266  -1.9432  -1.9252  -1.9004  -1.8352
    -1.8236  -1.7750  -1.7297  -1.6681  -1.6192  -1.5787  -1.5461  -1.4936
    -1.4603  -1.4201  -1.3908  -1.3633  -1.3470  -1.3303  -1.2979  -1.2734
    -1.1890  -1.1101  -1.0470  -0.9951  -0.9705  -0.9376  -0.9136  -0.8691
    -0.8272  -0.8049  -0.6162  -0.5945  -0.5701  -0.5065  -0.2490   0.3455
     1.1681   1.2617   1.4457   1.8350   1.8744   1.9416   1.9781   2.0457
     2.0568   2.2062   2.3170   2.3626   2.4040   2.4477   2.4707   2.5203
     2.5404   2.5646   2.6054   2.6656   2.7136   2.7379   2.7933   2.8482
     2.8929   2.9302   2.9466   2.9904   3.0071   3.0310   3.0569   3.1101
     3.1867   3.2074   3.2498   3.2747   3.3108   3.3519   3.4458   3.4811
     3.5111   3.5728   3.6272   3.6580   3.6800   3.7602   3.8356   3.8811
     4.0280   4.2242   4.2999   4.4520   4.6403   4.7384   4.8601   4.8773
     5.0171   5.0411   5.1293   5.2140   5.2561   5.3699   5.4758   5.5640
     5.6546   5.7104   5.7247   5.8189   5.8652   5.8993   5.9252   5.9478
     5.9817   6.0055   6.0774   6.1259   6.1913   6.2957   6.4139   6.4641
     6.4776   6.5904   6.7567   6.8162   7.3708   7.4969   7.7892   7.8916
     8.0855   8.2256   8.4907   8.5341   8.7744   8.8893   9.0547   9.3112
     9.3811   9.5087   9.6181

          k =-0.0253 0.0560 0.0000 ( 34699 PWs)   bands (ev):

   -58.2828 -58.2652 -57.3678 -57.3606 -57.3430 -57.3000 -57.2446 -57.0785
   -57.0510 -57.0393 -57.0139 -56.9046 -56.8997 -56.8820 -56.7831 -56.7631
   -34.6416 -34.5528 -34.5384 -34.4740 -34.4464 -34.4269 -33.7730 -33.7631
   -33.6667 -33.6353 -33.5996 -33.5760 -33.5720 -33.5710 -33.5596 -33.5528
   -33.5265 -33.5163 -33.5032 -33.4809 -33.4681 -33.4503 -33.4401 -33.3982
   -33.3562 -33.3094 -33.3060 -33.2964 -33.2689 -33.2594 -33.2434 -33.2430
   -33.2420 -33.2330 -33.2297 -33.2157 -33.2078 -33.1971 -33.1642 -33.1453
   -33.1048 -33.0637 -33.0599 -33.0367 -33.0227 -33.0090 -32.9977 -32.9720
   -18.1966 -17.7867 -17.7645 -17.5957 -17.5849 -17.4407 -17.3780 -17.3542
   -17.2330 -17.2257 -17.1882 -17.0424 -16.9327 -16.9038 -16.8657 -16.8246
   -16.7819 -16.7283 -16.7176 -16.7021 -16.6685 -16.5819 -16.5324 -16.5157
   -16.4844 -16.4253 -16.3958 -16.3906 -16.2055 -16.1889 -15.8644 -15.6251
   -15.6015 -10.8415  -5.5900  -5.0662  -5.0088  -4.9404  -4.9079  -4.8019
    -4.7799  -4.7422  -4.6723  -4.6574  -4.5104  -4.4935  -4.4305  -4.3798
    -4.3621  -4.3536  -4.3054  -4.2612  -4.2347  -4.2244  -4.1881  -4.1569
    -4.1166  -4.1061  -4.0359  -4.0017  -3.9778  -3.9366  -3.9109  -3.8766
    -3.8301  -3.8133  -3.7679  -3.6580  -3.5637  -3.5233  -3.4460  -3.3692
    -3.3511  -3.2762  -3.1723  -3.1451  -3.1060  -3.0961  -3.0442  -3.0091
    -2.9678  -2.9116  -2.8288  -2.7782  -2.7470  -2.6892  -2.5945  -2.5759
    -2.5094  -2.4949  -2.4423  -2.3760  -2.3607  -2.3028  -2.2847  -2.2434
    -2.1725  -2.1201  -2.1058  -2.0733  -2.0333  -1.9908  -1.9699  -1.9329
    -1.9156  -1.8906  -1.8777  -1.8310  -1.7520  -1.6866  -1.6745  -1.5773
    -1.5567  -1.5286  -1.5020  -1.4695  -1.4285  -1.3966  -1.3665  -1.3076
    -1.2729  -1.2060  -1.1405  -1.0176  -0.9884  -0.9541  -0.9220  -0.8416
    -0.7476  -0.7209  -0.6898  -0.6250  -0.5937  -0.5404  -0.3462   0.3262
     1.3024   1.4844   1.5797   1.7736   1.7890   1.9273   1.9940   2.0739
     2.2807   2.2916   2.3581   2.3945   2.4311   2.5033   2.5382   2.5642
     2.5885   2.6120   2.6698   2.7213   2.7368   2.7803   2.8229   2.8731
     2.8982   2.9333   2.9778   3.0226   3.0486   3.0619   3.0719   3.1255
     3.1745   3.2144   3.2337   3.3049   3.3333   3.3619   3.3933   3.4732
     3.5249   3.5500   3.6280   3.6493   3.6821   3.7419   3.7609   3.8141
     3.9106   4.1146   4.4072   4.5165   4.7315   4.8748   4.9257   4.9766
     5.0113   5.1059   5.2030   5.2234   5.3512   5.4034   5.4497   5.5437
     5.5795   5.6148   5.6672   5.7251   5.7545   5.8194   5.8359   5.8759
     5.9413   5.9542   5.9891   6.1056   6.1481   6.2242   6.3411   6.4428
     6.4611   6.4866   6.7306   6.7816   7.0649   7.2856   7.6620   7.8246
     8.0936   8.2358   8.3110   8.4869   8.7606   8.8958   9.0150   9.1647
     9.3639   9.5470   9.6556

          k =-0.0506 0.0280 0.0000 ( 34685 PWs)   bands (ev):

   -58.2891 -58.2588 -57.3701 -57.3668 -57.3366 -57.2978 -57.2453 -57.0790
   -57.0502 -57.0443 -57.0090 -56.9061 -56.9040 -56.8756 -56.7898 -56.7564
   -34.7123 -34.5581 -34.5332 -34.4895 -34.4095 -34.3733 -33.8432 -33.8363
   -33.7176 -33.6311 -33.6161 -33.5775 -33.5566 -33.5392 -33.5379 -33.5302
   -33.5169 -33.5118 -33.5016 -33.4826 -33.4761 -33.4525 -33.4406 -33.4335
   -33.3216 -33.3064 -33.3043 -33.3025 -33.2923 -33.2904 -33.2673 -33.2504
   -33.2469 -33.2243 -33.2238 -33.2180 -33.1953 -33.1879 -33.1451 -33.1210
   -33.1164 -33.0666 -33.0432 -33.0327 -33.0051 -32.9856 -32.9628 -32.9016
   -18.2460 -17.8479 -17.8351 -17.6845 -17.5714 -17.4394 -17.4217 -17.3282
   -17.3008 -17.2341 -17.1640 -17.0697 -16.9803 -16.9352 -16.9065 -16.8798
   -16.7935 -16.7511 -16.7399 -16.6800 -16.6170 -16.5330 -16.5061 -16.4731
   -16.4446 -16.3904 -16.3730 -16.3361 -16.1387 -16.1090 -15.8664 -15.5945
   -15.5478 -10.8395  -5.5239  -5.1710  -5.1379  -5.1042  -4.9329  -4.8534
    -4.7514  -4.6932  -4.6663  -4.6363  -4.5851  -4.5707  -4.5164  -4.3913
    -4.3456  -4.3066  -4.2254  -4.1998  -4.1636  -4.1494  -4.1323  -4.0408
    -4.0082  -3.9946  -3.9587  -3.9103  -3.8672  -3.8291  -3.8165  -3.7951
    -3.7484  -3.7042  -3.6515  -3.6048  -3.5726  -3.5195  -3.4732  -3.4434
    -3.3674  -3.3538  -3.2880  -3.2494  -3.1882  -3.1332  -3.1029  -3.0420
    -2.9935  -2.9642  -2.8872  -2.8208  -2.7419  -2.6825  -2.6734  -2.6511
    -2.6006  -2.5781  -2.5653  -2.5092  -2.5008  -2.3780  -2.3248  -2.3170
    -2.2549  -2.1847  -2.1696  -2.1432  -2.0648  -1.9941  -1.9883  -1.9271
    -1.9075  -1.8778  -1.7952  -1.7061  -1.6934  -1.6683  -1.5985  -1.5688
    -1.5071  -1.4578  -1.4377  -1.3795  -1.3632  -1.3128  -1.2965  -1.2450
    -1.2263  -1.1046  -1.0420  -1.0188  -0.9951  -0.9407  -0.9079  -0.8612
    -0.8124  -0.7811  -0.7042  -0.6661  -0.6448  -0.5202  -0.3752   0.3307
     1.1550   1.3550   1.4801   1.5809   1.9489   1.9591   1.9814   2.0732
     2.1397   2.2145   2.2694   2.3452   2.4205   2.4552   2.5435   2.5611
     2.6078   2.6667   2.7029   2.7162   2.7701   2.8436   2.8662   2.8971
     2.9552   2.9616   2.9956   2.9999   3.0067   3.1170   3.1243   3.1531
     3.2007   3.2298   3.3034   3.3244   3.3708   3.3980   3.4216   3.4701
     3.4842   3.5617   3.6164   3.6817   3.7577   3.7939   3.8139   3.9146
     3.9720   4.0759   4.1243   4.4212   4.5256   4.6713   4.7633   4.8239
     4.8565   4.9290   4.9813   5.3028   5.3434   5.4258   5.5412   5.5739
     5.6545   5.7818   5.8017   5.8688   5.9100   5.9281   5.9581   6.0681
     6.1087   6.1786   6.2648   6.3465   6.3960   6.4048   6.4569   6.5045
     6.5562   6.5659   6.7232   6.9107   7.0626   7.2187   7.5627   7.6027
     7.7194   8.2088   8.4058   8.4815   8.8684   8.9309   9.0592   9.2045
     9.4210   9.6030   9.6852

          k =-0.0506 0.0560 0.0000 ( 34596 PWs)   bands (ev):

   -58.2828 -58.2652 -57.3674 -57.3610 -57.3430 -57.3000 -57.2446 -57.0785
   -57.0509 -57.0395 -57.0139 -56.9045 -56.8997 -56.8820 -56.7831 -56.7631
   -34.6422 -34.5528 -34.5384 -34.4727 -34.4466 -34.4265 -33.7733 -33.7676
   -33.6668 -33.6196 -33.5994 -33.5752 -33.5736 -33.5708 -33.5540 -33.5528
   -33.5298 -33.5166 -33.5152 -33.4811 -33.4773 -33.4504 -33.4284 -33.3998
   -33.3566 -33.3091 -33.2943 -33.2921 -33.2713 -33.2616 -33.2447 -33.2429
   -33.2415 -33.2329 -33.2292 -33.2257 -33.2083 -33.1975 -33.1636 -33.1411
   -33.1048 -33.0637 -33.0599 -33.0366 -33.0270 -33.0097 -32.9976 -32.9719
   -18.0934 -17.8045 -17.6865 -17.5989 -17.5828 -17.5427 -17.3656 -17.3543
   -17.2039 -17.1916 -17.1025 -17.0803 -16.9628 -16.8973 -16.8528 -16.8279
   -16.8090 -16.7927 -16.7473 -16.7209 -16.7063 -16.6123 -16.5818 -16.4917
   -16.4812 -16.4229 -16.4060 -16.3963 -16.2048 -16.1855 -15.8643 -15.6239
   -15.6020 -10.8412  -5.2874  -4.9772  -4.9265  -4.9184  -4.7687  -4.7610
    -4.7019  -4.6251  -4.5117  -4.4917  -4.4859  -4.4030  -4.3887  -4.3660
    -4.3464  -4.3127  -4.2945  -4.2326  -4.1853  -4.1614  -4.1502  -4.0997
    -4.0875  -4.0391  -4.0294  -3.9778  -3.9653  -3.8873  -3.8706  -3.8292
    -3.8066  -3.7604  -3.6850  -3.6420  -3.5957  -3.5418  -3.4936  -3.4211
    -3.3841  -3.3049  -3.2468  -3.2165  -3.1201  -3.1166  -3.0657  -3.0392
    -2.9813  -2.9632  -2.9435  -2.8906  -2.7867  -2.7498  -2.7347  -2.6915
    -2.6147  -2.5728  -2.5316  -2.4895  -2.4637  -2.3997  -2.3748  -2.3550
    -2.3361  -2.2749  -2.1797  -2.1580  -2.1324  -2.1138  -2.0875  -2.0328
    -1.9983  -1.9570  -1.9298  -1.8553  -1.8337  -1.7666  -1.7159  -1.6412
    -1.5511  -1.5345  -1.5235  -1.4816  -1.4297  -1.3704  -1.3378  -1.2906
    -1.2284  -1.1585  -1.0617  -1.0072  -0.9735  -0.8878  -0.8378  -0.8302
    -0.7775  -0.6920  -0.6774  -0.6562  -0.6413  -0.5385  -0.4601   0.3283
     1.3230   1.5126   1.6614   1.6831   1.8678   2.0189   2.0473   2.0829
     2.2585   2.2715   2.3753   2.3919   2.4482   2.4769   2.5636   2.6004
     2.6656   2.7107   2.7450   2.7597   2.8270   2.8583   2.8864   2.9187
     2.9497   2.9663   3.0222   3.0569   3.0877   3.1289   3.1604   3.2057
     3.2108   3.2652   3.2998   3.3398   3.3488   3.3923   3.4312   3.4820
     3.4957   3.5643   3.5932   3.6564   3.6825   3.7587   3.8183   3.8549
     3.8970   3.9739   4.1677   4.5181   4.6119   4.6312   4.7700   4.8377
     4.9038   4.9802   5.0252   5.2021   5.3171   5.3913   5.4272   5.4600
     5.6091   5.6293   5.6833   5.7316   5.8941   5.9118   6.0023   6.0204
     6.0819   6.1233   6.1811   6.2150   6.3147   6.3502   6.4205   6.4383
     6.5538   6.6249   6.7598   6.8200   7.1743   7.3535   7.4965   7.6140
     7.9289   8.0048   8.1002   8.3677   8.6064   8.7079   8.7947   9.0393
     9.1670   9.3308   9.4280

     the Fermi energy is    -0.2757 ev

!    total energy              =   -3021.14849370 Ry
     Harris-Foulkes estimate   =   -3021.14849383 Ry
     estimated scf accuracy    <       0.00000060 Ry

     The total energy is the sum of the following terms:

     one-electron contribution =  -40431.98137796 Ry
     hartree contribution      =   20287.53679600 Ry
     xc contribution           =    -553.20870765 Ry
     ewald contribution        =   17676.52457572 Ry
     smearing contrib. (-TS)   =      -0.01977982 Ry

     total magnetization       =     1.06 Bohr mag/cell
     absolute magnetization    =     1.23 Bohr mag/cell

     convergence has been achieved in  12 iterations

     Forces acting on atoms (Ry/au):


     negative rho (up, down):  1.189E-02 1.196E-02
     atom    1 type  1   force =     0.00018383   -0.00089814   -0.10471029
     atom    2 type  2   force =     0.00014167    0.00068609    0.04006796
     atom    3 type  1   force =     0.00074953   -0.00174994   -0.02050841
     atom    4 type  2   force =    -0.00327594    0.00312502   -0.00320617
     atom    5 type  1   force =     0.00033917    0.00006646    0.00037645
     atom    6 type  2   force =    -0.00012768   -0.00009685    0.00020885
     atom    7 type  1   force =    -0.00032545   -0.00008712    0.00099631
     atom    8 type  2   force =    -0.00031873   -0.00042861   -0.00039283
     atom    9 type  1   force =    -0.00003680    0.00057010   -0.10484307
     atom   10 type  2   force =     0.00034624   -0.00021099    0.03603901
     atom   11 type  1   force =     0.00067826    0.00184048    0.00264620
     atom   12 type  2   force =    -0.00520622   -0.00266575   -0.00516419
     atom   13 type  1   force =     0.00041160    0.00010114   -0.00021860
     atom   14 type  2   force =     0.00013964   -0.00009634   -0.00010613
     atom   15 type  1   force =    -0.00020264    0.00013372   -0.00021637
     atom   16 type  2   force =    -0.00034838    0.00008195   -0.00034699
     atom   17 type  2   force =     0.00000832   -0.00001272    0.06644946
     atom   18 type  1   force =     0.00005678    0.00003115    0.13148047
     atom   19 type  2   force =     0.00017695   -0.00052691   -0.08520102
     atom   20 type  2   force =    -0.05792538    0.00014333   -0.03609279
     atom   21 type  2   force =     0.05781475   -0.00004747   -0.03605511
     atom   22 type  1   force =    -0.00043183    0.00075075    0.08020051
     atom   23 type  2   force =     0.00019515   -0.00004819    0.00006286
     atom   24 type  2   force =     0.00064284    0.00185863   -0.03464847
     atom   25 type  2   force =     0.00414723    0.00332845   -0.00507101
     atom   26 type  1   force =     0.00040297   -0.00004182    0.00006342
     atom   27 type  2   force =    -0.00009896   -0.00010960    0.00014785
     atom   28 type  2   force =     0.00002841   -0.00019020    0.00001858
     atom   29 type  2   force =     0.00002498   -0.00007008    0.00010612
     atom   30 type  1   force =    -0.00003535   -0.00010221   -0.00022285
     atom   31 type  2   force =     0.00011655   -0.00002879    0.00010974
     atom   32 type  2   force =    -0.00001452   -0.00009501    0.00007005
     atom   33 type  2   force =    -0.00016599    0.00005151    0.06617572
     atom   34 type  1   force =     0.00007535   -0.00003107    0.13126162
     atom   35 type  2   force =     0.00018927   -0.00012718   -0.08481117
     atom   36 type  2   force =    -0.05781662    0.00006571   -0.03570960
     atom   37 type  2   force =     0.05798719   -0.00017471   -0.03610347
     atom   38 type  1   force =    -0.00037552   -0.00020162    0.07987443
     atom   39 type  2   force =     0.00007376   -0.00026117   -0.00006200
     atom   40 type  2   force =     0.00048713    0.00124494   -0.03525287
     atom   41 type  2   force =     0.00589672   -0.00243247   -0.00719865
     atom   42 type  1   force =     0.00024438   -0.00006866    0.00002197
     atom   43 type  2   force =    -0.00019504   -0.00011578    0.00012464
     atom   44 type  2   force =    -0.00002317   -0.00016104    0.00000645
     atom   45 type  2   force =     0.00003127   -0.00017028    0.00009274
     atom   46 type  1   force =    -0.00013911   -0.00015681   -0.00031072
     atom   47 type  2   force =    -0.00015219   -0.00020824    0.00039165
     atom   48 type  2   force =     0.00003673    0.00025013    0.00031415
     atom   49 type  2   force =     0.00114787    0.00265166    0.00119426
     atom   50 type  3   force =     0.00381602    0.01171867   -0.05219246
     atom   51 type  4   force =    -0.01076319   -0.01217961    0.01469157
     atom   52 type  4   force =     0.01197855   -0.01097999    0.02078292
     atom   53 type  4   force =     0.00019461    0.00182369    0.00528597
     atom   54 type  4   force =    -0.01078499    0.00425180    0.00938333

     Total force =     0.348519     Total SCF correction =     0.003064
 !ASE

     Writing output data file calc.save
 
     init_run     :     65.29s CPU     76.35s WALL (       1 calls)
     electrons    :   3297.94s CPU   3765.71s WALL (       1 calls)
     forces       :     49.40s CPU     50.72s WALL (       1 calls)

     Called by init_run:
     wfcinit      :     57.37s CPU     67.64s WALL (       1 calls)
     potinit      :      1.40s CPU      1.61s WALL (       1 calls)

     Called by electrons:
     c_bands      :   2919.53s CPU   3323.51s WALL (      12 calls)
     sum_band     :    324.50s CPU    382.54s WALL (      12 calls)
     v_of_rho     :     13.41s CPU     15.78s WALL (      13 calls)
     newd         :     43.88s CPU     47.48s WALL (      13 calls)
     mix_rho      :      0.50s CPU      0.65s WALL (      12 calls)
     vdW_energy   :      2.89s CPU      3.34s WALL (      14 calls)
     vdW_ffts     :      3.53s CPU      4.34s WALL (      28 calls)
     vdW_v        :      1.46s CPU      1.60s WALL (      14 calls)

     Called by c_bands:
     init_us_2    :      7.38s CPU      7.96s WALL (    1040 calls)
     cegterg      :   2871.21s CPU   3273.00s WALL (     480 calls)

     Called by *egterg:
     h_psi        :   1047.43s CPU   1354.26s WALL (    2772 calls)
     s_psi        :    180.76s CPU    186.71s WALL (    2772 calls)
     g_psi        :      5.21s CPU      5.34s WALL (    2252 calls)
     cdiaghg      :   1031.59s CPU   1056.03s WALL (    2732 calls)

     Called by h_psi:
     add_vuspsi   :    182.72s CPU    189.14s WALL (    2772 calls)

     General routines
     calbec       :    268.20s CPU    274.19s WALL (    3292 calls)
     fft          :      7.13s CPU      8.67s WALL (    1110 calls)
     ffts         :      0.05s CPU      0.07s WALL (      50 calls)
     fftw         :    585.55s CPU    930.73s WALL (  847374 calls)
     interpolate  :      0.38s CPU      0.59s WALL (      50 calls)
     davcio       :      0.12s CPU      3.18s WALL (      40 calls)
 
     Parallel routines
     fft_scatter  :    296.12s CPU    484.36s WALL (  848534 calls)
 
     PWSCF        :     0h56m CPU        1h 4m WALL

 
   This run was terminated on:   6:30:43  26Feb2018            

=------------------------------------------------------------------------------=
   JOB DONE.
=------------------------------------------------------------------------------=
