  python dir          : /home/vossj/suncat/lib/python2.7/site-packages/espresso
  espresso dir        : /home/vossj/suncat/esdld/espresso-dynpy-beef/bin
  pseudo dir          : /home/alatimer/bin/psp/esp_psp_w_gbrvRu/
  ase-espresso py git : ffa2778-git



     Program PWSCF v.5.1rc2 (svn rev. ) starts on 10Mar2018 at 12:45:51 

     This program is part of the open-source Quantum ESPRESSO suite
     for quantum simulation of materials; please cite
         "P. Giannozzi et al., J. Phys.:Condens. Matter 21 395502 (2009);
          URL http://www.quantum-espresso.org", 
     in publications or presentations arising from this work. More details at
     http://www.quantum-espresso.org/quote

     Parallel version (MPI), running on    16 processors
     R & G space division:  proc/nbgrp/npool/nimage =      16
     Reading input from pw.inp
     Message from routine read_cards :
     DEPRECATED: no units specified in CELL_PARAMETERS card

     Current dimensions of program PWSCF are:
     Max number of different atomic species (ntypx) = 10
     Max number of k-points (npk) =  40000
     Max angular momentum in pseudopotentials (lmaxx) =  3

     **************************************************************************
     Initializing libbeef V0.1.1 with the BEEF-vdW functional.
     Citation: Wellendorff et al., PRB 85, 235149 (2012).
     **************************************************************************


     IMPORTANT: XC functional enforced from input :
     Exchange-correlation      = BEEF ( 1  4 27 13 2)
     Any further DFT definition will be discarded
     Please, verify this is what you really want


     Subspace diagonalization in iterative solution of the eigenvalue problem:
     a serial algorithm will be used

 
     Parallelization info
     --------------------
     sticks:   dense  smooth     PW     G-vecs:    dense   smooth      PW
     Min         281     112     31                68535    17318    2565
     Max         282     113     32                68545    17369    2582
     Sum        4501    1795    503              1096637   277353   41113
 
     Generating pointlists ...
     new r_m :   0.4125 (alat units)  0.7795 (a.u.) for type    1
     new r_m :   0.4125 (alat units)  0.7795 (a.u.) for type    2
     new r_m :   0.4125 (alat units)  0.7795 (a.u.) for type    3


     bravais-lattice index     =            0
     lattice parameter (alat)  =       1.8897  a.u.
     unit-cell volume          =    7990.9933 (a.u.)^3
     number of atoms/cell      =           51
     number of atomic types    =            3
     number of electrons       =       400.00
     number of Kohn-Sham states=          300
     kinetic-energy cutoff     =      40.4243  Ry
     charge density cutoff     =     404.2426  Ry
     convergence threshold     =      7.3E-07
     mixing beta               =       0.1000
     number of iterations used =           10  plain     mixing
     Exchange-correlation      = BEEF ( 1  4 27 13 2)
     nstep                     =           50


     celldm(1)=   1.889726  celldm(2)=   0.000000  celldm(3)=   0.000000
     celldm(4)=   0.000000  celldm(5)=   0.000000  celldm(6)=   0.000000

     crystal axes: (cart. coord. in units of alat)
               a(1) = (   6.590708   0.000000   0.000000 )  
               a(2) = (   0.000000   5.950229   0.000000 )  
               a(3) = (   0.000000   0.000000  30.195235 )  

     reciprocal axes: (cart. coord. in units 2 pi/alat)
               b(1) = (  0.151729  0.000000  0.000000 )  
               b(2) = (  0.000000  0.168061  0.000000 )  
               b(3) = (  0.000000  0.000000  0.033118 )  


     PseudoPot. # 1 for Ti read from file:
     /home/alatimer/bin/psp/esp_psp_w_gbrvRu/Ti.UPF
     MD5 check sum: 8e4df49b7f0d34bbd5052bf3f5ea0213
     Pseudo is Ultrasoft, Zval = 12.0
     Generated by new atomic code, or converted to UPF format
     Using radial grid of  851 points,  6 beta functions with: 
                l(1) =   0
                l(2) =   0
                l(3) =   1
                l(4) =   1
                l(5) =   2
                l(6) =   2
     Q(r) pseudized with  8 coefficients,  rinner =    1.000   1.000   1.000
                                                       1.000   1.000

     PseudoPot. # 2 for  O read from file:
     /home/alatimer/bin/psp/esp_psp_w_gbrvRu/O.UPF
     MD5 check sum: e057bbcf3229fb5d8c36c0c92f9568b4
     Pseudo is Ultrasoft + core correction, Zval =  6.0
     Generated using "atomic" code by A. Dal Corso  v.5.0.2 svn rev. 9415
     Using radial grid of 1095 points,  4 beta functions with: 
                l(1) =   0
                l(2) =   0
                l(3) =   1
                l(4) =   1
     Q(r) pseudized with 0 coefficients 


     PseudoPot. # 3 for  N read from file:
     /home/alatimer/bin/psp/esp_psp_w_gbrvRu/N.UPF
     MD5 check sum: ed8b6a90f28a53b7d71920e7015d2dd6
     Pseudo is Ultrasoft + core correction, Zval =  5.0
     Generated using "atomic" code by A. Dal Corso  v.5.0.2 svn rev. 9415
     Using radial grid of 1085 points,  4 beta functions with: 
                l(1) =   0
                l(2) =   0
                l(3) =   1
                l(4) =   1
     Q(r) pseudized with 0 coefficients 


     vdW kernel table read from file vdW_kernel_table
     MD5 check sum: 095c7af220d748ca6e76c0b4c6cfb241

     atomic species   valence    mass     pseudopotential
        Ti1           12.00    47.88000     Ti( 1.00)
        O1             6.00    15.99940      O( 1.00)
        N1             5.00    14.00670      N( 1.00)

     Starting magnetic structure 
     atomic species   magnetization
        Ti1          0.250
        O1           0.500
        N1           0.600

     No symmetry found



   Cartesian axes

     site n.     atom                  positions (alat units)
         1           Ti1 tau(   1) = (   1.6476770   0.7437786   2.6545865  )
         2           O1  tau(   2) = (   1.6476770   2.2313359   3.9361215  )
         3           Ti1 tau(   3) = (   1.6476770   2.2313359   5.9499405  )
         4           O1  tau(   4) = (   0.3661420   0.7437786   5.9499405  )
         5           Ti1 tau(   5) = (   1.5280591   0.7315068   9.1973351  )
         6           O1  tau(   6) = (   1.6613943   2.1836906  10.6091769  )
         7           Ti1 tau(   7) = (   1.6665780   2.2096385  12.4157880  )
         8           O1  tau(   8) = (   0.4439715   0.7264440  12.7601561  )
         9           Ti1 tau(   9) = (   1.6476770   3.7188931   2.6545865  )
        10           O1  tau(  10) = (   1.6476770   5.2064503   3.9361215  )
        11           Ti1 tau(  11) = (   1.6476770   5.2064503   5.9499405  )
        12           O1  tau(  12) = (   0.3661420   3.7188931   5.9499405  )
        13           Ti1 tau(  13) = (   1.5319291   3.7072436   9.2118370  )
        14           O1  tau(  14) = (   1.6575607   5.2126413  10.6087893  )
        15           Ti1 tau(  15) = (   1.6606453   5.1916961  12.4165775  )
        16           O1  tau(  16) = (   0.4123725   3.7022030  12.5882193  )
        17           O1  tau(  17) = (   1.6476770   2.2313359   1.3730516  )
        18           Ti1 tau(  18) = (   4.9430310   2.2313359   2.6545865  )
        19           O1  tau(  19) = (   4.9430310   2.2313359   4.6684056  )
        20           O1  tau(  20) = (   6.2245660   0.7437786   2.6545865  )
        21           O1  tau(  21) = (   3.6614961   0.7437786   2.6545865  )
        22           Ti1 tau(  22) = (   4.9430310   0.7437786   5.9499405  )
        23           O1  tau(  23) = (   1.6517842   2.2287041   8.0298356  )
        24           O1  tau(  24) = (   4.9430310   2.2313359   7.2314755  )
        25           O1  tau(  25) = (   2.9292120   0.7437786   5.9499405  )
        26           Ti1 tau(  26) = (   4.8605205   2.2076595   9.4238065  )
        27           O1  tau(  27) = (   4.9553550   2.1639423  11.2756624  )
        28           O1  tau(  28) = (   6.2690671   0.7288246   9.2688367  )
        29           O1  tau(  29) = (   3.6660957   0.7249325   9.2867299  )
        30           Ti1 tau(  30) = (   4.9284588   0.7282168  12.7798302  )
        31           O1  tau(  31) = (   4.9953437   2.2216212  13.8477397  )
        32           O1  tau(  32) = (   2.9112183   0.7266397  12.7651274  )
        33           O1  tau(  33) = (   1.6476770   5.2064503   1.3730516  )
        34           Ti1 tau(  34) = (   4.9430310   5.2064503   2.6545865  )
        35           O1  tau(  35) = (   4.9430310   5.2064503   4.6684056  )
        36           O1  tau(  36) = (   6.2245660   3.7188931   2.6545865  )
        37           O1  tau(  37) = (   3.6614961   3.7188931   2.6545865  )
        38           Ti1 tau(  38) = (   4.9430310   3.7188931   5.9499405  )
        39           O1  tau(  39) = (   1.6524867   5.1852222   8.0294571  )
        40           O1  tau(  40) = (   4.9430310   5.2064503   7.2314755  )
        41           O1  tau(  41) = (   2.9292120   3.7188931   5.9499405  )
        42           Ti1 tau(  42) = (   4.8610151   5.1886528   9.4241876  )
        43           O1  tau(  43) = (   4.9550983   5.2107439  11.2753448  )
        44           O1  tau(  44) = (   6.2713562   3.7024388   9.3047907  )
        45           O1  tau(  45) = (   3.6650622   3.7005085   9.3135888  )
        46           Ti1 tau(  46) = (   5.0160509   3.7038162  12.7585864  )
        47           O1  tau(  47) = (   4.9984032   5.1727849  13.8485277  )
        48           O1  tau(  48) = (   2.9655234   3.7049164  12.5317472  )
        49           O1  tau(  49) = (   2.2548149   3.7063572  14.5693114  )
        50           N1  tau(  50) = (   2.4020298   3.6967063  16.9651815  )
        51           N1  tau(  51) = (   2.1425646   3.6919273  15.8611024  )

     number of k points=    40  Fermi-Dirac smearing, width (Ry)=  0.0073
                       cart. coord. in units 2pi/alat
        k(    1) = (   0.0000000   0.0000000   0.0000000), wk =   0.0277778
        k(    2) = (   0.0000000   0.0280101   0.0000000), wk =   0.0555556
        k(    3) = (   0.0000000   0.0560203   0.0000000), wk =   0.0555556
        k(    4) = (   0.0000000  -0.0840304   0.0000000), wk =   0.0277778
        k(    5) = (   0.0252881   0.0000000   0.0000000), wk =   0.0555556
        k(    6) = (   0.0252881   0.0280101   0.0000000), wk =   0.0555556
        k(    7) = (   0.0252881   0.0560203   0.0000000), wk =   0.0555556
        k(    8) = (   0.0252881  -0.0840304   0.0000000), wk =   0.0555556
        k(    9) = (   0.0505763   0.0000000   0.0000000), wk =   0.0555556
        k(   10) = (   0.0505763   0.0280101   0.0000000), wk =   0.0555556
        k(   11) = (   0.0505763   0.0560203   0.0000000), wk =   0.0555556
        k(   12) = (   0.0505763  -0.0840304   0.0000000), wk =   0.0555556
        k(   13) = (  -0.0758644   0.0000000   0.0000000), wk =   0.0277778
        k(   14) = (  -0.0758644   0.0280101   0.0000000), wk =   0.0555556
        k(   15) = (  -0.0758644   0.0560203   0.0000000), wk =   0.0555556
        k(   16) = (  -0.0758644  -0.0840304   0.0000000), wk =   0.0277778
        k(   17) = (  -0.0252881   0.0280101   0.0000000), wk =   0.0555556
        k(   18) = (  -0.0252881   0.0560203   0.0000000), wk =   0.0555556
        k(   19) = (  -0.0505763   0.0280101   0.0000000), wk =   0.0555556
        k(   20) = (  -0.0505763   0.0560203   0.0000000), wk =   0.0555556
        k(   21) = (   0.0000000   0.0000000   0.0000000), wk =   0.0277778
        k(   22) = (   0.0000000   0.0280101   0.0000000), wk =   0.0555556
        k(   23) = (   0.0000000   0.0560203   0.0000000), wk =   0.0555556
        k(   24) = (   0.0000000  -0.0840304   0.0000000), wk =   0.0277778
        k(   25) = (   0.0252881   0.0000000   0.0000000), wk =   0.0555556
        k(   26) = (   0.0252881   0.0280101   0.0000000), wk =   0.0555556
        k(   27) = (   0.0252881   0.0560203   0.0000000), wk =   0.0555556
        k(   28) = (   0.0252881  -0.0840304   0.0000000), wk =   0.0555556
        k(   29) = (   0.0505763   0.0000000   0.0000000), wk =   0.0555556
        k(   30) = (   0.0505763   0.0280101   0.0000000), wk =   0.0555556
        k(   31) = (   0.0505763   0.0560203   0.0000000), wk =   0.0555556
        k(   32) = (   0.0505763  -0.0840304   0.0000000), wk =   0.0555556
        k(   33) = (  -0.0758644   0.0000000   0.0000000), wk =   0.0277778
        k(   34) = (  -0.0758644   0.0280101   0.0000000), wk =   0.0555556
        k(   35) = (  -0.0758644   0.0560203   0.0000000), wk =   0.0555556
        k(   36) = (  -0.0758644  -0.0840304   0.0000000), wk =   0.0277778
        k(   37) = (  -0.0252881   0.0280101   0.0000000), wk =   0.0555556
        k(   38) = (  -0.0252881   0.0560203   0.0000000), wk =   0.0555556
        k(   39) = (  -0.0505763   0.0280101   0.0000000), wk =   0.0555556
        k(   40) = (  -0.0505763   0.0560203   0.0000000), wk =   0.0555556

     Dense  grid:  1096637 G-vectors     FFT dimensions: (  80,  72, 375)

     Smooth grid:   277353 G-vectors     FFT dimensions: (  54,  45, 240)

     Largest allocated arrays     est. size (Mb)     dimensions
        Kohn-Sham Wavefunctions         9.98 Mb     (    2180,  300)
        NL pseudopotentials            18.89 Mb     (    2180,  568)
        Each V/rho on FFT grid          4.22 Mb     (  138240,   2)
        Each G-vector array             0.52 Mb     (   68538)
        G-vector shells                 0.25 Mb     (   33046)
     Largest temporary arrays     est. size (Mb)     dimensions
        Auxiliary wavefunctions        39.92 Mb     (    2180, 1200)
        Each subspace H/S matrix       21.97 Mb     (    1200, 1200)
        Each <psi_i|beta_j> matrix      2.60 Mb     (     568,  300)
        Arrays for rho mixing          21.09 Mb     (  138240,   10)

     Check: negative/imaginary core charge=   -0.000049    0.000000

     The initial density is read from file :
     ./calc.save/charge-density.dat


     negative rho (up, down):  1.158E-02 1.158E-02


     ************************************************************************
     *
     * You are using vdW-DF for exchange-correlation in this calculation.
     * Please cite the following three references that made this development
     * possible:
     *
     *   M. Dion, H. Rydberg, E. Schroder, D. C. Langreth, and
     *   B. I. Lundqvist, Phys. Rev. Lett. 92, 246401 (2004).
     *
     *   T. Thonhauser, V. R. Cooper, S. Li, A. Puzder, P. Hyldgaard, and
     *   D. C. Langreth, Phys. Rev. B 76, 125112 (2007).
     *
     *   G. Roman-Perez and J. M. Soler, Phys. Rev. Lett. 103, 096102 (2009).
     *
     *
     * If you are using vdW-DF2, please also cite:
     *
     *   K. Lee, E. D. Murray, L. Kong, B. I. Lundqvist, and
     *   D. C. Langreth, Phys. Rev. B 82, 081101(R) (2010).
     *
     *
     * If you are calculating the stress with vdW-DF, please also cite:
     *
     *   R. Sabatini, E. Kucukbenli, B. Kolb, T. Thonhauser, and
     *   S. de Gironcoli, J. Phys.: Condens. Matter 24, 424209 (2012).
     *
     ************************************************************************

     Carrying out vdW-DF run using the following parameters:

     Nqs =      20    Nr_points =    1024   r_max =   100.000
     q_mesh =
               0.00001000     0.04494208     0.09755937     0.15916263
               0.23128650     0.31572767     0.41458969     0.53033537
               0.66584808     0.82450364     1.01025438     1.22772762
               1.48234092     1.78043706     2.12944203     2.53805004
               3.01644009     3.57652955     4.23227104     5.00000000

     Gradients computed in reciprocal space

     ************************************************************************


     Starting wfc are  300 randomized atomic wfcs

     total cpu time spent up to now is       70.8 secs

     Self-consistent Calculation

     iteration #  1     ecut=    40.42 Ry     beta=0.10
     Davidson diagonalization with overlap
     ethr =  1.00E-05,  avg # of iterations = 14.9

     negative rho (up, down):  1.158E-02 1.158E-02
 
     Magnetic moment per site:
     atom:    1    charge:    3.1250    magn:   -0.0002    constr:    0.0000
     atom:    2    charge:    2.0894    magn:    0.0001    constr:    0.0000
     atom:    3    charge:    3.1196    magn:   -0.0001    constr:    0.0000
     atom:    4    charge:    2.0870    magn:    0.0000    constr:    0.0000
     atom:    5    charge:    3.1170    magn:   -0.0001    constr:    0.0000
     atom:    6    charge:    2.0917    magn:    0.0001    constr:    0.0000
     atom:    7    charge:    3.1184    magn:   -0.0000    constr:    0.0000
     atom:    8    charge:    2.0816    magn:    0.0001    constr:    0.0000
     atom:    9    charge:    3.1250    magn:   -0.0002    constr:    0.0000
     atom:   10    charge:    2.0894    magn:    0.0001    constr:    0.0000
     atom:   11    charge:    3.1196    magn:   -0.0001    constr:    0.0000
     atom:   12    charge:    2.0870    magn:    0.0000    constr:    0.0000
     atom:   13    charge:    3.1148    magn:   -0.0001    constr:    0.0000
     atom:   14    charge:    2.0911    magn:    0.0001    constr:    0.0000
     atom:   15    charge:    3.1195    magn:   -0.0000    constr:    0.0000
     atom:   16    charge:    2.0883    magn:    0.0001    constr:    0.0000
     atom:   17    charge:    2.0624    magn:    0.0004    constr:    0.0000
     atom:   18    charge:    3.1239    magn:   -0.0000    constr:    0.0000
     atom:   19    charge:    2.0878    magn:   -0.0000    constr:    0.0000
     atom:   20    charge:    2.0847    magn:   -0.0001    constr:    0.0000
     atom:   21    charge:    2.0847    magn:   -0.0001    constr:    0.0000
     atom:   22    charge:    3.1197    magn:   -0.0000    constr:    0.0000
     atom:   23    charge:    2.0908    magn:    0.0001    constr:    0.0000
     atom:   24    charge:    2.0777    magn:    0.0001    constr:    0.0000
     atom:   25    charge:    2.0869    magn:    0.0000    constr:    0.0000
     atom:   26    charge:    3.1165    magn:   -0.0001    constr:    0.0000
     atom:   27    charge:    2.0824    magn:    0.0002    constr:    0.0000
     atom:   28    charge:    2.0879    magn:    0.0001    constr:    0.0000
     atom:   29    charge:    2.0877    magn:    0.0001    constr:    0.0000
     atom:   30    charge:    3.1168    magn:   -0.0001    constr:    0.0000
     atom:   31    charge:    2.0814    magn:    0.0003    constr:    0.0000
     atom:   32    charge:    2.0843    magn:    0.0001    constr:    0.0000
     atom:   33    charge:    2.0624    magn:    0.0004    constr:    0.0000
     atom:   34    charge:    3.1239    magn:   -0.0000    constr:    0.0000
     atom:   35    charge:    2.0878    magn:   -0.0000    constr:    0.0000
     atom:   36    charge:    2.0847    magn:   -0.0001    constr:    0.0000
     atom:   37    charge:    2.0847    magn:   -0.0001    constr:    0.0000
     atom:   38    charge:    3.1197    magn:   -0.0000    constr:    0.0000
     atom:   39    charge:    2.0912    magn:    0.0001    constr:    0.0000
     atom:   40    charge:    2.0777    magn:    0.0001    constr:    0.0000
     atom:   41    charge:    2.0869    magn:    0.0000    constr:    0.0000
     atom:   42    charge:    3.1181    magn:   -0.0001    constr:    0.0000
     atom:   43    charge:    2.0838    magn:    0.0002    constr:    0.0000
     atom:   44    charge:    2.0865    magn:    0.0001    constr:    0.0000
     atom:   45    charge:    2.0871    magn:    0.0001    constr:    0.0000
     atom:   46    charge:    3.1171    magn:   -0.0001    constr:    0.0000
     atom:   47    charge:    2.0798    magn:    0.0003    constr:    0.0000
     atom:   48    charge:    2.0835    magn:    0.0002    constr:    0.0000
     atom:   49    charge:    2.0519    magn:   -0.0000    constr:    0.0000
     atom:   50    charge:    1.2562    magn:   -0.0000    constr:    0.0000
     atom:   51    charge:    1.2860    magn:    0.0000    constr:    0.0000

     total cpu time spent up to now is      835.6 secs

     total energy              =   -3044.96921116 Ry
     Harris-Foulkes estimate   =   -3044.97556013 Ry
     estimated scf accuracy    <       0.04548772 Ry

     total magnetization       =     0.00 Bohr mag/cell
     absolute magnetization    =     0.01 Bohr mag/cell

     iteration #  2     ecut=    40.42 Ry     beta=0.10
     Davidson diagonalization with overlap
     ethr =  1.14E-05,  avg # of iterations =  1.0

     negative rho (up, down):  1.158E-02 1.158E-02
 
     Magnetic moment per site:
     atom:    1    charge:    3.1251    magn:   -0.0001    constr:    0.0000
     atom:    2    charge:    2.0894    magn:    0.0001    constr:    0.0000
     atom:    3    charge:    3.1196    magn:   -0.0000    constr:    0.0000
     atom:    4    charge:    2.0870    magn:    0.0000    constr:    0.0000
     atom:    5    charge:    3.1170    magn:   -0.0000    constr:    0.0000
     atom:    6    charge:    2.0917    magn:    0.0000    constr:    0.0000
     atom:    7    charge:    3.1184    magn:   -0.0000    constr:    0.0000
     atom:    8    charge:    2.0816    magn:    0.0001    constr:    0.0000
     atom:    9    charge:    3.1251    magn:   -0.0001    constr:    0.0000
     atom:   10    charge:    2.0894    magn:    0.0001    constr:    0.0000
     atom:   11    charge:    3.1196    magn:   -0.0000    constr:    0.0000
     atom:   12    charge:    2.0870    magn:    0.0000    constr:    0.0000
     atom:   13    charge:    3.1148    magn:   -0.0000    constr:    0.0000
     atom:   14    charge:    2.0911    magn:    0.0000    constr:    0.0000
     atom:   15    charge:    3.1195    magn:   -0.0000    constr:    0.0000
     atom:   16    charge:    2.0883    magn:    0.0000    constr:    0.0000
     atom:   17    charge:    2.0624    magn:    0.0003    constr:    0.0000
     atom:   18    charge:    3.1239    magn:   -0.0000    constr:    0.0000
     atom:   19    charge:    2.0878    magn:   -0.0000    constr:    0.0000
     atom:   20    charge:    2.0847    magn:   -0.0000    constr:    0.0000
     atom:   21    charge:    2.0847    magn:   -0.0000    constr:    0.0000
     atom:   22    charge:    3.1197    magn:   -0.0000    constr:    0.0000
     atom:   23    charge:    2.0909    magn:    0.0001    constr:    0.0000
     atom:   24    charge:    2.0777    magn:    0.0000    constr:    0.0000
     atom:   25    charge:    2.0869    magn:    0.0000    constr:    0.0000
     atom:   26    charge:    3.1165    magn:   -0.0000    constr:    0.0000
     atom:   27    charge:    2.0824    magn:    0.0001    constr:    0.0000
     atom:   28    charge:    2.0879    magn:    0.0001    constr:    0.0000
     atom:   29    charge:    2.0878    magn:    0.0001    constr:    0.0000
     atom:   30    charge:    3.1168    magn:   -0.0001    constr:    0.0000
     atom:   31    charge:    2.0812    magn:    0.0002    constr:    0.0000
     atom:   32    charge:    2.0843    magn:    0.0000    constr:    0.0000
     atom:   33    charge:    2.0624    magn:    0.0003    constr:    0.0000
     atom:   34    charge:    3.1239    magn:   -0.0000    constr:    0.0000
     atom:   35    charge:    2.0878    magn:   -0.0000    constr:    0.0000
     atom:   36    charge:    2.0847    magn:   -0.0000    constr:    0.0000
     atom:   37    charge:    2.0846    magn:   -0.0000    constr:    0.0000
     atom:   38    charge:    3.1197    magn:   -0.0000    constr:    0.0000
     atom:   39    charge:    2.0912    magn:    0.0001    constr:    0.0000
     atom:   40    charge:    2.0777    magn:    0.0000    constr:    0.0000
     atom:   41    charge:    2.0869    magn:    0.0000    constr:    0.0000
     atom:   42    charge:    3.1181    magn:   -0.0000    constr:    0.0000
     atom:   43    charge:    2.0838    magn:    0.0001    constr:    0.0000
     atom:   44    charge:    2.0865    magn:    0.0001    constr:    0.0000
     atom:   45    charge:    2.0871    magn:    0.0001    constr:    0.0000
     atom:   46    charge:    3.1171    magn:   -0.0001    constr:    0.0000
     atom:   47    charge:    2.0799    magn:    0.0002    constr:    0.0000
     atom:   48    charge:    2.0835    magn:    0.0001    constr:    0.0000
     atom:   49    charge:    2.0517    magn:   -0.0000    constr:    0.0000
     atom:   50    charge:    1.2587    magn:   -0.0000    constr:    0.0000
     atom:   51    charge:    1.2860    magn:    0.0000    constr:    0.0000

     total cpu time spent up to now is     1013.5 secs

     total energy              =   -3044.95124282 Ry
     Harris-Foulkes estimate   =   -3044.96949344 Ry
     estimated scf accuracy    <       0.03090842 Ry

     total magnetization       =     0.00 Bohr mag/cell
     absolute magnetization    =     0.01 Bohr mag/cell

     iteration #  3     ecut=    40.42 Ry     beta=0.10
     Davidson diagonalization with overlap
     ethr =  7.73E-06,  avg # of iterations =  2.5

     negative rho (up, down):  1.158E-02 1.158E-02
 
     Magnetic moment per site:
     atom:    1    charge:    3.1250    magn:   -0.0001    constr:    0.0000
     atom:    2    charge:    2.0894    magn:    0.0001    constr:    0.0000
     atom:    3    charge:    3.1196    magn:   -0.0000    constr:    0.0000
     atom:    4    charge:    2.0870    magn:    0.0000    constr:    0.0000
     atom:    5    charge:    3.1170    magn:   -0.0000    constr:    0.0000
     atom:    6    charge:    2.0917    magn:    0.0000    constr:    0.0000
     atom:    7    charge:    3.1186    magn:   -0.0000    constr:    0.0000
     atom:    8    charge:    2.0816    magn:    0.0000    constr:    0.0000
     atom:    9    charge:    3.1250    magn:   -0.0001    constr:    0.0000
     atom:   10    charge:    2.0894    magn:    0.0001    constr:    0.0000
     atom:   11    charge:    3.1196    magn:   -0.0000    constr:    0.0000
     atom:   12    charge:    2.0870    magn:    0.0000    constr:    0.0000
     atom:   13    charge:    3.1148    magn:   -0.0000    constr:    0.0000
     atom:   14    charge:    2.0912    magn:    0.0000    constr:    0.0000
     atom:   15    charge:    3.1193    magn:   -0.0000    constr:    0.0000
     atom:   16    charge:    2.0883    magn:    0.0000    constr:    0.0000
     atom:   17    charge:    2.0624    magn:    0.0003    constr:    0.0000
     atom:   18    charge:    3.1239    magn:   -0.0000    constr:    0.0000
     atom:   19    charge:    2.0878    magn:   -0.0000    constr:    0.0000
     atom:   20    charge:    2.0847    magn:   -0.0000    constr:    0.0000
     atom:   21    charge:    2.0847    magn:   -0.0000    constr:    0.0000
     atom:   22    charge:    3.1197    magn:   -0.0000    constr:    0.0000
     atom:   23    charge:    2.0909    magn:    0.0000    constr:    0.0000
     atom:   24    charge:    2.0777    magn:    0.0000    constr:    0.0000
     atom:   25    charge:    2.0869    magn:    0.0000    constr:    0.0000
     atom:   26    charge:    3.1165    magn:   -0.0000    constr:    0.0000
     atom:   27    charge:    2.0824    magn:    0.0001    constr:    0.0000
     atom:   28    charge:    2.0879    magn:    0.0001    constr:    0.0000
     atom:   29    charge:    2.0877    magn:    0.0001    constr:    0.0000
     atom:   30    charge:    3.1168    magn:   -0.0001    constr:    0.0000
     atom:   31    charge:    2.0816    magn:    0.0002    constr:    0.0000
     atom:   32    charge:    2.0843    magn:    0.0000    constr:    0.0000
     atom:   33    charge:    2.0624    magn:    0.0003    constr:    0.0000
     atom:   34    charge:    3.1239    magn:   -0.0000    constr:    0.0000
     atom:   35    charge:    2.0878    magn:   -0.0000    constr:    0.0000
     atom:   36    charge:    2.0847    magn:   -0.0000    constr:    0.0000
     atom:   37    charge:    2.0847    magn:   -0.0000    constr:    0.0000
     atom:   38    charge:    3.1197    magn:   -0.0000    constr:    0.0000
     atom:   39    charge:    2.0912    magn:    0.0000    constr:    0.0000
     atom:   40    charge:    2.0777    magn:    0.0000    constr:    0.0000
     atom:   41    charge:    2.0869    magn:    0.0000    constr:    0.0000
     atom:   42    charge:    3.1181    magn:   -0.0000    constr:    0.0000
     atom:   43    charge:    2.0837    magn:    0.0001    constr:    0.0000
     atom:   44    charge:    2.0865    magn:    0.0001    constr:    0.0000
     atom:   45    charge:    2.0871    magn:    0.0001    constr:    0.0000
     atom:   46    charge:    3.1171    magn:   -0.0001    constr:    0.0000
     atom:   47    charge:    2.0796    magn:    0.0002    constr:    0.0000
     atom:   48    charge:    2.0835    magn:    0.0001    constr:    0.0000
     atom:   49    charge:    2.0519    magn:   -0.0000    constr:    0.0000
     atom:   50    charge:    1.2586    magn:   -0.0000    constr:    0.0000
     atom:   51    charge:    1.2860    magn:    0.0000    constr:    0.0000

     total cpu time spent up to now is     1221.5 secs

     total energy              =   -3044.95677277 Ry
     Harris-Foulkes estimate   =   -3044.95682386 Ry
     estimated scf accuracy    <       0.00033364 Ry

     total magnetization       =     0.00 Bohr mag/cell
     absolute magnetization    =     0.00 Bohr mag/cell

     iteration #  4     ecut=    40.42 Ry     beta=0.10
     Davidson diagonalization with overlap
     ethr =  8.34E-08,  avg # of iterations =  3.3

     negative rho (up, down):  1.158E-02 1.158E-02
 
     Magnetic moment per site:
     atom:    1    charge:    3.1250    magn:   -0.0001    constr:    0.0000
     atom:    2    charge:    2.0894    magn:    0.0001    constr:    0.0000
     atom:    3    charge:    3.1196    magn:   -0.0000    constr:    0.0000
     atom:    4    charge:    2.0870    magn:    0.0000    constr:    0.0000
     atom:    5    charge:    3.1170    magn:   -0.0000    constr:    0.0000
     atom:    6    charge:    2.0917    magn:    0.0000    constr:    0.0000
     atom:    7    charge:    3.1186    magn:   -0.0000    constr:    0.0000
     atom:    8    charge:    2.0816    magn:    0.0000    constr:    0.0000
     atom:    9    charge:    3.1250    magn:   -0.0001    constr:    0.0000
     atom:   10    charge:    2.0894    magn:    0.0001    constr:    0.0000
     atom:   11    charge:    3.1196    magn:   -0.0000    constr:    0.0000
     atom:   12    charge:    2.0870    magn:    0.0000    constr:    0.0000
     atom:   13    charge:    3.1148    magn:   -0.0000    constr:    0.0000
     atom:   14    charge:    2.0912    magn:    0.0000    constr:    0.0000
     atom:   15    charge:    3.1193    magn:   -0.0000    constr:    0.0000
     atom:   16    charge:    2.0883    magn:    0.0000    constr:    0.0000
     atom:   17    charge:    2.0624    magn:    0.0002    constr:    0.0000
     atom:   18    charge:    3.1239    magn:   -0.0000    constr:    0.0000
     atom:   19    charge:    2.0878    magn:   -0.0000    constr:    0.0000
     atom:   20    charge:    2.0847    magn:   -0.0000    constr:    0.0000
     atom:   21    charge:    2.0847    magn:   -0.0000    constr:    0.0000
     atom:   22    charge:    3.1197    magn:   -0.0000    constr:    0.0000
     atom:   23    charge:    2.0909    magn:    0.0000    constr:    0.0000
     atom:   24    charge:    2.0777    magn:    0.0000    constr:    0.0000
     atom:   25    charge:    2.0869    magn:    0.0000    constr:    0.0000
     atom:   26    charge:    3.1165    magn:   -0.0000    constr:    0.0000
     atom:   27    charge:    2.0824    magn:    0.0001    constr:    0.0000
     atom:   28    charge:    2.0879    magn:    0.0001    constr:    0.0000
     atom:   29    charge:    2.0877    magn:    0.0000    constr:    0.0000
     atom:   30    charge:    3.1168    magn:   -0.0001    constr:    0.0000
     atom:   31    charge:    2.0817    magn:    0.0002    constr:    0.0000
     atom:   32    charge:    2.0843    magn:    0.0000    constr:    0.0000
     atom:   33    charge:    2.0624    magn:    0.0002    constr:    0.0000
     atom:   34    charge:    3.1239    magn:   -0.0000    constr:    0.0000
     atom:   35    charge:    2.0878    magn:   -0.0000    constr:    0.0000
     atom:   36    charge:    2.0847    magn:   -0.0000    constr:    0.0000
     atom:   37    charge:    2.0847    magn:   -0.0000    constr:    0.0000
     atom:   38    charge:    3.1197    magn:   -0.0000    constr:    0.0000
     atom:   39    charge:    2.0912    magn:    0.0000    constr:    0.0000
     atom:   40    charge:    2.0777    magn:    0.0000    constr:    0.0000
     atom:   41    charge:    2.0869    magn:    0.0000    constr:    0.0000
     atom:   42    charge:    3.1181    magn:   -0.0000    constr:    0.0000
     atom:   43    charge:    2.0838    magn:    0.0001    constr:    0.0000
     atom:   44    charge:    2.0865    magn:    0.0001    constr:    0.0000
     atom:   45    charge:    2.0871    magn:    0.0000    constr:    0.0000
     atom:   46    charge:    3.1171    magn:   -0.0001    constr:    0.0000
     atom:   47    charge:    2.0795    magn:    0.0002    constr:    0.0000
     atom:   48    charge:    2.0835    magn:    0.0001    constr:    0.0000
     atom:   49    charge:    2.0520    magn:   -0.0000    constr:    0.0000
     atom:   50    charge:    1.2587    magn:   -0.0000    constr:    0.0000
     atom:   51    charge:    1.2860    magn:    0.0000    constr:    0.0000

     total cpu time spent up to now is     1432.3 secs

     total energy              =   -3044.95676903 Ry
     Harris-Foulkes estimate   =   -3044.95679029 Ry
     estimated scf accuracy    <       0.00015595 Ry

     total magnetization       =     0.00 Bohr mag/cell
     absolute magnetization    =     0.00 Bohr mag/cell

     iteration #  5     ecut=    40.42 Ry     beta=0.10
     Davidson diagonalization with overlap
     ethr =  3.90E-08,  avg # of iterations =  2.0

     negative rho (up, down):  1.158E-02 1.158E-02
 
     Magnetic moment per site:
     atom:    1    charge:    3.1250    magn:   -0.0001    constr:    0.0000
     atom:    2    charge:    2.0894    magn:    0.0000    constr:    0.0000
     atom:    3    charge:    3.1196    magn:   -0.0000    constr:    0.0000
     atom:    4    charge:    2.0870    magn:    0.0000    constr:    0.0000
     atom:    5    charge:    3.1170    magn:   -0.0000    constr:    0.0000
     atom:    6    charge:    2.0917    magn:    0.0000    constr:    0.0000
     atom:    7    charge:    3.1184    magn:   -0.0000    constr:    0.0000
     atom:    8    charge:    2.0816    magn:    0.0000    constr:    0.0000
     atom:    9    charge:    3.1250    magn:   -0.0001    constr:    0.0000
     atom:   10    charge:    2.0894    magn:    0.0000    constr:    0.0000
     atom:   11    charge:    3.1196    magn:   -0.0000    constr:    0.0000
     atom:   12    charge:    2.0870    magn:    0.0000    constr:    0.0000
     atom:   13    charge:    3.1148    magn:   -0.0000    constr:    0.0000
     atom:   14    charge:    2.0911    magn:    0.0000    constr:    0.0000
     atom:   15    charge:    3.1195    magn:   -0.0000    constr:    0.0000
     atom:   16    charge:    2.0883    magn:    0.0000    constr:    0.0000
     atom:   17    charge:    2.0624    magn:    0.0002    constr:    0.0000
     atom:   18    charge:    3.1239    magn:   -0.0000    constr:    0.0000
     atom:   19    charge:    2.0878    magn:   -0.0000    constr:    0.0000
     atom:   20    charge:    2.0847    magn:   -0.0000    constr:    0.0000
     atom:   21    charge:    2.0847    magn:   -0.0000    constr:    0.0000
     atom:   22    charge:    3.1197    magn:   -0.0000    constr:    0.0000
     atom:   23    charge:    2.0909    magn:    0.0000    constr:    0.0000
     atom:   24    charge:    2.0777    magn:    0.0000    constr:    0.0000
     atom:   25    charge:    2.0869    magn:    0.0000    constr:    0.0000
     atom:   26    charge:    3.1165    magn:   -0.0000    constr:    0.0000
     atom:   27    charge:    2.0823    magn:    0.0001    constr:    0.0000
     atom:   28    charge:    2.0879    magn:    0.0000    constr:    0.0000
     atom:   29    charge:    2.0877    magn:    0.0000    constr:    0.0000
     atom:   30    charge:    3.1168    magn:   -0.0000    constr:    0.0000
     atom:   31    charge:    2.0816    magn:    0.0001    constr:    0.0000
     atom:   32    charge:    2.0843    magn:    0.0000    constr:    0.0000
     atom:   33    charge:    2.0624    magn:    0.0002    constr:    0.0000
     atom:   34    charge:    3.1239    magn:   -0.0000    constr:    0.0000
     atom:   35    charge:    2.0878    magn:   -0.0000    constr:    0.0000
     atom:   36    charge:    2.0847    magn:   -0.0000    constr:    0.0000
     atom:   37    charge:    2.0847    magn:   -0.0000    constr:    0.0000
     atom:   38    charge:    3.1197    magn:   -0.0000    constr:    0.0000
     atom:   39    charge:    2.0912    magn:    0.0000    constr:    0.0000
     atom:   40    charge:    2.0777    magn:    0.0000    constr:    0.0000
     atom:   41    charge:    2.0869    magn:    0.0000    constr:    0.0000
     atom:   42    charge:    3.1181    magn:   -0.0000    constr:    0.0000
     atom:   43    charge:    2.0838    magn:    0.0001    constr:    0.0000
     atom:   44    charge:    2.0865    magn:    0.0000    constr:    0.0000
     atom:   45    charge:    2.0871    magn:    0.0000    constr:    0.0000
     atom:   46    charge:    3.1171    magn:   -0.0001    constr:    0.0000
     atom:   47    charge:    2.0797    magn:    0.0001    constr:    0.0000
     atom:   48    charge:    2.0835    magn:    0.0001    constr:    0.0000
     atom:   49    charge:    2.0519    magn:    0.0000    constr:    0.0000
     atom:   50    charge:    1.2589    magn:   -0.0000    constr:    0.0000
     atom:   51    charge:    1.2860    magn:    0.0000    constr:    0.0000

     total cpu time spent up to now is     1624.5 secs

     total energy              =   -3044.95675168 Ry
     Harris-Foulkes estimate   =   -3044.95677226 Ry
     estimated scf accuracy    <       0.00008203 Ry

     total magnetization       =     0.00 Bohr mag/cell
     absolute magnetization    =     0.00 Bohr mag/cell

     iteration #  6     ecut=    40.42 Ry     beta=0.10
     Davidson diagonalization with overlap
     ethr =  2.05E-08,  avg # of iterations =  3.0

     negative rho (up, down):  1.158E-02 1.158E-02
 
     Magnetic moment per site:
     atom:    1    charge:    3.1250    magn:   -0.0001    constr:    0.0000
     atom:    2    charge:    2.0894    magn:    0.0000    constr:    0.0000
     atom:    3    charge:    3.1196    magn:   -0.0000    constr:    0.0000
     atom:    4    charge:    2.0870    magn:    0.0000    constr:    0.0000
     atom:    5    charge:    3.1170    magn:   -0.0000    constr:    0.0000
     atom:    6    charge:    2.0917    magn:    0.0000    constr:    0.0000
     atom:    7    charge:    3.1184    magn:   -0.0000    constr:    0.0000
     atom:    8    charge:    2.0816    magn:    0.0000    constr:    0.0000
     atom:    9    charge:    3.1250    magn:   -0.0001    constr:    0.0000
     atom:   10    charge:    2.0894    magn:    0.0000    constr:    0.0000
     atom:   11    charge:    3.1196    magn:   -0.0000    constr:    0.0000
     atom:   12    charge:    2.0870    magn:    0.0000    constr:    0.0000
     atom:   13    charge:    3.1148    magn:   -0.0000    constr:    0.0000
     atom:   14    charge:    2.0911    magn:    0.0000    constr:    0.0000
     atom:   15    charge:    3.1195    magn:   -0.0000    constr:    0.0000
     atom:   16    charge:    2.0883    magn:    0.0000    constr:    0.0000
     atom:   17    charge:    2.0624    magn:    0.0001    constr:    0.0000
     atom:   18    charge:    3.1239    magn:   -0.0000    constr:    0.0000
     atom:   19    charge:    2.0878    magn:   -0.0000    constr:    0.0000
     atom:   20    charge:    2.0847    magn:   -0.0000    constr:    0.0000
     atom:   21    charge:    2.0847    magn:   -0.0000    constr:    0.0000
     atom:   22    charge:    3.1197    magn:   -0.0000    constr:    0.0000
     atom:   23    charge:    2.0909    magn:    0.0000    constr:    0.0000
     atom:   24    charge:    2.0777    magn:    0.0000    constr:    0.0000
     atom:   25    charge:    2.0869    magn:    0.0000    constr:    0.0000
     atom:   26    charge:    3.1165    magn:   -0.0000    constr:    0.0000
     atom:   27    charge:    2.0824    magn:    0.0001    constr:    0.0000
     atom:   28    charge:    2.0879    magn:    0.0000    constr:    0.0000
     atom:   29    charge:    2.0877    magn:    0.0000    constr:    0.0000
     atom:   30    charge:    3.1168    magn:   -0.0000    constr:    0.0000
     atom:   31    charge:    2.0815    magn:    0.0001    constr:    0.0000
     atom:   32    charge:    2.0843    magn:    0.0000    constr:    0.0000
     atom:   33    charge:    2.0624    magn:    0.0001    constr:    0.0000
     atom:   34    charge:    3.1239    magn:   -0.0000    constr:    0.0000
     atom:   35    charge:    2.0878    magn:   -0.0000    constr:    0.0000
     atom:   36    charge:    2.0847    magn:   -0.0000    constr:    0.0000
     atom:   37    charge:    2.0847    magn:   -0.0000    constr:    0.0000
     atom:   38    charge:    3.1197    magn:   -0.0000    constr:    0.0000
     atom:   39    charge:    2.0912    magn:    0.0000    constr:    0.0000
     atom:   40    charge:    2.0777    magn:    0.0000    constr:    0.0000
     atom:   41    charge:    2.0869    magn:    0.0000    constr:    0.0000
     atom:   42    charge:    3.1181    magn:   -0.0000    constr:    0.0000
     atom:   43    charge:    2.0838    magn:    0.0001    constr:    0.0000
     atom:   44    charge:    2.0865    magn:    0.0000    constr:    0.0000
     atom:   45    charge:    2.0871    magn:    0.0000    constr:    0.0000
     atom:   46    charge:    3.1171    magn:   -0.0000    constr:    0.0000
     atom:   47    charge:    2.0797    magn:    0.0001    constr:    0.0000
     atom:   48    charge:    2.0835    magn:    0.0000    constr:    0.0000
     atom:   49    charge:    2.0519    magn:    0.0000    constr:    0.0000
     atom:   50    charge:    1.2589    magn:   -0.0000    constr:    0.0000
     atom:   51    charge:    1.2861    magn:    0.0000    constr:    0.0000

     total cpu time spent up to now is     1832.0 secs

     total energy              =   -3044.95675971 Ry
     Harris-Foulkes estimate   =   -3044.95675941 Ry
     estimated scf accuracy    <       0.00000585 Ry

     total magnetization       =     0.00 Bohr mag/cell
     absolute magnetization    =     0.00 Bohr mag/cell

     iteration #  7     ecut=    40.42 Ry     beta=0.10
     Davidson diagonalization with overlap
     ethr =  1.46E-09,  avg # of iterations =  2.0

     negative rho (up, down):  1.158E-02 1.158E-02
 
     Magnetic moment per site:
     atom:    1    charge:    3.1250    magn:   -0.0000    constr:    0.0000
     atom:    2    charge:    2.0894    magn:    0.0000    constr:    0.0000
     atom:    3    charge:    3.1196    magn:   -0.0000    constr:    0.0000
     atom:    4    charge:    2.0870    magn:    0.0000    constr:    0.0000
     atom:    5    charge:    3.1170    magn:   -0.0000    constr:    0.0000
     atom:    6    charge:    2.0917    magn:    0.0000    constr:    0.0000
     atom:    7    charge:    3.1184    magn:   -0.0000    constr:    0.0000
     atom:    8    charge:    2.0816    magn:    0.0000    constr:    0.0000
     atom:    9    charge:    3.1250    magn:   -0.0000    constr:    0.0000
     atom:   10    charge:    2.0894    magn:    0.0000    constr:    0.0000
     atom:   11    charge:    3.1196    magn:   -0.0000    constr:    0.0000
     atom:   12    charge:    2.0870    magn:    0.0000    constr:    0.0000
     atom:   13    charge:    3.1148    magn:   -0.0000    constr:    0.0000
     atom:   14    charge:    2.0911    magn:    0.0000    constr:    0.0000
     atom:   15    charge:    3.1194    magn:   -0.0000    constr:    0.0000
     atom:   16    charge:    2.0883    magn:    0.0000    constr:    0.0000
     atom:   17    charge:    2.0624    magn:    0.0001    constr:    0.0000
     atom:   18    charge:    3.1239    magn:   -0.0000    constr:    0.0000
     atom:   19    charge:    2.0878    magn:   -0.0000    constr:    0.0000
     atom:   20    charge:    2.0847    magn:   -0.0000    constr:    0.0000
     atom:   21    charge:    2.0847    magn:   -0.0000    constr:    0.0000
     atom:   22    charge:    3.1197    magn:   -0.0000    constr:    0.0000
     atom:   23    charge:    2.0909    magn:    0.0000    constr:    0.0000
     atom:   24    charge:    2.0777    magn:    0.0000    constr:    0.0000
     atom:   25    charge:    2.0869    magn:    0.0000    constr:    0.0000
     atom:   26    charge:    3.1165    magn:   -0.0000    constr:    0.0000
     atom:   27    charge:    2.0824    magn:    0.0000    constr:    0.0000
     atom:   28    charge:    2.0879    magn:    0.0000    constr:    0.0000
     atom:   29    charge:    2.0877    magn:    0.0000    constr:    0.0000
     atom:   30    charge:    3.1168    magn:   -0.0000    constr:    0.0000
     atom:   31    charge:    2.0815    magn:    0.0001    constr:    0.0000
     atom:   32    charge:    2.0843    magn:    0.0000    constr:    0.0000
     atom:   33    charge:    2.0624    magn:    0.0001    constr:    0.0000
     atom:   34    charge:    3.1239    magn:   -0.0000    constr:    0.0000
     atom:   35    charge:    2.0878    magn:   -0.0000    constr:    0.0000
     atom:   36    charge:    2.0847    magn:   -0.0000    constr:    0.0000
     atom:   37    charge:    2.0847    magn:   -0.0000    constr:    0.0000
     atom:   38    charge:    3.1197    magn:   -0.0000    constr:    0.0000
     atom:   39    charge:    2.0912    magn:    0.0000    constr:    0.0000
     atom:   40    charge:    2.0777    magn:    0.0000    constr:    0.0000
     atom:   41    charge:    2.0869    magn:    0.0000    constr:    0.0000
     atom:   42    charge:    3.1181    magn:   -0.0000    constr:    0.0000
     atom:   43    charge:    2.0838    magn:    0.0000    constr:    0.0000
     atom:   44    charge:    2.0865    magn:    0.0000    constr:    0.0000
     atom:   45    charge:    2.0871    magn:    0.0000    constr:    0.0000
     atom:   46    charge:    3.1171    magn:   -0.0000    constr:    0.0000
     atom:   47    charge:    2.0797    magn:    0.0001    constr:    0.0000
     atom:   48    charge:    2.0835    magn:    0.0000    constr:    0.0000
     atom:   49    charge:    2.0519    magn:    0.0000    constr:    0.0000
     atom:   50    charge:    1.2590    magn:   -0.0000    constr:    0.0000
     atom:   51    charge:    1.2861    magn:    0.0000    constr:    0.0000

     total cpu time spent up to now is     2024.0 secs

     total energy              =   -3044.95675972 Ry
     Harris-Foulkes estimate   =   -3044.95675996 Ry
     estimated scf accuracy    <       0.00000269 Ry

     total magnetization       =     0.00 Bohr mag/cell
     absolute magnetization    =     0.00 Bohr mag/cell

     iteration #  8     ecut=    40.42 Ry     beta=0.10
     Davidson diagonalization with overlap
     ethr =  6.71E-10,  avg # of iterations =  2.0

     negative rho (up, down):  1.158E-02 1.158E-02
 
     Magnetic moment per site:
     atom:    1    charge:    3.1250    magn:   -0.0000    constr:    0.0000
     atom:    2    charge:    2.0894    magn:    0.0000    constr:    0.0000
     atom:    3    charge:    3.1196    magn:   -0.0000    constr:    0.0000
     atom:    4    charge:    2.0870    magn:    0.0000    constr:    0.0000
     atom:    5    charge:    3.1170    magn:   -0.0000    constr:    0.0000
     atom:    6    charge:    2.0917    magn:    0.0000    constr:    0.0000
     atom:    7    charge:    3.1185    magn:   -0.0000    constr:    0.0000
     atom:    8    charge:    2.0816    magn:    0.0000    constr:    0.0000
     atom:    9    charge:    3.1250    magn:   -0.0000    constr:    0.0000
     atom:   10    charge:    2.0894    magn:    0.0000    constr:    0.0000
     atom:   11    charge:    3.1196    magn:   -0.0000    constr:    0.0000
     atom:   12    charge:    2.0870    magn:    0.0000    constr:    0.0000
     atom:   13    charge:    3.1148    magn:   -0.0000    constr:    0.0000
     atom:   14    charge:    2.0911    magn:    0.0000    constr:    0.0000
     atom:   15    charge:    3.1194    magn:   -0.0000    constr:    0.0000
     atom:   16    charge:    2.0883    magn:    0.0000    constr:    0.0000
     atom:   17    charge:    2.0624    magn:    0.0001    constr:    0.0000
     atom:   18    charge:    3.1239    magn:   -0.0000    constr:    0.0000
     atom:   19    charge:    2.0878    magn:   -0.0000    constr:    0.0000
     atom:   20    charge:    2.0847    magn:   -0.0000    constr:    0.0000
     atom:   21    charge:    2.0847    magn:   -0.0000    constr:    0.0000
     atom:   22    charge:    3.1197    magn:   -0.0000    constr:    0.0000
     atom:   23    charge:    2.0909    magn:    0.0000    constr:    0.0000
     atom:   24    charge:    2.0777    magn:    0.0000    constr:    0.0000
     atom:   25    charge:    2.0869    magn:    0.0000    constr:    0.0000
     atom:   26    charge:    3.1165    magn:   -0.0000    constr:    0.0000
     atom:   27    charge:    2.0824    magn:    0.0000    constr:    0.0000
     atom:   28    charge:    2.0879    magn:    0.0000    constr:    0.0000
     atom:   29    charge:    2.0877    magn:    0.0000    constr:    0.0000
     atom:   30    charge:    3.1168    magn:   -0.0000    constr:    0.0000
     atom:   31    charge:    2.0815    magn:    0.0001    constr:    0.0000
     atom:   32    charge:    2.0843    magn:    0.0000    constr:    0.0000
     atom:   33    charge:    2.0624    magn:    0.0001    constr:    0.0000
     atom:   34    charge:    3.1239    magn:   -0.0000    constr:    0.0000
     atom:   35    charge:    2.0878    magn:   -0.0000    constr:    0.0000
     atom:   36    charge:    2.0847    magn:   -0.0000    constr:    0.0000
     atom:   37    charge:    2.0847    magn:   -0.0000    constr:    0.0000
     atom:   38    charge:    3.1197    magn:   -0.0000    constr:    0.0000
     atom:   39    charge:    2.0912    magn:    0.0000    constr:    0.0000
     atom:   40    charge:    2.0777    magn:    0.0000    constr:    0.0000
     atom:   41    charge:    2.0869    magn:    0.0000    constr:    0.0000
     atom:   42    charge:    3.1181    magn:   -0.0000    constr:    0.0000
     atom:   43    charge:    2.0838    magn:    0.0000    constr:    0.0000
     atom:   44    charge:    2.0865    magn:    0.0000    constr:    0.0000
     atom:   45    charge:    2.0871    magn:    0.0000    constr:    0.0000
     atom:   46    charge:    3.1171    magn:   -0.0000    constr:    0.0000
     atom:   47    charge:    2.0797    magn:    0.0001    constr:    0.0000
     atom:   48    charge:    2.0835    magn:    0.0000    constr:    0.0000
     atom:   49    charge:    2.0519    magn:    0.0000    constr:    0.0000
     atom:   50    charge:    1.2590    magn:   -0.0000    constr:    0.0000
     atom:   51    charge:    1.2861    magn:    0.0000    constr:    0.0000

     total cpu time spent up to now is     2217.1 secs

     total energy              =   -3044.95675985 Ry
     Harris-Foulkes estimate   =   -3044.95675985 Ry
     estimated scf accuracy    <       0.00000101 Ry

     total magnetization       =     0.00 Bohr mag/cell
     absolute magnetization    =     0.00 Bohr mag/cell

     iteration #  9     ecut=    40.42 Ry     beta=0.10
     Davidson diagonalization with overlap
     ethr =  2.52E-10,  avg # of iterations =  2.0

     negative rho (up, down):  1.158E-02 1.158E-02
 
     Magnetic moment per site:
     atom:    1    charge:    3.1250    magn:   -0.0000    constr:    0.0000
     atom:    2    charge:    2.0894    magn:    0.0000    constr:    0.0000
     atom:    3    charge:    3.1196    magn:   -0.0000    constr:    0.0000
     atom:    4    charge:    2.0870    magn:    0.0000    constr:    0.0000
     atom:    5    charge:    3.1170    magn:   -0.0000    constr:    0.0000
     atom:    6    charge:    2.0917    magn:    0.0000    constr:    0.0000
     atom:    7    charge:    3.1184    magn:   -0.0000    constr:    0.0000
     atom:    8    charge:    2.0816    magn:    0.0000    constr:    0.0000
     atom:    9    charge:    3.1250    magn:   -0.0000    constr:    0.0000
     atom:   10    charge:    2.0894    magn:    0.0000    constr:    0.0000
     atom:   11    charge:    3.1196    magn:   -0.0000    constr:    0.0000
     atom:   12    charge:    2.0870    magn:    0.0000    constr:    0.0000
     atom:   13    charge:    3.1148    magn:   -0.0000    constr:    0.0000
     atom:   14    charge:    2.0911    magn:    0.0000    constr:    0.0000
     atom:   15    charge:    3.1194    magn:   -0.0000    constr:    0.0000
     atom:   16    charge:    2.0883    magn:    0.0000    constr:    0.0000
     atom:   17    charge:    2.0624    magn:    0.0000    constr:    0.0000
     atom:   18    charge:    3.1239    magn:   -0.0000    constr:    0.0000
     atom:   19    charge:    2.0878    magn:   -0.0000    constr:    0.0000
     atom:   20    charge:    2.0847    magn:   -0.0000    constr:    0.0000
     atom:   21    charge:    2.0847    magn:   -0.0000    constr:    0.0000
     atom:   22    charge:    3.1197    magn:   -0.0000    constr:    0.0000
     atom:   23    charge:    2.0908    magn:    0.0000    constr:    0.0000
     atom:   24    charge:    2.0777    magn:    0.0000    constr:    0.0000
     atom:   25    charge:    2.0869    magn:    0.0000    constr:    0.0000
     atom:   26    charge:    3.1165    magn:   -0.0000    constr:    0.0000
     atom:   27    charge:    2.0823    magn:    0.0000    constr:    0.0000
     atom:   28    charge:    2.0879    magn:    0.0000    constr:    0.0000
     atom:   29    charge:    2.0877    magn:    0.0000    constr:    0.0000
     atom:   30    charge:    3.1168    magn:   -0.0000    constr:    0.0000
     atom:   31    charge:    2.0815    magn:    0.0000    constr:    0.0000
     atom:   32    charge:    2.0843    magn:    0.0000    constr:    0.0000
     atom:   33    charge:    2.0624    magn:    0.0000    constr:    0.0000
     atom:   34    charge:    3.1239    magn:   -0.0000    constr:    0.0000
     atom:   35    charge:    2.0878    magn:   -0.0000    constr:    0.0000
     atom:   36    charge:    2.0847    magn:   -0.0000    constr:    0.0000
     atom:   37    charge:    2.0847    magn:   -0.0000    constr:    0.0000
     atom:   38    charge:    3.1197    magn:   -0.0000    constr:    0.0000
     atom:   39    charge:    2.0912    magn:    0.0000    constr:    0.0000
     atom:   40    charge:    2.0777    magn:    0.0000    constr:    0.0000
     atom:   41    charge:    2.0869    magn:    0.0000    constr:    0.0000
     atom:   42    charge:    3.1181    magn:   -0.0000    constr:    0.0000
     atom:   43    charge:    2.0838    magn:    0.0000    constr:    0.0000
     atom:   44    charge:    2.0865    magn:    0.0000    constr:    0.0000
     atom:   45    charge:    2.0871    magn:    0.0000    constr:    0.0000
     atom:   46    charge:    3.1171    magn:   -0.0000    constr:    0.0000
     atom:   47    charge:    2.0797    magn:    0.0000    constr:    0.0000
     atom:   48    charge:    2.0835    magn:    0.0000    constr:    0.0000
     atom:   49    charge:    2.0519    magn:    0.0000    constr:    0.0000
     atom:   50    charge:    1.2590    magn:   -0.0000    constr:    0.0000
     atom:   51    charge:    1.2860    magn:    0.0000    constr:    0.0000

     total cpu time spent up to now is     2411.6 secs

     End of self-consistent calculation

 ------ SPIN UP ------------


          k = 0.0000 0.0000 0.0000 ( 34665 PWs)   bands (ev):

   -57.8231 -57.7881 -57.5131 -57.4575 -57.3893 -57.3530 -57.2785 -57.2432
   -57.1808 -57.1455 -57.1175 -57.0821 -56.8844 -56.8122 -56.2851 -56.2498
   -34.2594 -34.1042 -34.0756 -34.0600 -34.0246 -33.9303 -33.8695 -33.8650
   -33.8274 -33.7719 -33.7333 -33.7231 -33.7191 -33.6879 -33.6721 -33.6684
   -33.6493 -33.6398 -33.6186 -33.5570 -33.5259 -33.4601 -33.4599 -33.4392
   -33.4322 -33.4296 -33.3882 -33.3832 -33.3788 -33.3608 -33.3564 -33.3361
   -33.3134 -33.3074 -33.2798 -33.2743 -33.2488 -33.1456 -33.1407 -33.0839
   -33.0396 -32.9387 -32.7038 -32.6363 -32.6102 -32.5078 -32.4160 -32.3078
   -24.2480 -21.0092 -18.1765 -17.9755 -17.7524 -17.6303 -17.4962 -17.4944
   -17.2127 -17.1920 -17.1466 -17.0545 -17.0517 -17.0100 -16.9944 -16.9214
   -16.8741 -16.8622 -16.8400 -16.7992 -16.7371 -16.6904 -16.5727 -16.5495
   -16.5213 -16.5091 -16.4220 -16.3119 -16.2764 -16.2451 -16.1083 -16.0785
   -14.8673 -14.7825  -9.7920  -7.4881  -7.4747  -5.9970  -5.5683  -5.5116
    -5.3608  -5.3527  -5.2953  -4.9978  -4.9385  -4.5885  -4.5846  -4.5492
    -4.5398  -4.4921  -4.3676  -4.2713  -4.2227  -4.2052  -4.1705  -4.1677
    -4.1636  -4.1556  -4.0909  -4.0862  -4.0097  -3.9871  -3.9559  -3.9142
    -3.8808  -3.8077  -3.7738  -3.7495  -3.7201  -3.6439  -3.6227  -3.5468
    -3.5449  -3.5194  -3.4520  -3.3334  -3.2025  -3.1672  -3.0639  -3.0052
    -2.9627  -2.8769  -2.8252  -2.8148  -2.7428  -2.7413  -2.7255  -2.6001
    -2.5627  -2.5073  -2.4355  -2.3994  -2.3716  -2.3529  -2.3247  -2.2829
    -2.2775  -2.2481  -2.2115  -2.1800  -2.1757  -2.0503  -1.9932  -1.8940
    -1.7516  -1.7490  -1.7225  -1.6810  -1.6534  -1.6420  -1.5646  -1.5432
    -1.4429  -1.4335  -1.4100  -1.3990  -1.3860  -1.2841  -1.2330  -1.2232
    -1.2022  -1.1332  -1.0726  -1.0170  -0.9180  -0.7438  -0.7141  -0.7098
    -0.6466  -0.5191  -0.3718  -0.2352  -0.1726  -0.0085   0.1182   0.1333
     1.5189   1.5479   1.8327   1.8696   1.8811   1.9012   2.0688   2.0882
     2.1227   2.2392   2.3584   2.3720   2.4073   2.4264   2.4637   2.4787
     2.5263   2.5637   2.6213   2.6666   2.6678   2.6808   2.7600   2.8078
     2.8673   2.8948   2.9863   2.9950   2.9961   3.0194   3.0646   3.0819
     3.0927   3.0974   3.1048   3.1392   3.2367   3.2978   3.3014   3.3166
     3.3531   3.3834   3.4174   3.5310   3.5338   3.6707   3.8780   3.9842
     3.9999   4.0430   4.0614   4.1799   4.2527   4.4596   4.5343   4.6573
     4.9068   4.9313   5.0114   5.1263   5.2059   5.3894   5.3950   5.4216
     5.4966   5.5823   5.6282   5.6369   5.7149   5.7323   5.7373   5.7548
     5.9217   5.9603   6.0111   6.0202   6.0979   6.1424   6.2040   6.2197
     6.4744   6.6170   6.7691   6.7846   6.8809   7.1636   7.2765   7.2920
     7.9101   7.9871   8.1610   8.4059   8.7031   8.9120   8.9124   8.9525
     9.2112   9.2585   9.2857   9.3534

          k = 0.0000 0.0280 0.0000 ( 34717 PWs)   bands (ev):

   -57.8207 -57.7905 -57.5116 -57.4590 -57.3870 -57.3553 -57.2761 -57.2455
   -57.1785 -57.1479 -57.1151 -57.0845 -56.8831 -56.8134 -56.2827 -56.2522
   -34.2340 -34.1022 -34.0775 -34.0342 -34.0184 -33.9368 -33.8966 -33.8399
   -33.8210 -33.7479 -33.7359 -33.7273 -33.7181 -33.6885 -33.6730 -33.6696
   -33.6468 -33.6158 -33.6122 -33.5500 -33.5348 -33.4853 -33.4577 -33.4488
   -33.4340 -33.4236 -33.4059 -33.3791 -33.3619 -33.3598 -33.3551 -33.3425
   -33.3131 -33.3124 -33.3049 -33.2761 -33.2744 -33.1450 -33.1377 -33.0845
   -33.0439 -32.9670 -32.6781 -32.6345 -32.6120 -32.5016 -32.4223 -32.3353
   -24.2480 -21.0091 -18.1149 -17.9175 -17.6994 -17.5770 -17.4751 -17.4476
   -17.2295 -17.1896 -17.1618 -17.1207 -17.0569 -17.0065 -16.9837 -16.9071
   -16.8913 -16.8456 -16.8302 -16.7996 -16.7677 -16.7479 -16.5969 -16.5396
   -16.5192 -16.5005 -16.4515 -16.3079 -16.2942 -16.2626 -16.1337 -16.1209
   -14.8772 -14.8058  -9.7919  -7.4896  -7.4745  -5.9960  -5.4801  -5.4273
    -5.2834  -5.2726  -5.2180  -4.8799  -4.8635  -4.6127  -4.5834  -4.5158
    -4.4884  -4.4540  -4.3175  -4.2932  -4.2882  -4.2396  -4.2328  -4.1955
    -4.1583  -4.1444  -4.1088  -4.0966  -4.0790  -4.0533  -4.0095  -3.9871
    -3.9293  -3.9230  -3.8624  -3.8039  -3.7373  -3.7222  -3.7013  -3.5669
    -3.4868  -3.4713  -3.3809  -3.3127  -3.1299  -3.0827  -2.9921  -2.9582
    -2.8388  -2.8077  -2.7568  -2.7503  -2.6713  -2.6400  -2.6346  -2.6169
    -2.5700  -2.5584  -2.5202  -2.4548  -2.4146  -2.3478  -2.3226  -2.2815
    -2.2368  -2.2183  -2.2025  -2.1258  -2.0526  -2.0191  -1.9407  -1.8730
    -1.8417  -1.8196  -1.7891  -1.7737  -1.6987  -1.6739  -1.6322  -1.5989
    -1.5579  -1.4955  -1.4658  -1.4091  -1.3890  -1.3577  -1.2765  -1.2372
    -1.1908  -1.1539  -1.0677  -1.0315  -0.9478  -0.9129  -0.8456  -0.7600
    -0.7313  -0.5338  -0.4126  -0.2280  -0.2242   0.0024   0.0727   0.0977
     1.6046   1.6514   1.8617   1.8715   1.9257   2.0016   2.0466   2.1143
     2.1717   2.2673   2.3208   2.3758   2.3781   2.4413   2.4517   2.4833
     2.5180   2.5396   2.5909   2.6348   2.6874   2.7356   2.7694   2.7847
     2.8259   2.8759   2.9400   2.9564   2.9879   3.0190   3.0437   3.0720
     3.0937   3.1029   3.1882   3.2023   3.2550   3.3158   3.3479   3.3997
     3.4165   3.4681   3.5023   3.5072   3.5691   3.6375   3.8283   3.9430
     3.9928   4.0544   4.1313   4.1628   4.1845   4.4025   4.5927   4.7554
     4.9128   5.0103   5.1094   5.1885   5.2101   5.4066   5.4291   5.4796
     5.4910   5.5644   5.5974   5.6224   5.6704   5.6953   5.7336   5.8214
     5.8579   5.9316   5.9771   6.0160   6.0238   6.0275   6.1168   6.2873
     6.4540   6.5435   6.7169   6.7874   6.8094   7.0692   7.2195   7.3719
     7.6832   7.9815   8.1021   8.2886   8.4135   8.7070   8.9967   9.0255
     9.0793   9.2976   9.3581   9.4071

          k = 0.0000 0.0560 0.0000 ( 34721 PWs)   bands (ev):

   -57.8144 -57.7969 -57.5083 -57.4624 -57.3809 -57.3615 -57.2697 -57.2520
   -57.1721 -57.1543 -57.1087 -57.0910 -56.8805 -56.8161 -56.2763 -56.2586
   -34.1643 -34.0969 -34.0826 -34.0013 -33.9695 -33.9636 -33.9542 -33.8050
   -33.7745 -33.7645 -33.7512 -33.7156 -33.7055 -33.6922 -33.6746 -33.6716
   -33.5947 -33.5768 -33.5751 -33.5472 -33.5363 -33.5305 -33.4793 -33.4728
   -33.4524 -33.4387 -33.4072 -33.3812 -33.3748 -33.3603 -33.3575 -33.3534
   -33.3400 -33.3255 -33.3038 -33.3018 -33.2669 -33.1443 -33.1340 -33.0858
   -33.0574 -33.0345 -32.6298 -32.6168 -32.6073 -32.4851 -32.4392 -32.4094
   -24.2479 -21.0089 -17.9434 -17.7574 -17.5597 -17.4477 -17.4278 -17.4224
   -17.3196 -17.2923 -17.1805 -17.0790 -17.0789 -17.0460 -17.0225 -16.9814
   -16.8629 -16.8583 -16.8514 -16.8139 -16.7516 -16.6860 -16.6608 -16.6169
   -16.5323 -16.4727 -16.4469 -16.3312 -16.3217 -16.2816 -16.2459 -16.1834
   -14.8948 -14.8561  -9.7916  -7.4925  -7.4742  -5.9942  -5.2374  -5.1920
    -5.0761  -5.0434  -5.0094  -4.7369  -4.6643  -4.6272  -4.5520  -4.5425
    -4.5144  -4.4983  -4.4688  -4.3913  -4.3591  -4.3515  -4.3282  -4.3238
    -4.2568  -4.2193  -4.1983  -4.1481  -4.1343  -4.0942  -4.0689  -4.0176
    -3.9555  -3.9278  -3.8576  -3.7824  -3.7262  -3.6043  -3.5764  -3.4827
    -3.4205  -3.3869  -3.3661  -3.2698  -3.1744  -3.0256  -2.9774  -2.9640
    -2.9488  -2.8806  -2.7885  -2.7367  -2.6870  -2.6523  -2.6079  -2.4696
    -2.4553  -2.4483  -2.4149  -2.3924  -2.3392  -2.3035  -2.2807  -2.2764
    -2.2043  -2.1813  -2.0999  -2.0694  -2.0467  -2.0375  -2.0108  -1.9890
    -1.9411  -1.9033  -1.8670  -1.7912  -1.7158  -1.6832  -1.6696  -1.6568
    -1.6406  -1.5720  -1.5183  -1.5023  -1.4823  -1.4434  -1.3726  -1.3573
    -1.2817  -1.2409  -1.1674  -1.1419  -1.0638  -0.9990  -0.9286  -0.8956
    -0.7988  -0.7145  -0.5960  -0.3930  -0.0433   0.0129   0.0438   0.0469
     1.7413   1.8862   1.9038   1.9834   2.0140   2.0568   2.1346   2.2007
     2.2208   2.2576   2.2623   2.2754   2.3042   2.3555   2.3784   2.5113
     2.5226   2.5561   2.6447   2.6556   2.6845   2.7370   2.7542   2.8003
     2.8046   2.8272   2.8478   2.9409   2.9613   3.0111   3.0849   3.0947
     3.1118   3.1727   3.1943   3.2207   3.3246   3.3684   3.4087   3.4650
     3.4871   3.5558   3.6145   3.6662   3.6866   3.7214   3.7417   3.8485
     3.9825   3.9955   4.0113   4.0977   4.2376   4.3261   4.7181   4.8442
     5.0302   5.1641   5.2525   5.3008   5.3310   5.3973   5.4038   5.4770
     5.5243   5.5975   5.6107   5.6194   5.6433   5.6922   5.7272   5.7387
     5.7550   5.7930   5.8307   5.8958   5.9797   6.0233   6.1912   6.2992
     6.3713   6.4073   6.6421   6.6488   6.7420   6.9082   7.0162   7.2652
     7.4989   7.6702   7.7746   8.2688   8.4211   8.5999   8.8935   9.0367
     9.1968   9.3506   9.4459   9.5754

          k = 0.0000-0.0840 0.0000 ( 34678 PWs)   bands (ev):

   -57.8056 -57.8056 -57.5065 -57.4642 -57.3751 -57.3672 -57.2610 -57.2608
   -57.1646 -57.1619 -57.1008 -57.0989 -56.8791 -56.8175 -56.2675 -56.2675
   -34.0897 -34.0897 -34.0676 -34.0676 -33.9778 -33.9778 -33.8809 -33.8480
   -33.7880 -33.7697 -33.7175 -33.7107 -33.6952 -33.6779 -33.6707 -33.6590
   -33.5777 -33.5775 -33.5718 -33.5643 -33.5029 -33.5024 -33.4810 -33.4785
   -33.4561 -33.4484 -33.4455 -33.4452 -33.3848 -33.3825 -33.3561 -33.3530
   -33.3436 -33.3417 -33.2971 -33.2955 -33.1999 -33.1664 -33.1411 -33.0906
   -33.0857 -33.0542 -32.6232 -32.6232 -32.5094 -32.5093 -32.4621 -32.4621
   -24.2479 -21.0088 -17.7054 -17.6937 -17.5368 -17.5360 -17.4208 -17.4022
   -17.2471 -17.2410 -17.1795 -17.1789 -17.1445 -17.1411 -16.9655 -16.9653
   -16.9419 -16.9379 -16.7752 -16.7475 -16.7203 -16.7173 -16.6457 -16.6388
   -16.5524 -16.5074 -16.3789 -16.3773 -16.3326 -16.3314 -16.2513 -16.2506
   -14.8929 -14.8929  -9.7915  -7.4940  -7.4740  -5.9933  -4.9263  -4.9233
    -4.8588  -4.8587  -4.8065  -4.7916  -4.7654  -4.7588  -4.7219  -4.7002
    -4.5289  -4.5104  -4.4964  -4.4942  -4.4250  -4.4234  -4.4189  -4.4163
    -4.2606  -4.2217  -4.1590  -4.1576  -4.1455  -4.1234  -4.0103  -3.9543
    -3.9534  -3.9174  -3.8420  -3.7989  -3.6558  -3.6165  -3.4643  -3.4529
    -3.3010  -3.2914  -3.2321  -3.1540  -3.1347  -3.1052  -2.9711  -2.9570
    -2.9463  -2.8858  -2.8607  -2.8212  -2.7158  -2.6896  -2.6689  -2.6514
    -2.6262  -2.6178  -2.5746  -2.4571  -2.4503  -2.4214  -2.1603  -2.1253
    -2.1026  -2.0556  -2.0157  -1.9839  -1.9355  -1.9350  -1.9290  -1.8802
    -1.8713  -1.8669  -1.8489  -1.7925  -1.7781  -1.7123  -1.6322  -1.6316
    -1.5921  -1.5745  -1.5578  -1.5564  -1.5484  -1.5441  -1.5240  -1.4175
    -1.3755  -1.2656  -1.2527  -1.2242  -1.1302  -1.1245  -1.1009  -1.0955
    -0.6850  -0.6352  -0.5977  -0.5924   0.0126   0.0129   0.0497   0.0500
     1.9065   1.9102   2.0093   2.0098   2.0989   2.0991   2.1039   2.1260
     2.2211   2.2211   2.2261   2.2415   2.3395   2.3806   2.4296   2.4321
     2.5235   2.5282   2.5923   2.5928   2.6821   2.7478   2.7602   2.8218
     2.8291   2.8636   2.9032   2.9456   2.9728   2.9930   3.0522   3.0681
     3.0774   3.2098   3.2530   3.3223   3.3292   3.3307   3.3319   3.4791
     3.6164   3.6190   3.6861   3.6997   3.7272   3.7865   3.7880   3.8684
     3.9218   3.9241   3.9876   3.9880   4.1301   4.4136   4.7923   4.8168
     5.1508   5.1696   5.2869   5.3241   5.3821   5.3821   5.4920   5.5181
     5.5519   5.5695   5.5821   5.6400   5.6580   5.6957   5.7044   5.7049
     5.7472   5.8301   5.8359   5.8546   5.9998   6.0006   6.0366   6.0813
     6.4166   6.4213   6.5521   6.5873   6.8557   6.8582   6.9717   6.9734
     7.4555   7.4965   7.6279   8.1939   8.3329   8.6514   9.0404   9.1211
     9.3636   9.4259   9.6114   9.6611

          k = 0.0253 0.0000 0.0000 ( 34707 PWs)   bands (ev):

   -57.8231 -57.7881 -57.5131 -57.4575 -57.3893 -57.3530 -57.2785 -57.2432
   -57.1809 -57.1455 -57.1175 -57.0821 -56.8844 -56.8122 -56.2851 -56.2498
   -34.2597 -34.1042 -34.0757 -34.0601 -34.0239 -33.9303 -33.8696 -33.8657
   -33.8274 -33.7734 -33.7329 -33.7226 -33.7183 -33.6889 -33.6797 -33.6724
   -33.6494 -33.6259 -33.6168 -33.5514 -33.5264 -33.4602 -33.4597 -33.4388
   -33.4322 -33.4298 -33.3876 -33.3866 -33.3788 -33.3663 -33.3552 -33.3361
   -33.3134 -33.3072 -33.2800 -33.2743 -33.2489 -33.1467 -33.1408 -33.0840
   -33.0396 -32.9389 -32.7037 -32.6373 -32.6097 -32.5077 -32.4161 -32.3079
   -24.2480 -21.0091 -18.1482 -17.9340 -17.7119 -17.5925 -17.4954 -17.4912
   -17.2701 -17.2316 -17.1458 -17.0617 -17.0540 -17.0456 -17.0185 -16.9620
   -16.9170 -16.8980 -16.8212 -16.7889 -16.7041 -16.6089 -16.6072 -16.5220
   -16.5183 -16.5152 -16.4648 -16.3122 -16.2668 -16.2457 -16.1078 -16.0785
   -14.8662 -14.7824  -9.7913  -7.4883  -7.4745  -5.9964  -5.5381  -5.3956
    -5.2516  -5.2390  -5.1878  -4.9897  -4.9372  -4.7817  -4.5810  -4.5683
    -4.5162  -4.4935  -4.4450  -4.4376  -4.3347  -4.1990  -4.1883  -4.1687
    -4.0925  -4.0758  -4.0704  -3.9869  -3.9702  -3.9368  -3.8768  -3.8414
    -3.8342  -3.8116  -3.7743  -3.7305  -3.7017  -3.6209  -3.5810  -3.4917
    -3.4620  -3.4244  -3.3364  -3.2608  -3.2182  -3.1572  -3.1376  -3.0396
    -3.0211  -2.9246  -2.8918  -2.8132  -2.7581  -2.7247  -2.7022  -2.6761
    -2.6517  -2.6117  -2.5023  -2.4960  -2.4507  -2.3769  -2.3605  -2.3167
    -2.2537  -2.2172  -2.2135  -2.1292  -2.0989  -2.0312  -1.9370  -1.8963
    -1.8024  -1.7779  -1.7531  -1.7268  -1.7046  -1.6352  -1.6103  -1.4964
    -1.4861  -1.4758  -1.4324  -1.4079  -1.3650  -1.3405  -1.2728  -1.2562
    -1.2311  -1.1183  -1.0964  -0.9952  -0.9605  -0.8993  -0.8113  -0.7723
    -0.6927  -0.5631  -0.3663  -0.2626  -0.2030  -0.0226   0.0757   0.0766
     1.5362   1.6032   1.8803   1.8993   1.9933   2.0094   2.0573   2.1357
     2.2171   2.2462   2.3163   2.3250   2.3686   2.4177   2.4361   2.4516
     2.4657   2.5359   2.5475   2.6073   2.6732   2.6842   2.7149   2.8285
     2.8441   2.8999   2.9968   3.0029   3.0110   3.0777   3.0880   3.0976
     3.1480   3.1890   3.2057   3.2417   3.2946   3.3210   3.3336   3.3859
     3.3941   3.4336   3.4646   3.4962   3.5934   3.6164   3.8086   3.8955
     4.0373   4.0666   4.0753   4.1699   4.2376   4.4129   4.6400   4.6832
     4.7685   4.9283   4.9414   4.9912   5.0116   5.0495   5.2187   5.4949
     5.5678   5.6375   5.7297   5.7395   5.7898   5.8329   5.9418   5.9529
     5.9784   6.0369   6.0402   6.0719   6.1353   6.1500   6.2452   6.3163
     6.4887   6.6319   6.7407   6.7769   6.8849   7.0745   7.1634   7.3208
     7.6202   8.0345   8.1525   8.3449   8.4007   8.7538   8.8274   8.9238
     8.9647   9.2474   9.2922   9.4217

          k = 0.0253 0.0280 0.0000 ( 34687 PWs)   bands (ev):

   -57.8207 -57.7905 -57.5116 -57.4590 -57.3870 -57.3553 -57.2761 -57.2455
   -57.1785 -57.1479 -57.1151 -57.0845 -56.8831 -56.8134 -56.2827 -56.2522
   -34.2343 -34.1022 -34.0775 -34.0343 -34.0177 -33.9367 -33.8966 -33.8405
   -33.8211 -33.7492 -33.7359 -33.7270 -33.7170 -33.6889 -33.6764 -33.6729
   -33.6471 -33.6105 -33.6068 -33.5446 -33.5349 -33.4854 -33.4577 -33.4475
   -33.4340 -33.4237 -33.4068 -33.3823 -33.3642 -33.3615 -33.3546 -33.3425
   -33.3132 -33.3124 -33.3050 -33.2760 -33.2743 -33.1459 -33.1378 -33.0846
   -33.0439 -32.9670 -32.6780 -32.6354 -32.6115 -32.5017 -32.4223 -32.3353
   -24.2480 -21.0090 -18.0880 -17.8769 -17.6605 -17.5406 -17.4745 -17.4425
   -17.2543 -17.2319 -17.2054 -17.0843 -17.0602 -17.0414 -16.9898 -16.9537
   -16.9253 -16.8604 -16.8400 -16.8213 -16.7483 -16.6599 -16.6291 -16.5429
   -16.5086 -16.4980 -16.4817 -16.3077 -16.2850 -16.2631 -16.1334 -16.1213
   -14.8761 -14.8058  -9.7912  -7.4898  -7.4743  -5.9955  -5.4537  -5.3108
    -5.1718  -5.1600  -5.1097  -4.8746  -4.8618  -4.7283  -4.5698  -4.5217
    -4.4754  -4.4450  -4.4147  -4.3556  -4.3226  -4.2856  -4.2238  -4.1953
    -4.1550  -4.1220  -4.0907  -4.0729  -4.0329  -3.9728  -3.9610  -3.9290
    -3.9131  -3.8564  -3.8446  -3.7569  -3.7366  -3.6814  -3.6762  -3.4812
    -3.4535  -3.3886  -3.3390  -3.2806  -3.1638  -3.1055  -3.0686  -2.9356
    -2.8497  -2.8400  -2.8001  -2.7879  -2.7510  -2.6767  -2.6317  -2.6140
    -2.5900  -2.5752  -2.5482  -2.5163  -2.4560  -2.4008  -2.3520  -2.3262
    -2.2652  -2.2470  -2.1947  -2.1047  -2.0626  -2.0331  -1.9929  -1.9074
    -1.8769  -1.8516  -1.7890  -1.7633  -1.7389  -1.7185  -1.6628  -1.6238
    -1.5673  -1.5095  -1.4817  -1.4635  -1.4171  -1.3771  -1.3254  -1.2316
    -1.2057  -1.1999  -1.0548  -0.9968  -0.9763  -0.9083  -0.8874  -0.8691
    -0.7834  -0.5730  -0.4237  -0.2808  -0.2181   0.0069   0.0487   0.0577
     1.5977   1.7243   1.8929   1.9043   2.0198   2.0370   2.1370   2.1722
     2.2339   2.2786   2.3155   2.3297   2.3794   2.3937   2.4091   2.4301
     2.5084   2.5417   2.5786   2.6101   2.6308   2.6889   2.7775   2.8096
     2.8479   2.8908   2.9769   2.9864   2.9946   2.9998   3.0538   3.0916
     3.1687   3.2252   3.2627   3.2690   3.3007   3.3246   3.3751   3.4286
     3.4602   3.4911   3.5166   3.5328   3.5822   3.6293   3.7641   3.8880
     4.0195   4.0477   4.0930   4.1681   4.2223   4.3623   4.6842   4.7696
     4.8206   4.9393   4.9855   5.0299   5.0393   5.1163   5.2706   5.5247
     5.5633   5.5976   5.6455   5.7261   5.7395   5.8209   5.8800   5.9239
     5.9557   5.9974   6.0246   6.0339   6.0505   6.0865   6.2962   6.3143
     6.4731   6.5512   6.7363   6.7698   6.8147   7.0594   7.1230   7.3490
     7.5373   8.0142   8.1414   8.2255   8.3157   8.5241   8.5746   8.8336
     9.0210   9.2747   9.4024   9.4717

          k = 0.0253 0.0560 0.0000 ( 34699 PWs)   bands (ev):

   -57.8144 -57.7969 -57.5083 -57.4624 -57.3809 -57.3615 -57.2697 -57.2520
   -57.1721 -57.1543 -57.1087 -57.0910 -56.8805 -56.8161 -56.2763 -56.2586
   -34.1645 -34.0969 -34.0826 -34.0008 -33.9696 -33.9637 -33.9540 -33.8051
   -33.7748 -33.7648 -33.7513 -33.7148 -33.7055 -33.6925 -33.6761 -33.6729
   -33.5935 -33.5773 -33.5750 -33.5436 -33.5361 -33.5261 -33.4800 -33.4697
   -33.4523 -33.4387 -33.4072 -33.3813 -33.3766 -33.3608 -33.3603 -33.3545
   -33.3401 -33.3261 -33.3038 -33.3017 -33.2668 -33.1449 -33.1341 -33.0862
   -33.0574 -33.0345 -32.6304 -32.6166 -32.6072 -32.4851 -32.4392 -32.4094
   -24.2479 -21.0088 -17.9210 -17.7203 -17.5268 -17.4415 -17.4194 -17.3986
   -17.3106 -17.2949 -17.1842 -17.1220 -17.0839 -17.0318 -17.0070 -16.9890
   -16.8996 -16.8909 -16.8537 -16.8074 -16.7710 -16.7341 -16.6821 -16.5899
   -16.5753 -16.4672 -16.4325 -16.3244 -16.3193 -16.2826 -16.2467 -16.1830
   -14.8941 -14.8563  -9.7909  -7.4926  -7.4740  -5.9938  -5.2226  -5.0763
    -4.9628  -4.9341  -4.9035  -4.7312  -4.6636  -4.6467  -4.5305  -4.5232
    -4.5034  -4.4945  -4.3930  -4.3537  -4.3480  -4.3167  -4.2864  -4.2697
    -4.2253  -4.2107  -4.1907  -4.1554  -4.0878  -4.0730  -4.0618  -4.0070
    -3.9715  -3.9153  -3.8461  -3.8081  -3.7245  -3.6310  -3.5433  -3.4727
    -3.4324  -3.4139  -3.3766  -3.2049  -3.1714  -3.0402  -2.9918  -2.9722
    -2.9453  -2.8734  -2.8004  -2.7655  -2.7110  -2.6708  -2.6315  -2.5820
    -2.5578  -2.5159  -2.4703  -2.4545  -2.4127  -2.3979  -2.3169  -2.2722
    -2.2573  -2.2277  -2.1718  -2.1352  -2.0903  -2.0767  -2.0124  -1.9990
    -1.9473  -1.9249  -1.8721  -1.8362  -1.8205  -1.7779  -1.7241  -1.6925
    -1.6641  -1.5870  -1.5657  -1.4931  -1.4695  -1.4187  -1.3810  -1.3437
    -1.2576  -1.2300  -1.1592  -1.0947  -1.0686  -0.9691  -0.9439  -0.8733
    -0.8201  -0.7350  -0.6015  -0.4046  -0.0419  -0.0011   0.0240   0.0471
     1.7376   1.9123   1.9286   2.0513   2.0573   2.0804   2.1662   2.1775
     2.2528   2.2706   2.2932   2.3069   2.3502   2.3958   2.4260   2.5096
     2.5594   2.5805   2.6465   2.6588   2.6739   2.6885   2.7534   2.7854
     2.8072   2.8227   2.8721   2.8813   2.9902   3.0611   3.1214   3.1432
     3.2005   3.2116   3.2428   3.2734   3.3240   3.3660   3.4196   3.4394
     3.5136   3.5374   3.6364   3.6640   3.6980   3.7339   3.7555   3.8219
     3.9390   3.9767   4.0129   4.1372   4.2075   4.3684   4.7763   4.8484
     4.9905   5.0255   5.1007   5.1194   5.1398   5.2231   5.3273   5.4292
     5.4504   5.5063   5.5958   5.6277   5.7176   5.7305   5.7944   5.8214
     5.8794   5.9074   5.9508   6.0137   6.0512   6.2216   6.2483   6.3605
     6.4072   6.4456   6.6519   6.6556   6.7795   6.9066   7.0459   7.2881
     7.3761   7.7183   7.8357   8.0948   8.3674   8.5586   8.6322   8.9025
     9.0256   9.0650   9.2909   9.3874

          k = 0.0253-0.0840 0.0000 ( 34722 PWs)   bands (ev):

   -57.8056 -57.8056 -57.5065 -57.4642 -57.3751 -57.3672 -57.2609 -57.2608
   -57.1646 -57.1619 -57.1008 -57.0989 -56.8791 -56.8175 -56.2675 -56.2675
   -34.0897 -34.0897 -34.0679 -34.0679 -33.9775 -33.9775 -33.8810 -33.8481
   -33.7880 -33.7697 -33.7176 -33.7105 -33.6953 -33.6778 -33.6711 -33.6594
   -33.5795 -33.5793 -33.5709 -33.5634 -33.5002 -33.5000 -33.4792 -33.4771
   -33.4549 -33.4473 -33.4455 -33.4451 -33.3848 -33.3825 -33.3586 -33.3555
   -33.3450 -33.3432 -33.2971 -33.2955 -33.1999 -33.1665 -33.1415 -33.0906
   -33.0862 -33.0542 -32.6235 -32.6235 -32.5094 -32.5093 -32.4621 -32.4621
   -24.2479 -21.0088 -17.6913 -17.6782 -17.5087 -17.5079 -17.4053 -17.3874
   -17.2318 -17.2193 -17.1753 -17.1738 -17.1289 -17.1264 -17.0118 -17.0107
   -16.9253 -16.9217 -16.8106 -16.7913 -16.7538 -16.7517 -16.6786 -16.6720
   -16.5374 -16.4973 -16.3705 -16.3693 -16.3318 -16.3302 -16.2515 -16.2505
   -14.8928 -14.8928  -9.7908  -7.4941  -7.4738  -5.9929  -4.9262  -4.9235
    -4.7621  -4.7620  -4.7197  -4.6995  -4.6901  -4.6878  -4.6344  -4.5990
    -4.5016  -4.4865  -4.4547  -4.4483  -4.4107  -4.4055  -4.3721  -4.3687
    -4.2365  -4.1996  -4.1499  -4.1490  -4.1248  -4.1049  -4.0322  -3.9945
    -3.9893  -3.9217  -3.8454  -3.7899  -3.5684  -3.5630  -3.4694  -3.4479
    -3.2929  -3.2484  -3.2220  -3.2125  -3.1880  -3.1740  -3.0843  -3.0705
    -2.9714  -2.9670  -2.9415  -2.8628  -2.7481  -2.7402  -2.7188  -2.7147
    -2.6624  -2.6123  -2.5027  -2.4941  -2.4463  -2.3965  -2.2515  -2.1913
    -2.1868  -2.1601  -2.0638  -2.0527  -2.0196  -2.0060  -1.9843  -1.9819
    -1.9561  -1.9385  -1.9050  -1.8928  -1.8046  -1.7944  -1.7623  -1.7396
    -1.7304  -1.5926  -1.5442  -1.5133  -1.4170  -1.4124  -1.4011  -1.3400
    -1.3045  -1.2452  -1.2074  -1.1972  -1.1819  -1.1392  -1.0330  -1.0277
    -0.7048  -0.6463  -0.5971  -0.5920  -0.0135  -0.0133   0.0605   0.0609
     1.9181   1.9218   2.0084   2.0151   2.0993   2.1058   2.1178   2.1201
     2.2719   2.2775   2.3107   2.3112   2.4054   2.4285   2.4431   2.4459
     2.5725   2.5762   2.6569   2.6676   2.6737   2.7253   2.7380   2.7705
     2.7752   2.8663   2.8910   2.9361   2.9813   3.0459   3.0808   3.1178
     3.1412   3.2414   3.2916   3.3190   3.3208   3.3559   3.3568   3.4729
     3.5988   3.6085   3.6782   3.7107   3.7335   3.7756   3.7820   3.8346
     3.9300   3.9345   3.9793   3.9793   4.1736   4.4508   4.8165   4.8407
     5.1399   5.1511   5.1817   5.1866   5.2121   5.2244   5.2736   5.2925
     5.3585   5.3772   5.5779   5.5916   5.7209   5.7265   5.8057   5.8660
     5.8893   5.9301   5.9737   6.0000   6.1040   6.1219   6.1583   6.1698
     6.4465   6.4516   6.5690   6.6040   6.8848   6.8858   7.0143   7.0188
     7.4366   7.5543   7.6639   8.0401   8.3242   8.3921   8.8627   9.0451
     9.1991   9.2017   9.2664   9.4973

          k = 0.0506 0.0000 0.0000 ( 34729 PWs)   bands (ev):

   -57.8231 -57.7881 -57.5131 -57.4575 -57.3893 -57.3530 -57.2784 -57.2432
   -57.1809 -57.1455 -57.1175 -57.0821 -56.8844 -56.8122 -56.2851 -56.2498
   -34.2604 -34.1041 -34.0757 -34.0603 -34.0225 -33.9304 -33.8696 -33.8670
   -33.8274 -33.7762 -33.7325 -33.7224 -33.7182 -33.6938 -33.6855 -33.6731
   -33.6494 -33.6132 -33.6092 -33.5388 -33.5272 -33.4603 -33.4594 -33.4381
   -33.4322 -33.4300 -33.3938 -33.3866 -33.3794 -33.3786 -33.3519 -33.3362
   -33.3133 -33.3069 -33.2803 -33.2743 -33.2490 -33.1491 -33.1409 -33.0839
   -33.0396 -32.9390 -32.7036 -32.6395 -32.6085 -32.5077 -32.4161 -32.3080
   -24.2480 -21.0089 -18.0862 -17.8338 -17.6148 -17.5282 -17.4948 -17.4495
[...]
    -2.6744  -2.6303  -2.6222  -2.6149  -2.5832  -2.5407  -2.5042  -2.4877
    -2.4872  -2.4242  -2.3839  -2.3711  -2.3335  -2.3026  -2.2584  -2.2572
    -2.2330  -2.1461  -2.1415  -2.1398  -2.0135  -1.9758  -1.8244  -1.7959
    -1.7353  -1.6870  -1.4331  -1.3876  -1.3236  -1.3225  -1.1661  -1.1521
    -1.1451  -1.1434  -1.1182  -1.0868  -1.0414  -0.9062  -0.8896  -0.7586
    -0.7471  -0.7320  -0.6650  -0.6642  -0.0630  -0.0629   0.0747   0.0750
     1.9881   2.0023   2.0447   2.0512   2.0741   2.0769   2.0884   2.0921
     2.3575   2.3697   2.3756   2.3893   2.4526   2.4586   2.5243   2.5396
     2.5599   2.5604   2.6171   2.7235   2.7342   2.8378   2.8504   2.8680
     2.8789   2.9561   3.0307   3.1046   3.1115   3.1641   3.1944   3.2587
     3.2828   3.2976   3.3350   3.3631   3.3965   3.3997   3.4428   3.4771
     3.5595   3.5840   3.6852   3.7290   3.7936   3.8158   3.8178   3.8186
     3.9495   3.9544   3.9740   3.9740   4.2920   4.5517   4.6602   4.6607
     4.7164   4.7386   4.7761   4.7839   4.7855   4.8088   5.0778   5.1069
     5.2301   5.2626   5.6214   5.6358   5.8112   5.8256   5.9416   6.0461
     6.1662   6.2091   6.2156   6.2459   6.4007   6.4150   6.4757   6.5314
     6.5329   6.5457   6.7090   6.7098   6.7647   6.7661   7.0333   7.0825
     7.6436   7.6727   7.8014   7.8126   8.0419   8.0926   8.3297   8.4004
     8.5442   8.6066   8.6859   9.1829

          k =-0.0253 0.0280 0.0000 ( 34687 PWs)   bands (ev):

   -57.8207 -57.7905 -57.5117 -57.4591 -57.3870 -57.3554 -57.2762 -57.2456
   -57.1785 -57.1479 -57.1152 -57.0846 -56.8832 -56.8136 -56.2829 -56.2523
   -34.2344 -34.1022 -34.0775 -34.0343 -34.0177 -33.9367 -33.8966 -33.8405
   -33.8211 -33.7492 -33.7360 -33.7271 -33.7170 -33.6890 -33.6765 -33.6729
   -33.6471 -33.6105 -33.6069 -33.5446 -33.5349 -33.4855 -33.4577 -33.4475
   -33.4340 -33.4237 -33.4068 -33.3824 -33.3642 -33.3617 -33.3546 -33.3426
   -33.3132 -33.3125 -33.3050 -33.2761 -33.2744 -33.1460 -33.1379 -33.0847
   -33.0440 -32.9671 -32.6782 -32.6356 -32.6116 -32.5018 -32.4224 -32.3354
   -24.2480 -21.0090 -18.0879 -17.8769 -17.6604 -17.5405 -17.4745 -17.4423
   -17.2543 -17.2322 -17.2054 -17.0843 -17.0604 -17.0415 -16.9903 -16.9537
   -16.9253 -16.8603 -16.8400 -16.8209 -16.7473 -16.6599 -16.6293 -16.5430
   -16.5086 -16.4977 -16.4817 -16.3076 -16.2849 -16.2630 -16.1333 -16.1212
   -14.8758 -14.8055  -9.7911  -7.4897  -7.4743  -5.9955  -5.4536  -5.3108
    -5.1715  -5.1596  -5.1097  -4.8749  -4.8619  -4.7290  -4.5686  -4.5221
    -4.4753  -4.4451  -4.4152  -4.3556  -4.3228  -4.2853  -4.2262  -4.1950
    -4.1552  -4.1225  -4.0909  -4.0729  -4.0318  -3.9730  -3.9606  -3.9298
    -3.9126  -3.8564  -3.8462  -3.7567  -3.7368  -3.6816  -3.6752  -3.4797
    -3.4521  -3.3862  -3.3372  -3.2814  -3.1633  -3.1055  -3.0686  -2.9365
    -2.8541  -2.8315  -2.8020  -2.7886  -2.7521  -2.6766  -2.6324  -2.6110
    -2.5928  -2.5743  -2.5480  -2.5172  -2.4579  -2.3996  -2.3501  -2.3274
    -2.2634  -2.2468  -2.1959  -2.1072  -2.0629  -2.0325  -1.9925  -1.9129
    -1.8748  -1.8534  -1.7920  -1.7618  -1.7398  -1.7171  -1.6626  -1.6239
    -1.5640  -1.5067  -1.4817  -1.4616  -1.4182  -1.3768  -1.3272  -1.2317
    -1.2089  -1.2009  -1.0550  -0.9941  -0.9733  -0.9106  -0.8871  -0.8662
    -0.7841  -0.5732  -0.4236  -0.2808  -0.2179   0.0071   0.0489   0.0579
     1.5977   1.7243   1.8928   1.9045   2.0202   2.0383   2.1376   2.1741
     2.2366   2.2776   2.3142   2.3255   2.3803   2.3932   2.4089   2.4312
     2.5082   2.5427   2.5787   2.6109   2.6303   2.6884   2.7749   2.8086
     2.8481   2.8907   2.9756   2.9854   2.9945   2.9995   3.0547   3.0897
     3.1696   3.2271   3.2633   3.2692   3.3002   3.3241   3.3763   3.4270
     3.4613   3.4919   3.5165   3.5328   3.5809   3.6302   3.7638   3.8862
     4.0190   4.0473   4.0957   4.1680   4.2217   4.3621   4.6845   4.7664
     4.8228   4.9387   4.9845   5.0287   5.0394   5.1173   5.2709   5.5245
     5.5620   5.5981   5.6458   5.7258   5.7395   5.8194   5.8856   5.9259
     5.9543   5.9966   6.0234   6.0340   6.0508   6.0863   6.2961   6.3136
     6.4744   6.5514   6.7360   6.7694   6.8147   7.0592   7.1161   7.3503
     7.5400   8.0142   8.1437   8.2259   8.3176   8.5245   8.5745   8.8335
     9.0210   9.2741   9.4007   9.4722

          k =-0.0253 0.0560 0.0000 ( 34699 PWs)   bands (ev):

   -57.8144 -57.7969 -57.5084 -57.4624 -57.3809 -57.3615 -57.2697 -57.2521
   -57.1722 -57.1543 -57.1088 -57.0910 -56.8806 -56.8162 -56.2764 -56.2588
   -34.1645 -34.0969 -34.0826 -34.0008 -33.9696 -33.9637 -33.9540 -33.8051
   -33.7748 -33.7648 -33.7513 -33.7149 -33.7055 -33.6925 -33.6762 -33.6730
   -33.5933 -33.5773 -33.5754 -33.5437 -33.5360 -33.5262 -33.4801 -33.4697
   -33.4524 -33.4388 -33.4073 -33.3814 -33.3767 -33.3608 -33.3603 -33.3545
   -33.3402 -33.3262 -33.3038 -33.3018 -33.2669 -33.1450 -33.1342 -33.0863
   -33.0575 -33.0346 -32.6306 -32.6167 -32.6074 -32.4853 -32.4394 -32.4096
   -24.2479 -21.0088 -17.9208 -17.7203 -17.5267 -17.4416 -17.4194 -17.3985
   -17.3102 -17.2950 -17.1842 -17.1220 -17.0845 -17.0317 -17.0070 -16.9907
   -16.8996 -16.8907 -16.8528 -16.8053 -16.7715 -16.7340 -16.6827 -16.5897
   -16.5753 -16.4672 -16.4324 -16.3243 -16.3192 -16.2825 -16.2467 -16.1829
   -14.8938 -14.8560  -9.7909  -7.4926  -7.4740  -5.9938  -5.2224  -5.0763
    -4.9618  -4.9337  -4.9035  -4.7308  -4.6639  -4.6477  -4.5312  -4.5255
    -4.5022  -4.4941  -4.3950  -4.3548  -4.3478  -4.3165  -4.2843  -4.2694
    -4.2255  -4.2113  -4.1901  -4.1559  -4.0876  -4.0746  -4.0621  -4.0080
    -3.9719  -3.9154  -3.8464  -3.8073  -3.7244  -3.6297  -3.5446  -3.4691
    -3.4311  -3.4119  -3.3744  -3.2053  -3.1735  -3.0396  -2.9915  -2.9715
    -2.9430  -2.8731  -2.8004  -2.7667  -2.7116  -2.6708  -2.6327  -2.5815
    -2.5576  -2.5152  -2.4706  -2.4552  -2.4124  -2.3981  -2.3167  -2.2733
    -2.2572  -2.2292  -2.1726  -2.1366  -2.0897  -2.0790  -2.0112  -1.9981
    -1.9498  -1.9276  -1.8758  -1.8370  -1.8175  -1.7777  -1.7217  -1.6944
    -1.6613  -1.5859  -1.5653  -1.4898  -1.4684  -1.4217  -1.3819  -1.3421
    -1.2580  -1.2294  -1.1578  -1.0943  -1.0686  -0.9690  -0.9435  -0.8746
    -0.8204  -0.7343  -0.6013  -0.4048  -0.0417  -0.0009   0.0243   0.0473
     1.7375   1.9129   1.9286   2.0514   2.0570   2.0826   2.1687   2.1780
     2.2519   2.2693   2.2925   2.3077   2.3513   2.3958   2.4255   2.5079
     2.5583   2.5792   2.6466   2.6587   2.6773   2.6888   2.7523   2.7858
     2.8056   2.8212   2.8712   2.8806   2.9895   3.0591   3.1237   3.1434
     3.2003   3.2108   3.2438   3.2744   3.3248   3.3656   3.4193   3.4392
     3.5112   3.5389   3.6370   3.6650   3.6982   3.7339   3.7552   3.8211
     3.9378   3.9767   4.0129   4.1379   4.2074   4.3685   4.7765   4.8471
     4.9905   5.0254   5.0994   5.1167   5.1404   5.2235   5.3271   5.4290
     5.4509   5.5083   5.5961   5.6275   5.7180   5.7310   5.7939   5.8243
     5.8794   5.9067   5.9513   6.0139   6.0502   6.2216   6.2484   6.3601
     6.4085   6.4455   6.6506   6.6555   6.7764   6.9063   7.0442   7.2881
     7.3735   7.7206   7.8368   8.1033   8.3666   8.5585   8.6319   8.9016
     9.0259   9.0633   9.2886   9.3881

          k =-0.0506 0.0280 0.0000 ( 34685 PWs)   bands (ev):

   -57.8207 -57.7905 -57.5117 -57.4591 -57.3870 -57.3554 -57.2761 -57.2456
   -57.1786 -57.1479 -57.1152 -57.0846 -56.8832 -56.8136 -56.2829 -56.2523
   -34.2350 -34.1022 -34.0775 -34.0345 -34.0163 -33.9367 -33.8966 -33.8418
   -33.8211 -33.7519 -33.7360 -33.7268 -33.7161 -33.6906 -33.6834 -33.6730
   -33.6479 -33.6070 -33.5934 -33.5353 -33.5325 -33.4857 -33.4575 -33.4451
   -33.4340 -33.4239 -33.4098 -33.3888 -33.3735 -33.3609 -33.3531 -33.3426
   -33.3133 -33.3126 -33.3051 -33.2760 -33.2743 -33.1481 -33.1380 -33.0849
   -33.0440 -32.9671 -32.6780 -32.6374 -32.6107 -32.5018 -32.4224 -32.3354
   -24.2480 -21.0088 -18.0293 -17.7783 -17.5673 -17.4775 -17.4730 -17.3993
   -17.3406 -17.2565 -17.2412 -17.1108 -17.0902 -17.0630 -17.0593 -17.0005
   -16.9817 -16.9676 -16.8700 -16.7610 -16.7181 -16.6705 -16.5862 -16.5694
   -16.5331 -16.4906 -16.4609 -16.3065 -16.2736 -16.2641 -16.1331 -16.1222
   -14.8739 -14.8055  -9.7897  -7.4900  -7.4740  -5.9946  -5.4372  -5.0172
    -4.9438  -4.9321  -4.8625  -4.8389  -4.8189  -4.7781  -4.6413  -4.5791
    -4.5625  -4.5091  -4.4509  -4.3591  -4.3119  -4.2263  -4.1749  -4.1552
    -4.1358  -4.1264  -4.0542  -4.0105  -3.9777  -3.9499  -3.9091  -3.8841
    -3.8631  -3.8289  -3.7821  -3.7233  -3.7060  -3.5878  -3.4522  -3.4183
    -3.3921  -3.3349  -3.3049  -3.2552  -3.1867  -3.1037  -3.0600  -3.0040
    -2.9401  -2.9154  -2.8703  -2.8609  -2.8077  -2.7556  -2.7372  -2.6860
    -2.6449  -2.6191  -2.5885  -2.5398  -2.5015  -2.4789  -2.4341  -2.4063
    -2.3425  -2.3121  -2.2318  -2.2038  -2.1369  -2.1060  -2.0928  -2.0490
    -1.9988  -1.9350  -1.9061  -1.8750  -1.8476  -1.7788  -1.6932  -1.6378
    -1.6024  -1.5711  -1.4977  -1.4696  -1.4290  -1.4079  -1.3229  -1.2693
    -1.1866  -1.1465  -1.0359  -1.0221  -0.9539  -0.9257  -0.8923  -0.8572
    -0.8178  -0.6536  -0.4550  -0.4009  -0.2048  -0.0221   0.0086   0.0222
     1.5821   1.7883   1.9209   1.9384   1.9579   2.0334   2.0672   2.1444
     2.2414   2.2566   2.2981   2.3584   2.4077   2.4500   2.4516   2.5190
     2.5342   2.5769   2.6053   2.6487   2.7012   2.7682   2.8233   2.8292
     2.8703   2.9230   2.9456   3.0103   3.0186   3.0643   3.1410   3.1645
     3.2302   3.2624   3.2955   3.3131   3.3754   3.3998   3.4402   3.4773
     3.4957   3.5298   3.5428   3.5940   3.6364   3.6865   3.7369   3.8209
     3.9275   4.0285   4.1374   4.1463   4.2815   4.3491   4.5251   4.6331
     4.6555   4.6816   4.8478   4.8973   4.9938   5.3106   5.3635   5.4714
     5.5146   5.5749   5.6544   5.7085   5.7344   5.7508   5.8821   5.9284
     5.9799   6.0214   6.2520   6.2707   6.3054   6.3707   6.4314   6.5131
     6.5414   6.6163   6.6855   6.7301   6.8249   6.9588   7.0271   7.3401
     7.4310   7.6903   7.8115   8.0801   8.3148   8.4051   8.5264   8.9214
     9.0843   9.1639   9.3704   9.4605

          k =-0.0506 0.0560 0.0000 ( 34596 PWs)   bands (ev):

   -57.8144 -57.7969 -57.5084 -57.4624 -57.3809 -57.3615 -57.2697 -57.2520
   -57.1722 -57.1543 -57.1088 -57.0910 -56.8806 -56.8162 -56.2765 -56.2588
   -34.1651 -34.0969 -34.0826 -33.9996 -33.9698 -33.9638 -33.9536 -33.8051
   -33.7755 -33.7653 -33.7513 -33.7137 -33.7055 -33.6930 -33.6786 -33.6752
   -33.5905 -33.5784 -33.5755 -33.5370 -33.5355 -33.5159 -33.4827 -33.4634
   -33.4522 -33.4387 -33.4074 -33.3815 -33.3803 -33.3682 -33.3603 -33.3565
   -33.3404 -33.3275 -33.3038 -33.3016 -33.2667 -33.1462 -33.1343 -33.0869
   -33.0575 -33.0344 -32.6317 -32.6162 -32.6072 -32.4853 -32.4393 -32.4095
   -24.2479 -21.0087 -17.8724 -17.6272 -17.4526 -17.4307 -17.4125 -17.3401
   -17.3008 -17.2686 -17.1964 -17.1635 -17.0925 -17.0728 -17.0071 -16.9856
   -16.9832 -16.9144 -16.9044 -16.8397 -16.8002 -16.7736 -16.7068 -16.6611
   -16.5586 -16.4567 -16.4134 -16.3149 -16.3134 -16.2852 -16.2484 -16.1824
   -14.8926 -14.8563  -9.7894  -7.4928  -7.4735  -5.9930  -5.2144  -4.7827
    -4.7317  -4.7221  -4.6844  -4.6480  -4.6376  -4.6008  -4.4959  -4.4776
    -4.4527  -4.4367  -4.3453  -4.2929  -4.2760  -4.2706  -4.2285  -4.2082
    -4.1835  -4.1713  -4.1573  -4.1304  -4.0774  -4.0403  -4.0293  -3.9994
    -3.9441  -3.8844  -3.8189  -3.7834  -3.6808  -3.6519  -3.5087  -3.4825
    -3.4649  -3.3971  -3.3788  -3.2022  -3.1154  -3.0763  -3.0276  -2.9851
    -2.9575  -2.9114  -2.8914  -2.8555  -2.8095  -2.7668  -2.7123  -2.7072
    -2.6349  -2.6187  -2.5904  -2.5138  -2.4848  -2.4667  -2.4491  -2.4267
    -2.3991  -2.3568  -2.2869  -2.2743  -2.2499  -2.2241  -2.1779  -2.1633
    -2.0918  -2.0523  -2.0215  -1.9807  -1.9349  -1.8536  -1.7853  -1.7697
    -1.7017  -1.6015  -1.5278  -1.4828  -1.4487  -1.3707  -1.3345  -1.2260
    -1.1735  -1.1352  -1.0917  -1.0298  -0.9863  -0.9224  -0.9094  -0.8320
    -0.7982  -0.7838  -0.6551  -0.4645  -0.0535  -0.0163  -0.0029   0.0531
     1.7404   1.9367   1.9575   2.0191   2.0749   2.1147   2.1240   2.1780
     2.2246   2.2719   2.3874   2.4242   2.4326   2.4587   2.4773   2.5021
     2.5972   2.6121   2.6462   2.6686   2.7071   2.7289   2.7946   2.8263
     2.8939   2.9074   2.9473   2.9774   3.0265   3.0660   3.1924   3.2203
     3.2378   3.2687   3.3156   3.3292   3.3732   3.3900   3.4080   3.4696
     3.5459   3.5850   3.6112   3.6905   3.7430   3.7723   3.7822   3.7980
     3.8403   3.9728   4.0251   4.1516   4.2117   4.4545   4.6490   4.6793
     4.7513   4.7541   4.8984   5.0035   5.0752   5.1429   5.2124   5.2379
     5.3091   5.4669   5.5706   5.6368   5.7041   5.7419   5.8327   5.9732
     6.0141   6.1177   6.1674   6.2110   6.2574   6.3058   6.4682   6.4866
     6.5515   6.5931   6.6464   6.6834   6.8354   6.8583   6.9764   7.3092
     7.3300   7.7411   7.7708   8.0201   8.0972   8.1761   8.5791   8.6710
     8.8359   8.9146   9.1445   9.3646

     the Fermi energy is     0.8667 ev

!    total energy              =   -3044.95675971 Ry
     Harris-Foulkes estimate   =   -3044.95675990 Ry
     estimated scf accuracy    <       0.00000017 Ry

     The total energy is the sum of the following terms:

     one-electron contribution =  -40855.56203455 Ry
     hartree contribution      =   20500.11035516 Ry
     xc contribution           =    -557.16440301 Ry
     ewald contribution        =   17867.65952827 Ry
     smearing contrib. (-TS)   =      -0.00020557 Ry

     total magnetization       =     0.00 Bohr mag/cell
     absolute magnetization    =     0.00 Bohr mag/cell

     convergence has been achieved in   9 iterations

     Forces acting on atoms (Ry/au):


     negative rho (up, down):  1.158E-02 1.158E-02
     atom    1 type  1   force =    -0.00008365    0.00030619   -0.13599956
     atom    2 type  2   force =     0.00010426   -0.00008071    0.07517712
     atom    3 type  1   force =     0.00126664    0.00109028   -0.05987148
     atom    4 type  2   force =     0.00661157   -0.00006677    0.00968222
     atom    5 type  1   force =    -0.00131638   -0.00014738   -0.00002291
     atom    6 type  2   force =    -0.00182847   -0.00352843   -0.00895418
     atom    7 type  1   force =     0.01102728    0.00803161   -0.01639009
     atom    8 type  2   force =     0.00047687   -0.00013232    0.00064719
     atom    9 type  1   force =     0.00012999    0.00035228   -0.13607367
     atom   10 type  2   force =     0.00016779   -0.00003025    0.07512100
     atom   11 type  1   force =     0.00126392   -0.00086427   -0.06000356
     atom   12 type  2   force =     0.00604671   -0.00011110    0.00854791
     atom   13 type  1   force =     0.00013515   -0.00014874   -0.00037976
     atom   14 type  2   force =    -0.00202270    0.00295831   -0.00906235
     atom   15 type  1   force =     0.01121948   -0.00778116   -0.01700535
     atom   16 type  2   force =     0.00706095    0.00013812    0.01070305
     atom   17 type  2   force =    -0.00002465   -0.00005469    0.08001172
     atom   18 type  1   force =    -0.00006178    0.00022642    0.11908752
     atom   19 type  2   force =     0.00039011    0.00018969   -0.06811797
     atom   20 type  2   force =    -0.06269111    0.00005038   -0.03209848
     atom   21 type  2   force =     0.06274025    0.00015128   -0.03257204
     atom   22 type  1   force =    -0.00049239   -0.00012138    0.06427600
     atom   23 type  2   force =     0.00015671    0.00061766   -0.00264156
     atom   24 type  2   force =     0.00049627    0.00004116   -0.02241126
     atom   25 type  2   force =    -0.00645332   -0.00025491    0.00823639
     atom   26 type  1   force =    -0.00011704   -0.00005436    0.00250597
     atom   27 type  2   force =     0.00250930   -0.00142224   -0.00238830
     atom   28 type  2   force =    -0.00004160   -0.00001376   -0.00147811
     atom   29 type  2   force =     0.00011940   -0.00005273   -0.00053939
     atom   30 type  1   force =     0.00576330    0.00039793   -0.00069611
     atom   31 type  2   force =    -0.00209712    0.00158106    0.00108389
     atom   32 type  2   force =     0.00159093   -0.00014424    0.00186451
     atom   33 type  2   force =    -0.00000202    0.00015468    0.08007863
     atom   34 type  1   force =    -0.00007658    0.00023320    0.11909605
     atom   35 type  2   force =     0.00035835    0.00032436   -0.06807004
     atom   36 type  2   force =    -0.06268665    0.00009695   -0.03231027
     atom   37 type  2   force =     0.06285421    0.00017370   -0.03206139
     atom   38 type  1   force =    -0.00069529    0.00000889    0.06411100
     atom   39 type  2   force =     0.00019566   -0.00081846   -0.00262917
     atom   40 type  2   force =     0.00060505   -0.00227435   -0.02256778
     atom   41 type  2   force =    -0.00619509   -0.00030849    0.00763830
     atom   42 type  1   force =    -0.00010704   -0.00008603    0.00251630
     atom   43 type  2   force =     0.00257703    0.00142433   -0.00244019
     atom   44 type  2   force =     0.00035961   -0.00012805   -0.00071881
     atom   45 type  2   force =    -0.00022363   -0.00006386   -0.00094912
     atom   46 type  1   force =    -0.01910388    0.00037710   -0.00505743
     atom   47 type  2   force =    -0.00215110   -0.00143629    0.00115915
     atom   48 type  2   force =    -0.00084927   -0.00005305   -0.02809184
     atom   49 type  2   force =    -0.04857868   -0.00251377    0.17931958
     atom   50 type  3   force =    -0.03171335   -0.00163860   -0.03133232
     atom   51 type  3   force =     0.06338598    0.00540479   -0.07792901

     Total force =     0.429874     Total SCF correction =     0.001035
 !ASE

     Writing output data file calc.save
 
     init_run     :     56.54s CPU     70.41s WALL (       1 calls)
     electrons    :   1836.93s CPU   2341.18s WALL (       1 calls)
     forces       :     40.46s CPU     42.35s WALL (       1 calls)

     Called by init_run:
     wfcinit      :     48.35s CPU     61.58s WALL (       1 calls)
     potinit      :      1.52s CPU      1.84s WALL (       1 calls)

     Called by electrons:
     c_bands      :   1584.22s CPU   2024.70s WALL (       9 calls)
     sum_band     :    212.04s CPU    269.94s WALL (       9 calls)
     v_of_rho     :     10.00s CPU     12.81s WALL (      10 calls)
     newd         :     34.36s CPU     37.55s WALL (      10 calls)
     mix_rho      :      0.36s CPU      0.51s WALL (       9 calls)
     vdW_energy   :      1.79s CPU      2.38s WALL (      11 calls)
     vdW_ffts     :      2.75s CPU      3.62s WALL (      22 calls)
     vdW_v        :      1.04s CPU      1.21s WALL (      11 calls)

     Called by c_bands:
     init_us_2    :      5.33s CPU      5.85s WALL (     800 calls)
     cegterg      :   1551.11s CPU   1989.67s WALL (     360 calls)

     Called by *egterg:
     h_psi        :    650.20s CPU   1014.84s WALL (    1712 calls)
     s_psi        :     84.40s CPU     88.54s WALL (    1712 calls)
     g_psi        :      4.50s CPU      4.64s WALL (    1312 calls)
     cdiaghg      :    507.08s CPU    519.37s WALL (    1672 calls)

     Called by h_psi:
     add_vuspsi   :     84.91s CPU     88.89s WALL (    1712 calls)

     General routines
     calbec       :    129.75s CPU    133.89s WALL (    2112 calls)
     fft          :      5.39s CPU      7.17s WALL (     867 calls)
     ffts         :      0.04s CPU      0.07s WALL (      38 calls)
     fftw         :    427.89s CPU    817.30s WALL (  660208 calls)
     interpolate  :      0.29s CPU      0.47s WALL (      38 calls)
     davcio       :      0.01s CPU      1.31s WALL (      40 calls)
 
     Parallel routines
     fft_scatter  :    230.73s CPU    433.57s WALL (  661113 calls)
 
     PWSCF        : 32m15.26s CPU    40m57.46s WALL

 
   This run was terminated on:  13:26:48  10Mar2018            

=------------------------------------------------------------------------------=
   JOB DONE.
=------------------------------------------------------------------------------=
