  python dir          : /home/vossj/suncat/lib/python2.7/site-packages/espresso
  espresso dir        : /home/vossj/suncat/esdld/espresso-dynpy-beef/bin
  pseudo dir          : /home/alatimer/bin/psp/esp_psp_w_gbrvRu/
  ase-espresso py git : ffa2778-git



     Program PWSCF v.5.1rc2 (svn rev. ) starts on 10Mar2018 at  6: 0:45 

     This program is part of the open-source Quantum ESPRESSO suite
     for quantum simulation of materials; please cite
         "P. Giannozzi et al., J. Phys.:Condens. Matter 21 395502 (2009);
          URL http://www.quantum-espresso.org", 
     in publications or presentations arising from this work. More details at
     http://www.quantum-espresso.org/quote

     Parallel version (MPI), running on    16 processors
     R & G space division:  proc/nbgrp/npool/nimage =      16
     Reading input from pw.inp
     Message from routine read_cards :
     DEPRECATED: no units specified in CELL_PARAMETERS card

     Current dimensions of program PWSCF are:
     Max number of different atomic species (ntypx) = 10
     Max number of k-points (npk) =  40000
     Max angular momentum in pseudopotentials (lmaxx) =  3

     **************************************************************************
     Initializing libbeef V0.1.1 with the BEEF-vdW functional.
     Citation: Wellendorff et al., PRB 85, 235149 (2012).
     **************************************************************************


     IMPORTANT: XC functional enforced from input :
     Exchange-correlation      = BEEF ( 1  4 27 13 2)
     Any further DFT definition will be discarded
     Please, verify this is what you really want


     Subspace diagonalization in iterative solution of the eigenvalue problem:
     a serial algorithm will be used

 
     Parallelization info
     --------------------
     sticks:   dense  smooth     PW     G-vecs:    dense   smooth      PW
     Min         281     112     31                68535    17318    2565
     Max         282     113     32                68545    17369    2582
     Sum        4501    1795    503              1096637   277353   41113
 
     Generating pointlists ...
     new r_m :   0.4125 (alat units)  0.7795 (a.u.) for type    1
     new r_m :   0.4125 (alat units)  0.7795 (a.u.) for type    2
     new r_m :   0.4125 (alat units)  0.7795 (a.u.) for type    3


     bravais-lattice index     =            0
     lattice parameter (alat)  =       1.8897  a.u.
     unit-cell volume          =    7990.9933 (a.u.)^3
     number of atoms/cell      =           51
     number of atomic types    =            3
     number of electrons       =       400.00
     number of Kohn-Sham states=          300
     kinetic-energy cutoff     =      40.4243  Ry
     charge density cutoff     =     404.2426  Ry
     convergence threshold     =      7.3E-07
     mixing beta               =       0.1000
     number of iterations used =           10  plain     mixing
     Exchange-correlation      = BEEF ( 1  4 27 13 2)
     nstep                     =           50


     celldm(1)=   1.889726  celldm(2)=   0.000000  celldm(3)=   0.000000
     celldm(4)=   0.000000  celldm(5)=   0.000000  celldm(6)=   0.000000

     crystal axes: (cart. coord. in units of alat)
               a(1) = (   6.590708   0.000000   0.000000 )  
               a(2) = (   0.000000   5.950229   0.000000 )  
               a(3) = (   0.000000   0.000000  30.195235 )  

     reciprocal axes: (cart. coord. in units 2 pi/alat)
               b(1) = (  0.151729  0.000000  0.000000 )  
               b(2) = (  0.000000  0.168061  0.000000 )  
               b(3) = (  0.000000  0.000000  0.033118 )  


     PseudoPot. # 1 for Ti read from file:
     /home/alatimer/bin/psp/esp_psp_w_gbrvRu/Ti.UPF
     MD5 check sum: 8e4df49b7f0d34bbd5052bf3f5ea0213
     Pseudo is Ultrasoft, Zval = 12.0
     Generated by new atomic code, or converted to UPF format
     Using radial grid of  851 points,  6 beta functions with: 
                l(1) =   0
                l(2) =   0
                l(3) =   1
                l(4) =   1
                l(5) =   2
                l(6) =   2
     Q(r) pseudized with  8 coefficients,  rinner =    1.000   1.000   1.000
                                                       1.000   1.000

     PseudoPot. # 2 for  O read from file:
     /home/alatimer/bin/psp/esp_psp_w_gbrvRu/O.UPF
     MD5 check sum: e057bbcf3229fb5d8c36c0c92f9568b4
     Pseudo is Ultrasoft + core correction, Zval =  6.0
     Generated using "atomic" code by A. Dal Corso  v.5.0.2 svn rev. 9415
     Using radial grid of 1095 points,  4 beta functions with: 
                l(1) =   0
                l(2) =   0
                l(3) =   1
                l(4) =   1
     Q(r) pseudized with 0 coefficients 


     PseudoPot. # 3 for  N read from file:
     /home/alatimer/bin/psp/esp_psp_w_gbrvRu/N.UPF
     MD5 check sum: ed8b6a90f28a53b7d71920e7015d2dd6
     Pseudo is Ultrasoft + core correction, Zval =  5.0
     Generated using "atomic" code by A. Dal Corso  v.5.0.2 svn rev. 9415
     Using radial grid of 1085 points,  4 beta functions with: 
                l(1) =   0
                l(2) =   0
                l(3) =   1
                l(4) =   1
     Q(r) pseudized with 0 coefficients 


     vdW kernel table read from file vdW_kernel_table
     MD5 check sum: 095c7af220d748ca6e76c0b4c6cfb241

     atomic species   valence    mass     pseudopotential
        Ti1           12.00    47.88000     Ti( 1.00)
        O1             6.00    15.99940      O( 1.00)
        N1             5.00    14.00670      N( 1.00)

     Starting magnetic structure 
     atomic species   magnetization
        Ti1          0.250
        O1           0.500
        N1           0.600

     No symmetry found



   Cartesian axes

     site n.     atom                  positions (alat units)
         1           Ti1 tau(   1) = (   1.6476770   0.7437786   2.6545865  )
         2           O1  tau(   2) = (   1.6476770   2.2313359   3.9361215  )
         3           Ti1 tau(   3) = (   1.6476770   2.2313359   5.9499405  )
         4           O1  tau(   4) = (   0.3661420   0.7437786   5.9499405  )
         5           Ti1 tau(   5) = (   1.5280591   0.7315068   9.1973351  )
         6           O1  tau(   6) = (   1.6613943   2.1836906  10.6091769  )
         7           Ti1 tau(   7) = (   1.6665780   2.2096385  12.4157880  )
         8           O1  tau(   8) = (   0.4439715   0.7264440  12.7601561  )
         9           Ti1 tau(   9) = (   1.6476770   3.7188931   2.6545865  )
        10           O1  tau(  10) = (   1.6476770   5.2064503   3.9361215  )
        11           Ti1 tau(  11) = (   1.6476770   5.2064503   5.9499405  )
        12           O1  tau(  12) = (   0.3661420   3.7188931   5.9499405  )
        13           Ti1 tau(  13) = (   1.5319291   3.7072436   9.2118370  )
        14           O1  tau(  14) = (   1.6575607   5.2126413  10.6087893  )
        15           Ti1 tau(  15) = (   1.6606453   5.1916961  12.4165775  )
        16           O1  tau(  16) = (   0.4123725   3.7022030  12.5882193  )
        17           O1  tau(  17) = (   1.6476770   2.2313359   1.3730516  )
        18           Ti1 tau(  18) = (   4.9430310   2.2313359   2.6545865  )
        19           O1  tau(  19) = (   4.9430310   2.2313359   4.6684056  )
        20           O1  tau(  20) = (   6.2245660   0.7437786   2.6545865  )
        21           O1  tau(  21) = (   3.6614961   0.7437786   2.6545865  )
        22           Ti1 tau(  22) = (   4.9430310   0.7437786   5.9499405  )
        23           O1  tau(  23) = (   1.6517842   2.2287041   8.0298356  )
        24           O1  tau(  24) = (   4.9430310   2.2313359   7.2314755  )
        25           O1  tau(  25) = (   2.9292120   0.7437786   5.9499405  )
        26           Ti1 tau(  26) = (   4.8605205   2.2076595   9.4238065  )
        27           O1  tau(  27) = (   4.9553550   2.1639423  11.2756624  )
        28           O1  tau(  28) = (   6.2690671   0.7288246   9.2688367  )
        29           O1  tau(  29) = (   3.6660957   0.7249325   9.2867299  )
        30           Ti1 tau(  30) = (   4.9284588   0.7282168  12.7798302  )
        31           O1  tau(  31) = (   4.9953437   2.2216212  13.8477397  )
        32           O1  tau(  32) = (   2.9112183   0.7266397  12.7651274  )
        33           O1  tau(  33) = (   1.6476770   5.2064503   1.3730516  )
        34           Ti1 tau(  34) = (   4.9430310   5.2064503   2.6545865  )
        35           O1  tau(  35) = (   4.9430310   5.2064503   4.6684056  )
        36           O1  tau(  36) = (   6.2245660   3.7188931   2.6545865  )
        37           O1  tau(  37) = (   3.6614961   3.7188931   2.6545865  )
        38           Ti1 tau(  38) = (   4.9430310   3.7188931   5.9499405  )
        39           O1  tau(  39) = (   1.6524867   5.1852222   8.0294571  )
        40           O1  tau(  40) = (   4.9430310   5.2064503   7.2314755  )
        41           O1  tau(  41) = (   2.9292120   3.7188931   5.9499405  )
        42           Ti1 tau(  42) = (   4.8610151   5.1886528   9.4241876  )
        43           O1  tau(  43) = (   4.9550983   5.2107439  11.2753448  )
        44           O1  tau(  44) = (   6.2713562   3.7024388   9.3047907  )
        45           O1  tau(  45) = (   3.6650622   3.7005085   9.3135888  )
        46           Ti1 tau(  46) = (   5.0160509   3.7038162  12.7585864  )
        47           O1  tau(  47) = (   4.9984032   5.1727849  13.8485277  )
        48           O1  tau(  48) = (   2.9655234   3.7049164  12.5317472  )
        49           O1  tau(  49) = (   2.2248149   3.7063572  14.5693114  )
        50           N1  tau(  50) = (   2.4020298   3.6667063  16.9651815  )
        51           N1  tau(  51) = (   2.1425646   3.6919273  15.8611024  )

     number of k points=    40  Fermi-Dirac smearing, width (Ry)=  0.0073
                       cart. coord. in units 2pi/alat
        k(    1) = (   0.0000000   0.0000000   0.0000000), wk =   0.0277778
        k(    2) = (   0.0000000   0.0280101   0.0000000), wk =   0.0555556
        k(    3) = (   0.0000000   0.0560203   0.0000000), wk =   0.0555556
        k(    4) = (   0.0000000  -0.0840304   0.0000000), wk =   0.0277778
        k(    5) = (   0.0252881   0.0000000   0.0000000), wk =   0.0555556
        k(    6) = (   0.0252881   0.0280101   0.0000000), wk =   0.0555556
        k(    7) = (   0.0252881   0.0560203   0.0000000), wk =   0.0555556
        k(    8) = (   0.0252881  -0.0840304   0.0000000), wk =   0.0555556
        k(    9) = (   0.0505763   0.0000000   0.0000000), wk =   0.0555556
        k(   10) = (   0.0505763   0.0280101   0.0000000), wk =   0.0555556
        k(   11) = (   0.0505763   0.0560203   0.0000000), wk =   0.0555556
        k(   12) = (   0.0505763  -0.0840304   0.0000000), wk =   0.0555556
        k(   13) = (  -0.0758644   0.0000000   0.0000000), wk =   0.0277778
        k(   14) = (  -0.0758644   0.0280101   0.0000000), wk =   0.0555556
        k(   15) = (  -0.0758644   0.0560203   0.0000000), wk =   0.0555556
        k(   16) = (  -0.0758644  -0.0840304   0.0000000), wk =   0.0277778
        k(   17) = (  -0.0252881   0.0280101   0.0000000), wk =   0.0555556
        k(   18) = (  -0.0252881   0.0560203   0.0000000), wk =   0.0555556
        k(   19) = (  -0.0505763   0.0280101   0.0000000), wk =   0.0555556
        k(   20) = (  -0.0505763   0.0560203   0.0000000), wk =   0.0555556
        k(   21) = (   0.0000000   0.0000000   0.0000000), wk =   0.0277778
        k(   22) = (   0.0000000   0.0280101   0.0000000), wk =   0.0555556
        k(   23) = (   0.0000000   0.0560203   0.0000000), wk =   0.0555556
        k(   24) = (   0.0000000  -0.0840304   0.0000000), wk =   0.0277778
        k(   25) = (   0.0252881   0.0000000   0.0000000), wk =   0.0555556
        k(   26) = (   0.0252881   0.0280101   0.0000000), wk =   0.0555556
        k(   27) = (   0.0252881   0.0560203   0.0000000), wk =   0.0555556
        k(   28) = (   0.0252881  -0.0840304   0.0000000), wk =   0.0555556
        k(   29) = (   0.0505763   0.0000000   0.0000000), wk =   0.0555556
        k(   30) = (   0.0505763   0.0280101   0.0000000), wk =   0.0555556
        k(   31) = (   0.0505763   0.0560203   0.0000000), wk =   0.0555556
        k(   32) = (   0.0505763  -0.0840304   0.0000000), wk =   0.0555556
        k(   33) = (  -0.0758644   0.0000000   0.0000000), wk =   0.0277778
        k(   34) = (  -0.0758644   0.0280101   0.0000000), wk =   0.0555556
        k(   35) = (  -0.0758644   0.0560203   0.0000000), wk =   0.0555556
        k(   36) = (  -0.0758644  -0.0840304   0.0000000), wk =   0.0277778
        k(   37) = (  -0.0252881   0.0280101   0.0000000), wk =   0.0555556
        k(   38) = (  -0.0252881   0.0560203   0.0000000), wk =   0.0555556
        k(   39) = (  -0.0505763   0.0280101   0.0000000), wk =   0.0555556
        k(   40) = (  -0.0505763   0.0560203   0.0000000), wk =   0.0555556

     Dense  grid:  1096637 G-vectors     FFT dimensions: (  80,  72, 375)

     Smooth grid:   277353 G-vectors     FFT dimensions: (  54,  45, 240)

     Largest allocated arrays     est. size (Mb)     dimensions
        Kohn-Sham Wavefunctions         9.98 Mb     (    2180,  300)
        NL pseudopotentials            18.89 Mb     (    2180,  568)
        Each V/rho on FFT grid          4.22 Mb     (  138240,   2)
        Each G-vector array             0.52 Mb     (   68538)
        G-vector shells                 0.25 Mb     (   33046)
     Largest temporary arrays     est. size (Mb)     dimensions
        Auxiliary wavefunctions        39.92 Mb     (    2180, 1200)
        Each subspace H/S matrix       21.97 Mb     (    1200, 1200)
        Each <psi_i|beta_j> matrix      2.60 Mb     (     568,  300)
        Arrays for rho mixing          21.09 Mb     (  138240,   10)

     Check: negative/imaginary core charge=   -0.000049    0.000000

     The initial density is read from file :
     ./calc.save/charge-density.dat


     negative rho (up, down):  1.158E-02 1.158E-02


     ************************************************************************
     *
     * You are using vdW-DF for exchange-correlation in this calculation.
     * Please cite the following three references that made this development
     * possible:
     *
     *   M. Dion, H. Rydberg, E. Schroder, D. C. Langreth, and
     *   B. I. Lundqvist, Phys. Rev. Lett. 92, 246401 (2004).
     *
     *   T. Thonhauser, V. R. Cooper, S. Li, A. Puzder, P. Hyldgaard, and
     *   D. C. Langreth, Phys. Rev. B 76, 125112 (2007).
     *
     *   G. Roman-Perez and J. M. Soler, Phys. Rev. Lett. 103, 096102 (2009).
     *
     *
     * If you are using vdW-DF2, please also cite:
     *
     *   K. Lee, E. D. Murray, L. Kong, B. I. Lundqvist, and
     *   D. C. Langreth, Phys. Rev. B 82, 081101(R) (2010).
     *
     *
     * If you are calculating the stress with vdW-DF, please also cite:
     *
     *   R. Sabatini, E. Kucukbenli, B. Kolb, T. Thonhauser, and
     *   S. de Gironcoli, J. Phys.: Condens. Matter 24, 424209 (2012).
     *
     ************************************************************************

     Carrying out vdW-DF run using the following parameters:

     Nqs =      20    Nr_points =    1024   r_max =   100.000
     q_mesh =
               0.00001000     0.04494208     0.09755937     0.15916263
               0.23128650     0.31572767     0.41458969     0.53033537
               0.66584808     0.82450364     1.01025438     1.22772762
               1.48234092     1.78043706     2.12944203     2.53805004
               3.01644009     3.57652955     4.23227104     5.00000000

     Gradients computed in reciprocal space

     ************************************************************************


     Starting wfc are  300 randomized atomic wfcs

     total cpu time spent up to now is       68.3 secs

     Self-consistent Calculation

     iteration #  1     ecut=    40.42 Ry     beta=0.10
     Davidson diagonalization with overlap
     ethr =  1.00E-05,  avg # of iterations = 14.8

     negative rho (up, down):  1.158E-02 1.158E-02
 
     Magnetic moment per site:
     atom:    1    charge:    3.1250    magn:   -0.0002    constr:    0.0000
     atom:    2    charge:    2.0894    magn:    0.0001    constr:    0.0000
     atom:    3    charge:    3.1196    magn:   -0.0001    constr:    0.0000
     atom:    4    charge:    2.0870    magn:    0.0000    constr:    0.0000
     atom:    5    charge:    3.1170    magn:   -0.0001    constr:    0.0000
     atom:    6    charge:    2.0915    magn:    0.0001    constr:    0.0000
     atom:    7    charge:    3.1190    magn:   -0.0000    constr:    0.0000
     atom:    8    charge:    2.0818    magn:    0.0001    constr:    0.0000
     atom:    9    charge:    3.1250    magn:   -0.0002    constr:    0.0000
     atom:   10    charge:    2.0894    magn:    0.0001    constr:    0.0000
     atom:   11    charge:    3.1196    magn:   -0.0001    constr:    0.0000
     atom:   12    charge:    2.0870    magn:    0.0000    constr:    0.0000
     atom:   13    charge:    3.1148    magn:   -0.0001    constr:    0.0000
     atom:   14    charge:    2.0910    magn:    0.0001    constr:    0.0000
     atom:   15    charge:    3.1200    magn:   -0.0000    constr:    0.0000
     atom:   16    charge:    2.0892    magn:    0.0001    constr:    0.0000
     atom:   17    charge:    2.0624    magn:    0.0004    constr:    0.0000
     atom:   18    charge:    3.1239    magn:   -0.0000    constr:    0.0000
     atom:   19    charge:    2.0878    magn:   -0.0000    constr:    0.0000
     atom:   20    charge:    2.0847    magn:   -0.0001    constr:    0.0000
     atom:   21    charge:    2.0847    magn:   -0.0001    constr:    0.0000
     atom:   22    charge:    3.1197    magn:   -0.0000    constr:    0.0000
     atom:   23    charge:    2.0908    magn:    0.0001    constr:    0.0000
     atom:   24    charge:    2.0777    magn:    0.0001    constr:    0.0000
     atom:   25    charge:    2.0869    magn:    0.0000    constr:    0.0000
     atom:   26    charge:    3.1165    magn:   -0.0001    constr:    0.0000
     atom:   27    charge:    2.0824    magn:    0.0002    constr:    0.0000
     atom:   28    charge:    2.0879    magn:    0.0001    constr:    0.0000
     atom:   29    charge:    2.0877    magn:    0.0001    constr:    0.0000
     atom:   30    charge:    3.1170    magn:   -0.0001    constr:    0.0000
     atom:   31    charge:    2.0812    magn:    0.0003    constr:    0.0000
     atom:   32    charge:    2.0838    magn:    0.0001    constr:    0.0000
     atom:   33    charge:    2.0624    magn:    0.0004    constr:    0.0000
     atom:   34    charge:    3.1239    magn:   -0.0000    constr:    0.0000
     atom:   35    charge:    2.0878    magn:   -0.0000    constr:    0.0000
     atom:   36    charge:    2.0847    magn:   -0.0001    constr:    0.0000
     atom:   37    charge:    2.0847    magn:   -0.0001    constr:    0.0000
     atom:   38    charge:    3.1197    magn:   -0.0000    constr:    0.0000
     atom:   39    charge:    2.0912    magn:    0.0001    constr:    0.0000
     atom:   40    charge:    2.0777    magn:    0.0001    constr:    0.0000
     atom:   41    charge:    2.0869    magn:    0.0000    constr:    0.0000
     atom:   42    charge:    3.1181    magn:   -0.0001    constr:    0.0000
     atom:   43    charge:    2.0838    magn:    0.0002    constr:    0.0000
     atom:   44    charge:    2.0865    magn:    0.0001    constr:    0.0000
     atom:   45    charge:    2.0871    magn:    0.0001    constr:    0.0000
     atom:   46    charge:    3.1168    magn:   -0.0001    constr:    0.0000
     atom:   47    charge:    2.0793    magn:    0.0003    constr:    0.0000
     atom:   48    charge:    2.0815    magn:    0.0002    constr:    0.0000
     atom:   49    charge:    2.0473    magn:   -0.0000    constr:    0.0000
     atom:   50    charge:    1.2590    magn:   -0.0000    constr:    0.0000
     atom:   51    charge:    1.2869    magn:    0.0000    constr:    0.0000

     total cpu time spent up to now is      794.7 secs

     total energy              =   -3044.98481299 Ry
     Harris-Foulkes estimate   =   -3044.99782004 Ry
     estimated scf accuracy    <       0.08731905 Ry

     total magnetization       =     0.00 Bohr mag/cell
     absolute magnetization    =     0.01 Bohr mag/cell

     iteration #  2     ecut=    40.42 Ry     beta=0.10
     Davidson diagonalization with overlap
     ethr =  2.18E-05,  avg # of iterations =  1.1

     negative rho (up, down):  1.158E-02 1.158E-02
 
     Magnetic moment per site:
     atom:    1    charge:    3.1251    magn:   -0.0001    constr:    0.0000
     atom:    2    charge:    2.0894    magn:    0.0001    constr:    0.0000
     atom:    3    charge:    3.1196    magn:   -0.0000    constr:    0.0000
     atom:    4    charge:    2.0870    magn:    0.0000    constr:    0.0000
     atom:    5    charge:    3.1170    magn:   -0.0000    constr:    0.0000
     atom:    6    charge:    2.0915    magn:    0.0001    constr:    0.0000
     atom:    7    charge:    3.1193    magn:   -0.0000    constr:    0.0000
     atom:    8    charge:    2.0819    magn:    0.0001    constr:    0.0000
     atom:    9    charge:    3.1251    magn:   -0.0001    constr:    0.0000
     atom:   10    charge:    2.0894    magn:    0.0001    constr:    0.0000
     atom:   11    charge:    3.1196    magn:   -0.0000    constr:    0.0000
     atom:   12    charge:    2.0870    magn:    0.0000    constr:    0.0000
     atom:   13    charge:    3.1148    magn:   -0.0000    constr:    0.0000
     atom:   14    charge:    2.0910    magn:    0.0000    constr:    0.0000
     atom:   15    charge:    3.1202    magn:   -0.0000    constr:    0.0000
     atom:   16    charge:    2.0902    magn:    0.0000    constr:    0.0000
     atom:   17    charge:    2.0623    magn:    0.0003    constr:    0.0000
     atom:   18    charge:    3.1239    magn:   -0.0000    constr:    0.0000
     atom:   19    charge:    2.0878    magn:   -0.0000    constr:    0.0000
     atom:   20    charge:    2.0847    magn:   -0.0001    constr:    0.0000
     atom:   21    charge:    2.0847    magn:   -0.0001    constr:    0.0000
     atom:   22    charge:    3.1197    magn:   -0.0000    constr:    0.0000
     atom:   23    charge:    2.0908    magn:    0.0001    constr:    0.0000
     atom:   24    charge:    2.0778    magn:    0.0001    constr:    0.0000
     atom:   25    charge:    2.0869    magn:    0.0000    constr:    0.0000
     atom:   26    charge:    3.1165    magn:   -0.0001    constr:    0.0000
     atom:   27    charge:    2.0824    magn:    0.0001    constr:    0.0000
     atom:   28    charge:    2.0879    magn:    0.0001    constr:    0.0000
     atom:   29    charge:    2.0878    magn:    0.0001    constr:    0.0000
     atom:   30    charge:    3.1170    magn:   -0.0001    constr:    0.0000
     atom:   31    charge:    2.0806    magn:    0.0002    constr:    0.0000
     atom:   32    charge:    2.0836    magn:    0.0001    constr:    0.0000
     atom:   33    charge:    2.0623    magn:    0.0003    constr:    0.0000
     atom:   34    charge:    3.1239    magn:   -0.0000    constr:    0.0000
     atom:   35    charge:    2.0878    magn:   -0.0000    constr:    0.0000
     atom:   36    charge:    2.0847    magn:   -0.0001    constr:    0.0000
     atom:   37    charge:    2.0847    magn:   -0.0001    constr:    0.0000
     atom:   38    charge:    3.1197    magn:   -0.0000    constr:    0.0000
     atom:   39    charge:    2.0912    magn:    0.0001    constr:    0.0000
     atom:   40    charge:    2.0778    magn:    0.0001    constr:    0.0000
     atom:   41    charge:    2.0869    magn:    0.0000    constr:    0.0000
     atom:   42    charge:    3.1181    magn:   -0.0001    constr:    0.0000
     atom:   43    charge:    2.0838    magn:    0.0001    constr:    0.0000
     atom:   44    charge:    2.0865    magn:    0.0001    constr:    0.0000
     atom:   45    charge:    2.0872    magn:    0.0001    constr:    0.0000
     atom:   46    charge:    3.1167    magn:   -0.0001    constr:    0.0000
     atom:   47    charge:    2.0787    magn:    0.0002    constr:    0.0000
     atom:   48    charge:    2.0801    magn:    0.0001    constr:    0.0000
     atom:   49    charge:    2.0503    magn:   -0.0000    constr:    0.0000
     atom:   50    charge:    1.2586    magn:   -0.0000    constr:    0.0000
     atom:   51    charge:    1.2883    magn:    0.0000    constr:    0.0000

     total cpu time spent up to now is      966.1 secs

     total energy              =   -3044.95863389 Ry
     Harris-Foulkes estimate   =   -3044.98557881 Ry
     estimated scf accuracy    <       0.05719548 Ry

     total magnetization       =     0.00 Bohr mag/cell
     absolute magnetization    =     0.01 Bohr mag/cell

     iteration #  3     ecut=    40.42 Ry     beta=0.10
     Davidson diagonalization with overlap
     ethr =  1.43E-05,  avg # of iterations =  2.3

     negative rho (up, down):  1.159E-02 1.159E-02
 
     Magnetic moment per site:
     atom:    1    charge:    3.1250    magn:   -0.0001    constr:    0.0000
     atom:    2    charge:    2.0894    magn:    0.0001    constr:    0.0000
     atom:    3    charge:    3.1196    magn:   -0.0000    constr:    0.0000
     atom:    4    charge:    2.0870    magn:    0.0000    constr:    0.0000
     atom:    5    charge:    3.1170    magn:   -0.0000    constr:    0.0000
     atom:    6    charge:    2.0919    magn:    0.0000    constr:    0.0000
     atom:    7    charge:    3.1181    magn:   -0.0000    constr:    0.0000
     atom:    8    charge:    2.0811    magn:    0.0000    constr:    0.0000
     atom:    9    charge:    3.1250    magn:   -0.0001    constr:    0.0000
     atom:   10    charge:    2.0894    magn:    0.0001    constr:    0.0000
     atom:   11    charge:    3.1196    magn:   -0.0000    constr:    0.0000
     atom:   12    charge:    2.0870    magn:    0.0000    constr:    0.0000
     atom:   13    charge:    3.1148    magn:   -0.0000    constr:    0.0000
     atom:   14    charge:    2.0914    magn:    0.0000    constr:    0.0000
     atom:   15    charge:    3.1190    magn:   -0.0000    constr:    0.0000
     atom:   16    charge:    2.0880    magn:    0.0000    constr:    0.0000
     atom:   17    charge:    2.0624    magn:    0.0003    constr:    0.0000
     atom:   18    charge:    3.1239    magn:   -0.0000    constr:    0.0000
     atom:   19    charge:    2.0878    magn:   -0.0000    constr:    0.0000
     atom:   20    charge:    2.0847    magn:   -0.0000    constr:    0.0000
     atom:   21    charge:    2.0847    magn:   -0.0000    constr:    0.0000
     atom:   22    charge:    3.1197    magn:   -0.0000    constr:    0.0000
     atom:   23    charge:    2.0909    magn:    0.0000    constr:    0.0000
     atom:   24    charge:    2.0777    magn:    0.0000    constr:    0.0000
     atom:   25    charge:    2.0869    magn:    0.0000    constr:    0.0000
     atom:   26    charge:    3.1164    magn:   -0.0000    constr:    0.0000
     atom:   27    charge:    2.0824    magn:    0.0001    constr:    0.0000
     atom:   28    charge:    2.0878    magn:    0.0001    constr:    0.0000
     atom:   29    charge:    2.0878    magn:    0.0001    constr:    0.0000
     atom:   30    charge:    3.1165    magn:   -0.0001    constr:    0.0000
     atom:   31    charge:    2.0814    magn:    0.0002    constr:    0.0000
     atom:   32    charge:    2.0850    magn:    0.0000    constr:    0.0000
     atom:   33    charge:    2.0624    magn:    0.0003    constr:    0.0000
     atom:   34    charge:    3.1239    magn:   -0.0000    constr:    0.0000
     atom:   35    charge:    2.0878    magn:   -0.0000    constr:    0.0000
     atom:   36    charge:    2.0847    magn:   -0.0000    constr:    0.0000
     atom:   37    charge:    2.0847    magn:   -0.0000    constr:    0.0000
     atom:   38    charge:    3.1197    magn:   -0.0000    constr:    0.0000
     atom:   39    charge:    2.0913    magn:    0.0000    constr:    0.0000
     atom:   40    charge:    2.0777    magn:    0.0000    constr:    0.0000
     atom:   41    charge:    2.0869    magn:    0.0000    constr:    0.0000
     atom:   42    charge:    3.1180    magn:   -0.0000    constr:    0.0000
     atom:   43    charge:    2.0838    magn:    0.0001    constr:    0.0000
     atom:   44    charge:    2.0864    magn:    0.0001    constr:    0.0000
     atom:   45    charge:    2.0872    magn:    0.0000    constr:    0.0000
     atom:   46    charge:    3.1173    magn:   -0.0001    constr:    0.0000
     atom:   47    charge:    2.0795    magn:    0.0002    constr:    0.0000
     atom:   48    charge:    2.0846    magn:    0.0001    constr:    0.0000
     atom:   49    charge:    2.0535    magn:   -0.0000    constr:    0.0000
     atom:   50    charge:    1.2590    magn:   -0.0000    constr:    0.0000
     atom:   51    charge:    1.2867    magn:    0.0000    constr:    0.0000

     total cpu time spent up to now is     1159.3 secs

     total energy              =   -3044.95828289 Ry
     Harris-Foulkes estimate   =   -3044.96365568 Ry
     estimated scf accuracy    <       0.01044501 Ry

     total magnetization       =     0.00 Bohr mag/cell
     absolute magnetization    =     0.00 Bohr mag/cell

     iteration #  4     ecut=    40.42 Ry     beta=0.10
     Davidson diagonalization with overlap
     ethr =  2.61E-06,  avg # of iterations =  5.5

     negative rho (up, down):  1.159E-02 1.159E-02
 
     Magnetic moment per site:
     atom:    1    charge:    3.1250    magn:   -0.0001    constr:    0.0000
     atom:    2    charge:    2.0894    magn:    0.0001    constr:    0.0000
     atom:    3    charge:    3.1196    magn:   -0.0000    constr:    0.0000
     atom:    4    charge:    2.0870    magn:    0.0000    constr:    0.0000
     atom:    5    charge:    3.1170    magn:   -0.0000    constr:    0.0000
     atom:    6    charge:    2.0918    magn:    0.0000    constr:    0.0000
     atom:    7    charge:    3.1180    magn:   -0.0000    constr:    0.0000
     atom:    8    charge:    2.0812    magn:    0.0000    constr:    0.0000
     atom:    9    charge:    3.1250    magn:   -0.0001    constr:    0.0000
     atom:   10    charge:    2.0894    magn:    0.0001    constr:    0.0000
     atom:   11    charge:    3.1196    magn:   -0.0000    constr:    0.0000
     atom:   12    charge:    2.0870    magn:    0.0000    constr:    0.0000
     atom:   13    charge:    3.1147    magn:   -0.0000    constr:    0.0000
     atom:   14    charge:    2.0913    magn:    0.0000    constr:    0.0000
     atom:   15    charge:    3.1190    magn:   -0.0000    constr:    0.0000
     atom:   16    charge:    2.0874    magn:    0.0000    constr:    0.0000
     atom:   17    charge:    2.0624    magn:    0.0002    constr:    0.0000
     atom:   18    charge:    3.1239    magn:   -0.0000    constr:    0.0000
     atom:   19    charge:    2.0878    magn:   -0.0000    constr:    0.0000
     atom:   20    charge:    2.0847    magn:   -0.0000    constr:    0.0000
     atom:   21    charge:    2.0847    magn:   -0.0000    constr:    0.0000
     atom:   22    charge:    3.1197    magn:   -0.0000    constr:    0.0000
     atom:   23    charge:    2.0909    magn:    0.0000    constr:    0.0000
     atom:   24    charge:    2.0777    magn:    0.0000    constr:    0.0000
     atom:   25    charge:    2.0869    magn:    0.0000    constr:    0.0000
     atom:   26    charge:    3.1164    magn:   -0.0000    constr:    0.0000
     atom:   27    charge:    2.0824    magn:    0.0001    constr:    0.0000
     atom:   28    charge:    2.0879    magn:    0.0001    constr:    0.0000
     atom:   29    charge:    2.0877    magn:    0.0000    constr:    0.0000
     atom:   30    charge:    3.1166    magn:   -0.0001    constr:    0.0000
     atom:   31    charge:    2.0818    magn:    0.0002    constr:    0.0000
     atom:   32    charge:    2.0849    magn:    0.0000    constr:    0.0000
     atom:   33    charge:    2.0624    magn:    0.0002    constr:    0.0000
     atom:   34    charge:    3.1239    magn:   -0.0000    constr:    0.0000
     atom:   35    charge:    2.0878    magn:   -0.0000    constr:    0.0000
     atom:   36    charge:    2.0847    magn:   -0.0000    constr:    0.0000
     atom:   37    charge:    2.0847    magn:   -0.0000    constr:    0.0000
     atom:   38    charge:    3.1197    magn:   -0.0000    constr:    0.0000
     atom:   39    charge:    2.0912    magn:    0.0000    constr:    0.0000
     atom:   40    charge:    2.0777    magn:    0.0000    constr:    0.0000
     atom:   41    charge:    2.0869    magn:    0.0000    constr:    0.0000
     atom:   42    charge:    3.1181    magn:   -0.0000    constr:    0.0000
     atom:   43    charge:    2.0838    magn:    0.0001    constr:    0.0000
     atom:   44    charge:    2.0865    magn:    0.0001    constr:    0.0000
     atom:   45    charge:    2.0871    magn:    0.0000    constr:    0.0000
     atom:   46    charge:    3.1174    magn:   -0.0001    constr:    0.0000
     atom:   47    charge:    2.0799    magn:    0.0002    constr:    0.0000
     atom:   48    charge:    2.0849    magn:    0.0001    constr:    0.0000
     atom:   49    charge:    2.0540    magn:   -0.0000    constr:    0.0000
     atom:   50    charge:    1.2592    magn:   -0.0000    constr:    0.0000
     atom:   51    charge:    1.2859    magn:    0.0000    constr:    0.0000

     total cpu time spent up to now is     1403.4 secs

     total energy              =   -3044.95939193 Ry
     Harris-Foulkes estimate   =   -3044.95959916 Ry
     estimated scf accuracy    <       0.00080284 Ry

     total magnetization       =     0.00 Bohr mag/cell
     absolute magnetization    =     0.00 Bohr mag/cell

     iteration #  5     ecut=    40.42 Ry     beta=0.10
     Davidson diagonalization with overlap
     ethr =  2.01E-07,  avg # of iterations =  2.0

     negative rho (up, down):  1.159E-02 1.159E-02
 
     Magnetic moment per site:
     atom:    1    charge:    3.1250    magn:   -0.0001    constr:    0.0000
     atom:    2    charge:    2.0894    magn:    0.0000    constr:    0.0000
     atom:    3    charge:    3.1196    magn:   -0.0000    constr:    0.0000
     atom:    4    charge:    2.0870    magn:    0.0000    constr:    0.0000
     atom:    5    charge:    3.1170    magn:   -0.0000    constr:    0.0000
     atom:    6    charge:    2.0916    magn:    0.0000    constr:    0.0000
     atom:    7    charge:    3.1184    magn:   -0.0000    constr:    0.0000
     atom:    8    charge:    2.0815    magn:    0.0000    constr:    0.0000
     atom:    9    charge:    3.1250    magn:   -0.0001    constr:    0.0000
     atom:   10    charge:    2.0894    magn:    0.0000    constr:    0.0000
     atom:   11    charge:    3.1196    magn:   -0.0000    constr:    0.0000
     atom:   12    charge:    2.0870    magn:    0.0000    constr:    0.0000
     atom:   13    charge:    3.1148    magn:   -0.0000    constr:    0.0000
     atom:   14    charge:    2.0911    magn:    0.0000    constr:    0.0000
     atom:   15    charge:    3.1193    magn:   -0.0000    constr:    0.0000
     atom:   16    charge:    2.0878    magn:    0.0000    constr:    0.0000
     atom:   17    charge:    2.0624    magn:    0.0002    constr:    0.0000
     atom:   18    charge:    3.1239    magn:   -0.0000    constr:    0.0000
     atom:   19    charge:    2.0878    magn:   -0.0000    constr:    0.0000
     atom:   20    charge:    2.0847    magn:   -0.0000    constr:    0.0000
     atom:   21    charge:    2.0847    magn:   -0.0000    constr:    0.0000
     atom:   22    charge:    3.1197    magn:   -0.0000    constr:    0.0000
     atom:   23    charge:    2.0909    magn:    0.0000    constr:    0.0000
     atom:   24    charge:    2.0777    magn:    0.0000    constr:    0.0000
     atom:   25    charge:    2.0869    magn:    0.0000    constr:    0.0000
     atom:   26    charge:    3.1165    magn:   -0.0000    constr:    0.0000
     atom:   27    charge:    2.0823    magn:    0.0001    constr:    0.0000
     atom:   28    charge:    2.0879    magn:    0.0000    constr:    0.0000
     atom:   29    charge:    2.0877    magn:    0.0000    constr:    0.0000
     atom:   30    charge:    3.1169    magn:   -0.0001    constr:    0.0000
     atom:   31    charge:    2.0819    magn:    0.0001    constr:    0.0000
     atom:   32    charge:    2.0842    magn:    0.0000    constr:    0.0000
     atom:   33    charge:    2.0624    magn:    0.0002    constr:    0.0000
     atom:   34    charge:    3.1239    magn:   -0.0000    constr:    0.0000
     atom:   35    charge:    2.0878    magn:   -0.0000    constr:    0.0000
     atom:   36    charge:    2.0847    magn:   -0.0000    constr:    0.0000
     atom:   37    charge:    2.0847    magn:   -0.0000    constr:    0.0000
     atom:   38    charge:    3.1197    magn:   -0.0000    constr:    0.0000
     atom:   39    charge:    2.0912    magn:    0.0000    constr:    0.0000
     atom:   40    charge:    2.0777    magn:    0.0000    constr:    0.0000
     atom:   41    charge:    2.0869    magn:    0.0000    constr:    0.0000
     atom:   42    charge:    3.1181    magn:   -0.0000    constr:    0.0000
     atom:   43    charge:    2.0837    magn:    0.0001    constr:    0.0000
     atom:   44    charge:    2.0865    magn:    0.0000    constr:    0.0000
     atom:   45    charge:    2.0870    magn:    0.0000    constr:    0.0000
     atom:   46    charge:    3.1173    magn:   -0.0001    constr:    0.0000
     atom:   47    charge:    2.0800    magn:    0.0001    constr:    0.0000
     atom:   48    charge:    2.0838    magn:    0.0001    constr:    0.0000
     atom:   49    charge:    2.0540    magn:    0.0000    constr:    0.0000
     atom:   50    charge:    1.2592    magn:   -0.0000    constr:    0.0000
     atom:   51    charge:    1.2856    magn:    0.0000    constr:    0.0000

     total cpu time spent up to now is     1590.2 secs

     total energy              =   -3044.95933339 Ry
     Harris-Foulkes estimate   =   -3044.95943886 Ry
     estimated scf accuracy    <       0.00031077 Ry

     total magnetization       =     0.00 Bohr mag/cell
     absolute magnetization    =     0.00 Bohr mag/cell

     iteration #  6     ecut=    40.42 Ry     beta=0.10
     Davidson diagonalization with overlap
     ethr =  7.77E-08,  avg # of iterations =  2.0

     negative rho (up, down):  1.159E-02 1.159E-02
 
     Magnetic moment per site:
     atom:    1    charge:    3.1250    magn:   -0.0001    constr:    0.0000
     atom:    2    charge:    2.0894    magn:    0.0000    constr:    0.0000
     atom:    3    charge:    3.1196    magn:   -0.0000    constr:    0.0000
     atom:    4    charge:    2.0870    magn:    0.0000    constr:    0.0000
     atom:    5    charge:    3.1170    magn:   -0.0000    constr:    0.0000
     atom:    6    charge:    2.0917    magn:    0.0000    constr:    0.0000
     atom:    7    charge:    3.1184    magn:   -0.0000    constr:    0.0000
     atom:    8    charge:    2.0816    magn:    0.0000    constr:    0.0000
     atom:    9    charge:    3.1250    magn:   -0.0001    constr:    0.0000
     atom:   10    charge:    2.0894    magn:    0.0000    constr:    0.0000
     atom:   11    charge:    3.1196    magn:   -0.0000    constr:    0.0000
     atom:   12    charge:    2.0870    magn:    0.0000    constr:    0.0000
     atom:   13    charge:    3.1148    magn:   -0.0000    constr:    0.0000
     atom:   14    charge:    2.0911    magn:    0.0000    constr:    0.0000
     atom:   15    charge:    3.1193    magn:   -0.0000    constr:    0.0000
     atom:   16    charge:    2.0883    magn:    0.0000    constr:    0.0000
     atom:   17    charge:    2.0624    magn:    0.0002    constr:    0.0000
     atom:   18    charge:    3.1239    magn:   -0.0000    constr:    0.0000
     atom:   19    charge:    2.0878    magn:   -0.0000    constr:    0.0000
     atom:   20    charge:    2.0847    magn:   -0.0000    constr:    0.0000
     atom:   21    charge:    2.0847    magn:   -0.0000    constr:    0.0000
     atom:   22    charge:    3.1197    magn:   -0.0000    constr:    0.0000
     atom:   23    charge:    2.0909    magn:    0.0000    constr:    0.0000
     atom:   24    charge:    2.0777    magn:    0.0000    constr:    0.0000
     atom:   25    charge:    2.0869    magn:    0.0000    constr:    0.0000
     atom:   26    charge:    3.1165    magn:   -0.0000    constr:    0.0000
     atom:   27    charge:    2.0824    magn:    0.0001    constr:    0.0000
     atom:   28    charge:    2.0879    magn:    0.0000    constr:    0.0000
     atom:   29    charge:    2.0877    magn:    0.0000    constr:    0.0000
     atom:   30    charge:    3.1168    magn:   -0.0000    constr:    0.0000
     atom:   31    charge:    2.0818    magn:    0.0001    constr:    0.0000
     atom:   32    charge:    2.0842    magn:    0.0000    constr:    0.0000
     atom:   33    charge:    2.0624    magn:    0.0002    constr:    0.0000
     atom:   34    charge:    3.1239    magn:   -0.0000    constr:    0.0000
     atom:   35    charge:    2.0878    magn:   -0.0000    constr:    0.0000
     atom:   36    charge:    2.0847    magn:   -0.0000    constr:    0.0000
     atom:   37    charge:    2.0847    magn:   -0.0000    constr:    0.0000
     atom:   38    charge:    3.1197    magn:   -0.0000    constr:    0.0000
     atom:   39    charge:    2.0912    magn:    0.0000    constr:    0.0000
     atom:   40    charge:    2.0777    magn:    0.0000    constr:    0.0000
     atom:   41    charge:    2.0869    magn:    0.0000    constr:    0.0000
     atom:   42    charge:    3.1181    magn:   -0.0000    constr:    0.0000
     atom:   43    charge:    2.0838    magn:    0.0001    constr:    0.0000
     atom:   44    charge:    2.0864    magn:    0.0000    constr:    0.0000
     atom:   45    charge:    2.0871    magn:    0.0000    constr:    0.0000
     atom:   46    charge:    3.1172    magn:   -0.0000    constr:    0.0000
     atom:   47    charge:    2.0799    magn:    0.0001    constr:    0.0000
     atom:   48    charge:    2.0835    magn:    0.0001    constr:    0.0000
     atom:   49    charge:    2.0541    magn:    0.0000    constr:    0.0000
     atom:   50    charge:    1.2588    magn:   -0.0000    constr:    0.0000
     atom:   51    charge:    1.2859    magn:    0.0000    constr:    0.0000

     total cpu time spent up to now is     1777.5 secs

     total energy              =   -3044.95934148 Ry
     Harris-Foulkes estimate   =   -3044.95935989 Ry
     estimated scf accuracy    <       0.00007680 Ry

     total magnetization       =     0.00 Bohr mag/cell
     absolute magnetization    =     0.00 Bohr mag/cell

     iteration #  7     ecut=    40.42 Ry     beta=0.10
     Davidson diagonalization with overlap
     ethr =  1.92E-08,  avg # of iterations =  2.0

     negative rho (up, down):  1.159E-02 1.159E-02
 
     Magnetic moment per site:
     atom:    1    charge:    3.1250    magn:   -0.0000    constr:    0.0000
     atom:    2    charge:    2.0894    magn:    0.0000    constr:    0.0000
     atom:    3    charge:    3.1196    magn:   -0.0000    constr:    0.0000
     atom:    4    charge:    2.0870    magn:    0.0000    constr:    0.0000
     atom:    5    charge:    3.1170    magn:   -0.0000    constr:    0.0000
     atom:    6    charge:    2.0916    magn:    0.0000    constr:    0.0000
     atom:    7    charge:    3.1185    magn:   -0.0000    constr:    0.0000
     atom:    8    charge:    2.0816    magn:    0.0000    constr:    0.0000
     atom:    9    charge:    3.1250    magn:   -0.0000    constr:    0.0000
     atom:   10    charge:    2.0894    magn:    0.0000    constr:    0.0000
     atom:   11    charge:    3.1196    magn:   -0.0000    constr:    0.0000
     atom:   12    charge:    2.0870    magn:    0.0000    constr:    0.0000
     atom:   13    charge:    3.1148    magn:   -0.0000    constr:    0.0000
     atom:   14    charge:    2.0911    magn:    0.0000    constr:    0.0000
     atom:   15    charge:    3.1194    magn:   -0.0000    constr:    0.0000
     atom:   16    charge:    2.0884    magn:    0.0000    constr:    0.0000
     atom:   17    charge:    2.0624    magn:    0.0001    constr:    0.0000
     atom:   18    charge:    3.1239    magn:   -0.0000    constr:    0.0000
     atom:   19    charge:    2.0878    magn:   -0.0000    constr:    0.0000
     atom:   20    charge:    2.0847    magn:   -0.0000    constr:    0.0000
     atom:   21    charge:    2.0847    magn:   -0.0000    constr:    0.0000
     atom:   22    charge:    3.1197    magn:   -0.0000    constr:    0.0000
     atom:   23    charge:    2.0909    magn:    0.0000    constr:    0.0000
     atom:   24    charge:    2.0777    magn:    0.0000    constr:    0.0000
     atom:   25    charge:    2.0869    magn:    0.0000    constr:    0.0000
     atom:   26    charge:    3.1165    magn:   -0.0000    constr:    0.0000
     atom:   27    charge:    2.0824    magn:    0.0001    constr:    0.0000
     atom:   28    charge:    2.0879    magn:    0.0000    constr:    0.0000
     atom:   29    charge:    2.0877    magn:    0.0000    constr:    0.0000
     atom:   30    charge:    3.1168    magn:   -0.0000    constr:    0.0000
     atom:   31    charge:    2.0817    magn:    0.0001    constr:    0.0000
     atom:   32    charge:    2.0842    magn:    0.0000    constr:    0.0000
     atom:   33    charge:    2.0624    magn:    0.0001    constr:    0.0000
     atom:   34    charge:    3.1239    magn:   -0.0000    constr:    0.0000
     atom:   35    charge:    2.0878    magn:   -0.0000    constr:    0.0000
     atom:   36    charge:    2.0847    magn:   -0.0000    constr:    0.0000
     atom:   37    charge:    2.0847    magn:   -0.0000    constr:    0.0000
     atom:   38    charge:    3.1197    magn:   -0.0000    constr:    0.0000
     atom:   39    charge:    2.0912    magn:    0.0000    constr:    0.0000
     atom:   40    charge:    2.0777    magn:    0.0000    constr:    0.0000
     atom:   41    charge:    2.0869    magn:    0.0000    constr:    0.0000
     atom:   42    charge:    3.1181    magn:   -0.0000    constr:    0.0000
     atom:   43    charge:    2.0838    magn:    0.0001    constr:    0.0000
     atom:   44    charge:    2.0864    magn:    0.0000    constr:    0.0000
     atom:   45    charge:    2.0871    magn:    0.0000    constr:    0.0000
     atom:   46    charge:    3.1171    magn:   -0.0000    constr:    0.0000
     atom:   47    charge:    2.0798    magn:    0.0001    constr:    0.0000
     atom:   48    charge:    2.0834    magn:    0.0000    constr:    0.0000
     atom:   49    charge:    2.0540    magn:    0.0000    constr:    0.0000
     atom:   50    charge:    1.2588    magn:   -0.0000    constr:    0.0000
     atom:   51    charge:    1.2860    magn:    0.0000    constr:    0.0000

     total cpu time spent up to now is     1962.9 secs

     total energy              =   -3044.95934593 Ry
     Harris-Foulkes estimate   =   -3044.95934722 Ry
     estimated scf accuracy    <       0.00001707 Ry

     total magnetization       =     0.00 Bohr mag/cell
     absolute magnetization    =     0.00 Bohr mag/cell

     iteration #  8     ecut=    40.42 Ry     beta=0.10
     Davidson diagonalization with overlap
     ethr =  4.27E-09,  avg # of iterations =  2.0

     negative rho (up, down):  1.159E-02 1.159E-02
 
     Magnetic moment per site:
     atom:    1    charge:    3.1250    magn:   -0.0000    constr:    0.0000
     atom:    2    charge:    2.0894    magn:    0.0000    constr:    0.0000
     atom:    3    charge:    3.1196    magn:   -0.0000    constr:    0.0000
     atom:    4    charge:    2.0870    magn:    0.0000    constr:    0.0000
     atom:    5    charge:    3.1170    magn:   -0.0000    constr:    0.0000
     atom:    6    charge:    2.0917    magn:    0.0000    constr:    0.0000
     atom:    7    charge:    3.1185    magn:   -0.0000    constr:    0.0000
     atom:    8    charge:    2.0816    magn:    0.0000    constr:    0.0000
     atom:    9    charge:    3.1250    magn:   -0.0000    constr:    0.0000
     atom:   10    charge:    2.0894    magn:    0.0000    constr:    0.0000
     atom:   11    charge:    3.1196    magn:   -0.0000    constr:    0.0000
     atom:   12    charge:    2.0870    magn:    0.0000    constr:    0.0000
     atom:   13    charge:    3.1148    magn:   -0.0000    constr:    0.0000
     atom:   14    charge:    2.0911    magn:    0.0000    constr:    0.0000
     atom:   15    charge:    3.1194    magn:   -0.0000    constr:    0.0000
     atom:   16    charge:    2.0884    magn:    0.0000    constr:    0.0000
     atom:   17    charge:    2.0624    magn:    0.0001    constr:    0.0000
     atom:   18    charge:    3.1239    magn:   -0.0000    constr:    0.0000
     atom:   19    charge:    2.0878    magn:   -0.0000    constr:    0.0000
     atom:   20    charge:    2.0847    magn:   -0.0000    constr:    0.0000
     atom:   21    charge:    2.0847    magn:   -0.0000    constr:    0.0000
     atom:   22    charge:    3.1197    magn:   -0.0000    constr:    0.0000
     atom:   23    charge:    2.0909    magn:    0.0000    constr:    0.0000
     atom:   24    charge:    2.0777    magn:    0.0000    constr:    0.0000
     atom:   25    charge:    2.0869    magn:    0.0000    constr:    0.0000
     atom:   26    charge:    3.1165    magn:   -0.0000    constr:    0.0000
     atom:   27    charge:    2.0824    magn:    0.0000    constr:    0.0000
     atom:   28    charge:    2.0879    magn:    0.0000    constr:    0.0000
     atom:   29    charge:    2.0877    magn:    0.0000    constr:    0.0000
     atom:   30    charge:    3.1168    magn:   -0.0000    constr:    0.0000
     atom:   31    charge:    2.0816    magn:    0.0001    constr:    0.0000
     atom:   32    charge:    2.0842    magn:    0.0000    constr:    0.0000
     atom:   33    charge:    2.0624    magn:    0.0001    constr:    0.0000
     atom:   34    charge:    3.1239    magn:   -0.0000    constr:    0.0000
     atom:   35    charge:    2.0878    magn:   -0.0000    constr:    0.0000
     atom:   36    charge:    2.0847    magn:   -0.0000    constr:    0.0000
     atom:   37    charge:    2.0847    magn:   -0.0000    constr:    0.0000
     atom:   38    charge:    3.1197    magn:   -0.0000    constr:    0.0000
     atom:   39    charge:    2.0912    magn:    0.0000    constr:    0.0000
     atom:   40    charge:    2.0777    magn:    0.0000    constr:    0.0000
     atom:   41    charge:    2.0869    magn:    0.0000    constr:    0.0000
     atom:   42    charge:    3.1181    magn:   -0.0000    constr:    0.0000
     atom:   43    charge:    2.0838    magn:    0.0000    constr:    0.0000
     atom:   44    charge:    2.0865    magn:    0.0000    constr:    0.0000
     atom:   45    charge:    2.0871    magn:    0.0000    constr:    0.0000
     atom:   46    charge:    3.1171    magn:   -0.0000    constr:    0.0000
     atom:   47    charge:    2.0797    magn:    0.0001    constr:    0.0000
     atom:   48    charge:    2.0834    magn:    0.0000    constr:    0.0000
     atom:   49    charge:    2.0541    magn:    0.0000    constr:    0.0000
     atom:   50    charge:    1.2588    magn:   -0.0000    constr:    0.0000
     atom:   51    charge:    1.2862    magn:    0.0000    constr:    0.0000

     total cpu time spent up to now is     2149.3 secs

     total energy              =   -3044.95934742 Ry
     Harris-Foulkes estimate   =   -3044.95934697 Ry
     estimated scf accuracy    <       0.00000587 Ry

     total magnetization       =     0.00 Bohr mag/cell
     absolute magnetization    =     0.00 Bohr mag/cell

     iteration #  9     ecut=    40.42 Ry     beta=0.10
     Davidson diagonalization with overlap
     ethr =  1.47E-09,  avg # of iterations =  2.0

     negative rho (up, down):  1.159E-02 1.159E-02
 
     Magnetic moment per site:
     atom:    1    charge:    3.1250    magn:   -0.0000    constr:    0.0000
     atom:    2    charge:    2.0894    magn:    0.0000    constr:    0.0000
     atom:    3    charge:    3.1196    magn:   -0.0000    constr:    0.0000
     atom:    4    charge:    2.0870    magn:    0.0000    constr:    0.0000
     atom:    5    charge:    3.1170    magn:   -0.0000    constr:    0.0000
     atom:    6    charge:    2.0917    magn:    0.0000    constr:    0.0000
     atom:    7    charge:    3.1185    magn:   -0.0000    constr:    0.0000
     atom:    8    charge:    2.0816    magn:    0.0000    constr:    0.0000
     atom:    9    charge:    3.1250    magn:   -0.0000    constr:    0.0000
     atom:   10    charge:    2.0894    magn:    0.0000    constr:    0.0000
     atom:   11    charge:    3.1196    magn:   -0.0000    constr:    0.0000
     atom:   12    charge:    2.0870    magn:    0.0000    constr:    0.0000
     atom:   13    charge:    3.1148    magn:   -0.0000    constr:    0.0000
     atom:   14    charge:    2.0911    magn:    0.0000    constr:    0.0000
     atom:   15    charge:    3.1194    magn:   -0.0000    constr:    0.0000
     atom:   16    charge:    2.0884    magn:    0.0000    constr:    0.0000
     atom:   17    charge:    2.0624    magn:    0.0001    constr:    0.0000
     atom:   18    charge:    3.1239    magn:   -0.0000    constr:    0.0000
     atom:   19    charge:    2.0878    magn:   -0.0000    constr:    0.0000
     atom:   20    charge:    2.0847    magn:   -0.0000    constr:    0.0000
     atom:   21    charge:    2.0847    magn:   -0.0000    constr:    0.0000
     atom:   22    charge:    3.1197    magn:   -0.0000    constr:    0.0000
     atom:   23    charge:    2.0909    magn:    0.0000    constr:    0.0000
     atom:   24    charge:    2.0777    magn:    0.0000    constr:    0.0000
     atom:   25    charge:    2.0869    magn:    0.0000    constr:    0.0000
     atom:   26    charge:    3.1165    magn:   -0.0000    constr:    0.0000
     atom:   27    charge:    2.0824    magn:    0.0000    constr:    0.0000
     atom:   28    charge:    2.0879    magn:    0.0000    constr:    0.0000
     atom:   29    charge:    2.0877    magn:    0.0000    constr:    0.0000
     atom:   30    charge:    3.1168    magn:   -0.0000    constr:    0.0000
     atom:   31    charge:    2.0815    magn:    0.0001    constr:    0.0000
     atom:   32    charge:    2.0843    magn:    0.0000    constr:    0.0000
     atom:   33    charge:    2.0624    magn:    0.0001    constr:    0.0000
     atom:   34    charge:    3.1239    magn:   -0.0000    constr:    0.0000
     atom:   35    charge:    2.0878    magn:   -0.0000    constr:    0.0000
     atom:   36    charge:    2.0847    magn:   -0.0000    constr:    0.0000
     atom:   37    charge:    2.0847    magn:   -0.0000    constr:    0.0000
     atom:   38    charge:    3.1197    magn:   -0.0000    constr:    0.0000
     atom:   39    charge:    2.0912    magn:    0.0000    constr:    0.0000
     atom:   40    charge:    2.0777    magn:    0.0000    constr:    0.0000
     atom:   41    charge:    2.0869    magn:    0.0000    constr:    0.0000
     atom:   42    charge:    3.1181    magn:   -0.0000    constr:    0.0000
     atom:   43    charge:    2.0838    magn:    0.0000    constr:    0.0000
     atom:   44    charge:    2.0865    magn:    0.0000    constr:    0.0000
     atom:   45    charge:    2.0871    magn:    0.0000    constr:    0.0000
     atom:   46    charge:    3.1171    magn:   -0.0000    constr:    0.0000
     atom:   47    charge:    2.0796    magn:    0.0001    constr:    0.0000
     atom:   48    charge:    2.0834    magn:    0.0000    constr:    0.0000
     atom:   49    charge:    2.0542    magn:    0.0000    constr:    0.0000
     atom:   50    charge:    1.2588    magn:   -0.0000    constr:    0.0000
     atom:   51    charge:    1.2862    magn:    0.0000    constr:    0.0000

     total cpu time spent up to now is     2333.5 secs

     total energy              =   -3044.95934839 Ry
     Harris-Foulkes estimate   =   -3044.95934769 Ry
     estimated scf accuracy    <       0.00000224 Ry

     total magnetization       =     0.00 Bohr mag/cell
     absolute magnetization    =     0.00 Bohr mag/cell

     iteration # 10     ecut=    40.42 Ry     beta=0.10
     Davidson diagonalization with overlap
     ethr =  5.60E-10,  avg # of iterations =  2.0

     negative rho (up, down):  1.158E-02 1.158E-02
 
     Magnetic moment per site:
     atom:    1    charge:    3.1250    magn:   -0.0000    constr:    0.0000
     atom:    2    charge:    2.0894    magn:    0.0000    constr:    0.0000
     atom:    3    charge:    3.1196    magn:   -0.0000    constr:    0.0000
     atom:    4    charge:    2.0870    magn:    0.0000    constr:    0.0000
     atom:    5    charge:    3.1170    magn:   -0.0000    constr:    0.0000
     atom:    6    charge:    2.0917    magn:    0.0000    constr:    0.0000
     atom:    7    charge:    3.1185    magn:   -0.0000    constr:    0.0000
     atom:    8    charge:    2.0815    magn:    0.0000    constr:    0.0000
     atom:    9    charge:    3.1250    magn:   -0.0000    constr:    0.0000
     atom:   10    charge:    2.0894    magn:    0.0000    constr:    0.0000
     atom:   11    charge:    3.1196    magn:   -0.0000    constr:    0.0000
     atom:   12    charge:    2.0870    magn:    0.0000    constr:    0.0000
     atom:   13    charge:    3.1148    magn:   -0.0000    constr:    0.0000
     atom:   14    charge:    2.0911    magn:    0.0000    constr:    0.0000
     atom:   15    charge:    3.1194    magn:   -0.0000    constr:    0.0000
     atom:   16    charge:    2.0884    magn:    0.0000    constr:    0.0000
     atom:   17    charge:    2.0624    magn:    0.0000    constr:    0.0000
     atom:   18    charge:    3.1239    magn:   -0.0000    constr:    0.0000
     atom:   19    charge:    2.0878    magn:   -0.0000    constr:    0.0000
     atom:   20    charge:    2.0847    magn:   -0.0000    constr:    0.0000
     atom:   21    charge:    2.0847    magn:   -0.0000    constr:    0.0000
     atom:   22    charge:    3.1197    magn:   -0.0000    constr:    0.0000
     atom:   23    charge:    2.0909    magn:    0.0000    constr:    0.0000
     atom:   24    charge:    2.0777    magn:    0.0000    constr:    0.0000
     atom:   25    charge:    2.0869    magn:    0.0000    constr:    0.0000
     atom:   26    charge:    3.1165    magn:   -0.0000    constr:    0.0000
     atom:   27    charge:    2.0824    magn:    0.0000    constr:    0.0000
     atom:   28    charge:    2.0879    magn:    0.0000    constr:    0.0000
     atom:   29    charge:    2.0877    magn:    0.0000    constr:    0.0000
     atom:   30    charge:    3.1168    magn:   -0.0000    constr:    0.0000
     atom:   31    charge:    2.0816    magn:    0.0000    constr:    0.0000
     atom:   32    charge:    2.0842    magn:    0.0000    constr:    0.0000
     atom:   33    charge:    2.0624    magn:    0.0000    constr:    0.0000
     atom:   34    charge:    3.1239    magn:   -0.0000    constr:    0.0000
     atom:   35    charge:    2.0878    magn:   -0.0000    constr:    0.0000
     atom:   36    charge:    2.0847    magn:   -0.0000    constr:    0.0000
     atom:   37    charge:    2.0847    magn:   -0.0000    constr:    0.0000
     atom:   38    charge:    3.1197    magn:   -0.0000    constr:    0.0000
     atom:   39    charge:    2.0912    magn:    0.0000    constr:    0.0000
     atom:   40    charge:    2.0777    magn:    0.0000    constr:    0.0000
     atom:   41    charge:    2.0869    magn:    0.0000    constr:    0.0000
     atom:   42    charge:    3.1181    magn:   -0.0000    constr:    0.0000
     atom:   43    charge:    2.0838    magn:    0.0000    constr:    0.0000
     atom:   44    charge:    2.0865    magn:    0.0000    constr:    0.0000
     atom:   45    charge:    2.0871    magn:    0.0000    constr:    0.0000
     atom:   46    charge:    3.1171    magn:   -0.0000    constr:    0.0000
     atom:   47    charge:    2.0797    magn:    0.0000    constr:    0.0000
     atom:   48    charge:    2.0833    magn:    0.0000    constr:    0.0000
     atom:   49    charge:    2.0543    magn:    0.0000    constr:    0.0000
     atom:   50    charge:    1.2589    magn:   -0.0000    constr:    0.0000
     atom:   51    charge:    1.2861    magn:    0.0000    constr:    0.0000

     total cpu time spent up to now is     2519.5 secs

     End of self-consistent calculation

 ------ SPIN UP ------------


          k = 0.0000 0.0000 0.0000 ( 34665 PWs)   bands (ev):

   -57.8210 -57.7860 -57.5100 -57.4544 -57.3854 -57.3491 -57.2759 -57.2406
   -57.1784 -57.1431 -57.1150 -57.0796 -56.8835 -56.8104 -56.2831 -56.2478
   -34.2573 -34.1021 -34.0735 -34.0569 -34.0225 -33.9282 -33.8675 -33.8614
   -33.8241 -33.7694 -33.7299 -33.7196 -33.7157 -33.6848 -33.6697 -33.6654
   -33.6462 -33.6372 -33.6146 -33.5544 -33.5219 -33.4573 -33.4563 -33.4366
   -33.4296 -33.4272 -33.3871 -33.3807 -33.3762 -33.3584 -33.3539 -33.3337
   -33.3110 -33.3048 -33.2774 -33.2719 -33.2463 -33.1446 -33.1395 -33.0817
   -33.0380 -32.9376 -32.7018 -32.6342 -32.6082 -32.5057 -32.4140 -32.3057
   -24.2775 -21.0541 -18.1734 -17.9732 -17.7493 -17.6276 -17.4930 -17.4914
   -17.2101 -17.1898 -17.1434 -17.0522 -17.0487 -17.0078 -16.9906 -16.9186
   -16.8717 -16.8596 -16.8364 -16.7962 -16.7349 -16.6879 -16.5696 -16.5473
   -16.5194 -16.5039 -16.4194 -16.3097 -16.2740 -16.2429 -16.1070 -16.0774
   -14.8653 -14.7805  -9.8230  -7.5138  -7.4906  -6.0101  -5.5653  -5.5093
    -5.3568  -5.3489  -5.2926  -4.9938  -4.9361  -4.5855  -4.5822  -4.5470
    -4.5368  -4.4896  -4.3654  -4.2683  -4.2198  -4.2023  -4.1694  -4.1649
    -4.1623  -4.1531  -4.0884  -4.0841  -4.0056  -3.9829  -3.9512  -3.9115
    -3.8784  -3.8037  -3.7711  -3.7469  -3.7174  -3.6415  -3.6203  -3.5476
    -3.5425  -3.5172  -3.4507  -3.3318  -3.1986  -3.1641  -3.0617  -3.0030
    -2.9718  -2.8718  -2.8500  -2.8129  -2.7403  -2.7386  -2.7233  -2.5986
    -2.5610  -2.5051  -2.4377  -2.3975  -2.3706  -2.3514  -2.3230  -2.2803
    -2.2789  -2.2454  -2.2114  -2.1832  -2.1737  -2.0498  -1.9908  -1.8910
    -1.7508  -1.7469  -1.7198  -1.6800  -1.6507  -1.6393  -1.5621  -1.5385
    -1.4405  -1.4308  -1.4067  -1.3935  -1.3862  -1.2816  -1.2293  -1.2209
    -1.2006  -1.1308  -1.0703  -1.0149  -0.9156  -0.7411  -0.7119  -0.7073
    -0.6435  -0.5152  -0.3698  -0.2331  -0.1697  -0.0064   0.1203   0.1354
     1.5210   1.5501   1.8352   1.8732   1.8832   1.9045   2.0716   2.0906
     2.1253   2.2422   2.3611   2.3746   2.4094   2.4288   2.4663   2.4827
     2.5287   2.5662   2.6370   2.6685   2.6787   2.7306   2.7627   2.8235
     2.8705   2.8978   2.9887   2.9975   2.9986   3.0218   3.0672   3.0846
     3.0948   3.1000   3.1073   3.1414   3.2384   3.2977   3.2999   3.3130
     3.3546   3.3856   3.4201   3.5331   3.5366   3.6737   3.8806   3.9852
     4.0086   4.0450   4.0601   4.1824   4.2548   4.4616   4.5332   4.6593
     4.9103   4.9190   5.0134   5.1225   5.2080   5.3911   5.3973   5.4237
     5.5000   5.5838   5.6328   5.6395   5.7175   5.7353   5.7395   5.7527
     5.9239   5.9599   6.0132   6.0240   6.1005   6.1449   6.2042   6.2223
     6.4766   6.6166   6.7703   6.7860   6.8830   7.1656   7.2190   7.2808
     7.9025   7.9911   8.1617   8.3930   8.7051   8.9124   8.9139   8.9540
     9.2115   9.2568   9.2872   9.3512

          k = 0.0000 0.0280 0.0000 ( 34717 PWs)   bands (ev):

   -57.8186 -57.7884 -57.5085 -57.4559 -57.3831 -57.3514 -57.2736 -57.2430
   -57.1761 -57.1455 -57.1126 -57.0820 -56.8823 -56.8117 -56.2807 -56.2501
   -34.2320 -34.1001 -34.0754 -34.0311 -34.0163 -33.9347 -33.8945 -33.8363
   -33.8176 -33.7452 -33.7325 -33.7238 -33.7149 -33.6853 -33.6698 -33.6665
   -33.6443 -33.6132 -33.6082 -33.5475 -33.5308 -33.4815 -33.4552 -33.4463
   -33.4314 -33.4212 -33.4034 -33.3766 -33.3608 -33.3573 -33.3527 -33.3401
   -33.3107 -33.3099 -33.3025 -33.2736 -33.2720 -33.1440 -33.1365 -33.0823
   -33.0423 -32.9658 -32.6761 -32.6325 -32.6100 -32.4996 -32.4203 -32.3333
   -24.2774 -21.0540 -18.1118 -17.9152 -17.6964 -17.5742 -17.4718 -17.4449
   -17.2263 -17.1868 -17.1596 -17.1184 -17.0540 -17.0043 -16.9802 -16.9042
   -16.8874 -16.8431 -16.8277 -16.7968 -16.7656 -16.7454 -16.5937 -16.5346
   -16.5170 -16.4984 -16.4490 -16.3057 -16.2917 -16.2605 -16.1325 -16.1197
   -14.8751 -14.8038  -9.8228  -7.5153  -7.4904  -6.0090  -5.4772  -5.4250
    -5.2801  -5.2680  -5.2153  -4.8761  -4.8610  -4.6095  -4.5804  -4.5134
    -4.4861  -4.4518  -4.3144  -4.2909  -4.2852  -4.2381  -4.2303  -4.1929
    -4.1564  -4.1409  -4.1060  -4.0947  -4.0759  -4.0485  -4.0063  -3.9846
    -3.9266  -3.9195  -3.8600  -3.8014  -3.7349  -3.7200  -3.6987  -3.5643
    -3.4845  -3.4699  -3.3797  -3.3147  -3.1280  -3.0782  -2.9900  -2.9623
    -2.8505  -2.8196  -2.7554  -2.7482  -2.6688  -2.6377  -2.6326  -2.6148
    -2.5679  -2.5559  -2.5185  -2.4554  -2.4126  -2.3490  -2.3195  -2.2793
    -2.2378  -2.2178  -2.2009  -2.1267  -2.0511  -2.0182  -1.9384  -1.8703
    -1.8386  -1.8171  -1.7865  -1.7737  -1.6962  -1.6715  -1.6297  -1.5965
    -1.5553  -1.4907  -1.4650  -1.4067  -1.3864  -1.3553  -1.2741  -1.2344
    -1.1879  -1.1514  -1.0655  -1.0291  -0.9454  -0.9107  -0.8431  -0.7570
    -0.7285  -0.5298  -0.4105  -0.2250  -0.2221   0.0044   0.0748   0.0998
     1.6067   1.6536   1.8639   1.8748   1.9290   2.0041   2.0494   2.1171
     2.1742   2.2701   2.3232   2.3780   2.3812   2.4439   2.4551   2.4856
     2.5215   2.5482   2.5934   2.6518   2.7120   2.7639   2.7787   2.7876
     2.8333   2.8785   2.9430   2.9592   2.9905   3.0217   3.0462   3.0744
     3.0969   3.1052   3.1904   3.2035   3.2573   3.3184   3.3474   3.3961
     3.4186   3.4693   3.5048   3.5094   3.5706   3.6404   3.8308   3.9447
     3.9959   4.0562   4.1338   4.1671   4.1867   4.4046   4.5927   4.7576
     4.9162   4.9993   5.1114   5.1822   5.2122   5.4093   5.4312   5.4819
     5.4937   5.5673   5.5996   5.6249   5.6738   5.6982   5.7356   5.8235
     5.8565   5.9353   5.9794   6.0180   6.0238   6.0292   6.1194   6.2879
     6.4554   6.5440   6.7173   6.7887   6.8115   7.0712   7.1457   7.3713
     7.6860   7.9833   8.1033   8.2855   8.4130   8.7012   8.9911   9.0262
     9.0795   9.2991   9.3563   9.4062

          k = 0.0000 0.0560 0.0000 ( 34721 PWs)   bands (ev):

   -57.8122 -57.7948 -57.5052 -57.4592 -57.3769 -57.3576 -57.2671 -57.2495
   -57.1697 -57.1519 -57.1062 -57.0885 -56.8797 -56.8143 -56.2743 -56.2566
   -34.1622 -34.0948 -34.0805 -33.9992 -33.9674 -33.9605 -33.9521 -33.8017
   -33.7711 -33.7610 -33.7478 -33.7126 -33.7021 -33.6890 -33.6716 -33.6689
   -33.5907 -33.5744 -33.5714 -33.5446 -33.5323 -33.5279 -33.4767 -33.4703
   -33.4498 -33.4361 -33.4048 -33.3787 -33.3722 -33.3578 -33.3550 -33.3509
   -33.3374 -33.3230 -33.3015 -33.2998 -33.2652 -33.1434 -33.1329 -33.0836
   -33.0559 -33.0332 -32.6277 -32.6148 -32.6053 -32.4831 -32.4371 -32.4074
   -24.2774 -21.0539 -17.9403 -17.7551 -17.5565 -17.4442 -17.4250 -17.4195
   -17.3168 -17.2901 -17.1774 -17.0768 -17.0758 -17.0437 -17.0200 -16.9786
   -16.8604 -16.8537 -16.8493 -16.8107 -16.7490 -16.6840 -16.6575 -16.6122
   -16.5298 -16.4702 -16.4447 -16.3289 -16.3195 -16.2798 -16.2448 -16.1820
   -14.8927 -14.8541  -9.8225  -7.5183  -7.4900  -6.0071  -5.2344  -5.1897
    -5.0731  -5.0382  -5.0067  -4.7338  -4.6619  -4.6244  -4.5490  -4.5400
    -4.5118  -4.4954  -4.4658  -4.3890  -4.3566  -4.3458  -4.3256  -4.3206
    -4.2549  -4.2163  -4.1945  -4.1459  -4.1323  -4.0915  -4.0667  -4.0149
    -3.9531  -3.9255  -3.8551  -3.7799  -3.7239  -3.6032  -3.5738  -3.4798
    -3.4185  -3.3849  -3.3632  -3.2678  -3.1720  -3.0316  -2.9786  -2.9650
    -2.9574  -2.8792  -2.7905  -2.7372  -2.6910  -2.6526  -2.6096  -2.4687
    -2.4531  -2.4468  -2.4134  -2.3913  -2.3362  -2.3001  -2.2775  -2.2742
    -2.2024  -2.1789  -2.0974  -2.0684  -2.0454  -2.0354  -2.0084  -1.9883
    -1.9390  -1.9012  -1.8654  -1.7931  -1.7119  -1.6802  -1.6671  -1.6551
    -1.6373  -1.5694  -1.5162  -1.5000  -1.4805  -1.4408  -1.3707  -1.3554
    -1.2796  -1.2384  -1.1650  -1.1397  -1.0609  -0.9968  -0.9260  -0.8917
    -0.7967  -0.7118  -0.5921  -0.3896  -0.0412   0.0150   0.0458   0.0490
     1.7434   1.8893   1.9059   1.9855   2.0169   2.0599   2.1369   2.2037
     2.2234   2.2602   2.2654   2.2776   2.3080   2.3578   2.3806   2.5149
     2.5253   2.5593   2.6487   2.6651   2.7394   2.7448   2.7573   2.8062
     2.8098   2.8332   2.8526   2.9436   2.9653   3.0136   3.0868   3.0970
     3.1161   3.1752   3.1970   3.2230   3.3267   3.3705   3.4109   3.4581
     3.4889   3.5584   3.6163   3.6677   3.6886   3.7235   3.7439   3.8506
     3.9849   3.9977   4.0135   4.0986   4.2397   4.3331   4.7198   4.8471
     5.0328   5.1623   5.2546   5.3028   5.3333   5.3843   5.4040   5.4804
     5.5259   5.5996   5.6131   5.6220   5.6459   5.6942   5.7305   5.7407
     5.7573   5.7947   5.8332   5.8983   5.9808   6.0253   6.1910   6.2984
     6.3659   6.4055   6.6438   6.6504   6.7124   6.9063   7.0133   7.2667
     7.4695   7.6687   7.7752   8.2674   8.4206   8.5959   8.8951   9.0390
     9.1892   9.3515   9.4462   9.5718

          k = 0.0000-0.0840 0.0000 ( 34678 PWs)   bands (ev):

   -57.8035 -57.8035 -57.5034 -57.4611 -57.3711 -57.3635 -57.2584 -57.2582
   -57.1622 -57.1594 -57.0984 -57.0963 -56.8783 -56.8157 -56.2655 -56.2654
   -34.0876 -34.0876 -34.0656 -34.0655 -33.9757 -33.9757 -33.8778 -33.8448
   -33.7847 -33.7662 -33.7142 -33.7076 -33.6917 -33.6747 -33.6671 -33.6553
   -33.5751 -33.5750 -33.5676 -33.5604 -33.5003 -33.4998 -33.4785 -33.4761
   -33.4536 -33.4459 -33.4430 -33.4426 -33.3824 -33.3801 -33.3536 -33.3506
   -33.3412 -33.3391 -33.2948 -33.2930 -33.1991 -33.1652 -33.1400 -33.0895
   -33.0834 -33.0525 -32.6212 -32.6212 -32.5073 -32.5073 -32.4601 -32.4601
   -24.2774 -21.0538 -17.7024 -17.6905 -17.5344 -17.5337 -17.4176 -17.3994
   -17.2435 -17.2383 -17.1768 -17.1762 -17.1416 -17.1383 -16.9633 -16.9631
   -16.9395 -16.9354 -16.7695 -16.7448 -16.7160 -16.7146 -16.6432 -16.6363
   -16.5503 -16.5047 -16.3767 -16.3751 -16.3308 -16.3294 -16.2500 -16.2492
   -14.8909 -14.8909  -9.8224  -7.5197  -7.4898  -6.0062  -4.9232  -4.9200
    -4.8567  -4.8565  -4.8027  -4.7888  -4.7624  -4.7562  -4.7154  -4.6977
    -4.5262  -4.5076  -4.4936  -4.4911  -4.4226  -4.4211  -4.4166  -4.4138
    -4.2565  -4.2186  -4.1566  -4.1553  -4.1436  -4.1205  -4.0072  -3.9517
    -3.9503  -3.9142  -3.8392  -3.7986  -3.6533  -3.6123  -3.4619  -3.4504
    -3.3032  -3.2891  -3.2314  -3.1519  -3.1342  -3.1029  -2.9726  -2.9700
    -2.9441  -2.8883  -2.8581  -2.8239  -2.7137  -2.6931  -2.6669  -2.6500
    -2.6245  -2.6154  -2.5737  -2.4566  -2.4508  -2.4239  -2.1588  -2.1236
    -2.1010  -2.0498  -2.0135  -1.9825  -1.9331  -1.9324  -1.9266  -1.8782
    -1.8688  -1.8647  -1.8464  -1.7898  -1.7753  -1.7115  -1.6298  -1.6292
    -1.5899  -1.5749  -1.5556  -1.5546  -1.5461  -1.5423  -1.5222  -1.4128
    -1.3740  -1.2634  -1.2510  -1.2222  -1.1278  -1.1220  -1.0987  -1.0927
    -0.6825  -0.6306  -0.5952  -0.5880   0.0147   0.0150   0.0517   0.0520
     1.9088   1.9125   2.0123   2.0141   2.1010   2.1012   2.1068   2.1285
     2.2232   2.2232   2.2286   2.2443   2.3427   2.3836   2.4321   2.4345
     2.5262   2.5309   2.5948   2.5954   2.7498   2.7571   2.7685   2.8249
     2.8317   2.8682   2.9054   2.9479   2.9753   2.9955   3.0569   3.0728
     3.0797   3.2112   3.2561   3.3246   3.3315   3.3331   3.3343   3.4711
     3.6183   3.6210   3.6882   3.7017   3.7287   3.7887   3.7903   3.8715
     3.9239   3.9262   3.9897   3.9902   4.1305   4.4220   4.7949   4.8191
     5.1519   5.1736   5.2893   5.3264   5.3842   5.3842   5.4944   5.5214
     5.5554   5.5727   5.5843   5.6426   5.6605   5.6885   5.7070   5.7071
     5.7468   5.8195   5.8345   5.8528   5.9946   6.0023   6.0378   6.0694
     6.4182   6.4225   6.5537   6.5871   6.8522   6.8561   6.9632   6.9734
     7.4270   7.4954   7.6207   8.1936   8.3352   8.6447   9.0381   9.1278
     9.3532   9.4242   9.6132   9.6633

          k = 0.0253 0.0000 0.0000 ( 34707 PWs)   bands (ev):

   -57.8210 -57.7860 -57.5100 -57.4544 -57.3854 -57.3491 -57.2759 -57.2406
   -57.1784 -57.1431 -57.1150 -57.0796 -56.8835 -56.8104 -56.2831 -56.2478
   -34.2576 -34.1021 -34.0736 -34.0570 -34.0218 -33.9282 -33.8675 -33.8621
   -33.8241 -33.7708 -33.7295 -33.7191 -33.7151 -33.6858 -33.6767 -33.6700
   -33.6462 -33.6232 -33.6128 -33.5488 -33.5224 -33.4572 -33.4564 -33.4363
   -33.4296 -33.4273 -33.3865 -33.3841 -33.3762 -33.3639 -33.3527 -33.3337
   -33.3110 -33.3047 -33.2776 -33.2719 -33.2464 -33.1457 -33.1396 -33.0818
   -33.0380 -32.9377 -32.7017 -32.6353 -32.6076 -32.5057 -32.4140 -32.3059
   -24.2775 -21.0540 -18.1451 -17.9317 -17.7088 -17.5897 -17.4921 -17.4884
   -17.2679 -17.2290 -17.1426 -17.0579 -17.0517 -17.0425 -17.0157 -16.9595
   -16.9147 -16.8956 -16.8191 -16.7850 -16.7014 -16.6063 -16.6045 -16.5200
   -16.5159 -16.5099 -16.4623 -16.3101 -16.2643 -16.2435 -16.1064 -16.0775
   -14.8642 -14.7804  -9.8221  -7.5140  -7.4904  -6.0094  -5.5349  -5.3935
    -5.2471  -5.2359  -5.1852  -4.9855  -4.9347  -4.7788  -4.5786  -4.5660
    -4.5127  -4.4905  -4.4434  -4.4350  -4.3319  -4.1962  -4.1853  -4.1672
    -4.0915  -4.0736  -4.0683  -3.9841  -3.9676  -3.9315  -3.8744  -3.8382
    -3.8311  -3.8077  -3.7712  -3.7279  -3.6991  -3.6185  -3.5787  -3.4923
    -3.4607  -3.4221  -3.3339  -3.2582  -3.2142  -3.1549  -3.1360  -3.0354
    -3.0188  -2.9297  -2.8903  -2.8379  -2.7558  -2.7226  -2.7012  -2.6738
    -2.6495  -2.6120  -2.5046  -2.4999  -2.4479  -2.3766  -2.3584  -2.3144
    -2.2506  -2.2155  -2.2125  -2.1282  -2.0969  -2.0303  -1.9344  -1.8956
    -1.7998  -1.7756  -1.7503  -1.7242  -1.7020  -1.6346  -1.6077  -1.4940
    -1.4835  -1.4729  -1.4292  -1.4073  -1.3589  -1.3384  -1.2711  -1.2538
    -1.2296  -1.1160  -1.0940  -0.9916  -0.9582  -0.8967  -0.8085  -0.7698
    -0.6905  -0.5595  -0.3643  -0.2600  -0.2006  -0.0205   0.0777   0.0787
     1.5384   1.6053   1.8824   1.9024   1.9974   2.0121   2.0601   2.1382
     2.2198   2.2487   2.3192   2.3276   2.3713   2.4198   2.4392   2.4542
     2.4689   2.5383   2.5546   2.6114   2.6763   2.7017   2.7778   2.8312
     2.8472   2.9024   2.9994   3.0051   3.0133   3.0804   3.0906   3.1000
     3.1502   3.1912   3.2078   3.2434   3.2950   3.3135   3.3358   3.3877
     3.3962   3.4364   3.4667   3.4990   3.5962   3.6192   3.8110   3.8993
     4.0393   4.0699   4.0781   4.1710   4.2397   4.4148   4.6389   4.6852
     4.7712   4.9321   4.9436   4.9922   5.0133   5.0370   5.2169   5.4966
     5.5695   5.6420   5.7329   5.7416   5.7897   5.8350   5.9422   5.9555
     5.9791   6.0394   6.0427   6.0745   6.1377   6.1526   6.2455   6.3184
     6.4909   6.6315   6.7415   6.7780   6.8870   7.0438   7.1655   7.3132
     7.5786   8.0359   8.1511   8.3456   8.4010   8.7558   8.8236   8.9223
     8.9667   9.2463   9.2938   9.4220

          k = 0.0253 0.0280 0.0000 ( 34687 PWs)   bands (ev):

   -57.8186 -57.7884 -57.5085 -57.4559 -57.3831 -57.3514 -57.2735 -57.2430
   -57.1761 -57.1455 -57.1127 -57.0820 -56.8823 -56.8117 -56.2807 -56.2501
   -34.2323 -34.1001 -34.0754 -34.0312 -34.0156 -33.9346 -33.8945 -33.8369
   -33.8177 -33.7465 -33.7325 -33.7235 -33.7139 -33.6857 -33.6733 -33.6698
   -33.6447 -33.6065 -33.6042 -33.5420 -33.5310 -33.4816 -33.4551 -33.4449
   -33.4314 -33.4213 -33.4042 -33.3798 -33.3617 -33.3604 -33.3521 -33.3401
   -33.3108 -33.3099 -33.3025 -33.2736 -33.2719 -33.1449 -33.1366 -33.0824
   -33.0423 -32.9658 -32.6760 -32.6334 -32.6095 -32.4996 -32.4202 -32.3332
   -24.2774 -21.0539 -18.0850 -17.8746 -17.6574 -17.5379 -17.4712 -17.4397
   -17.2521 -17.2288 -17.2027 -17.0820 -17.0571 -17.0377 -16.9869 -16.9515
   -16.9228 -16.8583 -16.8378 -16.8169 -16.7456 -16.6574 -16.6264 -16.5377
   -16.5063 -16.4959 -16.4794 -16.3055 -16.2826 -16.2609 -16.1322 -16.1201
   -14.8741 -14.8038  -9.8220  -7.5154  -7.4902  -6.0084  -5.4505  -5.3086
    -5.1680  -5.1561  -5.1071  -4.8708  -4.8592  -4.7254  -4.5665  -4.5193
    -4.4731  -4.4421  -4.4126  -4.3528  -4.3200  -4.2827  -4.2209  -4.1936
    -4.1533  -4.1188  -4.0882  -4.0709  -4.0287  -3.9699  -3.9585  -3.9265
    -3.9093  -3.8541  -3.8410  -3.7543  -3.7345  -3.6791  -3.6738  -3.4788
    -3.4518  -3.3864  -3.3368  -3.2814  -3.1626  -3.1007  -3.0669  -2.9375
    -2.8615  -2.8454  -2.8037  -2.7867  -2.7509  -2.6748  -2.6309  -2.6120
    -2.5880  -2.5732  -2.5470  -2.5156  -2.4541  -2.4063  -2.3497  -2.3234
    -2.2633  -2.2444  -2.1936  -2.1058  -2.0599  -2.0312  -1.9905  -1.9052
    -1.8761  -1.8487  -1.7867  -1.7607  -1.7362  -1.7161  -1.6601  -1.6223
    -1.5650  -1.5064  -1.4793  -1.4623  -1.4140  -1.3742  -1.3229  -1.2291
    -1.2034  -1.1971  -1.0520  -0.9943  -0.9737  -0.9059  -0.8850  -0.8663
    -0.7807  -0.5693  -0.4215  -0.2779  -0.2161   0.0090   0.0508   0.0598
     1.5999   1.7264   1.8951   1.9073   2.0230   2.0401   2.1395   2.1749
     2.2367   2.2812   2.3182   2.3324   2.3822   2.3971   2.4113   2.4344
     2.5117   2.5453   2.5825   2.6143   2.6333   2.7466   2.7969   2.8152
     2.8498   2.8934   2.9801   2.9888   2.9976   3.0029   3.0562   3.0938
     3.1700   3.2258   3.2646   3.2710   3.3030   3.3239   3.3779   3.4287
     3.4619   3.4908   3.5188   3.5349   3.5849   3.6317   3.7663   3.8894
     4.0213   4.0493   4.0982   4.1702   4.2254   4.3643   4.6843   4.7717
     4.8236   4.9420   4.9886   5.0323   5.0416   5.1046   5.2662   5.5271
     5.5659   5.5996   5.6495   5.7282   5.7415   5.8236   5.8828   5.9261
     5.9573   5.9993   6.0256   6.0348   6.0530   6.0868   6.2982   6.3147
     6.4743   6.5518   6.7371   6.7695   6.8168   7.0569   7.0743   7.3333
     7.5301   8.0160   8.1423   8.2251   8.3147   8.5245   8.5740   8.8316
     9.0198   9.2722   9.4024   9.4728

          k = 0.0253 0.0560 0.0000 ( 34699 PWs)   bands (ev):

   -57.8122 -57.7948 -57.5052 -57.4592 -57.3769 -57.3576 -57.2671 -57.2494
   -57.1697 -57.1519 -57.1062 -57.0885 -56.8797 -56.8143 -56.2743 -56.2566
   -34.1624 -34.0948 -34.0805 -33.9987 -33.9675 -33.9606 -33.9519 -33.8018
   -33.7714 -33.7613 -33.7478 -33.7118 -33.7021 -33.6892 -33.6731 -33.6702
   -33.5895 -33.5749 -33.5713 -33.5411 -33.5321 -33.5236 -33.4775 -33.4671
   -33.4497 -33.4361 -33.4048 -33.3789 -33.3741 -33.3584 -33.3579 -33.3520
   -33.3376 -33.3236 -33.3014 -33.2997 -33.2652 -33.1440 -33.1329 -33.0839
   -33.0559 -33.0331 -32.6284 -32.6145 -32.6052 -32.4831 -32.4372 -32.4074
   -24.2774 -21.0538 -17.9179 -17.7180 -17.5237 -17.4380 -17.4166 -17.3958
   -17.3079 -17.2927 -17.1811 -17.1197 -17.0805 -17.0293 -17.0047 -16.9862
   -16.8974 -16.8884 -16.8492 -16.8045 -16.7676 -16.7316 -16.6793 -16.5861
   -16.5727 -16.4647 -16.4303 -16.3221 -16.3171 -16.2808 -16.2456 -16.1816
   -14.8921 -14.8543  -9.8217  -7.5184  -7.4898  -6.0066  -5.2194  -5.0742
    -4.9598  -4.9292  -4.9009  -4.7281  -4.6612  -4.6439  -4.5277  -4.5202
    -4.5007  -4.4917  -4.3902  -4.3510  -4.3457  -4.3121  -4.2837  -4.2670
    -4.2234  -4.2080  -4.1869  -4.1527  -4.0848  -4.0703  -4.0594  -4.0045
    -3.9691  -3.9131  -3.8436  -3.8056  -3.7228  -3.6284  -3.5409  -3.4711
    -3.4291  -3.4109  -3.3738  -3.2055  -3.1687  -3.0459  -2.9929  -2.9721
    -2.9492  -2.8748  -2.8060  -2.7651  -2.7123  -2.6697  -2.6348  -2.5814
    -2.5554  -2.5138  -2.4682  -2.4522  -2.4097  -2.3991  -2.3171  -2.2708
    -2.2564  -2.2238  -2.1694  -2.1332  -2.0882  -2.0745  -2.0105  -1.9972
    -1.9454  -1.9231  -1.8721  -1.8338  -1.8182  -1.7753  -1.7213  -1.6902
    -1.6612  -1.5846  -1.5633  -1.4909  -1.4671  -1.4160  -1.3798  -1.3412
    -1.2554  -1.2277  -1.1567  -1.0924  -1.0660  -0.9668  -0.9413  -0.8697
    -0.8180  -0.7323  -0.5976  -0.4015  -0.0398   0.0010   0.0261   0.0492
     1.7397   1.9154   1.9308   2.0535   2.0604   2.0835   2.1691   2.1800
[...]
    -2.6741  -2.6298  -2.6199  -2.6146  -2.5865  -2.5377  -2.5017  -2.4855
    -2.4850  -2.4282  -2.3832  -2.3659  -2.3312  -2.3001  -2.2583  -2.2553
    -2.2309  -2.1449  -2.1393  -2.1381  -2.0111  -1.9753  -1.8217  -1.7917
    -1.7336  -1.6843  -1.4310  -1.3843  -1.3214  -1.3203  -1.1636  -1.1500
    -1.1429  -1.1412  -1.1160  -1.0850  -1.0387  -0.9001  -0.8872  -0.7557
    -0.7448  -0.7284  -0.6626  -0.6616  -0.0609  -0.0609   0.0767   0.0770
     1.9906   2.0063   2.0476   2.0536   2.0768   2.0792   2.0912   2.0949
     2.3600   2.3722   2.3779   2.3922   2.4550   2.4614   2.5268   2.5437
     2.5621   2.5626   2.6225   2.7278   2.8100   2.8421   2.8529   2.8705
     2.8819   2.9595   3.0346   3.1072   3.1148   3.1664   3.1976   3.2610
     3.2839   3.2935   3.3374   3.3656   3.3989   3.4021   3.4450   3.4786
     3.5615   3.5860   3.6852   3.7314   3.7957   3.8176   3.8199   3.8206
     3.9517   3.9566   3.9761   3.9762   4.2922   4.5595   4.6623   4.6628
     4.7190   4.7413   4.7791   4.7864   4.7881   4.8119   5.0818   5.1092
     5.2323   5.2649   5.6252   5.6370   5.8133   5.8278   5.9424   6.0469
     6.1603   6.2116   6.2180   6.2480   6.3438   6.4117   6.4777   6.5334
     6.5350   6.5440   6.7111   6.7119   6.7666   6.7678   7.0295   7.0649
     7.6415   7.6636   7.8005   7.8101   8.0414   8.0892   8.3344   8.3988
     8.5426   8.5982   8.6864   9.1770

          k =-0.0253 0.0280 0.0000 ( 34687 PWs)   bands (ev):

   -57.8186 -57.7884 -57.5086 -57.4559 -57.3831 -57.3515 -57.2736 -57.2430
   -57.1761 -57.1455 -57.1127 -57.0821 -56.8824 -56.8118 -56.2809 -56.2503
   -34.2323 -34.1001 -34.0754 -34.0312 -34.0156 -33.9346 -33.8945 -33.8369
   -33.8178 -33.7465 -33.7325 -33.7236 -33.7139 -33.6858 -33.6734 -33.6698
   -33.6447 -33.6065 -33.6043 -33.5421 -33.5310 -33.4816 -33.4551 -33.4450
   -33.4314 -33.4213 -33.4043 -33.3798 -33.3618 -33.3605 -33.3521 -33.3401
   -33.3108 -33.3100 -33.3026 -33.2737 -33.2719 -33.1450 -33.1367 -33.0825
   -33.0424 -32.9659 -32.6761 -32.6335 -32.6096 -32.4998 -32.4204 -32.3334
   -24.2774 -21.0539 -18.0849 -17.8746 -17.6573 -17.5378 -17.4712 -17.4395
   -17.2521 -17.2291 -17.2027 -17.0820 -17.0573 -17.0377 -16.9874 -16.9515
   -16.9228 -16.8582 -16.8378 -16.8165 -16.7446 -16.6573 -16.6266 -16.5379
   -16.5062 -16.4956 -16.4794 -16.3054 -16.2825 -16.2609 -16.1321 -16.1200
   -14.8738 -14.8035  -9.8220  -7.5154  -7.4902  -6.0084  -5.4504  -5.3086
    -5.1677  -5.1557  -5.1071  -4.8711  -4.8593  -4.7261  -4.5654  -4.5197
    -4.4730  -4.4421  -4.4131  -4.3528  -4.3202  -4.2826  -4.2233  -4.1933
    -4.1536  -4.1192  -4.0884  -4.0710  -4.0278  -3.9700  -3.9581  -3.9272
    -3.9088  -3.8540  -3.8425  -3.7542  -3.7347  -3.6793  -3.6728  -3.4772
    -3.4505  -3.3841  -3.3350  -3.2824  -3.1620  -3.1007  -3.0669  -2.9386
    -2.8624  -2.8420  -2.8046  -2.7870  -2.7517  -2.6746  -2.6310  -2.6093
    -2.5909  -2.5723  -2.5470  -2.5160  -2.4558  -2.4056  -2.3478  -2.3246
    -2.2615  -2.2442  -2.1948  -2.1082  -2.0602  -2.0309  -1.9901  -1.9103
    -1.8735  -1.8509  -1.7898  -1.7593  -1.7372  -1.7147  -1.6600  -1.6226
    -1.5618  -1.5036  -1.4793  -1.4602  -1.4153  -1.3744  -1.3248  -1.2293
    -1.2062  -1.1983  -1.0522  -0.9917  -0.9707  -0.9083  -0.8848  -0.8632
    -0.7813  -0.5695  -0.4214  -0.2779  -0.2159   0.0091   0.0510   0.0600
     1.5999   1.7264   1.8950   1.9076   2.0231   2.0417   2.1402   2.1768
     2.2393   2.2802   2.3168   2.3282   2.3832   2.3974   2.4111   2.4362
     2.5112   2.5457   2.5823   2.6134   2.6335   2.7463   2.7921   2.8156
     2.8518   2.8933   2.9791   2.9877   2.9969   3.0018   3.0570   3.0921
     3.1718   3.2282   3.2651   3.2713   3.3030   3.3239   3.3780   3.4250
     3.4639   3.4927   3.5186   3.5350   3.5836   3.6318   3.7664   3.8894
     4.0213   4.0491   4.0983   4.1702   4.2248   4.3642   4.6843   4.7686
     4.8255   4.9415   4.9874   5.0314   5.0419   5.1039   5.2652   5.5267
     5.5647   5.6001   5.6498   5.7279   5.7414   5.8221   5.8885   5.9281
     5.9560   5.9986   6.0245   6.0349   6.0533   6.0864   6.2982   6.3144
     6.4759   6.5521   6.7368   6.7693   6.8168   7.0583   7.0781   7.3307
     7.5299   8.0160   8.1465   8.2200   8.3143   8.5244   8.5717   8.8327
     9.0207   9.2701   9.4054   9.4702

          k =-0.0253 0.0560 0.0000 ( 34699 PWs)   bands (ev):

   -57.8123 -57.7948 -57.5053 -57.4593 -57.3770 -57.3577 -57.2671 -57.2495
   -57.1697 -57.1519 -57.1063 -57.0885 -56.8798 -56.8144 -56.2744 -56.2568
   -34.1624 -34.0948 -34.0805 -33.9987 -33.9675 -33.9606 -33.9519 -33.8018
   -33.7714 -33.7613 -33.7479 -33.7119 -33.7021 -33.6893 -33.6732 -33.6702
   -33.5893 -33.5749 -33.5716 -33.5411 -33.5320 -33.5236 -33.4775 -33.4672
   -33.4498 -33.4362 -33.4048 -33.3789 -33.3742 -33.3584 -33.3579 -33.3520
   -33.3377 -33.3237 -33.3015 -33.2998 -33.2653 -33.1441 -33.1331 -33.0840
   -33.0560 -33.0332 -32.6285 -32.6146 -32.6054 -32.4832 -32.4373 -32.4075
   -24.2774 -21.0538 -17.9177 -17.7180 -17.5235 -17.4381 -17.4166 -17.3958
   -17.3074 -17.2928 -17.1811 -17.1197 -17.0811 -17.0292 -17.0047 -16.9879
   -16.8974 -16.8882 -16.8482 -16.8024 -16.7681 -16.7315 -16.6800 -16.5858
   -16.5727 -16.4647 -16.4302 -16.3220 -16.3170 -16.2807 -16.2456 -16.1815
   -14.8918 -14.8540  -9.8217  -7.5184  -7.4898  -6.0066  -5.2193  -5.0742
    -4.9587  -4.9287  -4.9009  -4.7277  -4.6615  -4.6449  -4.5283  -4.5226
    -4.4995  -4.4912  -4.3922  -4.3521  -4.3455  -4.3119  -4.2816  -4.2668
    -4.2236  -4.2086  -4.1862  -4.1531  -4.0846  -4.0719  -4.0597  -4.0055
    -3.9696  -3.9132  -3.8439  -3.8048  -3.7227  -3.6271  -3.5422  -3.4674
    -3.4276  -3.4090  -3.3715  -3.2065  -3.1706  -3.0451  -2.9926  -2.9712
    -2.9477  -2.8756  -2.8056  -2.7652  -2.7130  -2.6698  -2.6357  -2.5805
    -2.5553  -2.5134  -2.4685  -2.4529  -2.4092  -2.3996  -2.3169  -2.2719
    -2.2564  -2.2252  -2.1699  -2.1345  -2.0876  -2.0767  -2.0089  -1.9964
    -1.9480  -1.9255  -1.8754  -1.8348  -1.8156  -1.7752  -1.7190  -1.6919
    -1.6586  -1.5837  -1.5631  -1.4875  -1.4661  -1.4194  -1.3806  -1.3397
    -1.2557  -1.2273  -1.1553  -1.0920  -1.0657  -0.9667  -0.9409  -0.8708
    -0.8182  -0.7316  -0.5974  -0.4017  -0.0397   0.0012   0.0263   0.0494
     1.7397   1.9161   1.9307   2.0536   2.0600   2.0856   2.1716   2.1806
     2.2547   2.2724   2.2961   2.3106   2.3536   2.3979   2.4280   2.5114
     2.5624   2.5820   2.6495   2.6652   2.6824   2.7238   2.7819   2.7927
     2.8095   2.8262   2.8758   2.8847   2.9926   3.0623   3.1254   3.1454
     3.2025   3.2138   3.2464   3.2772   3.3269   3.3666   3.4183   3.4405
     3.5128   3.5389   3.6385   3.6668   3.7004   3.7359   3.7573   3.8231
     3.9405   3.9788   4.0150   4.1387   4.2095   4.3750   4.7782   4.8501
     4.9929   5.0275   5.1025   5.1196   5.1431   5.2218   5.3298   5.4265
     5.4445   5.5022   5.5996   5.6300   5.7204   5.7327   5.7964   5.8268
     5.8814   5.9089   5.9537   6.0164   6.0511   6.2215   6.2504   6.3591
     6.4050   6.4436   6.6519   6.6574   6.7467   6.9062   7.0396   7.2896
     7.3583   7.7141   7.8361   8.0860   8.3660   8.5603   8.6307   8.9017
     9.0276   9.0652   9.2838   9.3887

          k =-0.0506 0.0280 0.0000 ( 34685 PWs)   bands (ev):

   -57.8186 -57.7884 -57.5086 -57.4559 -57.3831 -57.3515 -57.2735 -57.2430
   -57.1762 -57.1455 -57.1127 -57.0821 -56.8824 -56.8118 -56.2809 -56.2503
   -34.2329 -34.1001 -34.0754 -34.0314 -34.0142 -33.9346 -33.8946 -33.8382
   -33.8178 -33.7492 -33.7325 -33.7233 -33.7130 -33.6874 -33.6803 -33.6698
   -33.6454 -33.6030 -33.5907 -33.5314 -33.5299 -33.4819 -33.4549 -33.4425
   -33.4314 -33.4215 -33.4073 -33.3863 -33.3710 -33.3597 -33.3507 -33.3401
   -33.3108 -33.3101 -33.3027 -33.2736 -33.2718 -33.1471 -33.1368 -33.0827
   -33.0424 -32.9659 -32.6760 -32.6354 -32.6087 -32.4998 -32.4204 -32.3334
   -24.2774 -21.0538 -18.0262 -17.7760 -17.5642 -17.4748 -17.4698 -17.3966
   -17.3384 -17.2538 -17.2381 -17.1065 -17.0879 -17.0601 -17.0565 -16.9981
   -16.9794 -16.9647 -16.8678 -16.7574 -16.7154 -16.6679 -16.5837 -16.5669
   -16.5283 -16.4885 -16.4587 -16.3043 -16.2712 -16.2619 -16.1320 -16.1210
   -14.8719 -14.8035  -9.8203  -7.5158  -7.4898  -6.0075  -5.4339  -5.0151
    -4.9413  -4.9287  -4.8587  -4.8362  -4.8147  -4.7755  -4.6391  -4.5756
    -4.5599  -4.5060  -4.4485  -4.3562  -4.3092  -4.2243  -4.1726  -4.1530
    -4.1335  -4.1243  -4.0517  -4.0074  -3.9758  -3.9461  -3.9067  -3.8812
    -3.8594  -3.8265  -3.7791  -3.7213  -3.7035  -3.5853  -3.4500  -3.4171
    -3.3898  -3.3301  -3.3013  -3.2533  -3.1843  -3.1014  -3.0583  -3.0027
    -2.9449  -2.9204  -2.8733  -2.8646  -2.8063  -2.7591  -2.7360  -2.6853
    -2.6468  -2.6210  -2.5866  -2.5377  -2.5020  -2.4781  -2.4345  -2.4037
    -2.3415  -2.3100  -2.2316  -2.2010  -2.1345  -2.1037  -2.0906  -2.0467
    -1.9967  -1.9328  -1.9044  -1.8727  -1.8454  -1.7764  -1.6906  -1.6356
    -1.6001  -1.5689  -1.4961  -1.4673  -1.4271  -1.4064  -1.3200  -1.2673
    -1.1832  -1.1441  -1.0337  -1.0188  -0.9503  -0.9232  -0.8893  -0.8545
    -0.8153  -0.6506  -0.4527  -0.3984  -0.2028  -0.0201   0.0106   0.0242
     1.5843   1.7905   1.9239   1.9406   1.9607   2.0359   2.0700   2.1478
     2.2440   2.2592   2.3011   2.3612   2.4107   2.4525   2.4539   2.5219
     2.5373   2.5802   2.6084   2.6580   2.7453   2.7924   2.8273   2.8376
     2.8750   2.9254   2.9498   3.0128   3.0211   3.0670   3.1421   3.1656
     3.2316   3.2638   3.2956   3.3135   3.3782   3.4008   3.4431   3.4780
     3.4979   3.5316   3.5451   3.5951   3.6392   3.6886   3.7391   3.8238
     3.9294   4.0306   4.1414   4.1488   4.2836   4.3501   4.5278   4.6353
     4.6582   4.6842   4.8499   4.8973   4.9979   5.3126   5.3449   5.4727
     5.5142   5.5776   5.6580   5.7114   5.7365   5.7532   5.8841   5.9295
     5.9819   6.0238   6.2504   6.2718   6.3050   6.3731   6.4337   6.5137
     6.5429   6.6147   6.6876   6.7301   6.8270   6.9560   7.0291   7.2857
     7.4228   7.6877   7.8097   8.0820   8.3189   8.3956   8.5238   8.9222
     9.0868   9.1631   9.3653   9.4612

          k =-0.0506 0.0560 0.0000 ( 34596 PWs)   bands (ev):

   -57.8123 -57.7948 -57.5053 -57.4593 -57.3770 -57.3577 -57.2671 -57.2495
   -57.1698 -57.1519 -57.1063 -57.0885 -56.8798 -56.8144 -56.2744 -56.2568
   -34.1630 -34.0948 -34.0805 -33.9975 -33.9677 -33.9607 -33.9515 -33.8018
   -33.7720 -33.7618 -33.7479 -33.7107 -33.7021 -33.6898 -33.6756 -33.6724
   -33.5865 -33.5760 -33.5717 -33.5344 -33.5316 -33.5133 -33.4802 -33.4609
   -33.4496 -33.4361 -33.4049 -33.3790 -33.3778 -33.3658 -33.3579 -33.3541
   -33.3379 -33.3249 -33.3015 -33.2996 -33.2651 -33.1453 -33.1332 -33.0847
   -33.0560 -33.0331 -32.6296 -32.6142 -32.6052 -32.4832 -32.4373 -32.4074
   -24.2773 -21.0536 -17.8693 -17.6249 -17.4493 -17.4273 -17.4097 -17.3374
   -17.2986 -17.2658 -17.1936 -17.1612 -17.0890 -17.0700 -17.0043 -16.9832
   -16.9809 -16.9116 -16.9016 -16.8352 -16.7973 -16.7706 -16.7042 -16.6586
   -16.5550 -16.4543 -16.4112 -16.3125 -16.3112 -16.2833 -16.2473 -16.1811
   -14.8906 -14.8544  -9.8200  -7.5186  -7.4894  -6.0058  -5.2112  -4.7805
    -4.7293  -4.7190  -4.6801  -4.6452  -4.6346  -4.5980  -4.4918  -4.4749
    -4.4498  -4.4344  -4.3429  -4.2900  -4.2738  -4.2680  -4.2258  -4.2056
    -4.1804  -4.1686  -4.1552  -4.1267  -4.0746  -4.0378  -4.0269  -3.9962
    -3.9406  -3.8821  -3.8165  -3.7807  -3.6787  -3.6497  -3.5063  -3.4779
    -3.4609  -3.3946  -3.3766  -3.2023  -3.1175  -3.0738  -3.0275  -2.9842
    -2.9679  -2.9107  -2.8921  -2.8542  -2.8146  -2.7655  -2.7110  -2.7073
    -2.6348  -2.6178  -2.5877  -2.5160  -2.4838  -2.4678  -2.4499  -2.4274
    -2.3971  -2.3534  -2.2841  -2.2717  -2.2474  -2.2217  -2.1758  -2.1626
    -2.0902  -2.0497  -2.0200  -1.9793  -1.9329  -1.8513  -1.7839  -1.7671
    -1.6990  -1.5990  -1.5251  -1.4812  -1.4460  -1.3684  -1.3327  -1.2232
    -1.1711  -1.1327  -1.0893  -1.0268  -0.9844  -0.9193  -0.9066  -0.8282
    -0.7959  -0.7812  -0.6515  -0.4618  -0.0514  -0.0143  -0.0009   0.0552
     1.7426   1.9398   1.9597   2.0223   2.0778   2.1171   2.1273   2.1807
     2.2272   2.2742   2.3907   2.4267   2.4354   2.4610   2.4799   2.5056
     2.6005   2.6165   2.6490   2.6715   2.7229   2.7831   2.8002   2.8354
     2.8977   2.9101   2.9499   2.9809   3.0301   3.0695   3.1941   3.2218
     3.2380   3.2705   3.3171   3.3316   3.3746   3.3923   3.4093   3.4714
     3.5480   3.5857   3.6132   3.6923   3.7442   3.7743   3.7841   3.8003
     3.8425   3.9750   4.0272   4.1537   4.2132   4.4599   4.6517   4.6815
     4.7541   4.7569   4.9004   5.0067   5.0782   5.1450   5.2149   5.2405
     5.3111   5.4694   5.5665   5.6369   5.6899   5.7430   5.8341   5.9747
     6.0151   6.1194   6.1691   6.2116   6.2597   6.3076   6.4691   6.4863
     6.5524   6.5949   6.6426   6.6854   6.8167   6.8521   6.9612   7.3050
     7.3318   7.7263   7.7595   8.0182   8.0958   8.1760   8.5794   8.6732
     8.8351   8.9097   9.1446   9.3638

     the Fermi energy is     0.8688 ev

!    total energy              =   -3044.95935300 Ry
     Harris-Foulkes estimate   =   -3044.95934849 Ry
     estimated scf accuracy    <       0.00000057 Ry

     The total energy is the sum of the following terms:

     one-electron contribution =  -40855.52293856 Ry
     hartree contribution      =   20500.10394530 Ry
     xc contribution           =    -557.16579447 Ry
     ewald contribution        =   17867.62564011 Ry
     smearing contrib. (-TS)   =      -0.00020538 Ry

     total magnetization       =     0.00 Bohr mag/cell
     absolute magnetization    =     0.00 Bohr mag/cell

     convergence has been achieved in  10 iterations

     Forces acting on atoms (Ry/au):


     negative rho (up, down):  1.158E-02 1.158E-02
     atom    1 type  1   force =    -0.00004506    0.00028973   -0.13599364
     atom    2 type  2   force =     0.00012438   -0.00010267    0.07512671
     atom    3 type  1   force =     0.00127032    0.00110676   -0.05981325
     atom    4 type  2   force =     0.00662911   -0.00007774    0.00965628
     atom    5 type  1   force =    -0.00126613   -0.00016693    0.00000653
     atom    6 type  2   force =    -0.00177828   -0.00354158   -0.00903451
     atom    7 type  1   force =     0.01096022    0.00788544   -0.01692268
     atom    8 type  2   force =     0.00035870   -0.00012259    0.00066166
     atom    9 type  1   force =     0.00012337    0.00035025   -0.13607251
     atom   10 type  2   force =     0.00017036   -0.00002809    0.07509877
     atom   11 type  1   force =     0.00128853   -0.00089091   -0.05995428
     atom   12 type  2   force =     0.00611812   -0.00010982    0.00853573
     atom   13 type  1   force =     0.00014750   -0.00014283   -0.00032605
     atom   14 type  2   force =    -0.00194728    0.00299925   -0.00912415
     atom   15 type  1   force =     0.01119984   -0.00769984   -0.01728685
     atom   16 type  2   force =     0.00661670    0.00012538    0.00986962
     atom   17 type  2   force =     0.00001112   -0.00003375    0.07988041
     atom   18 type  1   force =    -0.00006622    0.00019177    0.11908283
     atom   19 type  2   force =     0.00037891    0.00017629   -0.06816503
     atom   20 type  2   force =    -0.06266936    0.00005890   -0.03214985
     atom   21 type  2   force =     0.06268427    0.00013596   -0.03262675
     atom   22 type  1   force =    -0.00051744   -0.00012072    0.06425630
     atom   23 type  2   force =     0.00014875    0.00060049   -0.00273184
     atom   24 type  2   force =     0.00054022    0.00008401   -0.02250910
     atom   25 type  2   force =    -0.00648175   -0.00026877    0.00823049
     atom   26 type  1   force =    -0.00009758   -0.00006530    0.00243405
     atom   27 type  2   force =     0.00255237   -0.00145716   -0.00233721
     atom   28 type  2   force =    -0.00005440   -0.00004111   -0.00152813
     atom   29 type  2   force =     0.00007906   -0.00005862   -0.00055881
     atom   30 type  1   force =     0.00581272    0.00036681   -0.00088213
     atom   31 type  2   force =    -0.00234119    0.00164973    0.00129692
     atom   32 type  2   force =     0.00168599   -0.00009257    0.00203414
     atom   33 type  2   force =     0.00003793    0.00011657    0.07995987
     atom   34 type  1   force =    -0.00008011    0.00026660    0.11906827
     atom   35 type  2   force =     0.00036588    0.00029697   -0.06809002
     atom   36 type  2   force =    -0.06265897    0.00007051   -0.03230602
     atom   37 type  2   force =     0.06283798    0.00015499   -0.03209397
     atom   38 type  1   force =    -0.00068278    0.00000296    0.06415158
     atom   39 type  2   force =     0.00018314   -0.00080013   -0.00268528
     atom   40 type  2   force =     0.00064077   -0.00231908   -0.02264802
     atom   41 type  2   force =    -0.00623624   -0.00032199    0.00754379
     atom   42 type  1   force =    -0.00009047   -0.00009112    0.00241160
     atom   43 type  2   force =     0.00257011    0.00141693   -0.00240974
     atom   44 type  2   force =     0.00034923   -0.00012312   -0.00069510
     atom   45 type  2   force =    -0.00019891   -0.00007018   -0.00095295
     atom   46 type  1   force =    -0.01913157    0.00042787   -0.00522156
     atom   47 type  2   force =    -0.00222791   -0.00150112    0.00136665
     atom   48 type  2   force =    -0.00153694   -0.00042304   -0.02637027
     atom   49 type  2   force =    -0.04219130    0.00079462    0.18424458
     atom   50 type  3   force =    -0.02984347    0.00181104   -0.03402961
     atom   51 type  3   force =     0.05625775   -0.00070904   -0.07939747

     Total force =     0.430423     Total SCF correction =     0.001957
 !ASE

     Writing output data file calc.save
 
     init_run     :     53.00s CPU     67.93s WALL (       1 calls)
     electrons    :   2022.43s CPU   2451.45s WALL (       1 calls)
     forces       :     40.19s CPU     42.19s WALL (       1 calls)

     Called by init_run:
     wfcinit      :     45.49s CPU     58.97s WALL (       1 calls)
     potinit      :      1.20s CPU      1.86s WALL (       1 calls)

     Called by electrons:
     c_bands      :   1744.49s CPU   2102.64s WALL (      10 calls)
     sum_band     :    233.47s CPU    297.77s WALL (      10 calls)
     v_of_rho     :     10.63s CPU     13.44s WALL (      11 calls)
     newd         :     37.32s CPU     41.39s WALL (      11 calls)
     mix_rho      :      0.37s CPU      0.57s WALL (      10 calls)
     vdW_energy   :      1.96s CPU      2.37s WALL (      12 calls)
     vdW_ffts     :      2.66s CPU      3.61s WALL (      24 calls)
     vdW_v        :      1.13s CPU      1.32s WALL (      12 calls)

     Called by c_bands:
     init_us_2    :      5.87s CPU      6.41s WALL (     880 calls)
     cegterg      :   1708.86s CPU   2064.54s WALL (     400 calls)

     Called by *egterg:
     h_psi        :    736.27s CPU   1014.83s WALL (    1867 calls)
     s_psi        :     92.25s CPU     96.60s WALL (    1867 calls)
     g_psi        :      4.93s CPU      5.07s WALL (    1427 calls)
     cdiaghg      :    541.35s CPU    553.99s WALL (    1827 calls)

     Called by h_psi:
     add_vuspsi   :     92.79s CPU     96.96s WALL (    1867 calls)

     General routines
     calbec       :    142.24s CPU    145.34s WALL (    2307 calls)
     fft          :      5.77s CPU      7.69s WALL (     948 calls)
     ffts         :      0.05s CPU      0.07s WALL (      42 calls)
     fftw         :    470.76s CPU    800.42s WALL (  724224 calls)
     interpolate  :      0.31s CPU      0.51s WALL (      42 calls)
     davcio       :      0.17s CPU      4.27s WALL (      40 calls)
 
     Parallel routines
     fft_scatter  :    225.90s CPU    437.69s WALL (  725214 calls)
 
     PWSCF        : 35m16.66s CPU    42m47.57s WALL

 
   This run was terminated on:   6:43:32  10Mar2018            

=------------------------------------------------------------------------------=
   JOB DONE.
=------------------------------------------------------------------------------=
