  python dir          : /home/vossj/suncat/lib/python2.7/site-packages/espresso
  espresso dir        : /home/vossj/suncat/esdld/espresso-dynpy-beef/bin
  pseudo dir          : /home/alatimer/bin/psp/esp_psp_w_gbrvRu/
  ase-espresso py git : ffa2778-git



     Program PWSCF v.5.1rc2 (svn rev. ) starts on 12Feb2018 at 14: 7:29 

     This program is part of the open-source Quantum ESPRESSO suite
     for quantum simulation of materials; please cite
         "P. Giannozzi et al., J. Phys.:Condens. Matter 21 395502 (2009);
          URL http://www.quantum-espresso.org", 
     in publications or presentations arising from this work. More details at
     http://www.quantum-espresso.org/quote

     Parallel version (MPI), running on    16 processors
     R & G space division:  proc/nbgrp/npool/nimage =      16
     Reading input from pw.inp
     Message from routine read_cards :
     DEPRECATED: no units specified in CELL_PARAMETERS card

     Current dimensions of program PWSCF are:
     Max number of different atomic species (ntypx) = 10
     Max number of k-points (npk) =  40000
     Max angular momentum in pseudopotentials (lmaxx) =  3

     **************************************************************************
     Initializing libbeef V0.1.1 with the BEEF-vdW functional.
     Citation: Wellendorff et al., PRB 85, 235149 (2012).
     **************************************************************************


     IMPORTANT: XC functional enforced from input :
     Exchange-correlation      = BEEF ( 1  4 27 13 2)
     Any further DFT definition will be discarded
     Please, verify this is what you really want


     Subspace diagonalization in iterative solution of the eigenvalue problem:
     a serial algorithm will be used

 
     Parallelization info
     --------------------
     sticks:   dense  smooth     PW     G-vecs:    dense   smooth      PW
     Min         281     112     31                68535    17318    2565
     Max         282     113     32                68545    17369    2582
     Sum        4501    1795    503              1096637   277353   41113
 
     Generating pointlists ...
     new r_m :   0.4125 (alat units)  0.7795 (a.u.) for type    1
     new r_m :   0.3874 (alat units)  0.7321 (a.u.) for type    2
     new r_m :   0.4125 (alat units)  0.7795 (a.u.) for type    3
     new r_m :   0.3874 (alat units)  0.7321 (a.u.) for type    4


     bravais-lattice index     =            0
     lattice parameter (alat)  =       1.8897  a.u.
     unit-cell volume          =    7990.9933 (a.u.)^3
     number of atoms/cell      =           54
     number of atomic types    =            4
     number of electrons       =       398.00
     number of Kohn-Sham states=          299
     kinetic-energy cutoff     =      40.4243  Ry
     charge density cutoff     =     404.2426  Ry
     convergence threshold     =      7.3E-07
     mixing beta               =       0.1000
     number of iterations used =           10  plain     mixing
     Exchange-correlation      = BEEF ( 1  4 27 13 2)
     nstep                     =           50


     celldm(1)=   1.889726  celldm(2)=   0.000000  celldm(3)=   0.000000
     celldm(4)=   0.000000  celldm(5)=   0.000000  celldm(6)=   0.000000

     crystal axes: (cart. coord. in units of alat)
               a(1) = (   6.590708   0.000000   0.000000 )  
               a(2) = (   0.000000   5.950229   0.000000 )  
               a(3) = (   0.000000   0.000000  30.195235 )  

     reciprocal axes: (cart. coord. in units 2 pi/alat)
               b(1) = (  0.151729  0.000000  0.000000 )  
               b(2) = (  0.000000  0.168061  0.000000 )  
               b(3) = (  0.000000  0.000000  0.033118 )  


     PseudoPot. # 1 for Ti read from file:
     /home/alatimer/bin/psp/esp_psp_w_gbrvRu/Ti.UPF
     MD5 check sum: 8e4df49b7f0d34bbd5052bf3f5ea0213
     Pseudo is Ultrasoft, Zval = 12.0
     Generated by new atomic code, or converted to UPF format
     Using radial grid of  851 points,  6 beta functions with: 
                l(1) =   0
                l(2) =   0
                l(3) =   1
                l(4) =   1
                l(5) =   2
                l(6) =   2
     Q(r) pseudized with  8 coefficients,  rinner =    1.000   1.000   1.000
                                                       1.000   1.000

     PseudoPot. # 2 for  O read from file:
     /home/alatimer/bin/psp/esp_psp_w_gbrvRu/O.UPF
     MD5 check sum: e057bbcf3229fb5d8c36c0c92f9568b4
     Pseudo is Ultrasoft + core correction, Zval =  6.0
     Generated using "atomic" code by A. Dal Corso  v.5.0.2 svn rev. 9415
     Using radial grid of 1095 points,  4 beta functions with: 
                l(1) =   0
                l(2) =   0
                l(3) =   1
                l(4) =   1
     Q(r) pseudized with 0 coefficients 


     PseudoPot. # 3 for  C read from file:
     /home/alatimer/bin/psp/esp_psp_w_gbrvRu/C.UPF
     MD5 check sum: ab446d787031eba755f1d5ee46644bb0
     Pseudo is Ultrasoft + core correction, Zval =  4.0
     Generated using "atomic" code by A. Dal Corso  v.5.0.2 svn rev. 9415
     Using radial grid of 1073 points,  4 beta functions with: 
                l(1) =   0
                l(2) =   0
                l(3) =   1
                l(4) =   1
     Q(r) pseudized with 0 coefficients 


     PseudoPot. # 4 for  H read from file:
     /home/alatimer/bin/psp/esp_psp_w_gbrvRu/H.UPF
     MD5 check sum: bd57da0722753ddfd9833a65b40bb853
     Pseudo is Ultrasoft, Zval =  1.0
     Generated using "atomic" code by A. Dal Corso  v.5.0.2 svn rev. 9415
     Using radial grid of  929 points,  2 beta functions with: 
                l(1) =   0
                l(2) =   0
     Q(r) pseudized with 0 coefficients 


     vdW kernel table read from file vdW_kernel_table
     MD5 check sum: 095c7af220d748ca6e76c0b4c6cfb241

     atomic species   valence    mass     pseudopotential
        Ti1           12.00    47.88000     Ti( 1.00)
        O1             6.00    15.99940      O( 1.00)
        C1             4.00    12.01100      C( 1.00)
        H1             1.00     1.00794      H( 1.00)

     Starting magnetic structure 
     atomic species   magnetization
        Ti1          0.250
        O1           0.500
        C1           0.750
        H1           0.000

     No symmetry found



   Cartesian axes

     site n.     atom                  positions (alat units)
         1           Ti1 tau(   1) = (   1.6476770   0.7437786   2.6545865  )
         2           O1  tau(   2) = (   1.6476770   2.2313359   3.9361215  )
         3           Ti1 tau(   3) = (   1.6476770   2.2313359   5.9499405  )
         4           O1  tau(   4) = (   0.3661420   0.7437786   5.9499405  )
         5           Ti1 tau(   5) = (   1.7592931   0.7557636   9.1813031  )
         6           O1  tau(   6) = (   1.6162490   2.2572048  10.5951269  )
         7           Ti1 tau(   7) = (   1.5595004   2.2680265  12.4668274  )
         8           O1  tau(   8) = (   0.3709531   0.7738127  12.6996540  )
         9           Ti1 tau(   9) = (   1.6476770   3.7188931   2.6545865  )
        10           O1  tau(  10) = (   1.6476770   5.2064503   3.9361215  )
        11           Ti1 tau(  11) = (   1.6476770   5.2064503   5.9499405  )
        12           O1  tau(  12) = (   0.3661420   3.7188931   5.9499405  )
        13           Ti1 tau(  13) = (   1.7607536   3.7112867   9.1949733  )
        14           O1  tau(  14) = (   1.6133076   5.2250699  10.5465640  )
        15           Ti1 tau(  15) = (   1.6492307   5.2431137  12.3448001  )
        16           O1  tau(  16) = (   0.3719744   3.7598389  12.7007434  )
        17           O1  tau(  17) = (   1.6476770   2.2313359   1.3730516  )
        18           Ti1 tau(  18) = (   4.9430310   2.2313359   2.6545865  )
        19           O1  tau(  19) = (   4.9430310   2.2313359   4.6684056  )
        20           O1  tau(  20) = (   6.2245660   0.7437786   2.6545865  )
        21           O1  tau(  21) = (   3.6614961   0.7437786   2.6545865  )
        22           Ti1 tau(  22) = (   4.9430310   0.7437786   5.9499405  )
        23           O1  tau(  23) = (   1.6387103   2.2391978   8.0037664  )
        24           O1  tau(  24) = (   4.9430310   2.2313359   7.2314755  )
        25           O1  tau(  25) = (   2.9292120   0.7437786   5.9499405  )
        26           Ti1 tau(  26) = (   5.0158092   2.2383949   9.3973727  )
        27           O1  tau(  27) = (   4.9391445   2.2276729  11.2675731  )
        28           O1  tau(  28) = (   6.2094020   0.7514556   9.2742047  )
        29           O1  tau(  29) = (   3.6131301   0.7515640   9.2682932  )
        30           Ti1 tau(  30) = (   4.8940083   0.8207741  12.7348365  )
        31           O1  tau(  31) = (   4.8487174   2.2703822  13.8475395  )
        32           O1  tau(  32) = (   2.8766274   0.7418004  12.6316555  )
        33           O1  tau(  33) = (   1.6476770   5.2064503   1.3730516  )
        34           Ti1 tau(  34) = (   4.9430310   5.2064503   2.6545865  )
        35           O1  tau(  35) = (   4.9430310   5.2064503   4.6684056  )
        36           O1  tau(  36) = (   6.2245660   3.7188931   2.6545865  )
        37           O1  tau(  37) = (   3.6614961   3.7188931   2.6545865  )
        38           Ti1 tau(  38) = (   4.9430310   3.7188931   5.9499405  )
        39           O1  tau(  39) = (   1.6418458   5.2133935   8.0066417  )
        40           O1  tau(  40) = (   4.9430310   5.2064503   7.2314755  )
        41           O1  tau(  41) = (   2.9292120   3.7188931   5.9499405  )
        42           Ti1 tau(  42) = (   5.0218241   5.2139137   9.3870600  )
        43           O1  tau(  43) = (   4.9399496   5.2040061  11.2598200  )
        44           O1  tau(  44) = (   6.2073000   3.7245411   9.2731052  )
        45           O1  tau(  45) = (   3.6137513   3.7232133   9.2682466  )
        46           Ti1 tau(  46) = (   4.8936935   3.8094630  12.7397413  )
        47           O1  tau(  47) = (   4.9051259   5.2510468  13.8339921  )
        48           O1  tau(  48) = (   2.8743370   3.7938830  12.6403791  )
        49           C1  tau(  49) = (   1.0587210   2.2268971  15.9066084  )
        50           O1  tau(  50) = (   1.9217182   2.2355032  14.7378010  )
        51           H1  tau(  51) = (   0.0310076   2.2200215  15.5603933  )
        52           H1  tau(  52) = (   2.8355400   2.2288152  14.9543747  )
        53           H1  tau(  53) = (   1.2478062   1.3326534  16.5039879  )
        54           H1  tau(  54) = (   1.2341453   3.1195140  16.5098874  )

     number of k points=    40  Fermi-Dirac smearing, width (Ry)=  0.0073
                       cart. coord. in units 2pi/alat
        k(    1) = (   0.0000000   0.0000000   0.0000000), wk =   0.0277778
        k(    2) = (   0.0000000   0.0280101   0.0000000), wk =   0.0555556
        k(    3) = (   0.0000000   0.0560203   0.0000000), wk =   0.0555556
        k(    4) = (   0.0000000  -0.0840304   0.0000000), wk =   0.0277778
        k(    5) = (   0.0252881   0.0000000   0.0000000), wk =   0.0555556
        k(    6) = (   0.0252881   0.0280101   0.0000000), wk =   0.0555556
        k(    7) = (   0.0252881   0.0560203   0.0000000), wk =   0.0555556
        k(    8) = (   0.0252881  -0.0840304   0.0000000), wk =   0.0555556
        k(    9) = (   0.0505763   0.0000000   0.0000000), wk =   0.0555556
        k(   10) = (   0.0505763   0.0280101   0.0000000), wk =   0.0555556
        k(   11) = (   0.0505763   0.0560203   0.0000000), wk =   0.0555556
        k(   12) = (   0.0505763  -0.0840304   0.0000000), wk =   0.0555556
        k(   13) = (  -0.0758644   0.0000000   0.0000000), wk =   0.0277778
        k(   14) = (  -0.0758644   0.0280101   0.0000000), wk =   0.0555556
        k(   15) = (  -0.0758644   0.0560203   0.0000000), wk =   0.0555556
        k(   16) = (  -0.0758644  -0.0840304   0.0000000), wk =   0.0277778
        k(   17) = (  -0.0252881   0.0280101   0.0000000), wk =   0.0555556
        k(   18) = (  -0.0252881   0.0560203   0.0000000), wk =   0.0555556
        k(   19) = (  -0.0505763   0.0280101   0.0000000), wk =   0.0555556
        k(   20) = (  -0.0505763   0.0560203   0.0000000), wk =   0.0555556
        k(   21) = (   0.0000000   0.0000000   0.0000000), wk =   0.0277778
        k(   22) = (   0.0000000   0.0280101   0.0000000), wk =   0.0555556
        k(   23) = (   0.0000000   0.0560203   0.0000000), wk =   0.0555556
        k(   24) = (   0.0000000  -0.0840304   0.0000000), wk =   0.0277778
        k(   25) = (   0.0252881   0.0000000   0.0000000), wk =   0.0555556
        k(   26) = (   0.0252881   0.0280101   0.0000000), wk =   0.0555556
        k(   27) = (   0.0252881   0.0560203   0.0000000), wk =   0.0555556
        k(   28) = (   0.0252881  -0.0840304   0.0000000), wk =   0.0555556
        k(   29) = (   0.0505763   0.0000000   0.0000000), wk =   0.0555556
        k(   30) = (   0.0505763   0.0280101   0.0000000), wk =   0.0555556
        k(   31) = (   0.0505763   0.0560203   0.0000000), wk =   0.0555556
        k(   32) = (   0.0505763  -0.0840304   0.0000000), wk =   0.0555556
        k(   33) = (  -0.0758644   0.0000000   0.0000000), wk =   0.0277778
        k(   34) = (  -0.0758644   0.0280101   0.0000000), wk =   0.0555556
        k(   35) = (  -0.0758644   0.0560203   0.0000000), wk =   0.0555556
        k(   36) = (  -0.0758644  -0.0840304   0.0000000), wk =   0.0277778
        k(   37) = (  -0.0252881   0.0280101   0.0000000), wk =   0.0555556
        k(   38) = (  -0.0252881   0.0560203   0.0000000), wk =   0.0555556
        k(   39) = (  -0.0505763   0.0280101   0.0000000), wk =   0.0555556
        k(   40) = (  -0.0505763   0.0560203   0.0000000), wk =   0.0555556

     Dense  grid:  1096637 G-vectors     FFT dimensions: (  80,  72, 375)

     Smooth grid:   277353 G-vectors     FFT dimensions: (  54,  45, 240)

     Largest allocated arrays     est. size (Mb)     dimensions
        Kohn-Sham Wavefunctions         9.95 Mb     (    2180,  299)
        NL pseudopotentials            18.89 Mb     (    2180,  568)
        Each V/rho on FFT grid          4.22 Mb     (  138240,   2)
        Each G-vector array             0.52 Mb     (   68538)
        G-vector shells                 0.25 Mb     (   33046)
     Largest temporary arrays     est. size (Mb)     dimensions
        Auxiliary wavefunctions        39.78 Mb     (    2180, 1196)
        Each subspace H/S matrix       21.83 Mb     (    1196, 1196)
        Each <psi_i|beta_j> matrix      2.59 Mb     (     568,  299)
        Arrays for rho mixing          21.09 Mb     (  138240,   10)

     Check: negative/imaginary core charge=   -0.000049    0.000000

     The initial density is read from file :
     ./calc.save/charge-density.dat


     negative rho (up, down):  1.209E-02 1.209E-02


     ************************************************************************
     *
     * You are using vdW-DF for exchange-correlation in this calculation.
     * Please cite the following three references that made this development
     * possible:
     *
     *   M. Dion, H. Rydberg, E. Schroder, D. C. Langreth, and
     *   B. I. Lundqvist, Phys. Rev. Lett. 92, 246401 (2004).
     *
     *   T. Thonhauser, V. R. Cooper, S. Li, A. Puzder, P. Hyldgaard, and
     *   D. C. Langreth, Phys. Rev. B 76, 125112 (2007).
     *
     *   G. Roman-Perez and J. M. Soler, Phys. Rev. Lett. 103, 096102 (2009).
     *
     *
     * If you are using vdW-DF2, please also cite:
     *
     *   K. Lee, E. D. Murray, L. Kong, B. I. Lundqvist, and
     *   D. C. Langreth, Phys. Rev. B 82, 081101(R) (2010).
     *
     *
     * If you are calculating the stress with vdW-DF, please also cite:
     *
     *   R. Sabatini, E. Kucukbenli, B. Kolb, T. Thonhauser, and
     *   S. de Gironcoli, J. Phys.: Condens. Matter 24, 424209 (2012).
     *
     ************************************************************************

     Carrying out vdW-DF run using the following parameters:

     Nqs =      20    Nr_points =    1024   r_max =   100.000
     q_mesh =
               0.00001000     0.04494208     0.09755937     0.15916263
               0.23128650     0.31572767     0.41458969     0.53033537
               0.66584808     0.82450364     1.01025438     1.22772762
               1.48234092     1.78043706     2.12944203     2.53805004
               3.01644009     3.57652955     4.23227104     5.00000000

     Gradients computed in reciprocal space

     ************************************************************************


     Starting wfc are  300 randomized atomic wfcs

     total cpu time spent up to now is       71.8 secs

     Self-consistent Calculation

     iteration #  1     ecut=    40.42 Ry     beta=0.10
     Davidson diagonalization with overlap
     ethr =  1.00E-05,  avg # of iterations = 14.6

     negative rho (up, down):  1.209E-02 1.209E-02
 
     Magnetic moment per site:
     atom:    1    charge:    3.1250    magn:   -0.0002    constr:    0.0000
     atom:    2    charge:    1.8227    magn:    0.0000    constr:    0.0000
     atom:    3    charge:    3.1198    magn:    0.0000    constr:    0.0000
     atom:    4    charge:    1.8225    magn:   -0.0001    constr:    0.0000
     atom:    5    charge:    3.1166    magn:    0.0000    constr:    0.0000
     atom:    6    charge:    1.8225    magn:   -0.0001    constr:    0.0000
     atom:    7    charge:    3.1153    magn:    0.0001    constr:    0.0000
     atom:    8    charge:    1.8209    magn:   -0.0001    constr:    0.0000
     atom:    9    charge:    3.1250    magn:   -0.0002    constr:    0.0000
     atom:   10    charge:    1.8227    magn:    0.0000    constr:    0.0000
     atom:   11    charge:    3.1197    magn:    0.0000    constr:    0.0000
     atom:   12    charge:    1.8225    magn:   -0.0001    constr:    0.0000
     atom:   13    charge:    3.1158    magn:    0.0000    constr:    0.0000
     atom:   14    charge:    1.8323    magn:   -0.0001    constr:    0.0000
     atom:   15    charge:    3.1187    magn:    0.0001    constr:    0.0000
     atom:   16    charge:    1.8207    magn:   -0.0001    constr:    0.0000
     atom:   17    charge:    1.7984    magn:    0.0004    constr:    0.0000
     atom:   18    charge:    3.1240    magn:   -0.0001    constr:    0.0000
     atom:   19    charge:    1.8195    magn:   -0.0000    constr:    0.0000
     atom:   20    charge:    1.8206    magn:    0.0000    constr:    0.0000
     atom:   21    charge:    1.8206    magn:    0.0000    constr:    0.0000
     atom:   22    charge:    3.1196    magn:    0.0000    constr:    0.0000
     atom:   23    charge:    1.8293    magn:   -0.0001    constr:    0.0000
     atom:   24    charge:    1.8155    magn:   -0.0001    constr:    0.0000
     atom:   25    charge:    1.8227    magn:   -0.0001    constr:    0.0000
     atom:   26    charge:    3.1145    magn:    0.0001    constr:    0.0000
     atom:   27    charge:    1.8179    magn:   -0.0001    constr:    0.0000
     atom:   28    charge:    1.8242    magn:   -0.0001    constr:    0.0000
     atom:   29    charge:    1.8225    magn:   -0.0001    constr:    0.0000
     atom:   30    charge:    3.1166    magn:    0.0000    constr:    0.0000
     atom:   31    charge:    1.8190    magn:   -0.0000    constr:    0.0000
     atom:   32    charge:    1.8220    magn:   -0.0001    constr:    0.0000
     atom:   33    charge:    1.7984    magn:    0.0004    constr:    0.0000
     atom:   34    charge:    3.1239    magn:   -0.0001    constr:    0.0000
     atom:   35    charge:    1.8195    magn:   -0.0000    constr:    0.0000
     atom:   36    charge:    1.8206    magn:    0.0000    constr:    0.0000
     atom:   37    charge:    1.8206    magn:    0.0000    constr:    0.0000
     atom:   38    charge:    3.1196    magn:    0.0000    constr:    0.0000
     atom:   39    charge:    1.8271    magn:   -0.0001    constr:    0.0000
     atom:   40    charge:    1.8158    magn:   -0.0001    constr:    0.0000
     atom:   41    charge:    1.8227    magn:   -0.0001    constr:    0.0000
     atom:   42    charge:    3.1141    magn:    0.0001    constr:    0.0000
     atom:   43    charge:    1.8188    magn:   -0.0001    constr:    0.0000
     atom:   44    charge:    1.8239    magn:   -0.0001    constr:    0.0000
     atom:   45    charge:    1.8227    magn:   -0.0001    constr:    0.0000
     atom:   46    charge:    3.1165    magn:    0.0000    constr:    0.0000
     atom:   47    charge:    1.8207    magn:   -0.0000    constr:    0.0000
     atom:   48    charge:    1.8211    magn:   -0.0001    constr:    0.0000
     atom:   49    charge:    0.6559    magn:   -0.0001    constr:    0.0000
     atom:   50    charge:    1.8306    magn:   -0.0001    constr:    0.0000
     atom:   51    charge:    0.3773    magn:    0.0000    constr:    0.0000
     atom:   52    charge:    0.3785    magn:    0.0000    constr:    0.0000
     atom:   53    charge:    0.3787    magn:    0.0000    constr:    0.0000
     atom:   54    charge:    0.3786    magn:    0.0000    constr:    0.0000

     total cpu time spent up to now is      841.8 secs

     total energy              =   -3021.44904647 Ry
     Harris-Foulkes estimate   =   -3021.46517940 Ry
     estimated scf accuracy    <       0.10514810 Ry

     total magnetization       =     0.00 Bohr mag/cell
     absolute magnetization    =     0.01 Bohr mag/cell

     iteration #  2     ecut=    40.42 Ry     beta=0.10
     Davidson diagonalization with overlap
     ethr =  2.64E-05,  avg # of iterations =  2.0

     negative rho (up, down):  1.208E-02 1.208E-02
 
     Magnetic moment per site:
     atom:    1    charge:    3.1250    magn:   -0.0001    constr:    0.0000
     atom:    2    charge:    1.8227    magn:    0.0000    constr:    0.0000
     atom:    3    charge:    3.1198    magn:    0.0000    constr:    0.0000
     atom:    4    charge:    1.8226    magn:   -0.0000    constr:    0.0000
     atom:    5    charge:    3.1166    magn:    0.0000    constr:    0.0000
     atom:    6    charge:    1.8226    magn:   -0.0001    constr:    0.0000
     atom:    7    charge:    3.1148    magn:    0.0000    constr:    0.0000
     atom:    8    charge:    1.8203    magn:   -0.0001    constr:    0.0000
     atom:    9    charge:    3.1250    magn:   -0.0001    constr:    0.0000
     atom:   10    charge:    1.8227    magn:    0.0000    constr:    0.0000
     atom:   11    charge:    3.1197    magn:    0.0000    constr:    0.0000
     atom:   12    charge:    1.8225    magn:   -0.0000    constr:    0.0000
     atom:   13    charge:    3.1158    magn:    0.0000    constr:    0.0000
     atom:   14    charge:    1.8323    magn:   -0.0001    constr:    0.0000
     atom:   15    charge:    3.1187    magn:    0.0000    constr:    0.0000
     atom:   16    charge:    1.8202    magn:   -0.0001    constr:    0.0000
     atom:   17    charge:    1.7984    magn:    0.0003    constr:    0.0000
     atom:   18    charge:    3.1239    magn:   -0.0001    constr:    0.0000
     atom:   19    charge:    1.8195    magn:   -0.0000    constr:    0.0000
     atom:   20    charge:    1.8206    magn:    0.0000    constr:    0.0000
     atom:   21    charge:    1.8206    magn:    0.0000    constr:    0.0000
     atom:   22    charge:    3.1196    magn:    0.0000    constr:    0.0000
     atom:   23    charge:    1.8293    magn:   -0.0001    constr:    0.0000
     atom:   24    charge:    1.8155    magn:   -0.0000    constr:    0.0000
     atom:   25    charge:    1.8227    magn:   -0.0000    constr:    0.0000
     atom:   26    charge:    3.1145    magn:    0.0000    constr:    0.0000
     atom:   27    charge:    1.8180    magn:   -0.0000    constr:    0.0000
     atom:   28    charge:    1.8242    magn:   -0.0001    constr:    0.0000
     atom:   29    charge:    1.8225    magn:   -0.0001    constr:    0.0000
     atom:   30    charge:    3.1166    magn:    0.0000    constr:    0.0000
     atom:   31    charge:    1.8195    magn:   -0.0000    constr:    0.0000
     atom:   32    charge:    1.8225    magn:   -0.0001    constr:    0.0000
     atom:   33    charge:    1.7984    magn:    0.0003    constr:    0.0000
     atom:   34    charge:    3.1239    magn:   -0.0001    constr:    0.0000
     atom:   35    charge:    1.8195    magn:   -0.0000    constr:    0.0000
     atom:   36    charge:    1.8206    magn:    0.0000    constr:    0.0000
     atom:   37    charge:    1.8206    magn:    0.0000    constr:    0.0000
     atom:   38    charge:    3.1196    magn:    0.0000    constr:    0.0000
     atom:   39    charge:    1.8271    magn:   -0.0001    constr:    0.0000
     atom:   40    charge:    1.8159    magn:   -0.0000    constr:    0.0000
     atom:   41    charge:    1.8227    magn:   -0.0000    constr:    0.0000
     atom:   42    charge:    3.1141    magn:    0.0000    constr:    0.0000
     atom:   43    charge:    1.8188    magn:   -0.0000    constr:    0.0000
     atom:   44    charge:    1.8239    magn:   -0.0001    constr:    0.0000
     atom:   45    charge:    1.8227    magn:   -0.0001    constr:    0.0000
     atom:   46    charge:    3.1165    magn:    0.0000    constr:    0.0000
     atom:   47    charge:    1.8207    magn:   -0.0000    constr:    0.0000
     atom:   48    charge:    1.8216    magn:   -0.0001    constr:    0.0000
     atom:   49    charge:    0.6484    magn:   -0.0000    constr:    0.0000
     atom:   50    charge:    1.8353    magn:   -0.0000    constr:    0.0000
     atom:   51    charge:    0.3769    magn:    0.0000    constr:    0.0000
     atom:   52    charge:    0.3979    magn:    0.0000    constr:    0.0000
     atom:   53    charge:    0.3795    magn:    0.0000    constr:    0.0000
     atom:   54    charge:    0.3795    magn:    0.0000    constr:    0.0000

     total cpu time spent up to now is     1030.0 secs

     total energy              =   -3021.40939711 Ry
     Harris-Foulkes estimate   =   -3021.44983475 Ry
     estimated scf accuracy    <       0.07019354 Ry

     total magnetization       =     0.00 Bohr mag/cell
     absolute magnetization    =     0.01 Bohr mag/cell

     iteration #  3     ecut=    40.42 Ry     beta=0.10
     Davidson diagonalization with overlap
     ethr =  1.76E-05,  avg # of iterations =  5.5

     negative rho (up, down):  1.209E-02 1.209E-02
 
     Magnetic moment per site:
     atom:    1    charge:    3.1250    magn:   -0.0001    constr:    0.0000
     atom:    2    charge:    1.8227    magn:    0.0000    constr:    0.0000
     atom:    3    charge:    3.1198    magn:    0.0000    constr:    0.0000
     atom:    4    charge:    1.8226    magn:   -0.0000    constr:    0.0000
     atom:    5    charge:    3.1166    magn:    0.0000    constr:    0.0000
     atom:    6    charge:    1.8222    magn:   -0.0001    constr:    0.0000
     atom:    7    charge:    3.1157    magn:    0.0000    constr:    0.0000
     atom:    8    charge:    1.8219    magn:   -0.0001    constr:    0.0000
     atom:    9    charge:    3.1250    magn:   -0.0001    constr:    0.0000
     atom:   10    charge:    1.8227    magn:    0.0000    constr:    0.0000
     atom:   11    charge:    3.1197    magn:    0.0000    constr:    0.0000
     atom:   12    charge:    1.8225    magn:   -0.0000    constr:    0.0000
     atom:   13    charge:    3.1158    magn:    0.0000    constr:    0.0000
     atom:   14    charge:    1.8323    magn:   -0.0001    constr:    0.0000
     atom:   15    charge:    3.1191    magn:    0.0000    constr:    0.0000
     atom:   16    charge:    1.8217    magn:   -0.0001    constr:    0.0000
     atom:   17    charge:    1.7984    magn:    0.0003    constr:    0.0000
     atom:   18    charge:    3.1239    magn:   -0.0001    constr:    0.0000
     atom:   19    charge:    1.8195    magn:   -0.0000    constr:    0.0000
     atom:   20    charge:    1.8206    magn:    0.0000    constr:    0.0000
     atom:   21    charge:    1.8206    magn:    0.0000    constr:    0.0000
     atom:   22    charge:    3.1196    magn:    0.0000    constr:    0.0000
     atom:   23    charge:    1.8292    magn:   -0.0001    constr:    0.0000
     atom:   24    charge:    1.8155    magn:   -0.0000    constr:    0.0000
     atom:   25    charge:    1.8227    magn:   -0.0000    constr:    0.0000
     atom:   26    charge:    3.1145    magn:    0.0000    constr:    0.0000
     atom:   27    charge:    1.8180    magn:   -0.0000    constr:    0.0000
     atom:   28    charge:    1.8243    magn:   -0.0000    constr:    0.0000
     atom:   29    charge:    1.8225    magn:   -0.0001    constr:    0.0000
     atom:   30    charge:    3.1168    magn:    0.0000    constr:    0.0000
     atom:   31    charge:    1.8183    magn:   -0.0000    constr:    0.0000
     atom:   32    charge:    1.8206    magn:   -0.0001    constr:    0.0000
     atom:   33    charge:    1.7984    magn:    0.0003    constr:    0.0000
     atom:   34    charge:    3.1239    magn:   -0.0001    constr:    0.0000
     atom:   35    charge:    1.8195    magn:   -0.0000    constr:    0.0000
     atom:   36    charge:    1.8206    magn:    0.0000    constr:    0.0000
     atom:   37    charge:    1.8206    magn:    0.0000    constr:    0.0000
     atom:   38    charge:    3.1196    magn:    0.0000    constr:    0.0000
     atom:   39    charge:    1.8271    magn:   -0.0001    constr:    0.0000
     atom:   40    charge:    1.8159    magn:   -0.0000    constr:    0.0000
     atom:   41    charge:    1.8227    magn:   -0.0000    constr:    0.0000
     atom:   42    charge:    3.1141    magn:    0.0000    constr:    0.0000
     atom:   43    charge:    1.8189    magn:   -0.0000    constr:    0.0000
     atom:   44    charge:    1.8240    magn:   -0.0000    constr:    0.0000
     atom:   45    charge:    1.8226    magn:   -0.0001    constr:    0.0000
     atom:   46    charge:    3.1165    magn:    0.0000    constr:    0.0000
     atom:   47    charge:    1.8207    magn:   -0.0000    constr:    0.0000
     atom:   48    charge:    1.8198    magn:   -0.0001    constr:    0.0000
     atom:   49    charge:    0.6511    magn:   -0.0000    constr:    0.0000
     atom:   50    charge:    1.8361    magn:   -0.0000    constr:    0.0000
     atom:   51    charge:    0.3768    magn:    0.0000    constr:    0.0000
     atom:   52    charge:    0.3992    magn:    0.0000    constr:    0.0000
     atom:   53    charge:    0.3790    magn:    0.0000    constr:    0.0000
     atom:   54    charge:    0.3790    magn:    0.0000    constr:    0.0000

     total cpu time spent up to now is     1284.1 secs

     total energy              =   -3021.41851778 Ry
     Harris-Foulkes estimate   =   -3021.42039828 Ry
     estimated scf accuracy    <       0.00642782 Ry

     total magnetization       =     0.00 Bohr mag/cell
     absolute magnetization    =     0.00 Bohr mag/cell

     iteration #  4     ecut=    40.42 Ry     beta=0.10
     Davidson diagonalization with overlap
     ethr =  1.62E-06,  avg # of iterations =  6.7

     negative rho (up, down):  1.210E-02 1.210E-02
 
     Magnetic moment per site:
     atom:    1    charge:    3.1250    magn:   -0.0001    constr:    0.0000
     atom:    2    charge:    1.8227    magn:    0.0000    constr:    0.0000
     atom:    3    charge:    3.1198    magn:    0.0000    constr:    0.0000
     atom:    4    charge:    1.8226    magn:   -0.0000    constr:    0.0000
     atom:    5    charge:    3.1166    magn:    0.0000    constr:    0.0000
     atom:    6    charge:    1.8222    magn:   -0.0000    constr:    0.0000
     atom:    7    charge:    3.1159    magn:    0.0000    constr:    0.0000
     atom:    8    charge:    1.8221    magn:   -0.0000    constr:    0.0000
     atom:    9    charge:    3.1250    magn:   -0.0001    constr:    0.0000
     atom:   10    charge:    1.8227    magn:    0.0000    constr:    0.0000
     atom:   11    charge:    3.1197    magn:    0.0000    constr:    0.0000
     atom:   12    charge:    1.8225    magn:   -0.0000    constr:    0.0000
     atom:   13    charge:    3.1158    magn:    0.0000    constr:    0.0000
     atom:   14    charge:    1.8323    magn:   -0.0000    constr:    0.0000
     atom:   15    charge:    3.1190    magn:    0.0000    constr:    0.0000
     atom:   16    charge:    1.8219    magn:   -0.0000    constr:    0.0000
     atom:   17    charge:    1.7985    magn:    0.0002    constr:    0.0000
     atom:   18    charge:    3.1239    magn:   -0.0000    constr:    0.0000
     atom:   19    charge:    1.8195    magn:   -0.0000    constr:    0.0000
     atom:   20    charge:    1.8206    magn:    0.0000    constr:    0.0000
     atom:   21    charge:    1.8206    magn:    0.0000    constr:    0.0000
     atom:   22    charge:    3.1196    magn:    0.0000    constr:    0.0000
     atom:   23    charge:    1.8293    magn:   -0.0000    constr:    0.0000
     atom:   24    charge:    1.8155    magn:   -0.0000    constr:    0.0000
     atom:   25    charge:    1.8227    magn:   -0.0000    constr:    0.0000
     atom:   26    charge:    3.1145    magn:    0.0000    constr:    0.0000
     atom:   27    charge:    1.8180    magn:   -0.0000    constr:    0.0000
     atom:   28    charge:    1.8243    magn:   -0.0000    constr:    0.0000
     atom:   29    charge:    1.8225    magn:   -0.0000    constr:    0.0000
     atom:   30    charge:    3.1167    magn:    0.0000    constr:    0.0000
     atom:   31    charge:    1.8182    magn:   -0.0000    constr:    0.0000
     atom:   32    charge:    1.8206    magn:   -0.0000    constr:    0.0000
     atom:   33    charge:    1.7984    magn:    0.0002    constr:    0.0000
     atom:   34    charge:    3.1239    magn:   -0.0000    constr:    0.0000
     atom:   35    charge:    1.8195    magn:   -0.0000    constr:    0.0000
     atom:   36    charge:    1.8206    magn:    0.0000    constr:    0.0000
     atom:   37    charge:    1.8206    magn:    0.0000    constr:    0.0000
     atom:   38    charge:    3.1196    magn:    0.0000    constr:    0.0000
     atom:   39    charge:    1.8271    magn:   -0.0000    constr:    0.0000
     atom:   40    charge:    1.8158    magn:   -0.0000    constr:    0.0000
     atom:   41    charge:    1.8227    magn:   -0.0000    constr:    0.0000
     atom:   42    charge:    3.1141    magn:    0.0000    constr:    0.0000
     atom:   43    charge:    1.8188    magn:   -0.0000    constr:    0.0000
     atom:   44    charge:    1.8239    magn:   -0.0000    constr:    0.0000
     atom:   45    charge:    1.8227    magn:   -0.0000    constr:    0.0000
     atom:   46    charge:    3.1165    magn:    0.0000    constr:    0.0000
     atom:   47    charge:    1.8207    magn:   -0.0000    constr:    0.0000
     atom:   48    charge:    1.8198    magn:   -0.0000    constr:    0.0000
     atom:   49    charge:    0.6531    magn:   -0.0000    constr:    0.0000
     atom:   50    charge:    1.8372    magn:   -0.0000    constr:    0.0000
     atom:   51    charge:    0.3767    magn:    0.0000    constr:    0.0000
     atom:   52    charge:    0.4014    magn:    0.0000    constr:    0.0000
     atom:   53    charge:    0.3785    magn:    0.0000    constr:    0.0000
     atom:   54    charge:    0.3785    magn:    0.0000    constr:    0.0000

     total cpu time spent up to now is     1540.1 secs

     total energy              =   -3021.41814779 Ry
     Harris-Foulkes estimate   =   -3021.41888283 Ry
     estimated scf accuracy    <       0.00187646 Ry

     total magnetization       =     0.00 Bohr mag/cell
     absolute magnetization    =     0.00 Bohr mag/cell

     iteration #  5     ecut=    40.42 Ry     beta=0.10
     Davidson diagonalization with overlap
     ethr =  4.71E-07,  avg # of iterations =  3.0

     negative rho (up, down):  1.210E-02 1.210E-02
 
     Magnetic moment per site:
     atom:    1    charge:    3.1250    magn:   -0.0001    constr:    0.0000
     atom:    2    charge:    1.8227    magn:    0.0000    constr:    0.0000
     atom:    3    charge:    3.1198    magn:    0.0000    constr:    0.0000
     atom:    4    charge:    1.8225    magn:   -0.0000    constr:    0.0000
     atom:    5    charge:    3.1166    magn:    0.0000    constr:    0.0000
     atom:    6    charge:    1.8224    magn:   -0.0000    constr:    0.0000
     atom:    7    charge:    3.1158    magn:    0.0000    constr:    0.0000
     atom:    8    charge:    1.8217    magn:   -0.0000    constr:    0.0000
     atom:    9    charge:    3.1250    magn:   -0.0001    constr:    0.0000
     atom:   10    charge:    1.8227    magn:    0.0000    constr:    0.0000
     atom:   11    charge:    3.1197    magn:    0.0000    constr:    0.0000
     atom:   12    charge:    1.8225    magn:   -0.0000    constr:    0.0000
     atom:   13    charge:    3.1158    magn:    0.0000    constr:    0.0000
     atom:   14    charge:    1.8323    magn:   -0.0000    constr:    0.0000
     atom:   15    charge:    3.1187    magn:    0.0000    constr:    0.0000
     atom:   16    charge:    1.8215    magn:   -0.0000    constr:    0.0000
     atom:   17    charge:    1.7985    magn:    0.0002    constr:    0.0000
     atom:   18    charge:    3.1239    magn:   -0.0000    constr:    0.0000
     atom:   19    charge:    1.8194    magn:   -0.0000    constr:    0.0000
     atom:   20    charge:    1.8206    magn:    0.0000    constr:    0.0000
     atom:   21    charge:    1.8206    magn:    0.0000    constr:    0.0000
     atom:   22    charge:    3.1196    magn:    0.0000    constr:    0.0000
     atom:   23    charge:    1.8293    magn:   -0.0000    constr:    0.0000
     atom:   24    charge:    1.8155    magn:   -0.0000    constr:    0.0000
     atom:   25    charge:    1.8227    magn:   -0.0000    constr:    0.0000
     atom:   26    charge:    3.1145    magn:    0.0000    constr:    0.0000
     atom:   27    charge:    1.8179    magn:   -0.0000    constr:    0.0000
     atom:   28    charge:    1.8242    magn:   -0.0000    constr:    0.0000
     atom:   29    charge:    1.8226    magn:   -0.0000    constr:    0.0000
     atom:   30    charge:    3.1166    magn:    0.0000    constr:    0.0000
     atom:   31    charge:    1.8184    magn:   -0.0000    constr:    0.0000
     atom:   32    charge:    1.8212    magn:   -0.0000    constr:    0.0000
     atom:   33    charge:    1.7985    magn:    0.0002    constr:    0.0000
     atom:   34    charge:    3.1239    magn:   -0.0000    constr:    0.0000
     atom:   35    charge:    1.8195    magn:   -0.0000    constr:    0.0000
     atom:   36    charge:    1.8206    magn:    0.0000    constr:    0.0000
     atom:   37    charge:    1.8206    magn:    0.0000    constr:    0.0000
     atom:   38    charge:    3.1196    magn:    0.0000    constr:    0.0000
     atom:   39    charge:    1.8271    magn:   -0.0000    constr:    0.0000
     atom:   40    charge:    1.8158    magn:   -0.0000    constr:    0.0000
     atom:   41    charge:    1.8227    magn:   -0.0000    constr:    0.0000
     atom:   42    charge:    3.1141    magn:    0.0000    constr:    0.0000
     atom:   43    charge:    1.8188    magn:   -0.0000    constr:    0.0000
     atom:   44    charge:    1.8239    magn:   -0.0000    constr:    0.0000
     atom:   45    charge:    1.8228    magn:   -0.0000    constr:    0.0000
     atom:   46    charge:    3.1164    magn:    0.0000    constr:    0.0000
     atom:   47    charge:    1.8207    magn:   -0.0000    constr:    0.0000
     atom:   48    charge:    1.8204    magn:   -0.0000    constr:    0.0000
     atom:   49    charge:    0.6564    magn:   -0.0000    constr:    0.0000
     atom:   50    charge:    1.8376    magn:   -0.0000    constr:    0.0000
     atom:   51    charge:    0.3767    magn:    0.0000    constr:    0.0000
     atom:   52    charge:    0.4002    magn:    0.0000    constr:    0.0000
     atom:   53    charge:    0.3779    magn:    0.0000    constr:    0.0000
     atom:   54    charge:    0.3779    magn:    0.0000    constr:    0.0000

     total cpu time spent up to now is     1748.4 secs

     total energy              =   -3021.41805868 Ry
     Harris-Foulkes estimate   =   -3021.41832827 Ry
     estimated scf accuracy    <       0.00061162 Ry

     total magnetization       =     0.00 Bohr mag/cell
     absolute magnetization    =     0.00 Bohr mag/cell

     iteration #  6     ecut=    40.42 Ry     beta=0.10
     Davidson diagonalization with overlap
     ethr =  1.54E-07,  avg # of iterations =  4.0

     negative rho (up, down):  1.210E-02 1.210E-02
 
     Magnetic moment per site:
     atom:    1    charge:    3.1250    magn:   -0.0001    constr:    0.0000
     atom:    2    charge:    1.8227    magn:    0.0000    constr:    0.0000
     atom:    3    charge:    3.1198    magn:    0.0000    constr:    0.0000
     atom:    4    charge:    1.8226    magn:   -0.0000    constr:    0.0000
     atom:    5    charge:    3.1166    magn:    0.0000    constr:    0.0000
     atom:    6    charge:    1.8224    magn:   -0.0000    constr:    0.0000
     atom:    7    charge:    3.1157    magn:    0.0000    constr:    0.0000
     atom:    8    charge:    1.8215    magn:   -0.0000    constr:    0.0000
     atom:    9    charge:    3.1250    magn:   -0.0001    constr:    0.0000
     atom:   10    charge:    1.8227    magn:    0.0000    constr:    0.0000
     atom:   11    charge:    3.1197    magn:    0.0000    constr:    0.0000
     atom:   12    charge:    1.8225    magn:   -0.0000    constr:    0.0000
     atom:   13    charge:    3.1158    magn:    0.0000    constr:    0.0000
     atom:   14    charge:    1.8323    magn:   -0.0000    constr:    0.0000
     atom:   15    charge:    3.1189    magn:    0.0000    constr:    0.0000
     atom:   16    charge:    1.8213    magn:   -0.0000    constr:    0.0000
     atom:   17    charge:    1.7984    magn:    0.0002    constr:    0.0000
     atom:   18    charge:    3.1239    magn:   -0.0000    constr:    0.0000
     atom:   19    charge:    1.8194    magn:   -0.0000    constr:    0.0000
     atom:   20    charge:    1.8206    magn:    0.0000    constr:    0.0000
     atom:   21    charge:    1.8206    magn:    0.0000    constr:    0.0000
     atom:   22    charge:    3.1196    magn:    0.0000    constr:    0.0000
     atom:   23    charge:    1.8293    magn:   -0.0000    constr:    0.0000
     atom:   24    charge:    1.8155    magn:   -0.0000    constr:    0.0000
     atom:   25    charge:    1.8227    magn:   -0.0000    constr:    0.0000
     atom:   26    charge:    3.1145    magn:    0.0000    constr:    0.0000
     atom:   27    charge:    1.8179    magn:   -0.0000    constr:    0.0000
     atom:   28    charge:    1.8242    magn:   -0.0000    constr:    0.0000
     atom:   29    charge:    1.8225    magn:   -0.0000    constr:    0.0000
     atom:   30    charge:    3.1167    magn:    0.0000    constr:    0.0000
     atom:   31    charge:    1.8185    magn:   -0.0000    constr:    0.0000
     atom:   32    charge:    1.8214    magn:   -0.0000    constr:    0.0000
     atom:   33    charge:    1.7984    magn:    0.0002    constr:    0.0000
     atom:   34    charge:    3.1239    magn:   -0.0000    constr:    0.0000
     atom:   35    charge:    1.8195    magn:   -0.0000    constr:    0.0000
     atom:   36    charge:    1.8206    magn:    0.0000    constr:    0.0000
     atom:   37    charge:    1.8206    magn:    0.0000    constr:    0.0000
     atom:   38    charge:    3.1196    magn:    0.0000    constr:    0.0000
     atom:   39    charge:    1.8271    magn:   -0.0000    constr:    0.0000
     atom:   40    charge:    1.8159    magn:   -0.0000    constr:    0.0000
     atom:   41    charge:    1.8226    magn:   -0.0000    constr:    0.0000
     atom:   42    charge:    3.1141    magn:    0.0000    constr:    0.0000
     atom:   43    charge:    1.8188    magn:   -0.0000    constr:    0.0000
     atom:   44    charge:    1.8239    magn:   -0.0000    constr:    0.0000
     atom:   45    charge:    1.8227    magn:   -0.0000    constr:    0.0000
     atom:   46    charge:    3.1165    magn:    0.0000    constr:    0.0000
     atom:   47    charge:    1.8207    magn:   -0.0000    constr:    0.0000
     atom:   48    charge:    1.8205    magn:   -0.0000    constr:    0.0000
     atom:   49    charge:    0.6570    magn:   -0.0000    constr:    0.0000
     atom:   50    charge:    1.8379    magn:   -0.0000    constr:    0.0000
     atom:   51    charge:    0.3768    magn:    0.0000    constr:    0.0000
     atom:   52    charge:    0.3996    magn:    0.0000    constr:    0.0000
     atom:   53    charge:    0.3778    magn:    0.0000    constr:    0.0000
     atom:   54    charge:    0.3778    magn:    0.0000    constr:    0.0000

     total cpu time spent up to now is     1971.4 secs

     total energy              =   -3021.41813920 Ry
     Harris-Foulkes estimate   =   -3021.41814882 Ry
     estimated scf accuracy    <       0.00005981 Ry

     total magnetization       =     0.00 Bohr mag/cell
     absolute magnetization    =     0.00 Bohr mag/cell

     iteration #  7     ecut=    40.42 Ry     beta=0.10
     Davidson diagonalization with overlap
     ethr =  1.50E-08,  avg # of iterations =  3.5

     negative rho (up, down):  1.210E-02 1.210E-02
 
     Magnetic moment per site:
     atom:    1    charge:    3.1250    magn:   -0.0001    constr:    0.0000
     atom:    2    charge:    1.8227    magn:    0.0000    constr:    0.0000
     atom:    3    charge:    3.1198    magn:    0.0000    constr:    0.0000
     atom:    4    charge:    1.8226    magn:   -0.0000    constr:    0.0000
     atom:    5    charge:    3.1166    magn:    0.0000    constr:    0.0000
     atom:    6    charge:    1.8224    magn:   -0.0000    constr:    0.0000
     atom:    7    charge:    3.1157    magn:    0.0000    constr:    0.0000
     atom:    8    charge:    1.8214    magn:   -0.0000    constr:    0.0000
     atom:    9    charge:    3.1250    magn:   -0.0001    constr:    0.0000
     atom:   10    charge:    1.8227    magn:    0.0000    constr:    0.0000
     atom:   11    charge:    3.1197    magn:    0.0000    constr:    0.0000
     atom:   12    charge:    1.8225    magn:   -0.0000    constr:    0.0000
     atom:   13    charge:    3.1158    magn:    0.0000    constr:    0.0000
     atom:   14    charge:    1.8323    magn:   -0.0000    constr:    0.0000
     atom:   15    charge:    3.1189    magn:    0.0000    constr:    0.0000
     atom:   16    charge:    1.8212    magn:   -0.0000    constr:    0.0000
     atom:   17    charge:    1.7984    magn:    0.0001    constr:    0.0000
     atom:   18    charge:    3.1239    magn:   -0.0000    constr:    0.0000
     atom:   19    charge:    1.8194    magn:   -0.0000    constr:    0.0000
     atom:   20    charge:    1.8206    magn:    0.0000    constr:    0.0000
     atom:   21    charge:    1.8206    magn:    0.0000    constr:    0.0000
     atom:   22    charge:    3.1196    magn:    0.0000    constr:    0.0000
     atom:   23    charge:    1.8293    magn:   -0.0000    constr:    0.0000
     atom:   24    charge:    1.8155    magn:   -0.0000    constr:    0.0000
     atom:   25    charge:    1.8227    magn:   -0.0000    constr:    0.0000
     atom:   26    charge:    3.1145    magn:    0.0000    constr:    0.0000
     atom:   27    charge:    1.8179    magn:   -0.0000    constr:    0.0000
     atom:   28    charge:    1.8242    magn:   -0.0000    constr:    0.0000
     atom:   29    charge:    1.8225    magn:   -0.0000    constr:    0.0000
     atom:   30    charge:    3.1167    magn:    0.0000    constr:    0.0000
     atom:   31    charge:    1.8186    magn:   -0.0000    constr:    0.0000
     atom:   32    charge:    1.8213    magn:   -0.0000    constr:    0.0000
     atom:   33    charge:    1.7984    magn:    0.0001    constr:    0.0000
     atom:   34    charge:    3.1239    magn:   -0.0000    constr:    0.0000
     atom:   35    charge:    1.8195    magn:   -0.0000    constr:    0.0000
     atom:   36    charge:    1.8206    magn:    0.0000    constr:    0.0000
     atom:   37    charge:    1.8206    magn:    0.0000    constr:    0.0000
     atom:   38    charge:    3.1196    magn:    0.0000    constr:    0.0000
     atom:   39    charge:    1.8271    magn:   -0.0000    constr:    0.0000
     atom:   40    charge:    1.8159    magn:   -0.0000    constr:    0.0000
     atom:   41    charge:    1.8226    magn:   -0.0000    constr:    0.0000
     atom:   42    charge:    3.1141    magn:    0.0000    constr:    0.0000
     atom:   43    charge:    1.8188    magn:   -0.0000    constr:    0.0000
     atom:   44    charge:    1.8239    magn:   -0.0000    constr:    0.0000
     atom:   45    charge:    1.8227    magn:   -0.0000    constr:    0.0000
     atom:   46    charge:    3.1165    magn:    0.0000    constr:    0.0000
     atom:   47    charge:    1.8207    magn:   -0.0000    constr:    0.0000
     atom:   48    charge:    1.8205    magn:   -0.0000    constr:    0.0000
     atom:   49    charge:    0.6565    magn:   -0.0000    constr:    0.0000
     atom:   50    charge:    1.8380    magn:   -0.0000    constr:    0.0000
     atom:   51    charge:    0.3768    magn:    0.0000    constr:    0.0000
     atom:   52    charge:    0.3995    magn:    0.0000    constr:    0.0000
     atom:   53    charge:    0.3779    magn:    0.0000    constr:    0.0000
     atom:   54    charge:    0.3779    magn:    0.0000    constr:    0.0000

     total cpu time spent up to now is     2191.6 secs

     total energy              =   -3021.41813750 Ry
     Harris-Foulkes estimate   =   -3021.41814764 Ry
     estimated scf accuracy    <       0.00004023 Ry

     total magnetization       =     0.00 Bohr mag/cell
     absolute magnetization    =     0.00 Bohr mag/cell

     iteration #  8     ecut=    40.42 Ry     beta=0.10
     Davidson diagonalization with overlap
     ethr =  1.01E-08,  avg # of iterations =  3.0

     negative rho (up, down):  1.210E-02 1.210E-02
 
     Magnetic moment per site:
     atom:    1    charge:    3.1250    magn:   -0.0000    constr:    0.0000
     atom:    2    charge:    1.8227    magn:    0.0000    constr:    0.0000
     atom:    3    charge:    3.1198    magn:    0.0000    constr:    0.0000
     atom:    4    charge:    1.8226    magn:   -0.0000    constr:    0.0000
     atom:    5    charge:    3.1166    magn:    0.0000    constr:    0.0000
     atom:    6    charge:    1.8223    magn:   -0.0000    constr:    0.0000
     atom:    7    charge:    3.1157    magn:    0.0000    constr:    0.0000
     atom:    8    charge:    1.8214    magn:   -0.0000    constr:    0.0000
     atom:    9    charge:    3.1250    magn:   -0.0000    constr:    0.0000
     atom:   10    charge:    1.8227    magn:    0.0000    constr:    0.0000
     atom:   11    charge:    3.1197    magn:    0.0000    constr:    0.0000
     atom:   12    charge:    1.8225    magn:   -0.0000    constr:    0.0000
     atom:   13    charge:    3.1158    magn:    0.0000    constr:    0.0000
     atom:   14    charge:    1.8323    magn:   -0.0000    constr:    0.0000
     atom:   15    charge:    3.1188    magn:    0.0000    constr:    0.0000
     atom:   16    charge:    1.8212    magn:   -0.0000    constr:    0.0000
     atom:   17    charge:    1.7984    magn:    0.0001    constr:    0.0000
     atom:   18    charge:    3.1239    magn:   -0.0000    constr:    0.0000
     atom:   19    charge:    1.8194    magn:   -0.0000    constr:    0.0000
     atom:   20    charge:    1.8206    magn:    0.0000    constr:    0.0000
     atom:   21    charge:    1.8206    magn:    0.0000    constr:    0.0000
     atom:   22    charge:    3.1196    magn:    0.0000    constr:    0.0000
     atom:   23    charge:    1.8293    magn:   -0.0000    constr:    0.0000
     atom:   24    charge:    1.8155    magn:   -0.0000    constr:    0.0000
     atom:   25    charge:    1.8227    magn:   -0.0000    constr:    0.0000
     atom:   26    charge:    3.1145    magn:    0.0000    constr:    0.0000
     atom:   27    charge:    1.8180    magn:   -0.0000    constr:    0.0000
     atom:   28    charge:    1.8243    magn:   -0.0000    constr:    0.0000
     atom:   29    charge:    1.8225    magn:   -0.0000    constr:    0.0000
     atom:   30    charge:    3.1167    magn:    0.0000    constr:    0.0000
     atom:   31    charge:    1.8187    magn:   -0.0000    constr:    0.0000
     atom:   32    charge:    1.8213    magn:   -0.0000    constr:    0.0000
     atom:   33    charge:    1.7984    magn:    0.0001    constr:    0.0000
     atom:   34    charge:    3.1239    magn:   -0.0000    constr:    0.0000
     atom:   35    charge:    1.8195    magn:   -0.0000    constr:    0.0000
     atom:   36    charge:    1.8206    magn:    0.0000    constr:    0.0000
     atom:   37    charge:    1.8206    magn:    0.0000    constr:    0.0000
     atom:   38    charge:    3.1196    magn:    0.0000    constr:    0.0000
     atom:   39    charge:    1.8271    magn:   -0.0000    constr:    0.0000
     atom:   40    charge:    1.8158    magn:   -0.0000    constr:    0.0000
     atom:   41    charge:    1.8227    magn:   -0.0000    constr:    0.0000
     atom:   42    charge:    3.1141    magn:    0.0000    constr:    0.0000
     atom:   43    charge:    1.8188    magn:   -0.0000    constr:    0.0000
     atom:   44    charge:    1.8239    magn:   -0.0000    constr:    0.0000
     atom:   45    charge:    1.8227    magn:   -0.0000    constr:    0.0000
     atom:   46    charge:    3.1165    magn:    0.0000    constr:    0.0000
     atom:   47    charge:    1.8208    magn:   -0.0000    constr:    0.0000
     atom:   48    charge:    1.8205    magn:   -0.0000    constr:    0.0000
     atom:   49    charge:    0.6562    magn:   -0.0000    constr:    0.0000
     atom:   50    charge:    1.8381    magn:   -0.0000    constr:    0.0000
     atom:   51    charge:    0.3768    magn:    0.0000    constr:    0.0000
     atom:   52    charge:    0.3992    magn:    0.0000    constr:    0.0000
     atom:   53    charge:    0.3780    magn:    0.0000    constr:    0.0000
     atom:   54    charge:    0.3780    magn:    0.0000    constr:    0.0000

     total cpu time spent up to now is     2395.5 secs

     total energy              =   -3021.41813762 Ry
     Harris-Foulkes estimate   =   -3021.41813970 Ry
     estimated scf accuracy    <       0.00001129 Ry

     total magnetization       =     0.00 Bohr mag/cell
     absolute magnetization    =     0.00 Bohr mag/cell

     iteration #  9     ecut=    40.42 Ry     beta=0.10
     Davidson diagonalization with overlap
     ethr =  2.84E-09,  avg # of iterations =  3.1

     negative rho (up, down):  1.210E-02 1.210E-02
 
     Magnetic moment per site:
     atom:    1    charge:    3.1250    magn:   -0.0000    constr:    0.0000
     atom:    2    charge:    1.8227    magn:    0.0000    constr:    0.0000
     atom:    3    charge:    3.1198    magn:    0.0000    constr:    0.0000
     atom:    4    charge:    1.8225    magn:   -0.0000    constr:    0.0000
     atom:    5    charge:    3.1166    magn:    0.0000    constr:    0.0000
     atom:    6    charge:    1.8223    magn:   -0.0000    constr:    0.0000
     atom:    7    charge:    3.1157    magn:    0.0000    constr:    0.0000
     atom:    8    charge:    1.8215    magn:   -0.0000    constr:    0.0000
     atom:    9    charge:    3.1250    magn:   -0.0000    constr:    0.0000
     atom:   10    charge:    1.8227    magn:    0.0000    constr:    0.0000
     atom:   11    charge:    3.1197    magn:    0.0000    constr:    0.0000
     atom:   12    charge:    1.8225    magn:   -0.0000    constr:    0.0000
     atom:   13    charge:    3.1158    magn:    0.0000    constr:    0.0000
     atom:   14    charge:    1.8323    magn:   -0.0000    constr:    0.0000
     atom:   15    charge:    3.1188    magn:    0.0000    constr:    0.0000
     atom:   16    charge:    1.8213    magn:   -0.0000    constr:    0.0000
     atom:   17    charge:    1.7984    magn:    0.0001    constr:    0.0000
     atom:   18    charge:    3.1239    magn:   -0.0000    constr:    0.0000
     atom:   19    charge:    1.8194    magn:   -0.0000    constr:    0.0000
     atom:   20    charge:    1.8206    magn:    0.0000    constr:    0.0000
     atom:   21    charge:    1.8206    magn:    0.0000    constr:    0.0000
     atom:   22    charge:    3.1196    magn:    0.0000    constr:    0.0000
     atom:   23    charge:    1.8293    magn:   -0.0000    constr:    0.0000
     atom:   24    charge:    1.8155    magn:   -0.0000    constr:    0.0000
     atom:   25    charge:    1.8227    magn:   -0.0000    constr:    0.0000
     atom:   26    charge:    3.1145    magn:    0.0000    constr:    0.0000
     atom:   27    charge:    1.8180    magn:   -0.0000    constr:    0.0000
     atom:   28    charge:    1.8243    magn:   -0.0000    constr:    0.0000
     atom:   29    charge:    1.8225    magn:   -0.0000    constr:    0.0000
     atom:   30    charge:    3.1167    magn:    0.0000    constr:    0.0000
     atom:   31    charge:    1.8187    magn:   -0.0000    constr:    0.0000
     atom:   32    charge:    1.8213    magn:   -0.0000    constr:    0.0000
     atom:   33    charge:    1.7984    magn:    0.0001    constr:    0.0000
     atom:   34    charge:    3.1239    magn:   -0.0000    constr:    0.0000
     atom:   35    charge:    1.8195    magn:   -0.0000    constr:    0.0000
     atom:   36    charge:    1.8206    magn:    0.0000    constr:    0.0000
     atom:   37    charge:    1.8206    magn:    0.0000    constr:    0.0000
     atom:   38    charge:    3.1196    magn:    0.0000    constr:    0.0000
     atom:   39    charge:    1.8271    magn:   -0.0000    constr:    0.0000
     atom:   40    charge:    1.8158    magn:   -0.0000    constr:    0.0000
     atom:   41    charge:    1.8227    magn:   -0.0000    constr:    0.0000
     atom:   42    charge:    3.1141    magn:    0.0000    constr:    0.0000
     atom:   43    charge:    1.8188    magn:   -0.0000    constr:    0.0000
     atom:   44    charge:    1.8239    magn:   -0.0000    constr:    0.0000
     atom:   45    charge:    1.8227    magn:   -0.0000    constr:    0.0000
     atom:   46    charge:    3.1165    magn:    0.0000    constr:    0.0000
     atom:   47    charge:    1.8207    magn:   -0.0000    constr:    0.0000
     atom:   48    charge:    1.8204    magn:   -0.0000    constr:    0.0000
     atom:   49    charge:    0.6559    magn:   -0.0000    constr:    0.0000
     atom:   50    charge:    1.8382    magn:   -0.0000    constr:    0.0000
     atom:   51    charge:    0.3768    magn:    0.0000    constr:    0.0000
     atom:   52    charge:    0.3991    magn:    0.0000    constr:    0.0000
     atom:   53    charge:    0.3781    magn:    0.0000    constr:    0.0000
     atom:   54    charge:    0.3781    magn:    0.0000    constr:    0.0000

     total cpu time spent up to now is     2600.9 secs

     total energy              =   -3021.41813812 Ry
     Harris-Foulkes estimate   =   -3021.41813837 Ry
     estimated scf accuracy    <       0.00000223 Ry

     total magnetization       =     0.00 Bohr mag/cell
     absolute magnetization    =     0.00 Bohr mag/cell

     iteration # 10     ecut=    40.42 Ry     beta=0.10
     Davidson diagonalization with overlap
     ethr =  5.61E-10,  avg # of iterations =  4.0

     negative rho (up, down):  1.209E-02 1.209E-02
 
     Magnetic moment per site:
     atom:    1    charge:    3.1250    magn:   -0.0000    constr:    0.0000
     atom:    2    charge:    1.8227    magn:    0.0000    constr:    0.0000
     atom:    3    charge:    3.1198    magn:    0.0000    constr:    0.0000
     atom:    4    charge:    1.8226    magn:   -0.0000    constr:    0.0000
     atom:    5    charge:    3.1166    magn:    0.0000    constr:    0.0000
     atom:    6    charge:    1.8224    magn:   -0.0000    constr:    0.0000
     atom:    7    charge:    3.1157    magn:    0.0000    constr:    0.0000
     atom:    8    charge:    1.8215    magn:   -0.0000    constr:    0.0000
     atom:    9    charge:    3.1250    magn:   -0.0000    constr:    0.0000
     atom:   10    charge:    1.8227    magn:    0.0000    constr:    0.0000
     atom:   11    charge:    3.1197    magn:    0.0000    constr:    0.0000
     atom:   12    charge:    1.8225    magn:   -0.0000    constr:    0.0000
     atom:   13    charge:    3.1158    magn:    0.0000    constr:    0.0000
     atom:   14    charge:    1.8323    magn:   -0.0000    constr:    0.0000
     atom:   15    charge:    3.1189    magn:    0.0000    constr:    0.0000
     atom:   16    charge:    1.8213    magn:   -0.0000    constr:    0.0000
     atom:   17    charge:    1.7984    magn:    0.0000    constr:    0.0000
     atom:   18    charge:    3.1239    magn:   -0.0000    constr:    0.0000
     atom:   19    charge:    1.8194    magn:   -0.0000    constr:    0.0000
     atom:   20    charge:    1.8206    magn:    0.0000    constr:    0.0000
     atom:   21    charge:    1.8206    magn:    0.0000    constr:    0.0000
     atom:   22    charge:    3.1196    magn:    0.0000    constr:    0.0000
     atom:   23    charge:    1.8293    magn:   -0.0000    constr:    0.0000
     atom:   24    charge:    1.8155    magn:   -0.0000    constr:    0.0000
     atom:   25    charge:    1.8227    magn:   -0.0000    constr:    0.0000
     atom:   26    charge:    3.1145    magn:    0.0000    constr:    0.0000
     atom:   27    charge:    1.8179    magn:   -0.0000    constr:    0.0000
     atom:   28    charge:    1.8242    magn:   -0.0000    constr:    0.0000
     atom:   29    charge:    1.8225    magn:   -0.0000    constr:    0.0000
     atom:   30    charge:    3.1167    magn:    0.0000    constr:    0.0000
     atom:   31    charge:    1.8186    magn:   -0.0000    constr:    0.0000
     atom:   32    charge:    1.8213    magn:   -0.0000    constr:    0.0000
     atom:   33    charge:    1.7984    magn:    0.0000    constr:    0.0000
     atom:   34    charge:    3.1239    magn:   -0.0000    constr:    0.0000
     atom:   35    charge:    1.8195    magn:   -0.0000    constr:    0.0000
     atom:   36    charge:    1.8206    magn:    0.0000    constr:    0.0000
     atom:   37    charge:    1.8206    magn:    0.0000    constr:    0.0000
     atom:   38    charge:    3.1196    magn:    0.0000    constr:    0.0000
     atom:   39    charge:    1.8271    magn:   -0.0000    constr:    0.0000
     atom:   40    charge:    1.8158    magn:   -0.0000    constr:    0.0000
     atom:   41    charge:    1.8226    magn:   -0.0000    constr:    0.0000
     atom:   42    charge:    3.1141    magn:    0.0000    constr:    0.0000
     atom:   43    charge:    1.8188    magn:   -0.0000    constr:    0.0000
     atom:   44    charge:    1.8239    magn:   -0.0000    constr:    0.0000
     atom:   45    charge:    1.8227    magn:   -0.0000    constr:    0.0000
     atom:   46    charge:    3.1165    magn:    0.0000    constr:    0.0000
     atom:   47    charge:    1.8207    magn:   -0.0000    constr:    0.0000
     atom:   48    charge:    1.8204    magn:   -0.0000    constr:    0.0000
     atom:   49    charge:    0.6561    magn:   -0.0000    constr:    0.0000
     atom:   50    charge:    1.8382    magn:   -0.0000    constr:    0.0000
     atom:   51    charge:    0.3767    magn:    0.0000    constr:    0.0000
     atom:   52    charge:    0.3990    magn:    0.0000    constr:    0.0000
     atom:   53    charge:    0.3781    magn:    0.0000    constr:    0.0000
     atom:   54    charge:    0.3781    magn:    0.0000    constr:    0.0000

     total cpu time spent up to now is     2825.7 secs

     End of self-consistent calculation

 ------ SPIN UP ------------


          k = 0.0000 0.0000 0.0000 ( 34665 PWs)   bands (ev):

   -57.6911 -57.6562 -57.3087 -57.2724 -57.2233 -57.1016 -57.0651 -57.0641
   -57.0405 -57.0293 -56.9803 -56.9448 -56.7194 -56.6820 -56.1419 -56.1067
   -34.1273 -33.9733 -33.9448 -33.8922 -33.8609 -33.7978 -33.7374 -33.6437
   -33.6092 -33.5969 -33.5593 -33.5315 -33.5090 -33.4985 -33.4805 -33.4758
   -33.4552 -33.4453 -33.4209 -33.3906 -33.3157 -33.2838 -33.2636 -33.2543
   -33.2447 -33.2442 -33.2347 -33.2320 -33.2287 -33.2212 -33.2193 -33.2043
   -33.1705 -33.1702 -33.1663 -33.1310 -33.1085 -32.9857 -32.9673 -32.9464
   -32.8972 -32.7941 -32.5597 -32.4942 -32.4682 -32.3639 -32.2723 -32.1640
   -20.3214 -18.0035 -17.8335 -17.5481 -17.4524 -17.3633 -17.2430 -17.0690
   -17.0588 -16.9656 -16.9306 -16.8767 -16.7746 -16.7687 -16.7201 -16.6990
   -16.6930 -16.6529 -16.6036 -16.5939 -16.5277 -16.4061 -16.3927 -16.3903
   -16.3111 -16.2594 -16.1857 -16.1589 -16.1417 -15.9678 -15.9197 -14.7265
   -14.6428 -11.5488  -7.2617  -5.4503  -5.3857  -5.2967  -5.1958  -5.1789
    -5.1367  -5.1172  -4.8307  -4.8081  -4.4637  -4.4338  -4.3505  -4.3469
    -4.3133  -4.2249  -4.0813  -4.0511  -4.0454  -4.0096  -3.9903  -3.9824
    -3.9531  -3.9438  -3.9426  -3.8317  -3.7790  -3.7579  -3.7325  -3.7132
    -3.6236  -3.6078  -3.5779  -3.5687  -3.5116  -3.5000  -3.4017  -3.3955
    -3.3783  -3.2790  -3.2318  -3.1850  -3.0051  -2.9267  -2.8713  -2.8312
    -2.6885  -2.5976  -2.5816  -2.5724  -2.5618  -2.5590  -2.4228  -2.4057
    -2.3280  -2.2613  -2.2388  -2.1962  -2.1914  -2.1608  -2.1301  -2.0841
    -2.0394  -2.0167  -2.0112  -1.8804  -1.8595  -1.7587  -1.7255  -1.6165
    -1.5341  -1.5333  -1.4840  -1.4721  -1.4555  -1.4150  -1.3141  -1.3011
    -1.2961  -1.2708  -1.2340  -1.1271  -1.0855  -1.0779  -1.0579  -1.0082
    -0.9450  -0.9064  -0.8177  -0.7581  -0.6019  -0.5789  -0.5616  -0.4689
    -0.3670  -0.2350  -0.0773  -0.0176   0.1388   0.2556   0.2693   1.6503
     1.6829   1.9940   2.0097   2.0745   2.1053   2.2134   2.2536   2.2964
     2.4391   2.5065   2.5347   2.5384   2.5505   2.6398   2.6574   2.6655
     2.7245   2.8085   2.8374   2.8488   2.9210   3.0093   3.0437   3.1093
     3.1131   3.1238   3.1694   3.2108   3.2176   3.2341   3.2491   3.2610
     3.2684   3.2981   3.4077   3.4392   3.4665   3.4763   3.5360   3.5951
     3.6633   3.7042   3.8176   3.9901   4.0252   4.1023   4.1875   4.3277
     4.3490   4.3994   4.5867   4.6066   4.8159   4.8487   5.0955   5.1762
     5.2530   5.3383   5.4823   5.5259   5.5294   5.6037   5.6855   5.7221
     5.8082   5.8750   5.8861   5.8959   5.9636   6.0351   6.0557   6.0772
     6.1520   6.2378   6.2536   6.3067   6.3865   6.5876   6.6460   6.7507
     6.8507   7.0255   7.0523   7.1648   7.3099   7.5414   7.9072   8.2570
     8.3199   8.6698   8.8011   8.8627   8.9397   9.0128   9.1416   9.2333
     9.3571   9.3796   9.5451

          k = 0.0000 0.0280 0.0000 ( 34717 PWs)   bands (ev):

   -57.6888 -57.6585 -57.3063 -57.2748 -57.2228 -57.0993 -57.0672 -57.0619
   -57.0410 -57.0316 -56.9779 -56.9472 -56.7170 -56.6844 -56.1396 -56.1090
   -34.1019 -33.9713 -33.9467 -33.8860 -33.8350 -33.8043 -33.7644 -33.6210
   -33.6024 -33.5720 -33.5339 -33.5285 -33.5115 -33.4914 -33.4832 -33.4746
   -33.4621 -33.4525 -33.4190 -33.3836 -33.3096 -33.2820 -33.2773 -33.2558
   -33.2489 -33.2424 -33.2406 -33.2314 -33.2296 -33.2277 -33.2274 -33.2065
   -33.1941 -33.1754 -33.1673 -33.1351 -33.1317 -32.9818 -32.9660 -32.9478
   -32.9022 -32.8221 -32.5341 -32.4925 -32.4700 -32.3578 -32.2785 -32.1914
   -20.3212 -17.9417 -17.7759 -17.4951 -17.4002 -17.3197 -17.2163 -17.0824
   -17.0285 -16.9905 -16.9845 -16.8781 -16.8107 -16.7522 -16.6992 -16.6801
   -16.6672 -16.6539 -16.6456 -16.6343 -16.5866 -16.4299 -16.3741 -16.3605
   -16.3378 -16.2890 -16.2028 -16.1648 -16.1459 -15.9984 -15.9569 -14.7365
   -14.6662 -11.5485  -7.2614  -5.4082  -5.3057  -5.2407  -5.1833  -5.1212
    -5.0597  -5.0377  -4.7551  -4.6941  -4.4267  -4.3916  -4.3859  -4.3032
    -4.2930  -4.1523  -4.1146  -4.1059  -4.0832  -4.0622  -4.0235  -4.0202
    -3.9579  -3.9527  -3.9414  -3.8818  -3.8451  -3.8389  -3.8315  -3.7592
    -3.7147  -3.6979  -3.6581  -3.6077  -3.5671  -3.5498  -3.4257  -3.3628
    -3.3200  -3.2261  -3.2118  -3.0943  -2.9260  -2.8623  -2.7440  -2.7149
    -2.6061  -2.5938  -2.5177  -2.5013  -2.4688  -2.4282  -2.4039  -2.4005
    -2.3776  -2.3533  -2.2802  -2.2682  -2.1595  -2.1342  -2.1278  -2.0849
    -2.0136  -1.9895  -1.9453  -1.8699  -1.8026  -1.7632  -1.6991  -1.6743
    -1.6341  -1.6150  -1.5546  -1.5172  -1.4737  -1.4309  -1.4271  -1.3875
    -1.3460  -1.2633  -1.2091  -1.2063  -1.1534  -1.0860  -1.0663  -1.0134
    -0.9996  -0.8960  -0.8650  -0.7819  -0.7548  -0.6980  -0.5993  -0.5809
    -0.3853  -0.2628  -0.0843  -0.0718   0.1536   0.2092   0.2358   1.7368
     1.7826   1.9937   2.0741   2.1404   2.1599   2.2277   2.2827   2.3220
     2.4338   2.4698   2.5067   2.5450   2.5948   2.6110   2.6397   2.7002
     2.7415   2.7796   2.8064   2.9225   2.9320   2.9611   2.9859   3.0182
     3.1204   3.1263   3.1428   3.1835   3.2010   3.2146   3.2680   3.3137
     3.3435   3.3791   3.4171   3.4826   3.5169   3.5597   3.5715   3.6567
     3.6741   3.6958   3.7812   3.9696   4.0446   4.1226   4.1986   4.2965
     4.3308   4.4042   4.5485   4.6899   4.8686   4.9351   5.0999   5.2671
     5.3121   5.3428   5.5456   5.5719   5.6134   5.6272   5.6955   5.7282
     5.7926   5.8007   5.8608   5.8877   5.9089   5.9554   6.0749   6.1258
     6.1570   6.1666   6.1789   6.2153   6.2835   6.5674   6.6136   6.6968
     6.8487   6.9602   7.0075   7.0726   7.2350   7.5517   7.9032   8.0051
     8.0657   8.4612   8.5627   8.8099   8.8956   8.9971   9.0954   9.1259
     9.2660   9.4221   9.4802

          k = 0.0000 0.0560 0.0000 ( 34721 PWs)   bands (ev):

   -57.6824 -57.6650 -57.2997 -57.2814 -57.2220 -57.0932 -57.0733 -57.0556
   -57.0418 -57.0380 -56.9714 -56.9537 -56.7103 -56.6911 -56.1332 -56.1155
   -34.0321 -33.9660 -33.9517 -33.8689 -33.8374 -33.8218 -33.7640 -33.5869
   -33.5634 -33.5627 -33.5257 -33.5182 -33.4980 -33.4949 -33.4671 -33.4638
   -33.4468 -33.4161 -33.4090 -33.3642 -33.3060 -33.3047 -33.3045 -33.2931
   -33.2777 -33.2678 -33.2595 -33.2534 -33.2449 -33.2366 -33.2258 -33.2237
   -33.2004 -33.1885 -33.1608 -33.1549 -33.1155 -32.9767 -32.9623 -32.9511
   -32.9151 -32.8919 -32.4877 -32.4748 -32.4633 -32.3413 -32.2954 -32.2656
   -20.3210 -17.7706 -17.6172 -17.3637 -17.2667 -17.2509 -17.2098 -17.1590
   -17.1273 -16.9537 -16.9457 -16.9107 -16.8651 -16.8102 -16.7793 -16.7180
   -16.7077 -16.6745 -16.6147 -16.5885 -16.5295 -16.4954 -16.4125 -16.3696
   -16.3529 -16.2939 -16.2319 -16.1859 -16.1491 -16.0990 -16.0294 -14.7548
   -14.7168 -11.5477  -7.2604  -5.3701  -5.1944  -5.0687  -5.0292  -4.9151
    -4.8500  -4.8146  -4.5534  -4.4978  -4.4642  -4.4086  -4.4016  -4.3578
    -4.3225  -4.2519  -4.2262  -4.2034  -4.1880  -4.1779  -4.1479  -4.0675
    -4.0485  -3.9966  -3.9787  -3.9595  -3.9226  -3.8830  -3.8520  -3.8094
    -3.7885  -3.7231  -3.6279  -3.5779  -3.4284  -3.4185  -3.3666  -3.2599
    -3.2314  -3.2027  -3.1839  -3.0745  -2.8943  -2.8352  -2.8300  -2.7904
    -2.7140  -2.6594  -2.5404  -2.4657  -2.4364  -2.3148  -2.3082  -2.3029
    -2.2949  -2.2406  -2.1988  -2.1703  -2.1404  -2.1089  -2.0234  -2.0012
    -1.9534  -1.9390  -1.9075  -1.8972  -1.8758  -1.8410  -1.8078  -1.7757
    -1.7371  -1.6850  -1.6171  -1.5336  -1.5181  -1.5001  -1.4458  -1.4112
    -1.3710  -1.3563  -1.3413  -1.2820  -1.2309  -1.2076  -1.1512  -1.1052
    -1.0802  -1.0153  -0.9192  -0.8851  -0.8417  -0.7764  -0.7534  -0.6526
    -0.5780  -0.4541  -0.2329   0.0984   0.1508   0.1858   0.1925   1.8723
     2.0322   2.1067   2.1168   2.2190   2.2434   2.2775   2.3757   2.3977
     2.4034   2.4201   2.4440   2.4842   2.5108   2.5467   2.6830   2.7046
     2.7434   2.7833   2.8385   2.9128   2.9245   2.9476   2.9798   2.9832
     3.0246   3.1075   3.1475   3.1659   3.2593   3.2712   3.2952   3.3373
     3.3776   3.3959   3.4488   3.5455   3.5519   3.6466   3.6866   3.7373
     3.7702   3.8311   3.8674   3.8978   3.9417   4.1390   4.1504   4.1660
     4.3358   4.3830   4.5710   4.9137   5.0241   5.0608   5.1843   5.3857
     5.3893   5.4872   5.5268   5.5582   5.6577   5.7315   5.7323   5.7419
     5.7875   5.7957   5.8063   5.8641   5.8945   5.9485   5.9883   5.9997
     6.0106   6.0627   6.1625   6.1774   6.3133   6.3767   6.4206   6.6129
     6.6679   6.7880   6.8824   7.0428   7.2035   7.3367   7.4402   7.7089
     8.0644   8.1909   8.3334   8.6001   8.8756   8.9963   9.2920   9.3398
     9.4222   9.4536   9.5520

          k = 0.0000-0.0840 0.0000 ( 34678 PWs)   bands (ev):

   -57.6738 -57.6736 -57.2922 -57.2889 -57.2216 -57.0877 -57.0788 -57.0468
   -57.0468 -57.0422 -56.9631 -56.9620 -56.7032 -56.6983 -56.1244 -56.1243
   -33.9590 -33.9588 -33.9356 -33.9354 -33.8455 -33.8453 -33.6771 -33.6531
   -33.5569 -33.5535 -33.5194 -33.5089 -33.5046 -33.4673 -33.4439 -33.4141
   -33.4056 -33.3993 -33.3667 -33.3665 -33.3522 -33.3388 -33.3329 -33.3144
   -33.3130 -33.2766 -33.2696 -33.2675 -33.2609 -33.2568 -33.2243 -33.2225
   -33.2059 -33.2039 -33.1539 -33.1530 -33.0381 -33.0169 -32.9592 -32.9540
   -32.9289 -32.9261 -32.4812 -32.4812 -32.3654 -32.3654 -32.3183 -32.3183
   -20.3208 -17.5596 -17.4967 -17.4025 -17.3822 -17.2205 -17.1662 -17.0577
   -17.0527 -17.0067 -16.9936 -16.9803 -16.8631 -16.8321 -16.8321 -16.7927
   -16.7861 -16.5869 -16.5849 -16.5157 -16.5132 -16.4802 -16.4787 -16.3951
   -16.3923 -16.2538 -16.2515 -16.1928 -16.1892 -16.1203 -16.0921 -14.7535
   -14.7534 -11.5473  -7.2599  -5.3610  -5.2004  -4.7903  -4.7258  -4.7247
    -4.6475  -4.6329  -4.6288  -4.5935  -4.5661  -4.4997  -4.4933  -4.3919
    -4.3643  -4.3309  -4.3290  -4.3003  -4.2875  -4.2723  -4.2666  -4.0457
    -4.0242  -4.0145  -4.0021  -3.9837  -3.9370  -3.8009  -3.7869  -3.7822
    -3.7077  -3.6857  -3.6319  -3.5046  -3.4657  -3.3323  -3.3190  -3.2782
    -3.1302  -3.1073  -3.0358  -3.0114  -2.9542  -2.9215  -2.7962  -2.7793
    -2.6896  -2.6857  -2.5677  -2.5310  -2.5036  -2.4869  -2.4753  -2.4395
    -2.4304  -2.4095  -2.3217  -2.2359  -2.0220  -1.9992  -1.9633  -1.9343
    -1.9201  -1.8207  -1.8143  -1.8006  -1.7715  -1.7355  -1.7226  -1.6898
    -1.6561  -1.6313  -1.6057  -1.5491  -1.5061  -1.4793  -1.4730  -1.4433
    -1.4173  -1.4093  -1.4020  -1.3716  -1.3486  -1.3164  -1.2185  -1.1787
    -1.0977  -1.0643  -1.0169  -0.9695  -0.9626  -0.9517  -0.9394  -0.5149
    -0.5094  -0.4474  -0.4337   0.1509   0.1510   0.1934   0.1952   2.0470
     2.0501   2.2270   2.2276   2.2296   2.2459   2.2937   2.3492   2.3547
     2.3548   2.3813   2.3922   2.5368   2.5619   2.5629   2.6105   2.6734
     2.7240   2.7452   2.7585   2.9011   2.9315   2.9984   3.0063   3.0667
     3.0683   3.1110   3.1222   3.1910   3.2278   3.2424   3.2554   3.4127
     3.4348   3.4456   3.4483   3.4817   3.4928   3.7370   3.7752   3.8142
     3.8176   3.8417   3.9173   3.9398   3.9786   4.0810   4.0834   4.1334
     4.1340   4.4273   4.6781   4.9691   5.0091   5.2678   5.3421   5.4661
     5.4978   5.5158   5.5159   5.5693   5.6106   5.6554   5.6745   5.6805
     5.8083   5.8134   5.8350   5.8608   5.8701   5.8750   5.8939   5.9822
     6.0275   6.0662   6.0759   6.1661   6.2040   6.4160   6.4690   6.5722
     6.6085   6.7464   6.7816   6.9825   7.0371   7.0935   7.3240   7.6670
     7.8728   8.1702   8.3755   8.7721   8.8318   8.8442   9.1357   9.7011
     9.7104   9.7612   9.8352

          k = 0.0253 0.0000 0.0000 ( 34707 PWs)   bands (ev):

   -57.6911 -57.6562 -57.3087 -57.2724 -57.2233 -57.1015 -57.0651 -57.0642
   -57.0405 -57.0293 -56.9803 -56.9448 -56.7194 -56.6820 -56.1419 -56.1067
   -34.1276 -33.9733 -33.9449 -33.8915 -33.8610 -33.7979 -33.7375 -33.6444
   -33.6092 -33.5986 -33.5595 -33.5281 -33.5228 -33.4994 -33.4758 -33.4655
   -33.4540 -33.4453 -33.4210 -33.3836 -33.3156 -33.2839 -33.2633 -33.2543
   -33.2486 -33.2469 -33.2359 -33.2329 -33.2285 -33.2212 -33.2193 -33.2041
   -33.1705 -33.1702 -33.1666 -33.1310 -33.1086 -32.9857 -32.9698 -32.9455
   -32.8972 -32.7943 -32.5597 -32.4953 -32.4676 -32.3639 -32.2723 -32.1641
   -20.3212 -17.9737 -17.7935 -17.5058 -17.4235 -17.3467 -17.2495 -17.1369
   -17.0836 -16.9663 -16.9302 -16.8618 -16.8110 -16.7960 -16.7799 -16.7724
   -16.7199 -16.6852 -16.5470 -16.5237 -16.4456 -16.4430 -16.3935 -16.3623
   -16.3287 -16.3040 -16.1742 -16.1568 -16.1429 -15.9676 -15.9194 -14.7253
   -14.6427 -11.5476  -7.2592  -5.4416  -5.2902  -5.2553  -5.1780  -5.0882
    -5.0358  -5.0066  -4.8253  -4.8035  -4.6087  -4.4608  -4.4279  -4.3219
    -4.3025  -4.2925  -4.2375  -4.0922  -4.0262  -4.0223  -3.9875  -3.9373
    -3.9298  -3.9021  -3.8223  -3.7942  -3.7417  -3.7143  -3.6863  -3.6834
    -3.6133  -3.5886  -3.5610  -3.5534  -3.5082  -3.4413  -3.3647  -3.3017
    -3.2428  -3.2320  -3.1771  -3.0980  -3.0247  -2.9671  -2.9168  -2.8883
    -2.7486  -2.6650  -2.6199  -2.5906  -2.5716  -2.5204  -2.5110  -2.4949
    -2.4227  -2.3272  -2.3138  -2.2277  -2.2116  -2.1739  -2.1529  -2.0617
    -2.0005  -1.9902  -1.9551  -1.8739  -1.8462  -1.7445  -1.7304  -1.6430
    -1.5776  -1.5736  -1.5294  -1.4551  -1.4491  -1.3622  -1.3506  -1.3343
    -1.3282  -1.2810  -1.2656  -1.1802  -1.1182  -1.1092  -1.0779  -1.0427
    -0.9653  -0.9057  -0.8218  -0.7809  -0.7658  -0.6422  -0.6326  -0.5431
    -0.4117  -0.2294  -0.1074  -0.0458   0.1247   0.2128   0.2137   1.6698
     1.7328   2.0090   2.0803   2.1571   2.2330   2.2475   2.2787   2.3867
     2.3947   2.4666   2.5138   2.5317   2.5490   2.5868   2.6062   2.6449
     2.6644   2.7441   2.7669   2.8769   2.8940   2.9800   3.0407   3.1140
     3.1290   3.1537   3.1709   3.2119   3.2182   3.2629   3.2772   3.3472
     3.3878   3.4131   3.4604   3.4817   3.5433   3.5704   3.6012   3.6079
     3.6737   3.7398   3.7570   3.9233   4.0112   4.1059   4.1817   4.2866
     4.3820   4.4024   4.5606   4.6755   4.8735   4.9169   4.9357   5.0775
     5.1302   5.1545   5.1990   5.3578   5.5712   5.6250   5.7012   5.8763
     5.8919   5.9340   5.9668   6.0320   6.0882   6.1152   6.1700   6.2188
     6.2276   6.2609   6.2692   6.3164   6.4562   6.5277   6.6458   6.6707
     6.8286   6.8760   7.0417   7.1426   7.3097   7.7519   7.8425   8.0821
     8.3360   8.3401   8.4324   8.6767   8.8521   8.9215   9.1484   9.3409
     9.3680   9.4487   9.5171

          k = 0.0253 0.0280 0.0000 ( 34687 PWs)   bands (ev):

   -57.6888 -57.6585 -57.3063 -57.2748 -57.2228 -57.0992 -57.0672 -57.0620
   -57.0409 -57.0316 -56.9779 -56.9472 -56.7170 -56.6844 -56.1396 -56.1090
   -34.1022 -33.9714 -33.9467 -33.8853 -33.8351 -33.8042 -33.7644 -33.6217
   -33.6025 -33.5736 -33.5342 -33.5253 -33.5127 -33.5068 -33.4834 -33.4629
   -33.4565 -33.4513 -33.4190 -33.3769 -33.3095 -33.2821 -33.2750 -33.2558
   -33.2489 -33.2444 -33.2425 -33.2392 -33.2292 -33.2277 -33.2267 -33.2053
   -33.1943 -33.1754 -33.1674 -33.1350 -33.1316 -32.9818 -32.9681 -32.9470
   -32.9022 -32.8221 -32.5340 -32.4934 -32.4695 -32.3578 -32.2785 -32.1914
   -20.3211 -17.9134 -17.7368 -17.4546 -17.3737 -17.2997 -17.2231 -17.1206
   -17.0887 -16.9975 -16.9550 -16.8492 -16.8224 -16.7963 -16.7747 -16.7615
   -16.7051 -16.6893 -16.5906 -16.5691 -16.4979 -16.4655 -16.3712 -16.3559
   -16.3469 -16.3212 -16.1913 -16.1644 -16.1456 -15.9988 -15.9566 -14.7355
   -14.6662 -11.5472  -7.2587  -5.4104  -5.2296  -5.1824  -5.1736  -5.0118
    -4.9575  -4.9263  -4.7501  -4.6910  -4.5530  -4.3949  -4.3624  -4.3376
    -4.2508  -4.2436  -4.1777  -4.1095  -4.0787  -4.0554  -4.0254  -4.0093
    -3.9679  -3.9338  -3.9045  -3.8591  -3.8134  -3.8012  -3.7757  -3.7125
    -3.6915  -3.6554  -3.6066  -3.5974  -3.5324  -3.5211  -3.3628  -3.3084
    -3.2430  -3.2143  -3.1449  -3.0638  -2.9734  -2.9402  -2.7797  -2.6997
    -2.6724  -2.6278  -2.6031  -2.5256  -2.4935  -2.4456  -2.4385  -2.4119
    -2.3968  -2.3777  -2.3314  -2.2936  -2.2072  -2.1690  -2.1071  -2.0909
    -2.0587  -1.9881  -1.9404  -1.8838  -1.8571  -1.8192  -1.7528  -1.6654
    -1.6365  -1.6076  -1.5797  -1.5532  -1.5004  -1.4522  -1.4319  -1.3946
    -1.3365  -1.3187  -1.2605  -1.2458  -1.2021  -1.1076  -1.0900  -1.0518
    -1.0055  -0.8800  -0.8342  -0.8266  -0.7552  -0.7317  -0.6861  -0.6495
[...]
    -1.2959  -1.2617  -1.2534  -1.1818  -1.1528  -1.0219  -1.0116  -1.0034
    -0.9791  -0.9398  -0.8955  -0.8276  -0.7477  -0.6909  -0.6403  -0.5856
    -0.5816  -0.5255  -0.5096   0.0736   0.0736   0.2182   0.2199   2.1616
     2.1625   2.2089   2.2107   2.2477   2.2484   2.2764   2.3073   2.4964
     2.5015   2.5344   2.5648   2.6181   2.6253   2.6875   2.6894   2.6995
     2.7006   2.8536   2.9192   2.9915   3.0070   3.0432   3.0508   3.1101
     3.2294   3.2580   3.2814   3.3424   3.3827   3.4000   3.4537   3.5020
     3.5093   3.5318   3.5587   3.5904   3.6129   3.6900   3.7119   3.7556
     3.8455   3.9012   3.9173   3.9604   3.9608   4.1039   4.1108   4.1195
     4.1200   4.6238   4.7905   4.7948   4.8084   4.8804   4.9289   4.9341
     4.9508   4.9943   5.0381   5.2578   5.3481   5.3685   5.3799   5.7541
     5.8080   5.9192   5.9365   5.9914   6.0486   6.1448   6.3155   6.3584
     6.3734   6.3834   6.4200   6.5789   6.5865   6.6725   6.6726   6.7122
     6.7630   6.8503   6.8513   6.8600   6.8610   7.3522   7.4107   7.5158
     7.6503   7.8186   8.0152   8.1652   8.2205   8.3146   8.3600   8.8405
     8.9066   9.0121   9.0786

          k =-0.0253 0.0280 0.0000 ( 34687 PWs)   bands (ev):

   -57.6889 -57.6586 -57.3062 -57.2747 -57.2228 -57.0992 -57.0672 -57.0620
   -57.0409 -57.0316 -56.9779 -56.9471 -56.7169 -56.6844 -56.1398 -56.1092
   -34.1023 -33.9714 -33.9468 -33.8853 -33.8351 -33.8043 -33.7645 -33.6217
   -33.6024 -33.5736 -33.5341 -33.5253 -33.5127 -33.5067 -33.4834 -33.4628
   -33.4564 -33.4512 -33.4189 -33.3769 -33.3095 -33.2821 -33.2750 -33.2558
   -33.2486 -33.2444 -33.2427 -33.2391 -33.2291 -33.2277 -33.2267 -33.2053
   -33.1942 -33.1754 -33.1673 -33.1349 -33.1316 -32.9818 -32.9680 -32.9470
   -32.9022 -32.8221 -32.5342 -32.4936 -32.4696 -32.3580 -32.2787 -32.1916
   -20.3211 -17.9134 -17.7368 -17.4546 -17.3738 -17.2997 -17.2231 -17.1205
   -17.0889 -16.9971 -16.9550 -16.8496 -16.8224 -16.7972 -16.7743 -16.7614
   -16.7051 -16.6895 -16.5904 -16.5687 -16.4980 -16.4656 -16.3712 -16.3559
   -16.3470 -16.3212 -16.1913 -16.1645 -16.1456 -15.9989 -15.9566 -14.7352
   -14.6659 -11.5472  -7.2586  -5.4103  -5.2294  -5.1823  -5.1736  -5.0121
    -4.9576  -4.9266  -4.7502  -4.6918  -4.5528  -4.3946  -4.3623  -4.3379
    -4.2520  -4.2405  -4.1791  -4.1079  -4.0830  -4.0553  -4.0278  -4.0095
    -3.9667  -3.9321  -3.9059  -3.8598  -3.8135  -3.8027  -3.7757  -3.7128
    -3.6940  -3.6532  -3.6064  -3.5966  -3.5308  -3.5205  -3.3699  -3.2989
    -3.2447  -3.2165  -3.1419  -3.0620  -2.9745  -2.9364  -2.7787  -2.6990
    -2.6718  -2.6284  -2.6028  -2.5231  -2.4945  -2.4429  -2.4380  -2.4138
    -2.3975  -2.3758  -2.3308  -2.2926  -2.2091  -2.1665  -2.1126  -2.0946
    -2.0543  -1.9842  -1.9417  -1.8867  -1.8561  -1.8198  -1.7339  -1.6987
    -1.6435  -1.5905  -1.5842  -1.5507  -1.5071  -1.4604  -1.4272  -1.3876
    -1.3366  -1.3233  -1.2719  -1.2324  -1.1900  -1.1116  -1.0916  -1.0498
    -1.0044  -0.8854  -0.8318  -0.8253  -0.7460  -0.7313  -0.6982  -0.6504
    -0.4237  -0.2737  -0.1256  -0.0782   0.1570   0.1864   0.1966   1.7287
     1.8528   2.0242   2.1095   2.2048   2.2556   2.2939   2.3278   2.4133
     2.4238   2.4595   2.4950   2.5387   2.5410   2.5571   2.6174   2.6777
     2.7142   2.7480   2.7850   2.8215   2.9492   2.9961   3.0135   3.0364
     3.1173   3.1458   3.1547   3.1830   3.2176   3.2491   3.3577   3.3813
     3.4121   3.4293   3.4731   3.5173   3.5710   3.5808   3.6463   3.6688
     3.6816   3.7190   3.7593   3.9032   4.0032   4.1488   4.1935   4.2632
     4.3143   4.4602   4.5173   4.7718   4.9468   4.9565   4.9934   5.0858
     5.1678   5.1836   5.2336   5.3933   5.6511   5.6796   5.7344   5.7944
     5.8627   5.8726   5.8816   6.0160   6.0802   6.0859   6.1324   6.1547
     6.2049   6.2122   6.2214   6.2501   6.4362   6.5346   6.6200   6.6696
     6.7963   6.8677   6.9707   7.1468   7.2287   7.5048   7.9081   8.0248
     8.0995   8.2328   8.4433   8.5752   8.6354   8.7713   8.9385   9.2600
     9.3590   9.4518   9.5022

          k =-0.0253 0.0560 0.0000 ( 34699 PWs)   bands (ev):

   -57.6825 -57.6650 -57.2997 -57.2813 -57.2220 -57.0931 -57.0733 -57.0556
   -57.0418 -57.0380 -56.9714 -56.9536 -56.7103 -56.6911 -56.1333 -56.1157
   -34.0324 -33.9661 -33.9518 -33.8684 -33.8375 -33.8216 -33.7640 -33.5868
   -33.5640 -33.5628 -33.5259 -33.5161 -33.5000 -33.4987 -33.4671 -33.4642
   -33.4458 -33.4161 -33.4036 -33.3588 -33.3064 -33.3054 -33.3002 -33.2929
   -33.2778 -33.2681 -33.2595 -33.2522 -33.2450 -33.2389 -33.2298 -33.2260
   -33.2004 -33.1891 -33.1607 -33.1547 -33.1153 -32.9767 -32.9637 -32.9510
   -32.9151 -32.8918 -32.4886 -32.4747 -32.4634 -32.3414 -32.2956 -32.2657
   -20.3208 -17.7471 -17.5815 -17.3343 -17.2553 -17.2351 -17.1848 -17.1598
   -17.1301 -16.9879 -16.9613 -16.8723 -16.8679 -16.8202 -16.7877 -16.7647
   -16.7392 -16.6607 -16.6123 -16.5938 -16.5709 -16.5209 -16.4181 -16.4021
   -16.3463 -16.2768 -16.2250 -16.1852 -16.1489 -16.0999 -16.0288 -14.7538
   -14.7166 -11.5464  -7.2577  -5.3779  -5.1936  -5.0224  -4.9410  -4.8040
    -4.7484  -4.7049  -4.5497  -4.4877  -4.4828  -4.4042  -4.3865  -4.3355
    -4.2622  -4.2240  -4.2069  -4.1833  -4.1388  -4.1320  -4.0989  -4.0534
    -4.0223  -3.9999  -3.9851  -3.9279  -3.9158  -3.8645  -3.8551  -3.8137
    -3.7665  -3.7060  -3.6480  -3.5640  -3.4669  -3.4073  -3.3369  -3.2765
    -3.2294  -3.2078  -3.1757  -3.0048  -2.9341  -2.8557  -2.8179  -2.7751
    -2.7483  -2.6370  -2.5839  -2.5021  -2.4795  -2.4302  -2.3860  -2.3541
    -2.3347  -2.3157  -2.2818  -2.2569  -2.1810  -2.1331  -2.1182  -2.0289
    -2.0107  -1.9929  -1.9367  -1.9339  -1.8959  -1.8530  -1.8209  -1.7973
    -1.7347  -1.7024  -1.6627  -1.6337  -1.5709  -1.5308  -1.4959  -1.4513
    -1.4226  -1.3629  -1.3383  -1.2936  -1.2162  -1.1969  -1.1300  -1.0958
    -1.0610  -1.0071  -0.9139  -0.8716  -0.8043  -0.7913  -0.7278  -0.6726
    -0.5977  -0.4576  -0.2483   0.0996   0.1363   0.1634   0.1959   1.8695
     2.0558   2.1443   2.1867   2.2376   2.2794   2.3147   2.3431   2.3917
     2.4536   2.4680   2.4949   2.5223   2.5288   2.5922   2.7024   2.7335
     2.7541   2.7840   2.8370   2.8497   2.9026   2.9598   2.9810   2.9963
     3.0332   3.0434   3.1809   3.2176   3.3004   3.3262   3.3429   3.3803
     3.4212   3.4454   3.4692   3.5527   3.5678   3.6444   3.6673   3.7455
     3.8033   3.8271   3.8706   3.9082   3.9157   4.0827   4.1245   4.1732
     4.3506   4.3938   4.6233   4.9740   5.0285   5.1254   5.1457   5.1645
     5.2684   5.2962   5.3255   5.4361   5.5207   5.5688   5.6494   5.7718
     5.8349   5.8574   5.9041   5.9440   5.9626   6.0029   6.0584   6.0707
     6.1458   6.1642   6.2369   6.3271   6.3872   6.4191   6.4845   6.6446
     6.7005   6.8037   6.8511   7.0375   7.1369   7.3686   7.4717   7.5888
     7.9574   8.1608   8.3431   8.5027   8.6332   8.8596   9.0418   9.1216
     9.1845   9.4859   9.6196

          k =-0.0506 0.0280 0.0000 ( 34685 PWs)   bands (ev):

   -57.6889 -57.6586 -57.3062 -57.2747 -57.2228 -57.0991 -57.0672 -57.0621
   -57.0409 -57.0316 -56.9779 -56.9471 -56.7170 -56.6844 -56.1398 -56.1092
   -34.1029 -33.9714 -33.9468 -33.8840 -33.8353 -33.8043 -33.7645 -33.6231
   -33.6024 -33.5769 -33.5347 -33.5260 -33.5182 -33.5105 -33.4833 -33.4625
   -33.4489 -33.4391 -33.4190 -33.3607 -33.3092 -33.2824 -33.2707 -33.2568
   -33.2558 -33.2516 -33.2483 -33.2433 -33.2292 -33.2277 -33.2256 -33.2030
   -33.1947 -33.1756 -33.1673 -33.1348 -33.1315 -32.9818 -32.9723 -32.9456
   -32.9022 -32.8221 -32.5340 -32.4954 -32.4687 -32.3580 -32.2787 -32.1916
   -20.3207 -17.8511 -17.6432 -17.3600 -17.3317 -17.2406 -17.2150 -17.2068
   -17.1134 -17.0342 -16.9552 -16.9112 -16.8610 -16.8490 -16.8468 -16.8226
   -16.7540 -16.7372 -16.5497 -16.5184 -16.4934 -16.4295 -16.4069 -16.3656
   -16.3585 -16.3037 -16.1820 -16.1631 -16.1444 -16.0001 -15.9564 -14.7332
   -14.6659 -11.5447  -7.2533  -5.4237  -5.2153  -5.1808  -4.8845  -4.8254
    -4.7111  -4.6952  -4.6656  -4.6459  -4.6212  -4.5015  -4.4195  -4.3363
    -4.3070  -4.2932  -4.1504  -4.1190  -4.0509  -4.0174  -3.9998  -3.9843
    -3.9745  -3.9012  -3.8510  -3.8072  -3.7641  -3.7521  -3.7108  -3.6830
    -3.6492  -3.6239  -3.5755  -3.5422  -3.4466  -3.3322  -3.2871  -3.2546
    -3.2169  -3.1619  -3.0933  -3.0486  -2.9442  -2.9290  -2.8669  -2.8322
    -2.7348  -2.6870  -2.6504  -2.6429  -2.5953  -2.5819  -2.5274  -2.4856
    -2.4276  -2.3789  -2.3724  -2.3269  -2.2999  -2.2451  -2.1701  -2.1259
    -2.1038  -2.0535  -2.0185  -1.9661  -1.9318  -1.8969  -1.8506  -1.8214
    -1.7456  -1.7306  -1.7031  -1.6318  -1.5317  -1.4981  -1.4756  -1.4090
    -1.3577  -1.3397  -1.2702  -1.2557  -1.2284  -1.1394  -1.1185  -1.0039
    -0.9717  -0.8719  -0.8477  -0.8048  -0.7693  -0.7550  -0.6953  -0.6815
    -0.5037  -0.3037  -0.2509  -0.0655   0.1176   0.1469   0.1704   1.7122
     1.9131   2.0683   2.1320   2.1365   2.1810   2.2505   2.3712   2.3813
     2.4153   2.4478   2.5269   2.5769   2.5826   2.6116   2.6939   2.7064
     2.7522   2.8120   2.8429   2.9119   2.9663   2.9912   3.0503   3.0704
     3.1013   3.1706   3.1798   3.2090   3.3118   3.3670   3.3849   3.4204
     3.4560   3.4688   3.5569   3.5968   3.6127   3.6627   3.6845   3.6941
     3.7265   3.7806   3.8266   3.8793   3.9437   4.0690   4.1766   4.2901
     4.3024   4.4307   4.6300   4.6995   4.7723   4.8200   4.8658   4.9896
     5.0226   5.1331   5.2320   5.4782   5.6024   5.6476   5.7297   5.8131
     5.8700   5.8814   5.9340   5.9532   5.9855   6.0972   6.1231   6.1464
     6.2318   6.4413   6.4881   6.5504   6.5867   6.6115   6.6954   6.7406
     6.8052   6.8252   6.9817   7.1127   7.1739   7.3865   7.5842   7.7015
     8.1198   8.1696   8.2300   8.3790   8.7421   8.9647   9.0075   9.0556
     9.3575   9.4179   9.6045

          k =-0.0506 0.0560 0.0000 ( 34596 PWs)   bands (ev):

   -57.6825 -57.6650 -57.2997 -57.2813 -57.2220 -57.0930 -57.0732 -57.0557
   -57.0417 -57.0381 -56.9714 -56.9536 -56.7103 -56.6911 -56.1333 -56.1157
   -34.0330 -33.9661 -33.9518 -33.8673 -33.8377 -33.8212 -33.7641 -33.5868
   -33.5651 -33.5628 -33.5263 -33.5122 -33.5060 -33.5024 -33.4671 -33.4649
   -33.4438 -33.4161 -33.3941 -33.3452 -33.3096 -33.3072 -33.2925 -33.2905
   -33.2781 -33.2680 -33.2593 -33.2499 -33.2451 -33.2435 -33.2391 -33.2311
   -33.2005 -33.1907 -33.1607 -33.1544 -33.1149 -32.9767 -32.9665 -32.9508
   -32.9151 -32.8916 -32.4897 -32.4742 -32.4633 -32.3414 -32.2956 -32.2656
   -20.3204 -17.6966 -17.4925 -17.2818 -17.2307 -17.1882 -17.1656 -17.1531
   -17.0803 -17.0289 -16.9972 -16.9049 -16.8477 -16.8405 -16.8352 -16.7971
   -16.7678 -16.7114 -16.6531 -16.6121 -16.6024 -16.5423 -16.5041 -16.3884
   -16.3335 -16.2555 -16.2170 -16.1837 -16.1484 -16.1015 -16.0280 -14.7526
   -14.7170 -11.5438  -7.2521  -5.3943  -5.1924  -5.0130  -4.6512  -4.6087
    -4.5062  -4.4902  -4.4749  -4.4477  -4.4225  -4.3585  -4.3164  -4.2932
    -4.2174  -4.1974  -4.1385  -4.1234  -4.0736  -4.0575  -4.0373  -4.0269
    -4.0041  -3.9870  -3.9595  -3.9054  -3.8846  -3.8798  -3.8138  -3.7776
    -3.7228  -3.6532  -3.6224  -3.5159  -3.4882  -3.3882  -3.3199  -3.2527
    -3.2503  -3.2374  -3.1447  -3.0092  -2.9263  -2.8947  -2.8427  -2.8229
    -2.7477  -2.7181  -2.6767  -2.6008  -2.5836  -2.5589  -2.5203  -2.4814
    -2.4197  -2.3971  -2.3574  -2.3205  -2.3078  -2.2919  -2.2467  -2.1696
    -2.1437  -2.1131  -2.1056  -2.0690  -2.0381  -1.9922  -1.9727  -1.8929
    -1.8821  -1.8423  -1.8233  -1.7168  -1.6292  -1.5971  -1.5636  -1.4701
    -1.4030  -1.3656  -1.2981  -1.2543  -1.1980  -1.1056  -1.0686  -1.0104
    -0.9956  -0.9285  -0.8461  -0.8101  -0.7606  -0.7462  -0.6833  -0.6486
    -0.6435  -0.5087  -0.3156   0.0856   0.1197   0.1377   0.2013   1.8749
     2.0846   2.1747   2.2093   2.2297   2.2518   2.3075   2.3577   2.4026
     2.4119   2.5459   2.5795   2.5884   2.6161   2.6379   2.6928   2.7638
     2.7905   2.8135   2.8483   2.8908   2.9728   3.0145   3.0375   3.0723
     3.1070   3.1459   3.1772   3.2664   3.3452   3.3768   3.4067   3.4509
     3.4886   3.5095   3.5319   3.5525   3.6240   3.6573   3.7214   3.7534
     3.7906   3.8626   3.8902   3.9274   3.9335   3.9645   4.1196   4.1828
     4.2973   4.4828   4.7323   4.8148   4.8264   4.9050   4.9527   5.1009
     5.1751   5.2394   5.2799   5.3351   5.3813   5.4447   5.5042   5.6356
     5.7894   5.8408   5.8903   5.9596   6.0436   6.1321   6.2243   6.2657
     6.2944   6.3496   6.4257   6.4598   6.5101   6.5841   6.6545   6.7240
     6.7377   6.8293   6.8464   6.9917   7.0536   7.4119   7.4187   7.5709
     7.7405   7.9396   8.0615   8.3811   8.5736   8.5921   8.7123   9.0044
     9.2219   9.3295   9.4545

     the Fermi energy is     1.0049 ev

!    total energy              =   -3021.41814078 Ry
     Harris-Foulkes estimate   =   -3021.41813855 Ry
     estimated scf accuracy    <       0.00000062 Ry

     The total energy is the sum of the following terms:

     one-electron contribution =  -41241.49011661 Ry
     hartree contribution      =   20695.10099541 Ry
     xc contribution           =    -553.70264217 Ry
     ewald contribution        =   18078.67383331 Ry
     smearing contrib. (-TS)   =      -0.00021072 Ry

     total magnetization       =     0.00 Bohr mag/cell
     absolute magnetization    =     0.00 Bohr mag/cell

     convergence has been achieved in  10 iterations

     Forces acting on atoms (Ry/au):


     negative rho (up, down):  1.209E-02 1.209E-02
     atom    1 type  1   force =    -0.00000885   -0.00035159   -0.13373382
     atom    2 type  2   force =    -0.00004682    0.00002568    0.07204962
     atom    3 type  1   force =    -0.00136780    0.00029968   -0.06089797
     atom    4 type  2   force =     0.00294473    0.00050667    0.00638594
     atom    5 type  1   force =     0.00029292    0.00178007    0.00356350
     atom    6 type  2   force =     0.00009386   -0.00003952   -0.00280946
     atom    7 type  1   force =     0.00099665   -0.00074269    0.00498971
     atom    8 type  2   force =     0.00115177    0.00021055   -0.00009183
     atom    9 type  1   force =    -0.00003927    0.00002909   -0.13349691
     atom   10 type  2   force =    -0.00004526    0.00005611    0.07129733
     atom   11 type  1   force =    -0.00127986   -0.00023048   -0.05581427
     atom   12 type  2   force =     0.00303015   -0.00006227    0.00608877
     atom   13 type  1   force =     0.00032514   -0.00138384    0.00348576
     atom   14 type  2   force =    -0.00125111   -0.00039292   -0.00292217
     atom   15 type  1   force =     0.00006494    0.00017285    0.00450721
     atom   16 type  2   force =     0.00074566   -0.00052226    0.00049377
     atom   17 type  2   force =    -0.00004755   -0.00006300    0.07942855
     atom   18 type  1   force =     0.00012225   -0.00017297    0.11918572
     atom   19 type  2   force =    -0.00006979   -0.00014490   -0.06672592
     atom   20 type  2   force =    -0.06327006    0.00015695   -0.03225321
     atom   21 type  2   force =     0.06320102    0.00001571   -0.03243370
     atom   22 type  1   force =     0.00072965    0.00108266    0.05980565
     atom   23 type  2   force =    -0.00018357    0.00006750   -0.00180934
     atom   24 type  2   force =    -0.00145952    0.00001288   -0.02335024
     atom   25 type  2   force =    -0.00315814    0.00060173    0.00786351
     atom   26 type  1   force =     0.00067112    0.00031126    0.00474155
     atom   27 type  2   force =     0.00060692    0.00059308   -0.00399959
     atom   28 type  2   force =     0.00013990   -0.00004729   -0.00118405
     atom   29 type  2   force =     0.00018790   -0.00031708   -0.00064079
     atom   30 type  1   force =    -0.00019905   -0.00046860    0.00391487
     atom   31 type  2   force =     0.00076426    0.00003897   -0.00295772
     atom   32 type  2   force =     0.00014138   -0.00059594   -0.00189969
     atom   33 type  2   force =    -0.00014430    0.00004844    0.07893895
     atom   34 type  1   force =     0.00006712   -0.00021932    0.11913429
     atom   35 type  2   force =    -0.00031132   -0.00005620   -0.06641788
     atom   36 type  2   force =    -0.06322216   -0.00004811   -0.03235307
     atom   37 type  2   force =     0.06329473   -0.00021398   -0.03248638
     atom   38 type  1   force =     0.00068057   -0.00098014    0.06003445
     atom   39 type  2   force =    -0.00040174    0.00009866   -0.00254639
     atom   40 type  2   force =    -0.00118198    0.00030791   -0.02224549
     atom   41 type  2   force =    -0.00318789   -0.00016940    0.00788539
     atom   42 type  1   force =     0.00047702    0.00005840    0.00384474
     atom   43 type  2   force =     0.00069973    0.00025279   -0.00311321
     atom   44 type  2   force =     0.00022377    0.00007320   -0.00115077
     atom   45 type  2   force =     0.00015516    0.00029085   -0.00067370
     atom   46 type  1   force =     0.00019625    0.00002994    0.00400574
     atom   47 type  2   force =     0.00007742   -0.00049207   -0.00119719
     atom   48 type  2   force =     0.00017868    0.00063670   -0.00161756
     atom   49 type  3   force =     0.01270155   -0.00065715   -0.00400631
     atom   50 type  2   force =    -0.07453560    0.00027367   -0.00668505
     atom   51 type  4   force =     0.00268400    0.00008536   -0.00443076
     atom   52 type  4   force =     0.05726178   -0.00011116    0.01693847
     atom   53 type  4   force =     0.00011616    0.00155591   -0.00136131
     atom   54 type  4   force =     0.00038750   -0.00119035   -0.00127779

     Total force =     0.375338     Total SCF correction =     0.001791
 !ASE

     Writing output data file calc.save
 
     init_run     :     55.41s CPU     71.26s WALL (       1 calls)
     electrons    :   2224.12s CPU   2754.27s WALL (       1 calls)
     forces       :     39.73s CPU     41.48s WALL (       1 calls)

     Called by init_run:
     wfcinit      :     47.32s CPU     62.06s WALL (       1 calls)
     potinit      :      1.30s CPU      1.69s WALL (       1 calls)

     Called by electrons:
     c_bands      :   1946.34s CPU   2407.01s WALL (      10 calls)
     sum_band     :    233.16s CPU    296.17s WALL (      10 calls)
     v_of_rho     :     10.62s CPU     13.72s WALL (      11 calls)
     newd         :     37.58s CPU     41.30s WALL (      11 calls)
     mix_rho      :      0.43s CPU      0.59s WALL (      10 calls)
     vdW_energy   :      1.91s CPU      2.34s WALL (      12 calls)
     vdW_ffts     :      2.77s CPU      3.79s WALL (      24 calls)
     vdW_v        :      1.09s CPU      1.28s WALL (      12 calls)

     Called by c_bands:
     init_us_2    :      6.03s CPU      6.52s WALL (     880 calls)
     cegterg      :   1909.69s CPU   2368.29s WALL (     400 calls)

     Called by *egterg:
     h_psi        :    745.80s CPU   1115.65s WALL (    2419 calls)
     s_psi        :     92.80s CPU     97.68s WALL (    2419 calls)
     g_psi        :      4.99s CPU      5.12s WALL (    1979 calls)
     cdiaghg      :    719.04s CPU    738.07s WALL (    2379 calls)

     Called by h_psi:
     add_vuspsi   :     93.36s CPU     98.10s WALL (    2419 calls)

     General routines
     calbec       :    140.47s CPU    144.42s WALL (    2859 calls)
     fft          :      5.70s CPU      7.68s WALL (     948 calls)
     ffts         :      0.04s CPU      0.06s WALL (      42 calls)
     fftw         :    489.13s CPU    899.96s WALL (  732580 calls)
     interpolate  :      0.31s CPU      0.53s WALL (      42 calls)
     davcio       :      0.13s CPU      4.49s WALL (      40 calls)
 
     Parallel routines
     fft_scatter  :    264.45s CPU    472.92s WALL (  733570 calls)
 
     PWSCF        : 38m40.23s CPU    47m53.34s WALL

 
   This run was terminated on:  14:55:22  12Feb2018            

=------------------------------------------------------------------------------=
   JOB DONE.
=------------------------------------------------------------------------------=
