  python dir          : /home/vossj/suncat/lib/python2.7/site-packages/espresso
  espresso dir        : /home/vossj/suncat/esdld/espresso-dynpy-beef/bin
  pseudo dir          : /home/alatimer/bin/psp/esp_psp_w_gbrvRu/
  ase-espresso py git : ffa2778-git



     Program PWSCF v.5.1rc2 (svn rev. ) starts on 26Feb2018 at 23:34: 1 

     This program is part of the open-source Quantum ESPRESSO suite
     for quantum simulation of materials; please cite
         "P. Giannozzi et al., J. Phys.:Condens. Matter 21 395502 (2009);
          URL http://www.quantum-espresso.org", 
     in publications or presentations arising from this work. More details at
     http://www.quantum-espresso.org/quote

     Parallel version (MPI), running on    16 processors
     R & G space division:  proc/nbgrp/npool/nimage =      16
     Reading input from pw.inp
     Message from routine read_cards :
     DEPRECATED: no units specified in CELL_PARAMETERS card

     Current dimensions of program PWSCF are:
     Max number of different atomic species (ntypx) = 10
     Max number of k-points (npk) =  40000
     Max angular momentum in pseudopotentials (lmaxx) =  3

     **************************************************************************
     Initializing libbeef V0.1.1 with the BEEF-vdW functional.
     Citation: Wellendorff et al., PRB 85, 235149 (2012).
     **************************************************************************


     IMPORTANT: XC functional enforced from input :
     Exchange-correlation      = BEEF ( 1  4 27 13 2)
     Any further DFT definition will be discarded
     Please, verify this is what you really want


     Subspace diagonalization in iterative solution of the eigenvalue problem:
     a serial algorithm will be used

 
     Parallelization info
     --------------------
     sticks:   dense  smooth     PW     G-vecs:    dense   smooth      PW
     Min         281     112     31                68535    17318    2565
     Max         282     113     32                68545    17369    2582
     Sum        4501    1795    503              1096637   277353   41113
 
     Generating pointlists ...
     new r_m :   0.4125 (alat units)  0.7795 (a.u.) for type    1
     new r_m :   0.4125 (alat units)  0.7795 (a.u.) for type    2
     new r_m :   0.4125 (alat units)  0.7795 (a.u.) for type    3
     new r_m :   0.4125 (alat units)  0.7795 (a.u.) for type    4


     bravais-lattice index     =            0
     lattice parameter (alat)  =       1.8897  a.u.
     unit-cell volume          =    7990.9933 (a.u.)^3
     number of atoms/cell      =           54
     number of atomic types    =            4
     number of electrons       =       398.00
     number of Kohn-Sham states=          299
     kinetic-energy cutoff     =      40.4243  Ry
     charge density cutoff     =     404.2426  Ry
     convergence threshold     =      7.3E-07
     mixing beta               =       0.1000
     number of iterations used =           10  plain     mixing
     Exchange-correlation      = BEEF ( 1  4 27 13 2)
     nstep                     =           50


     celldm(1)=   1.889726  celldm(2)=   0.000000  celldm(3)=   0.000000
     celldm(4)=   0.000000  celldm(5)=   0.000000  celldm(6)=   0.000000

     crystal axes: (cart. coord. in units of alat)
               a(1) = (   6.590708   0.000000   0.000000 )  
               a(2) = (   0.000000   5.950229   0.000000 )  
               a(3) = (   0.000000   0.000000  30.195235 )  

     reciprocal axes: (cart. coord. in units 2 pi/alat)
               b(1) = (  0.151729  0.000000  0.000000 )  
               b(2) = (  0.000000  0.168061  0.000000 )  
               b(3) = (  0.000000  0.000000  0.033118 )  


     PseudoPot. # 1 for Ti read from file:
     /home/alatimer/bin/psp/esp_psp_w_gbrvRu/Ti.UPF
     MD5 check sum: 8e4df49b7f0d34bbd5052bf3f5ea0213
     Pseudo is Ultrasoft, Zval = 12.0
     Generated by new atomic code, or converted to UPF format
     Using radial grid of  851 points,  6 beta functions with: 
                l(1) =   0
                l(2) =   0
                l(3) =   1
                l(4) =   1
                l(5) =   2
                l(6) =   2
     Q(r) pseudized with  8 coefficients,  rinner =    1.000   1.000   1.000
                                                       1.000   1.000

     PseudoPot. # 2 for  O read from file:
     /home/alatimer/bin/psp/esp_psp_w_gbrvRu/O.UPF
     MD5 check sum: e057bbcf3229fb5d8c36c0c92f9568b4
     Pseudo is Ultrasoft + core correction, Zval =  6.0
     Generated using "atomic" code by A. Dal Corso  v.5.0.2 svn rev. 9415
     Using radial grid of 1095 points,  4 beta functions with: 
                l(1) =   0
                l(2) =   0
                l(3) =   1
                l(4) =   1
     Q(r) pseudized with 0 coefficients 


     PseudoPot. # 3 for  C read from file:
     /home/alatimer/bin/psp/esp_psp_w_gbrvRu/C.UPF
     MD5 check sum: ab446d787031eba755f1d5ee46644bb0
     Pseudo is Ultrasoft + core correction, Zval =  4.0
     Generated using "atomic" code by A. Dal Corso  v.5.0.2 svn rev. 9415
     Using radial grid of 1073 points,  4 beta functions with: 
                l(1) =   0
                l(2) =   0
                l(3) =   1
                l(4) =   1
     Q(r) pseudized with 0 coefficients 


     PseudoPot. # 4 for  H read from file:
     /home/alatimer/bin/psp/esp_psp_w_gbrvRu/H.UPF
     MD5 check sum: bd57da0722753ddfd9833a65b40bb853
     Pseudo is Ultrasoft, Zval =  1.0
     Generated using "atomic" code by A. Dal Corso  v.5.0.2 svn rev. 9415
     Using radial grid of  929 points,  2 beta functions with: 
                l(1) =   0
                l(2) =   0
     Q(r) pseudized with 0 coefficients 


     vdW kernel table read from file vdW_kernel_table
     MD5 check sum: 095c7af220d748ca6e76c0b4c6cfb241

     atomic species   valence    mass     pseudopotential
        Ti1           12.00    47.88000     Ti( 1.00)
        O1             6.00    15.99940      O( 1.00)
        C1             4.00    12.01100      C( 1.00)
        H1             1.00     1.00794      H( 1.00)

     Starting magnetic structure 
     atomic species   magnetization
        Ti1          0.250
        O1           0.500
        C1           0.750
        H1           0.000

     No symmetry found



   Cartesian axes

     site n.     atom                  positions (alat units)
         1           Ti1 tau(   1) = (   1.6476770   0.7437786   2.6545865  )
         2           O1  tau(   2) = (   1.6476770   2.2313359   3.9361215  )
         3           Ti1 tau(   3) = (   1.6476770   2.2313359   5.9499405  )
         4           O1  tau(   4) = (   0.3661420   0.7437786   5.9499405  )
         5           Ti1 tau(   5) = (   1.6407309   0.9134410   9.3139491  )
         6           O1  tau(   6) = (   1.6648823   2.2608486  10.4895904  )
         7           Ti1 tau(   7) = (   1.7578240   2.2899216  13.0472362  )
         8           O1  tau(   8) = (   0.4801583   0.7600008  12.7739736  )
         9           Ti1 tau(   9) = (   1.6476770   3.7188931   2.6545865  )
        10           O1  tau(  10) = (   1.6476770   5.2064503   3.9361215  )
        11           Ti1 tau(  11) = (   1.6476770   5.2064503   5.9499405  )
        12           O1  tau(  12) = (   0.3661420   3.7188931   5.9499405  )
        13           Ti1 tau(  13) = (   1.6336050   3.7786827   9.1566831  )
        14           O1  tau(  14) = (   1.6678212   5.2513959  10.5409436  )
        15           Ti1 tau(  15) = (   1.7144009   5.2558216  12.3462911  )
        16           O1  tau(  16) = (   0.4635505   3.7986228  12.7318280  )
        17           O1  tau(  17) = (   1.6476770   2.2313359   1.3730516  )
        18           Ti1 tau(  18) = (   4.9430310   2.2313359   2.6545865  )
        19           O1  tau(  19) = (   4.9430310   2.2313359   4.6684056  )
        20           O1  tau(  20) = (   6.2245660   0.7437786   2.6545865  )
        21           O1  tau(  21) = (   3.6614961   0.7437786   2.6545865  )
        22           Ti1 tau(  22) = (   4.9430310   0.7437786   5.9499405  )
        23           O1  tau(  23) = (   1.6683653   2.2752577   7.9427336  )
        24           O1  tau(  24) = (   4.9430310   2.2313359   7.2314755  )
        25           O1  tau(  25) = (   2.9292120   0.7437786   5.9499405  )
        26           Ti1 tau(  26) = (   4.9404121   2.2664794   9.4552217  )
        27           O1  tau(  27) = (   5.0099888   2.2616732  11.2946145  )
        28           O1  tau(  28) = (   6.2612001   0.7714827   9.2659748  )
        29           O1  tau(  29) = (   3.6791272   0.7744986   9.2965846  )
        30           Ti1 tau(  30) = (   5.0117873   0.7976728  12.8161605  )
        31           O1  tau(  31) = (   4.9963122   2.2836652  13.8750618  )
        32           O1  tau(  32) = (   2.9819382   0.7448324  12.7109220  )
        33           O1  tau(  33) = (   1.6476770   5.2064503   1.3730516  )
        34           Ti1 tau(  34) = (   4.9430310   5.2064503   2.6545865  )
        35           O1  tau(  35) = (   4.9430310   5.2064503   4.6684056  )
        36           O1  tau(  36) = (   6.2245660   3.7188931   2.6545865  )
        37           O1  tau(  37) = (   3.6614961   3.7188931   2.6545865  )
        38           Ti1 tau(  38) = (   4.9430310   3.7188931   5.9499405  )
        39           O1  tau(  39) = (   1.6664207   5.2035600   7.9365221  )
        40           O1  tau(  40) = (   4.9430310   5.2064503   7.2314755  )
        41           O1  tau(  41) = (   2.9292120   3.7188931   5.9499405  )
        42           Ti1 tau(  42) = (   4.9524353   5.2460635   9.4426343  )
        43           O1  tau(  43) = (   5.0107556   5.2394944  11.2927493  )
        44           O1  tau(  44) = (   6.2663940   3.7551737   9.2646230  )
        45           O1  tau(  45) = (   3.6780957   3.7542261   9.2971476  )
        46           Ti1 tau(  46) = (   5.0587989   3.7766986  12.8010349  )
        47           O1  tau(  47) = (   5.0196089   5.2502198  13.8813978  )
        48           O1  tau(  48) = (   2.9624133   3.7943242  12.7299881  )
        49           O1  tau(  49) = (   1.7427453   2.2533568  14.8370015  )
        50           C1  tau(  50) = (   2.7196098   4.2826273  16.2318421  )
        51           H1  tau(  51) = (   3.3037454   4.9255546  15.5827400  )
        52           H1  tau(  52) = (   3.3286606   3.7870117  16.9822022  )
        53           H1  tau(  53) = (   2.3125587   3.4026405  15.5729816  )
        54           H1  tau(  54) = (   1.8091288   4.7650601  16.6448379  )

     number of k points=    40  Fermi-Dirac smearing, width (Ry)=  0.0073
                       cart. coord. in units 2pi/alat
        k(    1) = (   0.0000000   0.0000000   0.0000000), wk =   0.0277778
        k(    2) = (   0.0000000   0.0280101   0.0000000), wk =   0.0555556
        k(    3) = (   0.0000000   0.0560203   0.0000000), wk =   0.0555556
        k(    4) = (   0.0000000  -0.0840304   0.0000000), wk =   0.0277778
        k(    5) = (   0.0252881   0.0000000   0.0000000), wk =   0.0555556
        k(    6) = (   0.0252881   0.0280101   0.0000000), wk =   0.0555556
        k(    7) = (   0.0252881   0.0560203   0.0000000), wk =   0.0555556
        k(    8) = (   0.0252881  -0.0840304   0.0000000), wk =   0.0555556
        k(    9) = (   0.0505763   0.0000000   0.0000000), wk =   0.0555556
        k(   10) = (   0.0505763   0.0280101   0.0000000), wk =   0.0555556
        k(   11) = (   0.0505763   0.0560203   0.0000000), wk =   0.0555556
        k(   12) = (   0.0505763  -0.0840304   0.0000000), wk =   0.0555556
        k(   13) = (  -0.0758644   0.0000000   0.0000000), wk =   0.0277778
        k(   14) = (  -0.0758644   0.0280101   0.0000000), wk =   0.0555556
        k(   15) = (  -0.0758644   0.0560203   0.0000000), wk =   0.0555556
        k(   16) = (  -0.0758644  -0.0840304   0.0000000), wk =   0.0277778
        k(   17) = (  -0.0252881   0.0280101   0.0000000), wk =   0.0555556
        k(   18) = (  -0.0252881   0.0560203   0.0000000), wk =   0.0555556
        k(   19) = (  -0.0505763   0.0280101   0.0000000), wk =   0.0555556
        k(   20) = (  -0.0505763   0.0560203   0.0000000), wk =   0.0555556
        k(   21) = (   0.0000000   0.0000000   0.0000000), wk =   0.0277778
        k(   22) = (   0.0000000   0.0280101   0.0000000), wk =   0.0555556
        k(   23) = (   0.0000000   0.0560203   0.0000000), wk =   0.0555556
        k(   24) = (   0.0000000  -0.0840304   0.0000000), wk =   0.0277778
        k(   25) = (   0.0252881   0.0000000   0.0000000), wk =   0.0555556
        k(   26) = (   0.0252881   0.0280101   0.0000000), wk =   0.0555556
        k(   27) = (   0.0252881   0.0560203   0.0000000), wk =   0.0555556
        k(   28) = (   0.0252881  -0.0840304   0.0000000), wk =   0.0555556
        k(   29) = (   0.0505763   0.0000000   0.0000000), wk =   0.0555556
        k(   30) = (   0.0505763   0.0280101   0.0000000), wk =   0.0555556
        k(   31) = (   0.0505763   0.0560203   0.0000000), wk =   0.0555556
        k(   32) = (   0.0505763  -0.0840304   0.0000000), wk =   0.0555556
        k(   33) = (  -0.0758644   0.0000000   0.0000000), wk =   0.0277778
        k(   34) = (  -0.0758644   0.0280101   0.0000000), wk =   0.0555556
        k(   35) = (  -0.0758644   0.0560203   0.0000000), wk =   0.0555556
        k(   36) = (  -0.0758644  -0.0840304   0.0000000), wk =   0.0277778
        k(   37) = (  -0.0252881   0.0280101   0.0000000), wk =   0.0555556
        k(   38) = (  -0.0252881   0.0560203   0.0000000), wk =   0.0555556
        k(   39) = (  -0.0505763   0.0280101   0.0000000), wk =   0.0555556
        k(   40) = (  -0.0505763   0.0560203   0.0000000), wk =   0.0555556

     Dense  grid:  1096637 G-vectors     FFT dimensions: (  80,  72, 375)

     Smooth grid:   277353 G-vectors     FFT dimensions: (  54,  45, 240)

     Largest allocated arrays     est. size (Mb)     dimensions
        Kohn-Sham Wavefunctions         9.95 Mb     (    2180,  299)
        NL pseudopotentials            18.89 Mb     (    2180,  568)
        Each V/rho on FFT grid          4.22 Mb     (  138240,   2)
        Each G-vector array             0.52 Mb     (   68538)
        G-vector shells                 0.25 Mb     (   33046)
     Largest temporary arrays     est. size (Mb)     dimensions
        Auxiliary wavefunctions        39.78 Mb     (    2180, 1196)
        Each subspace H/S matrix       21.83 Mb     (    1196, 1196)
        Each <psi_i|beta_j> matrix      2.59 Mb     (     568,  299)
        Arrays for rho mixing          21.09 Mb     (  138240,   10)

     Check: negative/imaginary core charge=   -0.000049    0.000000

     The initial density is read from file :
     ./calc.save/charge-density.dat


     negative rho (up, down):  1.189E-02 1.196E-02


     ************************************************************************
     *
     * You are using vdW-DF for exchange-correlation in this calculation.
     * Please cite the following three references that made this development
     * possible:
     *
     *   M. Dion, H. Rydberg, E. Schroder, D. C. Langreth, and
     *   B. I. Lundqvist, Phys. Rev. Lett. 92, 246401 (2004).
     *
     *   T. Thonhauser, V. R. Cooper, S. Li, A. Puzder, P. Hyldgaard, and
     *   D. C. Langreth, Phys. Rev. B 76, 125112 (2007).
     *
     *   G. Roman-Perez and J. M. Soler, Phys. Rev. Lett. 103, 096102 (2009).
     *
     *
     * If you are using vdW-DF2, please also cite:
     *
     *   K. Lee, E. D. Murray, L. Kong, B. I. Lundqvist, and
     *   D. C. Langreth, Phys. Rev. B 82, 081101(R) (2010).
     *
     *
     * If you are calculating the stress with vdW-DF, please also cite:
     *
     *   R. Sabatini, E. Kucukbenli, B. Kolb, T. Thonhauser, and
     *   S. de Gironcoli, J. Phys.: Condens. Matter 24, 424209 (2012).
     *
     ************************************************************************

     Carrying out vdW-DF run using the following parameters:

     Nqs =      20    Nr_points =    1024   r_max =   100.000
     q_mesh =
               0.00001000     0.04494208     0.09755937     0.15916263
               0.23128650     0.31572767     0.41458969     0.53033537
               0.66584808     0.82450364     1.01025438     1.22772762
               1.48234092     1.78043706     2.12944203     2.53805004
               3.01644009     3.57652955     4.23227104     5.00000000

     Gradients computed in reciprocal space

     ************************************************************************


     Starting wfc are  300 randomized atomic wfcs

     total cpu time spent up to now is       77.7 secs

     Self-consistent Calculation

     iteration #  1     ecut=    40.42 Ry     beta=0.10
     Davidson diagonalization with overlap
     ethr =  1.00E-05,  avg # of iterations = 14.9

     Threshold (ethr) on eigenvalues was too large:
     Diagonalizing with lowered threshold

     Davidson diagonalization with overlap
     ethr =  7.98E-07,  avg # of iterations =  1.0

     negative rho (up, down):  1.189E-02 1.195E-02
 
     Magnetic moment per site:
     atom:    1    charge:    3.1244    magn:   -0.0003    constr:    0.0000
     atom:    2    charge:    2.0897    magn:    0.0003    constr:    0.0000
     atom:    3    charge:    3.1198    magn:   -0.0000    constr:    0.0000
     atom:    4    charge:    2.0867    magn:   -0.0001    constr:    0.0000
     atom:    5    charge:    3.1161    magn:   -0.0002    constr:    0.0000
     atom:    6    charge:    2.0795    magn:    0.0020    constr:    0.0000
     atom:    7    charge:    3.1167    magn:   -0.0052    constr:    0.0000
     atom:    8    charge:    2.0794    magn:    0.0248    constr:    0.0000
     atom:    9    charge:    3.1244    magn:   -0.0003    constr:    0.0000
     atom:   10    charge:    2.0898    magn:    0.0003    constr:    0.0000
     atom:   11    charge:    3.1198    magn:   -0.0000    constr:    0.0000
     atom:   12    charge:    2.0870    magn:   -0.0000    constr:    0.0000
     atom:   13    charge:    3.1150    magn:   -0.0002    constr:    0.0000
     atom:   14    charge:    2.0939    magn:    0.0022    constr:    0.0000
     atom:   15    charge:    3.1184    magn:   -0.0008    constr:    0.0000
     atom:   16    charge:    2.0829    magn:    0.0046    constr:    0.0000
     atom:   17    charge:    2.0624    magn:    0.0018    constr:    0.0000
     atom:   18    charge:    3.1239    magn:   -0.0001    constr:    0.0000
     atom:   19    charge:    2.0875    magn:    0.0001    constr:    0.0000
     atom:   20    charge:    2.0847    magn:    0.0002    constr:    0.0000
     atom:   21    charge:    2.0847    magn:    0.0002    constr:    0.0000
     atom:   22    charge:    3.1199    magn:    0.0000    constr:    0.0000
     atom:   23    charge:    2.0908    magn:    0.0002    constr:    0.0000
     atom:   24    charge:    2.0754    magn:   -0.0002    constr:    0.0000
     atom:   25    charge:    2.0867    magn:    0.0000    constr:    0.0000
     atom:   26    charge:    3.1127    magn:   -0.0002    constr:    0.0000
     atom:   27    charge:    2.0803    magn:    0.0025    constr:    0.0000
     atom:   28    charge:    2.0839    magn:    0.0006    constr:    0.0000
     atom:   29    charge:    2.0860    magn:    0.0008    constr:    0.0000
     atom:   30    charge:    3.1171    magn:   -0.0008    constr:    0.0000
     atom:   31    charge:    2.0825    magn:    0.0006    constr:    0.0000
     atom:   32    charge:    2.0829    magn:    0.0064    constr:    0.0000
     atom:   33    charge:    2.0624    magn:    0.0018    constr:    0.0000
     atom:   34    charge:    3.1239    magn:   -0.0001    constr:    0.0000
     atom:   35    charge:    2.0876    magn:    0.0001    constr:    0.0000
     atom:   36    charge:    2.0847    magn:    0.0002    constr:    0.0000
     atom:   37    charge:    2.0847    magn:    0.0002    constr:    0.0000
     atom:   38    charge:    3.1200    magn:    0.0000    constr:    0.0000
     atom:   39    charge:    2.0839    magn:    0.0002    constr:    0.0000
     atom:   40    charge:    2.0756    magn:   -0.0003    constr:    0.0000
     atom:   41    charge:    2.0870    magn:   -0.0000    constr:    0.0000
     atom:   42    charge:    3.1151    magn:   -0.0002    constr:    0.0000
     atom:   43    charge:    2.0803    magn:    0.0030    constr:    0.0000
     atom:   44    charge:    2.0851    magn:    0.0008    constr:    0.0000
     atom:   45    charge:    2.0859    magn:    0.0004    constr:    0.0000
     atom:   46    charge:    3.1148    magn:   -0.0007    constr:    0.0000
     atom:   47    charge:    2.0807    magn:    0.0046    constr:    0.0000
     atom:   48    charge:    2.0838    magn:    0.0136    constr:    0.0000
     atom:   49    charge:    2.0521    magn:    0.2394    constr:    0.0000
     atom:   50    charge:    0.6699    magn:    0.0548    constr:    0.0000
     atom:   51    charge:    0.4221    magn:    0.0009    constr:    0.0000
     atom:   52    charge:    0.4227    magn:    0.0008    constr:    0.0000
     atom:   53    charge:    0.3675    magn:    0.0235    constr:    0.0000
     atom:   54    charge:    0.4097    magn:    0.0004    constr:    0.0000

     total cpu time spent up to now is     1240.9 secs

     total energy              =   -3021.14960047 Ry
     Harris-Foulkes estimate   =   -3021.14998334 Ry
     estimated scf accuracy    <       0.00317549 Ry

     total magnetization       =     1.06 Bohr mag/cell
     absolute magnetization    =     1.23 Bohr mag/cell

     iteration #  2     ecut=    40.42 Ry     beta=0.10
     Davidson diagonalization with overlap
     ethr =  7.98E-07,  avg # of iterations =  2.0

     negative rho (up, down):  1.188E-02 1.195E-02
 
     Magnetic moment per site:
     atom:    1    charge:    3.1244    magn:   -0.0003    constr:    0.0000
     atom:    2    charge:    2.0897    magn:    0.0003    constr:    0.0000
     atom:    3    charge:    3.1198    magn:   -0.0000    constr:    0.0000
     atom:    4    charge:    2.0867    magn:   -0.0001    constr:    0.0000
     atom:    5    charge:    3.1161    magn:   -0.0002    constr:    0.0000
     atom:    6    charge:    2.0795    magn:    0.0021    constr:    0.0000
     atom:    7    charge:    3.1167    magn:   -0.0052    constr:    0.0000
     atom:    8    charge:    2.0794    magn:    0.0248    constr:    0.0000
     atom:    9    charge:    3.1244    magn:   -0.0003    constr:    0.0000
     atom:   10    charge:    2.0899    magn:    0.0003    constr:    0.0000
     atom:   11    charge:    3.1198    magn:   -0.0000    constr:    0.0000
     atom:   12    charge:    2.0871    magn:   -0.0000    constr:    0.0000
     atom:   13    charge:    3.1150    magn:   -0.0002    constr:    0.0000
     atom:   14    charge:    2.0939    magn:    0.0022    constr:    0.0000
     atom:   15    charge:    3.1184    magn:   -0.0008    constr:    0.0000
     atom:   16    charge:    2.0828    magn:    0.0046    constr:    0.0000
     atom:   17    charge:    2.0626    magn:    0.0017    constr:    0.0000
     atom:   18    charge:    3.1240    magn:   -0.0001    constr:    0.0000
     atom:   19    charge:    2.0875    magn:    0.0001    constr:    0.0000
     atom:   20    charge:    2.0847    magn:    0.0002    constr:    0.0000
     atom:   21    charge:    2.0847    magn:    0.0002    constr:    0.0000
     atom:   22    charge:    3.1199    magn:    0.0000    constr:    0.0000
     atom:   23    charge:    2.0908    magn:    0.0002    constr:    0.0000
     atom:   24    charge:    2.0754    magn:   -0.0002    constr:    0.0000
     atom:   25    charge:    2.0867    magn:    0.0000    constr:    0.0000
     atom:   26    charge:    3.1127    magn:   -0.0002    constr:    0.0000
     atom:   27    charge:    2.0802    magn:    0.0025    constr:    0.0000
     atom:   28    charge:    2.0838    magn:    0.0006    constr:    0.0000
     atom:   29    charge:    2.0860    magn:    0.0008    constr:    0.0000
     atom:   30    charge:    3.1171    magn:   -0.0008    constr:    0.0000
     atom:   31    charge:    2.0825    magn:    0.0006    constr:    0.0000
     atom:   32    charge:    2.0829    magn:    0.0064    constr:    0.0000
     atom:   33    charge:    2.0626    magn:    0.0017    constr:    0.0000
     atom:   34    charge:    3.1239    magn:   -0.0001    constr:    0.0000
     atom:   35    charge:    2.0876    magn:    0.0001    constr:    0.0000
     atom:   36    charge:    2.0847    magn:    0.0002    constr:    0.0000
     atom:   37    charge:    2.0847    magn:    0.0002    constr:    0.0000
     atom:   38    charge:    3.1200    magn:    0.0000    constr:    0.0000
     atom:   39    charge:    2.0839    magn:    0.0002    constr:    0.0000
     atom:   40    charge:    2.0756    magn:   -0.0003    constr:    0.0000
     atom:   41    charge:    2.0870    magn:   -0.0000    constr:    0.0000
     atom:   42    charge:    3.1151    magn:   -0.0002    constr:    0.0000
     atom:   43    charge:    2.0802    magn:    0.0030    constr:    0.0000
     atom:   44    charge:    2.0850    magn:    0.0008    constr:    0.0000
     atom:   45    charge:    2.0858    magn:    0.0004    constr:    0.0000
     atom:   46    charge:    3.1148    magn:   -0.0007    constr:    0.0000
     atom:   47    charge:    2.0807    magn:    0.0046    constr:    0.0000
     atom:   48    charge:    2.0837    magn:    0.0135    constr:    0.0000
     atom:   49    charge:    2.0521    magn:    0.2393    constr:    0.0000
     atom:   50    charge:    0.6691    magn:    0.0549    constr:    0.0000
     atom:   51    charge:    0.4221    magn:    0.0009    constr:    0.0000
     atom:   52    charge:    0.4228    magn:    0.0008    constr:    0.0000
     atom:   53    charge:    0.3675    magn:    0.0236    constr:    0.0000
     atom:   54    charge:    0.4097    magn:    0.0004    constr:    0.0000

     total cpu time spent up to now is     1458.9 secs

     total energy              =   -3021.14943326 Ry
     Harris-Foulkes estimate   =   -3021.14967048 Ry
     estimated scf accuracy    <       0.00240101 Ry

     total magnetization       =     1.06 Bohr mag/cell
     absolute magnetization    =     1.23 Bohr mag/cell

     iteration #  3     ecut=    40.42 Ry     beta=0.10
     Davidson diagonalization with overlap
     ethr =  6.03E-07,  avg # of iterations =  1.4

     negative rho (up, down):  1.188E-02 1.195E-02
 
     Magnetic moment per site:
     atom:    1    charge:    3.1244    magn:   -0.0003    constr:    0.0000
     atom:    2    charge:    2.0897    magn:    0.0003    constr:    0.0000
     atom:    3    charge:    3.1198    magn:   -0.0000    constr:    0.0000
     atom:    4    charge:    2.0867    magn:   -0.0001    constr:    0.0000
     atom:    5    charge:    3.1161    magn:   -0.0002    constr:    0.0000
     atom:    6    charge:    2.0795    magn:    0.0021    constr:    0.0000
     atom:    7    charge:    3.1167    magn:   -0.0052    constr:    0.0000
     atom:    8    charge:    2.0794    magn:    0.0246    constr:    0.0000
     atom:    9    charge:    3.1244    magn:   -0.0003    constr:    0.0000
     atom:   10    charge:    2.0898    magn:    0.0003    constr:    0.0000
     atom:   11    charge:    3.1198    magn:   -0.0000    constr:    0.0000
     atom:   12    charge:    2.0871    magn:   -0.0000    constr:    0.0000
     atom:   13    charge:    3.1150    magn:   -0.0002    constr:    0.0000
     atom:   14    charge:    2.0939    magn:    0.0022    constr:    0.0000
     atom:   15    charge:    3.1184    magn:   -0.0008    constr:    0.0000
     atom:   16    charge:    2.0829    magn:    0.0046    constr:    0.0000
     atom:   17    charge:    2.0625    magn:    0.0016    constr:    0.0000
     atom:   18    charge:    3.1240    magn:   -0.0001    constr:    0.0000
     atom:   19    charge:    2.0875    magn:    0.0001    constr:    0.0000
     atom:   20    charge:    2.0847    magn:    0.0001    constr:    0.0000
     atom:   21    charge:    2.0847    magn:    0.0001    constr:    0.0000
     atom:   22    charge:    3.1199    magn:    0.0000    constr:    0.0000
     atom:   23    charge:    2.0908    magn:    0.0002    constr:    0.0000
     atom:   24    charge:    2.0754    magn:   -0.0001    constr:    0.0000
     atom:   25    charge:    2.0867    magn:    0.0000    constr:    0.0000
     atom:   26    charge:    3.1127    magn:   -0.0002    constr:    0.0000
     atom:   27    charge:    2.0802    magn:    0.0025    constr:    0.0000
     atom:   28    charge:    2.0839    magn:    0.0006    constr:    0.0000
     atom:   29    charge:    2.0860    magn:    0.0008    constr:    0.0000
     atom:   30    charge:    3.1171    magn:   -0.0008    constr:    0.0000
     atom:   31    charge:    2.0826    magn:    0.0006    constr:    0.0000
     atom:   32    charge:    2.0829    magn:    0.0064    constr:    0.0000
     atom:   33    charge:    2.0625    magn:    0.0016    constr:    0.0000
     atom:   34    charge:    3.1239    magn:   -0.0001    constr:    0.0000
     atom:   35    charge:    2.0875    magn:    0.0001    constr:    0.0000
     atom:   36    charge:    2.0847    magn:    0.0001    constr:    0.0000
     atom:   37    charge:    2.0847    magn:    0.0001    constr:    0.0000
     atom:   38    charge:    3.1200    magn:    0.0000    constr:    0.0000
     atom:   39    charge:    2.0839    magn:    0.0002    constr:    0.0000
     atom:   40    charge:    2.0756    magn:   -0.0002    constr:    0.0000
     atom:   41    charge:    2.0870    magn:   -0.0000    constr:    0.0000
     atom:   42    charge:    3.1151    magn:   -0.0002    constr:    0.0000
     atom:   43    charge:    2.0803    magn:    0.0030    constr:    0.0000
     atom:   44    charge:    2.0851    magn:    0.0009    constr:    0.0000
     atom:   45    charge:    2.0858    magn:    0.0004    constr:    0.0000
     atom:   46    charge:    3.1148    magn:   -0.0007    constr:    0.0000
     atom:   47    charge:    2.0808    magn:    0.0046    constr:    0.0000
     atom:   48    charge:    2.0838    magn:    0.0134    constr:    0.0000
     atom:   49    charge:    2.0522    magn:    0.2389    constr:    0.0000
     atom:   50    charge:    0.6666    magn:    0.0550    constr:    0.0000
     atom:   51    charge:    0.4222    magn:    0.0010    constr:    0.0000
     atom:   52    charge:    0.4229    magn:    0.0008    constr:    0.0000
     atom:   53    charge:    0.3676    magn:    0.0240    constr:    0.0000
     atom:   54    charge:    0.4097    magn:    0.0006    constr:    0.0000

     total cpu time spent up to now is     1665.3 secs

     total energy              =   -3021.14911655 Ry
     Harris-Foulkes estimate   =   -3021.14957639 Ry
     estimated scf accuracy    <       0.00335827 Ry

     total magnetization       =     1.06 Bohr mag/cell
     absolute magnetization    =     1.23 Bohr mag/cell

     iteration #  4     ecut=    40.42 Ry     beta=0.10
     Davidson diagonalization with overlap
     ethr =  6.03E-07,  avg # of iterations =  3.5

     negative rho (up, down):  1.188E-02 1.194E-02
 
     Magnetic moment per site:
     atom:    1    charge:    3.1244    magn:   -0.0003    constr:    0.0000
     atom:    2    charge:    2.0897    magn:    0.0003    constr:    0.0000
     atom:    3    charge:    3.1198    magn:   -0.0000    constr:    0.0000
     atom:    4    charge:    2.0867    magn:   -0.0001    constr:    0.0000
     atom:    5    charge:    3.1161    magn:   -0.0002    constr:    0.0000
     atom:    6    charge:    2.0795    magn:    0.0021    constr:    0.0000
     atom:    7    charge:    3.1167    magn:   -0.0052    constr:    0.0000
     atom:    8    charge:    2.0792    magn:    0.0247    constr:    0.0000
     atom:    9    charge:    3.1244    magn:   -0.0003    constr:    0.0000
     atom:   10    charge:    2.0898    magn:    0.0003    constr:    0.0000
     atom:   11    charge:    3.1198    magn:   -0.0000    constr:    0.0000
     atom:   12    charge:    2.0870    magn:   -0.0000    constr:    0.0000
     atom:   13    charge:    3.1150    magn:   -0.0002    constr:    0.0000
     atom:   14    charge:    2.0939    magn:    0.0022    constr:    0.0000
     atom:   15    charge:    3.1184    magn:   -0.0008    constr:    0.0000
     atom:   16    charge:    2.0828    magn:    0.0046    constr:    0.0000
     atom:   17    charge:    2.0624    magn:    0.0015    constr:    0.0000
     atom:   18    charge:    3.1240    magn:   -0.0001    constr:    0.0000
     atom:   19    charge:    2.0875    magn:    0.0001    constr:    0.0000
     atom:   20    charge:    2.0847    magn:    0.0001    constr:    0.0000
     atom:   21    charge:    2.0847    magn:    0.0001    constr:    0.0000
     atom:   22    charge:    3.1199    magn:    0.0000    constr:    0.0000
     atom:   23    charge:    2.0908    magn:    0.0002    constr:    0.0000
     atom:   24    charge:    2.0754    magn:   -0.0001    constr:    0.0000
     atom:   25    charge:    2.0867    magn:    0.0000    constr:    0.0000
     atom:   26    charge:    3.1127    magn:   -0.0002    constr:    0.0000
     atom:   27    charge:    2.0802    magn:    0.0025    constr:    0.0000
     atom:   28    charge:    2.0839    magn:    0.0006    constr:    0.0000
     atom:   29    charge:    2.0860    magn:    0.0008    constr:    0.0000
     atom:   30    charge:    3.1171    magn:   -0.0008    constr:    0.0000
     atom:   31    charge:    2.0826    magn:    0.0006    constr:    0.0000
     atom:   32    charge:    2.0829    magn:    0.0064    constr:    0.0000
     atom:   33    charge:    2.0624    magn:    0.0015    constr:    0.0000
     atom:   34    charge:    3.1239    magn:   -0.0001    constr:    0.0000
     atom:   35    charge:    2.0876    magn:    0.0001    constr:    0.0000
     atom:   36    charge:    2.0847    magn:    0.0001    constr:    0.0000
     atom:   37    charge:    2.0847    magn:    0.0001    constr:    0.0000
     atom:   38    charge:    3.1200    magn:    0.0000    constr:    0.0000
     atom:   39    charge:    2.0839    magn:    0.0002    constr:    0.0000
     atom:   40    charge:    2.0756    magn:   -0.0002    constr:    0.0000
     atom:   41    charge:    2.0870    magn:   -0.0000    constr:    0.0000
     atom:   42    charge:    3.1151    magn:   -0.0002    constr:    0.0000
     atom:   43    charge:    2.0803    magn:    0.0030    constr:    0.0000
     atom:   44    charge:    2.0851    magn:    0.0009    constr:    0.0000
     atom:   45    charge:    2.0858    magn:    0.0004    constr:    0.0000
     atom:   46    charge:    3.1147    magn:   -0.0007    constr:    0.0000
     atom:   47    charge:    2.0808    magn:    0.0046    constr:    0.0000
     atom:   48    charge:    2.0837    magn:    0.0135    constr:    0.0000
     atom:   49    charge:    2.0516    magn:    0.2391    constr:    0.0000
     atom:   50    charge:    0.6670    magn:    0.0549    constr:    0.0000
     atom:   51    charge:    0.4221    magn:    0.0009    constr:    0.0000
     atom:   52    charge:    0.4228    magn:    0.0008    constr:    0.0000
     atom:   53    charge:    0.3677    magn:    0.0237    constr:    0.0000
     atom:   54    charge:    0.4096    magn:    0.0006    constr:    0.0000

     total cpu time spent up to now is     1910.3 secs

     total energy              =   -3021.14927517 Ry
     Harris-Foulkes estimate   =   -3021.14931543 Ry
     estimated scf accuracy    <       0.00033085 Ry

     total magnetization       =     1.06 Bohr mag/cell
     absolute magnetization    =     1.23 Bohr mag/cell

     iteration #  5     ecut=    40.42 Ry     beta=0.10
     Davidson diagonalization with overlap
     ethr =  8.31E-08,  avg # of iterations =  2.0

     negative rho (up, down):  1.187E-02 1.194E-02
 
     Magnetic moment per site:
     atom:    1    charge:    3.1244    magn:   -0.0002    constr:    0.0000
     atom:    2    charge:    2.0897    magn:    0.0002    constr:    0.0000
     atom:    3    charge:    3.1198    magn:   -0.0000    constr:    0.0000
     atom:    4    charge:    2.0867    magn:   -0.0001    constr:    0.0000
     atom:    5    charge:    3.1161    magn:   -0.0002    constr:    0.0000
     atom:    6    charge:    2.0795    magn:    0.0021    constr:    0.0000
     atom:    7    charge:    3.1166    magn:   -0.0052    constr:    0.0000
     atom:    8    charge:    2.0791    magn:    0.0248    constr:    0.0000
     atom:    9    charge:    3.1244    magn:   -0.0002    constr:    0.0000
     atom:   10    charge:    2.0898    magn:    0.0002    constr:    0.0000
     atom:   11    charge:    3.1198    magn:   -0.0000    constr:    0.0000
     atom:   12    charge:    2.0870    magn:   -0.0000    constr:    0.0000
     atom:   13    charge:    3.1150    magn:   -0.0002    constr:    0.0000
     atom:   14    charge:    2.0939    magn:    0.0022    constr:    0.0000
     atom:   15    charge:    3.1184    magn:   -0.0008    constr:    0.0000
     atom:   16    charge:    2.0828    magn:    0.0046    constr:    0.0000
     atom:   17    charge:    2.0624    magn:    0.0013    constr:    0.0000
     atom:   18    charge:    3.1239    magn:   -0.0001    constr:    0.0000
     atom:   19    charge:    2.0876    magn:    0.0000    constr:    0.0000
     atom:   20    charge:    2.0847    magn:    0.0001    constr:    0.0000
     atom:   21    charge:    2.0847    magn:    0.0001    constr:    0.0000
     atom:   22    charge:    3.1199    magn:    0.0000    constr:    0.0000
     atom:   23    charge:    2.0908    magn:    0.0002    constr:    0.0000
     atom:   24    charge:    2.0754    magn:   -0.0001    constr:    0.0000
     atom:   25    charge:    2.0867    magn:    0.0000    constr:    0.0000
     atom:   26    charge:    3.1127    magn:   -0.0002    constr:    0.0000
     atom:   27    charge:    2.0803    magn:    0.0026    constr:    0.0000
     atom:   28    charge:    2.0839    magn:    0.0007    constr:    0.0000
     atom:   29    charge:    2.0860    magn:    0.0008    constr:    0.0000
     atom:   30    charge:    3.1171    magn:   -0.0008    constr:    0.0000
     atom:   31    charge:    2.0825    magn:    0.0006    constr:    0.0000
     atom:   32    charge:    2.0829    magn:    0.0064    constr:    0.0000
     atom:   33    charge:    2.0624    magn:    0.0013    constr:    0.0000
     atom:   34    charge:    3.1239    magn:   -0.0001    constr:    0.0000
     atom:   35    charge:    2.0876    magn:    0.0000    constr:    0.0000
     atom:   36    charge:    2.0847    magn:    0.0001    constr:    0.0000
     atom:   37    charge:    2.0847    magn:    0.0001    constr:    0.0000
     atom:   38    charge:    3.1200    magn:    0.0000    constr:    0.0000
     atom:   39    charge:    2.0839    magn:    0.0002    constr:    0.0000
     atom:   40    charge:    2.0756    magn:   -0.0002    constr:    0.0000
     atom:   41    charge:    2.0870    magn:   -0.0000    constr:    0.0000
     atom:   42    charge:    3.1151    magn:   -0.0002    constr:    0.0000
     atom:   43    charge:    2.0803    magn:    0.0031    constr:    0.0000
     atom:   44    charge:    2.0851    magn:    0.0009    constr:    0.0000
     atom:   45    charge:    2.0858    magn:    0.0005    constr:    0.0000
     atom:   46    charge:    3.1148    magn:   -0.0007    constr:    0.0000
     atom:   47    charge:    2.0806    magn:    0.0046    constr:    0.0000
     atom:   48    charge:    2.0836    magn:    0.0135    constr:    0.0000
     atom:   49    charge:    2.0513    magn:    0.2391    constr:    0.0000
     atom:   50    charge:    0.6668    magn:    0.0549    constr:    0.0000
     atom:   51    charge:    0.4220    magn:    0.0009    constr:    0.0000
     atom:   52    charge:    0.4227    magn:    0.0007    constr:    0.0000
     atom:   53    charge:    0.3678    magn:    0.0235    constr:    0.0000
     atom:   54    charge:    0.4094    magn:    0.0007    constr:    0.0000

     total cpu time spent up to now is     2130.4 secs

     total energy              =   -3021.14926794 Ry
     Harris-Foulkes estimate   =   -3021.14928569 Ry
     estimated scf accuracy    <       0.00014736 Ry

     total magnetization       =     1.06 Bohr mag/cell
     absolute magnetization    =     1.23 Bohr mag/cell

     iteration #  6     ecut=    40.42 Ry     beta=0.10
     Davidson diagonalization with overlap
     ethr =  3.70E-08,  avg # of iterations =  3.0

     negative rho (up, down):  1.187E-02 1.194E-02
 
     Magnetic moment per site:
     atom:    1    charge:    3.1244    magn:   -0.0002    constr:    0.0000
     atom:    2    charge:    2.0897    magn:    0.0002    constr:    0.0000
     atom:    3    charge:    3.1198    magn:   -0.0000    constr:    0.0000
     atom:    4    charge:    2.0867    magn:   -0.0001    constr:    0.0000
     atom:    5    charge:    3.1161    magn:   -0.0002    constr:    0.0000
     atom:    6    charge:    2.0795    magn:    0.0021    constr:    0.0000
     atom:    7    charge:    3.1166    magn:   -0.0052    constr:    0.0000
     atom:    8    charge:    2.0792    magn:    0.0248    constr:    0.0000
     atom:    9    charge:    3.1244    magn:   -0.0002    constr:    0.0000
     atom:   10    charge:    2.0898    magn:    0.0002    constr:    0.0000
     atom:   11    charge:    3.1198    magn:   -0.0000    constr:    0.0000
     atom:   12    charge:    2.0870    magn:   -0.0000    constr:    0.0000
     atom:   13    charge:    3.1150    magn:   -0.0002    constr:    0.0000
     atom:   14    charge:    2.0939    magn:    0.0022    constr:    0.0000
     atom:   15    charge:    3.1184    magn:   -0.0008    constr:    0.0000
     atom:   16    charge:    2.0828    magn:    0.0046    constr:    0.0000
     atom:   17    charge:    2.0624    magn:    0.0013    constr:    0.0000
     atom:   18    charge:    3.1239    magn:   -0.0001    constr:    0.0000
     atom:   19    charge:    2.0876    magn:    0.0000    constr:    0.0000
     atom:   20    charge:    2.0847    magn:    0.0001    constr:    0.0000
     atom:   21    charge:    2.0847    magn:    0.0001    constr:    0.0000
     atom:   22    charge:    3.1199    magn:    0.0000    constr:    0.0000
     atom:   23    charge:    2.0908    magn:    0.0002    constr:    0.0000
     atom:   24    charge:    2.0754    magn:   -0.0001    constr:    0.0000
     atom:   25    charge:    2.0867    magn:    0.0000    constr:    0.0000
     atom:   26    charge:    3.1127    magn:   -0.0002    constr:    0.0000
     atom:   27    charge:    2.0803    magn:    0.0026    constr:    0.0000
     atom:   28    charge:    2.0839    magn:    0.0007    constr:    0.0000
     atom:   29    charge:    2.0860    magn:    0.0008    constr:    0.0000
     atom:   30    charge:    3.1171    magn:   -0.0008    constr:    0.0000
     atom:   31    charge:    2.0825    magn:    0.0006    constr:    0.0000
     atom:   32    charge:    2.0829    magn:    0.0064    constr:    0.0000
     atom:   33    charge:    2.0624    magn:    0.0013    constr:    0.0000
     atom:   34    charge:    3.1239    magn:   -0.0001    constr:    0.0000
     atom:   35    charge:    2.0876    magn:    0.0000    constr:    0.0000
     atom:   36    charge:    2.0847    magn:    0.0001    constr:    0.0000
     atom:   37    charge:    2.0847    magn:    0.0001    constr:    0.0000
     atom:   38    charge:    3.1200    magn:    0.0000    constr:    0.0000
     atom:   39    charge:    2.0839    magn:    0.0002    constr:    0.0000
     atom:   40    charge:    2.0756    magn:   -0.0002    constr:    0.0000
     atom:   41    charge:    2.0870    magn:   -0.0000    constr:    0.0000
     atom:   42    charge:    3.1151    magn:   -0.0002    constr:    0.0000
     atom:   43    charge:    2.0803    magn:    0.0031    constr:    0.0000
     atom:   44    charge:    2.0851    magn:    0.0009    constr:    0.0000
     atom:   45    charge:    2.0858    magn:    0.0005    constr:    0.0000
     atom:   46    charge:    3.1148    magn:   -0.0007    constr:    0.0000
     atom:   47    charge:    2.0806    magn:    0.0046    constr:    0.0000
     atom:   48    charge:    2.0836    magn:    0.0135    constr:    0.0000
     atom:   49    charge:    2.0515    magn:    0.2392    constr:    0.0000
     atom:   50    charge:    0.6673    magn:    0.0549    constr:    0.0000
     atom:   51    charge:    0.4219    magn:    0.0009    constr:    0.0000
     atom:   52    charge:    0.4227    magn:    0.0007    constr:    0.0000
     atom:   53    charge:    0.3677    magn:    0.0234    constr:    0.0000
     atom:   54    charge:    0.4094    magn:    0.0006    constr:    0.0000

     total cpu time spent up to now is     2372.0 secs

     total energy              =   -3021.14927667 Ry
     Harris-Foulkes estimate   =   -3021.14928453 Ry
     estimated scf accuracy    <       0.00004494 Ry

     total magnetization       =     1.06 Bohr mag/cell
     absolute magnetization    =     1.23 Bohr mag/cell

     iteration #  7     ecut=    40.42 Ry     beta=0.10
     Davidson diagonalization with overlap
     ethr =  1.13E-08,  avg # of iterations =  3.1

     negative rho (up, down):  1.187E-02 1.194E-02
 
     Magnetic moment per site:
     atom:    1    charge:    3.1244    magn:   -0.0002    constr:    0.0000
     atom:    2    charge:    2.0897    magn:    0.0002    constr:    0.0000
     atom:    3    charge:    3.1198    magn:   -0.0000    constr:    0.0000
     atom:    4    charge:    2.0867    magn:   -0.0001    constr:    0.0000
     atom:    5    charge:    3.1161    magn:   -0.0003    constr:    0.0000
     atom:    6    charge:    2.0795    magn:    0.0021    constr:    0.0000
     atom:    7    charge:    3.1166    magn:   -0.0052    constr:    0.0000
     atom:    8    charge:    2.0793    magn:    0.0248    constr:    0.0000
     atom:    9    charge:    3.1244    magn:   -0.0002    constr:    0.0000
     atom:   10    charge:    2.0898    magn:    0.0002    constr:    0.0000
     atom:   11    charge:    3.1198    magn:   -0.0000    constr:    0.0000
     atom:   12    charge:    2.0870    magn:   -0.0000    constr:    0.0000
     atom:   13    charge:    3.1150    magn:   -0.0002    constr:    0.0000
     atom:   14    charge:    2.0939    magn:    0.0022    constr:    0.0000
     atom:   15    charge:    3.1184    magn:   -0.0008    constr:    0.0000
     atom:   16    charge:    2.0828    magn:    0.0046    constr:    0.0000
     atom:   17    charge:    2.0624    magn:    0.0012    constr:    0.0000
     atom:   18    charge:    3.1239    magn:   -0.0000    constr:    0.0000
     atom:   19    charge:    2.0875    magn:    0.0000    constr:    0.0000
     atom:   20    charge:    2.0847    magn:    0.0001    constr:    0.0000
     atom:   21    charge:    2.0847    magn:    0.0001    constr:    0.0000
     atom:   22    charge:    3.1199    magn:    0.0000    constr:    0.0000
     atom:   23    charge:    2.0908    magn:    0.0002    constr:    0.0000
     atom:   24    charge:    2.0754    magn:   -0.0001    constr:    0.0000
     atom:   25    charge:    2.0867    magn:    0.0000    constr:    0.0000
     atom:   26    charge:    3.1127    magn:   -0.0002    constr:    0.0000
     atom:   27    charge:    2.0803    magn:    0.0026    constr:    0.0000
     atom:   28    charge:    2.0839    magn:    0.0007    constr:    0.0000
     atom:   29    charge:    2.0860    magn:    0.0009    constr:    0.0000
     atom:   30    charge:    3.1171    magn:   -0.0008    constr:    0.0000
     atom:   31    charge:    2.0825    magn:    0.0006    constr:    0.0000
     atom:   32    charge:    2.0829    magn:    0.0064    constr:    0.0000
     atom:   33    charge:    2.0624    magn:    0.0012    constr:    0.0000
     atom:   34    charge:    3.1239    magn:   -0.0000    constr:    0.0000
     atom:   35    charge:    2.0876    magn:    0.0000    constr:    0.0000
     atom:   36    charge:    2.0847    magn:    0.0001    constr:    0.0000
     atom:   37    charge:    2.0847    magn:    0.0001    constr:    0.0000
     atom:   38    charge:    3.1200    magn:    0.0000    constr:    0.0000
     atom:   39    charge:    2.0839    magn:    0.0002    constr:    0.0000
     atom:   40    charge:    2.0756    magn:   -0.0001    constr:    0.0000
     atom:   41    charge:    2.0870    magn:   -0.0000    constr:    0.0000
     atom:   42    charge:    3.1151    magn:   -0.0002    constr:    0.0000
     atom:   43    charge:    2.0803    magn:    0.0031    constr:    0.0000
     atom:   44    charge:    2.0851    magn:    0.0009    constr:    0.0000
     atom:   45    charge:    2.0858    magn:    0.0005    constr:    0.0000
     atom:   46    charge:    3.1147    magn:   -0.0007    constr:    0.0000
     atom:   47    charge:    2.0806    magn:    0.0046    constr:    0.0000
     atom:   48    charge:    2.0837    magn:    0.0135    constr:    0.0000
     atom:   49    charge:    2.0515    magn:    0.2392    constr:    0.0000
     atom:   50    charge:    0.6675    magn:    0.0549    constr:    0.0000
     atom:   51    charge:    0.4219    magn:    0.0008    constr:    0.0000
     atom:   52    charge:    0.4226    magn:    0.0007    constr:    0.0000
     atom:   53    charge:    0.3676    magn:    0.0234    constr:    0.0000
     atom:   54    charge:    0.4093    magn:    0.0007    constr:    0.0000

     total cpu time spent up to now is     2607.8 secs

     total energy              =   -3021.14927742 Ry
     Harris-Foulkes estimate   =   -3021.14927821 Ry
     estimated scf accuracy    <       0.00001549 Ry

     total magnetization       =     1.06 Bohr mag/cell
     absolute magnetization    =     1.23 Bohr mag/cell

     iteration #  8     ecut=    40.42 Ry     beta=0.10
     Davidson diagonalization with overlap
     ethr =  3.89E-09,  avg # of iterations =  2.6

     negative rho (up, down):  1.188E-02 1.194E-02
 
     Magnetic moment per site:
     atom:    1    charge:    3.1244    magn:   -0.0002    constr:    0.0000
     atom:    2    charge:    2.0897    magn:    0.0002    constr:    0.0000
     atom:    3    charge:    3.1198    magn:   -0.0000    constr:    0.0000
     atom:    4    charge:    2.0867    magn:   -0.0001    constr:    0.0000
     atom:    5    charge:    3.1161    magn:   -0.0003    constr:    0.0000
     atom:    6    charge:    2.0795    magn:    0.0021    constr:    0.0000
     atom:    7    charge:    3.1167    magn:   -0.0052    constr:    0.0000
     atom:    8    charge:    2.0793    magn:    0.0248    constr:    0.0000
     atom:    9    charge:    3.1244    magn:   -0.0002    constr:    0.0000
     atom:   10    charge:    2.0898    magn:    0.0002    constr:    0.0000
     atom:   11    charge:    3.1198    magn:   -0.0000    constr:    0.0000
     atom:   12    charge:    2.0870    magn:   -0.0000    constr:    0.0000
     atom:   13    charge:    3.1150    magn:   -0.0002    constr:    0.0000
     atom:   14    charge:    2.0939    magn:    0.0022    constr:    0.0000
     atom:   15    charge:    3.1184    magn:   -0.0008    constr:    0.0000
     atom:   16    charge:    2.0828    magn:    0.0047    constr:    0.0000
     atom:   17    charge:    2.0624    magn:    0.0011    constr:    0.0000
     atom:   18    charge:    3.1239    magn:   -0.0000    constr:    0.0000
     atom:   19    charge:    2.0875    magn:    0.0000    constr:    0.0000
     atom:   20    charge:    2.0847    magn:    0.0001    constr:    0.0000
     atom:   21    charge:    2.0847    magn:    0.0001    constr:    0.0000
     atom:   22    charge:    3.1199    magn:    0.0000    constr:    0.0000
     atom:   23    charge:    2.0908    magn:    0.0003    constr:    0.0000
     atom:   24    charge:    2.0754    magn:   -0.0000    constr:    0.0000
     atom:   25    charge:    2.0867    magn:    0.0000    constr:    0.0000
     atom:   26    charge:    3.1127    magn:   -0.0003    constr:    0.0000
     atom:   27    charge:    2.0802    magn:    0.0026    constr:    0.0000
     atom:   28    charge:    2.0839    magn:    0.0007    constr:    0.0000
     atom:   29    charge:    2.0860    magn:    0.0009    constr:    0.0000
     atom:   30    charge:    3.1171    magn:   -0.0008    constr:    0.0000
     atom:   31    charge:    2.0825    magn:    0.0006    constr:    0.0000
     atom:   32    charge:    2.0829    magn:    0.0064    constr:    0.0000
     atom:   33    charge:    2.0624    magn:    0.0011    constr:    0.0000
     atom:   34    charge:    3.1239    magn:   -0.0000    constr:    0.0000
     atom:   35    charge:    2.0875    magn:    0.0000    constr:    0.0000
     atom:   36    charge:    2.0847    magn:    0.0001    constr:    0.0000
     atom:   37    charge:    2.0847    magn:    0.0001    constr:    0.0000
     atom:   38    charge:    3.1200    magn:    0.0000    constr:    0.0000
     atom:   39    charge:    2.0839    magn:    0.0002    constr:    0.0000
     atom:   40    charge:    2.0756    magn:   -0.0001    constr:    0.0000
     atom:   41    charge:    2.0870    magn:   -0.0000    constr:    0.0000
     atom:   42    charge:    3.1151    magn:   -0.0002    constr:    0.0000
     atom:   43    charge:    2.0803    magn:    0.0031    constr:    0.0000
     atom:   44    charge:    2.0851    magn:    0.0010    constr:    0.0000
     atom:   45    charge:    2.0858    magn:    0.0005    constr:    0.0000
     atom:   46    charge:    3.1147    magn:   -0.0007    constr:    0.0000
     atom:   47    charge:    2.0806    magn:    0.0046    constr:    0.0000
     atom:   48    charge:    2.0837    magn:    0.0135    constr:    0.0000
     atom:   49    charge:    2.0517    magn:    0.2392    constr:    0.0000
     atom:   50    charge:    0.6679    magn:    0.0550    constr:    0.0000
     atom:   51    charge:    0.4219    magn:    0.0008    constr:    0.0000
     atom:   52    charge:    0.4226    magn:    0.0007    constr:    0.0000
     atom:   53    charge:    0.3675    magn:    0.0234    constr:    0.0000
     atom:   54    charge:    0.4093    magn:    0.0007    constr:    0.0000

     total cpu time spent up to now is     2836.9 secs

     total energy              =   -3021.14927596 Ry
     Harris-Foulkes estimate   =   -3021.14927786 Ry
     estimated scf accuracy    <       0.00000975 Ry

     total magnetization       =     1.06 Bohr mag/cell
     absolute magnetization    =     1.23 Bohr mag/cell

     iteration #  9     ecut=    40.42 Ry     beta=0.10
     Davidson diagonalization with overlap
     ethr =  2.45E-09,  avg # of iterations =  3.2

     negative rho (up, down):  1.188E-02 1.194E-02
 
     Magnetic moment per site:
     atom:    1    charge:    3.1244    magn:   -0.0002    constr:    0.0000
     atom:    2    charge:    2.0897    magn:    0.0002    constr:    0.0000
     atom:    3    charge:    3.1198    magn:   -0.0000    constr:    0.0000
     atom:    4    charge:    2.0867    magn:   -0.0001    constr:    0.0000
     atom:    5    charge:    3.1161    magn:   -0.0003    constr:    0.0000
     atom:    6    charge:    2.0795    magn:    0.0021    constr:    0.0000
     atom:    7    charge:    3.1167    magn:   -0.0052    constr:    0.0000
     atom:    8    charge:    2.0793    magn:    0.0248    constr:    0.0000
     atom:    9    charge:    3.1244    magn:   -0.0002    constr:    0.0000
     atom:   10    charge:    2.0898    magn:    0.0002    constr:    0.0000
     atom:   11    charge:    3.1198    magn:   -0.0000    constr:    0.0000
     atom:   12    charge:    2.0870    magn:   -0.0000    constr:    0.0000
     atom:   13    charge:    3.1150    magn:   -0.0002    constr:    0.0000
     atom:   14    charge:    2.0939    magn:    0.0022    constr:    0.0000
     atom:   15    charge:    3.1184    magn:   -0.0008    constr:    0.0000
     atom:   16    charge:    2.0828    magn:    0.0047    constr:    0.0000
     atom:   17    charge:    2.0624    magn:    0.0010    constr:    0.0000
     atom:   18    charge:    3.1239    magn:   -0.0000    constr:    0.0000
     atom:   19    charge:    2.0875    magn:    0.0000    constr:    0.0000
     atom:   20    charge:    2.0847    magn:    0.0001    constr:    0.0000
     atom:   21    charge:    2.0847    magn:    0.0001    constr:    0.0000
     atom:   22    charge:    3.1199    magn:    0.0000    constr:    0.0000
     atom:   23    charge:    2.0908    magn:    0.0003    constr:    0.0000
     atom:   24    charge:    2.0754    magn:   -0.0000    constr:    0.0000
     atom:   25    charge:    2.0867    magn:    0.0000    constr:    0.0000
     atom:   26    charge:    3.1127    magn:   -0.0003    constr:    0.0000
     atom:   27    charge:    2.0802    magn:    0.0027    constr:    0.0000
     atom:   28    charge:    2.0839    magn:    0.0007    constr:    0.0000
     atom:   29    charge:    2.0860    magn:    0.0009    constr:    0.0000
     atom:   30    charge:    3.1171    magn:   -0.0008    constr:    0.0000
     atom:   31    charge:    2.0825    magn:    0.0006    constr:    0.0000
     atom:   32    charge:    2.0829    magn:    0.0064    constr:    0.0000
     atom:   33    charge:    2.0624    magn:    0.0010    constr:    0.0000
     atom:   34    charge:    3.1239    magn:   -0.0000    constr:    0.0000
     atom:   35    charge:    2.0875    magn:    0.0000    constr:    0.0000
     atom:   36    charge:    2.0847    magn:    0.0001    constr:    0.0000
     atom:   37    charge:    2.0847    magn:    0.0001    constr:    0.0000
     atom:   38    charge:    3.1200    magn:    0.0000    constr:    0.0000
     atom:   39    charge:    2.0839    magn:    0.0002    constr:    0.0000
     atom:   40    charge:    2.0756    magn:   -0.0001    constr:    0.0000
     atom:   41    charge:    2.0870    magn:   -0.0000    constr:    0.0000
     atom:   42    charge:    3.1151    magn:   -0.0002    constr:    0.0000
     atom:   43    charge:    2.0803    magn:    0.0032    constr:    0.0000
     atom:   44    charge:    2.0851    magn:    0.0010    constr:    0.0000
     atom:   45    charge:    2.0858    magn:    0.0005    constr:    0.0000
     atom:   46    charge:    3.1148    magn:   -0.0007    constr:    0.0000
     atom:   47    charge:    2.0807    magn:    0.0046    constr:    0.0000
     atom:   48    charge:    2.0837    magn:    0.0135    constr:    0.0000
     atom:   49    charge:    2.0518    magn:    0.2392    constr:    0.0000
     atom:   50    charge:    0.6679    magn:    0.0550    constr:    0.0000
     atom:   51    charge:    0.4219    magn:    0.0008    constr:    0.0000
     atom:   52    charge:    0.4226    magn:    0.0007    constr:    0.0000
     atom:   53    charge:    0.3674    magn:    0.0234    constr:    0.0000
     atom:   54    charge:    0.4092    magn:    0.0007    constr:    0.0000

     total cpu time spent up to now is     3082.7 secs

     total energy              =   -3021.14927663 Ry
     Harris-Foulkes estimate   =   -3021.14927684 Ry
     estimated scf accuracy    <       0.00000123 Ry

     total magnetization       =     1.06 Bohr mag/cell
     absolute magnetization    =     1.23 Bohr mag/cell

     iteration # 10     ecut=    40.42 Ry     beta=0.10
     Davidson diagonalization with overlap
     ethr =  3.09E-10,  avg # of iterations =  3.0

     negative rho (up, down):  1.188E-02 1.194E-02
 
     Magnetic moment per site:
     atom:    1    charge:    3.1244    magn:   -0.0001    constr:    0.0000
     atom:    2    charge:    2.0897    magn:    0.0001    constr:    0.0000
     atom:    3    charge:    3.1198    magn:   -0.0000    constr:    0.0000
     atom:    4    charge:    2.0867    magn:   -0.0001    constr:    0.0000
     atom:    5    charge:    3.1161    magn:   -0.0003    constr:    0.0000
     atom:    6    charge:    2.0795    magn:    0.0022    constr:    0.0000
     atom:    7    charge:    3.1166    magn:   -0.0052    constr:    0.0000
     atom:    8    charge:    2.0792    magn:    0.0248    constr:    0.0000
     atom:    9    charge:    3.1244    magn:   -0.0001    constr:    0.0000
     atom:   10    charge:    2.0898    magn:    0.0001    constr:    0.0000
     atom:   11    charge:    3.1198    magn:   -0.0000    constr:    0.0000
     atom:   12    charge:    2.0870    magn:   -0.0000    constr:    0.0000
     atom:   13    charge:    3.1150    magn:   -0.0002    constr:    0.0000
     atom:   14    charge:    2.0939    magn:    0.0022    constr:    0.0000
     atom:   15    charge:    3.1184    magn:   -0.0008    constr:    0.0000
     atom:   16    charge:    2.0828    magn:    0.0047    constr:    0.0000
     atom:   17    charge:    2.0624    magn:    0.0008    constr:    0.0000
     atom:   18    charge:    3.1239    magn:   -0.0000    constr:    0.0000
     atom:   19    charge:    2.0875    magn:    0.0000    constr:    0.0000
     atom:   20    charge:    2.0847    magn:    0.0001    constr:    0.0000
     atom:   21    charge:    2.0847    magn:    0.0001    constr:    0.0000
     atom:   22    charge:    3.1199    magn:    0.0000    constr:    0.0000
     atom:   23    charge:    2.0908    magn:    0.0003    constr:    0.0000
     atom:   24    charge:    2.0754    magn:   -0.0000    constr:    0.0000
     atom:   25    charge:    2.0867    magn:    0.0000    constr:    0.0000
     atom:   26    charge:    3.1127    magn:   -0.0003    constr:    0.0000
     atom:   27    charge:    2.0803    magn:    0.0027    constr:    0.0000
     atom:   28    charge:    2.0839    magn:    0.0008    constr:    0.0000
     atom:   29    charge:    2.0860    magn:    0.0009    constr:    0.0000
     atom:   30    charge:    3.1171    magn:   -0.0008    constr:    0.0000
     atom:   31    charge:    2.0825    magn:    0.0006    constr:    0.0000
     atom:   32    charge:    2.0829    magn:    0.0065    constr:    0.0000
     atom:   33    charge:    2.0624    magn:    0.0008    constr:    0.0000
     atom:   34    charge:    3.1239    magn:   -0.0000    constr:    0.0000
     atom:   35    charge:    2.0876    magn:    0.0000    constr:    0.0000
     atom:   36    charge:    2.0847    magn:    0.0001    constr:    0.0000
     atom:   37    charge:    2.0847    magn:    0.0001    constr:    0.0000
     atom:   38    charge:    3.1200    magn:    0.0000    constr:    0.0000
     atom:   39    charge:    2.0839    magn:    0.0002    constr:    0.0000
     atom:   40    charge:    2.0756    magn:   -0.0001    constr:    0.0000
     atom:   41    charge:    2.0870    magn:   -0.0000    constr:    0.0000
     atom:   42    charge:    3.1151    magn:   -0.0003    constr:    0.0000
     atom:   43    charge:    2.0803    magn:    0.0032    constr:    0.0000
     atom:   44    charge:    2.0851    magn:    0.0010    constr:    0.0000
     atom:   45    charge:    2.0858    magn:    0.0006    constr:    0.0000
     atom:   46    charge:    3.1148    magn:   -0.0007    constr:    0.0000
     atom:   47    charge:    2.0806    magn:    0.0046    constr:    0.0000
     atom:   48    charge:    2.0837    magn:    0.0135    constr:    0.0000
     atom:   49    charge:    2.0517    magn:    0.2392    constr:    0.0000
     atom:   50    charge:    0.6679    magn:    0.0550    constr:    0.0000
     atom:   51    charge:    0.4219    magn:    0.0008    constr:    0.0000
     atom:   52    charge:    0.4226    magn:    0.0007    constr:    0.0000
     atom:   53    charge:    0.3674    magn:    0.0234    constr:    0.0000
     atom:   54    charge:    0.4092    magn:    0.0006    constr:    0.0000

     total cpu time spent up to now is     3323.6 secs

     End of self-consistent calculation

 ------ SPIN UP ------------


          k = 0.0000 0.0000 0.0000 ( 34665 PWs)   bands (ev):

   -58.3037 -58.2687 -57.3857 -57.3800 -57.3469 -57.3092 -57.2578 -57.0885
   -57.0623 -57.0570 -57.0187 -56.9197 -56.8936 -56.8845 -56.8004 -56.7620
   -34.7489 -34.5723 -34.5435 -34.5103 -34.4153 -34.3585 -33.8807 -33.8683
   -33.7502 -33.6772 -33.6353 -33.5923 -33.5603 -33.5532 -33.5472 -33.5407
   -33.5290 -33.5142 -33.4889 -33.4873 -33.4729 -33.4705 -33.4685 -33.4492
   -33.3391 -33.3353 -33.3297 -33.3269 -33.3137 -33.2859 -33.2808 -33.2605
   -33.2402 -33.2349 -33.2348 -33.2254 -33.1949 -33.1748 -33.1388 -33.1383
   -33.0991 -33.0783 -33.0484 -33.0278 -33.0147 -32.9893 -32.9467 -32.8817
   -18.4690 -18.0361 -17.8117 -17.7115 -17.5508 -17.5295 -17.4852 -17.3838
   -17.3569 -17.2570 -17.0447 -17.0241 -17.0162 -16.9831 -16.9224 -16.8541
   -16.8353 -16.7977 -16.7397 -16.7071 -16.6887 -16.6561 -16.5928 -16.5883
   -16.4656 -16.4178 -16.3991 -16.3608 -16.3251 -16.1469 -16.0863 -15.5991
   -15.5383 -11.1571  -6.0475  -5.4963  -5.2822  -5.2022  -5.0933  -4.9906
    -4.9813  -4.9085  -4.8782  -4.7319  -4.6496  -4.5992  -4.5852  -4.5097
    -4.4284  -4.4133  -4.3519  -4.3159  -4.2325  -4.2181  -4.1949  -4.1417
    -4.0307  -4.0232  -3.9792  -3.9076  -3.8917  -3.8856  -3.8829  -3.8242
    -3.7762  -3.7519  -3.6703  -3.6579  -3.6295  -3.5822  -3.5408  -3.5275
    -3.5115  -3.4192  -3.4077  -3.3599  -3.2723  -3.2320  -3.1874  -3.0865
    -2.9195  -2.8962  -2.8499  -2.8010  -2.7453  -2.6932  -2.6715  -2.6608
    -2.6328  -2.5361  -2.4850  -2.4381  -2.3772  -2.3318  -2.2467  -2.2287
    -2.2242  -2.1594  -2.0689  -2.0405  -1.9978  -1.9586  -1.9291  -1.8980
    -1.8527  -1.7364  -1.6921  -1.6669  -1.6397  -1.6296  -1.5850  -1.5027
    -1.4199  -1.3661  -1.3519  -1.3366  -1.3138  -1.2686  -1.2224  -1.1698
    -1.1591  -1.1098  -1.1072  -1.0908  -1.0624  -0.9790  -0.8725  -0.8305
    -0.8076  -0.6924  -0.6862  -0.6233  -0.5514  -0.5100  -0.4823  -0.1857
     1.0271   1.1239   1.4187   1.6971   1.8053   1.9233   1.9706   2.0173
     2.0475   2.1348   2.2117   2.2321   2.2785   2.3971   2.4723   2.4862
     2.4934   2.5204   2.6231   2.6683   2.6730   2.6890   2.7121   2.8289
     2.8437   2.8882   2.9027   2.9546   2.9702   3.0232   3.0325   3.0532
     3.1075   3.1620   3.2006   3.2019   3.2493   3.2575   3.4132   3.4466
     3.4798   3.5223   3.5995   3.6280   3.6727   3.7163   3.8304   3.9575
     4.1053   4.1368   4.3280   4.4743   4.5956   4.7083   4.7862   4.8366
     5.0867   5.1345   5.2103   5.3551   5.3990   5.4051   5.4246   5.4348
     5.4443   5.5244   5.5561   5.6635   5.7201   5.7362   5.9079   5.9165
     5.9572   6.0766   6.0959   6.1380   6.2186   6.2979   6.4236   6.4914
     6.5442   6.5610   6.7836   6.8148   7.2112   7.9099   8.1470   8.1781
     8.3182   8.3907   8.6339   8.7127   8.7540   8.9670   9.1437   9.2415
     9.2913   9.4452   9.6177

          k = 0.0000 0.0280 0.0000 ( 34717 PWs)   bands (ev):

   -58.3014 -58.2710 -57.3839 -57.3783 -57.3493 -57.3103 -57.2574 -57.0883
   -57.0623 -57.0554 -57.0207 -56.9174 -56.8938 -56.8868 -56.7979 -56.7645
   -34.7235 -34.5703 -34.5455 -34.5041 -34.4218 -34.3855 -33.8553 -33.8428
   -33.7293 -33.6709 -33.6291 -33.5898 -33.5670 -33.5496 -33.5415 -33.5336
   -33.5283 -33.5161 -33.5129 -33.4957 -33.4878 -33.4713 -33.4625 -33.4427
   -33.3333 -33.3277 -33.3142 -33.3117 -33.3087 -33.3025 -33.2784 -33.2588
   -33.2450 -33.2367 -33.2355 -33.2247 -33.2011 -33.1968 -33.1449 -33.1323
   -33.1110 -33.0749 -33.0546 -33.0278 -33.0144 -32.9940 -32.9741 -32.9103
   -18.4107 -17.9764 -17.7618 -17.6813 -17.6058 -17.5061 -17.4362 -17.3717
   -17.3257 -17.2877 -17.0957 -17.0028 -16.9950 -16.9721 -16.9257 -16.8752
   -16.7960 -16.7732 -16.7605 -16.7352 -16.7066 -16.6809 -16.6176 -16.5662
   -16.4797 -16.4431 -16.4059 -16.3841 -16.3573 -16.1657 -16.1279 -15.6132
   -15.5638 -11.1580  -5.9621  -5.4121  -5.2029  -5.1316  -5.0231  -4.9524
    -4.9244  -4.8896  -4.8072  -4.7289  -4.6680  -4.6532  -4.5262  -4.5152
    -4.4160  -4.3763  -4.3625  -4.3226  -4.2571  -4.2121  -4.1985  -4.1768
    -4.0992  -4.0671  -4.0161  -4.0002  -3.9779  -3.9706  -3.9213  -3.8545
    -3.8139  -3.7538  -3.7526  -3.7146  -3.6739  -3.6307  -3.5546  -3.4376
    -3.4022  -3.3211  -3.3018  -3.2999  -3.2672  -3.1234  -3.1038  -2.9443
    -2.9033  -2.8818  -2.8001  -2.7477  -2.7435  -2.7204  -2.6870  -2.6510
    -2.5971  -2.5167  -2.4573  -2.4421  -2.4149  -2.2788  -2.2546  -2.2222
    -2.2115  -2.1523  -2.1437  -2.0274  -1.9837  -1.9567  -1.9248  -1.9125
    -1.8725  -1.7666  -1.7572  -1.7179  -1.6787  -1.6093  -1.5816  -1.5711
    -1.5007  -1.4598  -1.3898  -1.3777  -1.3743  -1.3577  -1.2838  -1.2705
    -1.2341  -1.1740  -1.1426  -1.0693  -0.9925  -0.9525  -0.9263  -0.8961
    -0.8755  -0.8380  -0.7287  -0.5985  -0.5721  -0.5583  -0.5383  -0.2267
     1.1597   1.1649   1.4200   1.8334   1.8777   1.8952   1.9278   2.0042
     2.0627   2.0807   2.3019   2.3099   2.3429   2.4598   2.4958   2.5163
     2.5241   2.5458   2.5508   2.5991   2.7163   2.7336   2.8039   2.8155
     2.8374   2.9022   2.9382   2.9668   2.9831   2.9960   3.0169   3.0680
     3.0882   3.1244   3.1782   3.2367   3.2490   3.3293   3.4380   3.4788
     3.5146   3.5454   3.5663   3.5902   3.6456   3.6692   3.7887   3.9096
     4.0596   4.2041   4.2843   4.5277   4.7063   4.7096   4.8163   4.9117
     5.1137   5.1751   5.2572   5.3046   5.3748   5.4140   5.4367   5.4803
     5.5088   5.5279   5.5504   5.6629   5.7061   5.7154   5.8245   5.8856
     5.9467   5.9936   6.0347   6.0527   6.1828   6.2527   6.3902   6.4351
     6.4530   6.5527   6.7235   6.8174   7.3163   7.4548   7.9885   8.0403
     8.3416   8.4985   8.5134   8.6996   8.7767   8.9891   9.1039   9.3064
     9.3634   9.4440   9.5148

          k = 0.0000 0.0560 0.0000 ( 34721 PWs)   bands (ev):

   -58.2950 -58.2774 -57.3805 -57.3732 -57.3557 -57.3125 -57.2567 -57.0879
   -57.0628 -57.0508 -57.0256 -56.9109 -56.8943 -56.8933 -56.7912 -56.7712
   -34.6536 -34.5651 -34.5506 -34.4869 -34.4586 -34.4394 -33.7855 -33.7734
   -33.6787 -33.6540 -33.6124 -33.5902 -33.5894 -33.5835 -33.5688 -33.5655
   -33.5374 -33.5283 -33.5111 -33.4924 -33.4694 -33.4647 -33.4610 -33.4085
   -33.3679 -33.3234 -33.3208 -33.3056 -33.2798 -33.2698 -33.2545 -33.2541
   -33.2533 -33.2444 -33.2414 -33.2233 -33.2169 -33.2063 -33.1621 -33.1305
   -33.1161 -33.0720 -33.0712 -33.0480 -33.0274 -33.0142 -33.0061 -32.9808
   -18.2496 -17.8117 -17.7895 -17.6319 -17.5985 -17.4085 -17.3894 -17.3713
   -17.3054 -17.2633 -17.2289 -17.0423 -16.9843 -16.9189 -16.9153 -16.8979
   -16.8385 -16.8146 -16.7263 -16.7029 -16.6973 -16.6719 -16.6208 -16.5590
   -16.5123 -16.5069 -16.4507 -16.4389 -16.4126 -16.2316 -16.2083 -15.6417
   -15.6174 -11.1599  -5.7227  -5.1793  -5.0436  -4.9867  -4.9501  -4.9063
    -4.8463  -4.8301  -4.8130  -4.7682  -4.7310  -4.5515  -4.5059  -4.4633
    -4.3916  -4.3905  -4.3489  -4.3179  -4.3034  -4.2853  -4.2473  -4.2111
    -4.2066  -4.1895  -4.1281  -4.0565  -4.0126  -3.9748  -3.9635  -3.9062
    -3.8719  -3.8139  -3.7484  -3.6794  -3.6212  -3.5424  -3.4098  -3.4028
    -3.3622  -3.2837  -3.2444  -3.1340  -3.0869  -3.0685  -3.0371  -3.0090
    -2.9651  -2.9552  -2.8244  -2.7946  -2.7376  -2.6933  -2.6482  -2.5537
    -2.4810  -2.4726  -2.4387  -2.3524  -2.2998  -2.2943  -2.2192  -2.1858
    -2.1509  -2.1366  -2.1168  -2.0843  -2.0516  -2.0078  -1.9928  -1.9671
    -1.9311  -1.8891  -1.8787  -1.8585  -1.8099  -1.7492  -1.6541  -1.6050
    -1.5932  -1.5755  -1.5099  -1.4711  -1.4497  -1.4437  -1.4288  -1.3743
    -1.2893  -1.2685  -1.2123  -1.1905  -1.0872  -0.9997  -0.9756  -0.9419
    -0.8573  -0.8338  -0.7355  -0.7135  -0.6184  -0.5799  -0.5621  -0.3301
     1.2887   1.4304   1.5031   1.7243   1.8010   1.8940   1.9646   2.0625
     2.1430   2.2786   2.2837   2.3354   2.4195   2.4890   2.5082   2.5341
     2.5749   2.6145   2.6649   2.7114   2.7552   2.7727   2.8037   2.8519
     2.8676   2.8864   2.8963   2.9657   3.0124   3.0306   3.0395   3.0662
     3.1273   3.1606   3.1841   3.2626   3.3106   3.3420   3.3889   3.4372
     3.4745   3.4903   3.5658   3.6142   3.6767   3.6881   3.7274   3.8037
     3.9264   4.1616   4.3267   4.6550   4.7453   4.8456   4.9372   5.0752
     5.0812   5.1785   5.2849   5.3363   5.4047   5.4402   5.4736   5.5022
     5.5027   5.5642   5.5840   5.6503   5.6554   5.7557   5.7747   5.8117
     5.8405   5.8698   5.8910   5.9339   6.1200   6.1597   6.2980   6.3686
     6.4250   6.4443   6.7216   6.7504   6.9894   7.2013   7.6090   7.7420
     8.1879   8.3699   8.6931   8.8228   8.8322   8.8792   9.1739   9.3346
     9.4063   9.6008   9.7024

          k = 0.0000-0.0840 0.0000 ( 34678 PWs)   bands (ev):

   -58.2869 -58.2855 -57.3789 -57.3668 -57.3625 -57.3137 -57.2563 -57.0877
   -57.0631 -57.0475 -57.0290 -56.9025 -56.9018 -56.8945 -56.7844 -56.7781
   -34.5587 -34.5577 -34.5568 -34.5562 -34.4638 -34.4626 -33.7016 -33.6885
   -33.6848 -33.6460 -33.6447 -33.6390 -33.6073 -33.5912 -33.5872 -33.5764
   -33.5359 -33.5301 -33.5106 -33.5017 -33.4663 -33.4597 -33.3979 -33.3826
   -33.3785 -33.3624 -33.3246 -33.3202 -33.3025 -33.2720 -33.2589 -33.2500
   -33.2480 -33.2475 -33.2231 -33.2195 -33.1711 -33.1477 -33.1468 -33.1385
   -33.1263 -33.1239 -33.0941 -33.0934 -33.0279 -33.0197 -33.0168 -33.0108
   -18.0245 -18.0238 -17.5919 -17.5827 -17.5089 -17.4853 -17.4850 -17.3946
   -17.2576 -17.2164 -17.1287 -17.1035 -17.0719 -17.0365 -16.8893 -16.8442
   -16.8072 -16.8069 -16.8055 -16.6741 -16.6123 -16.6090 -16.6026 -16.5787
   -16.5467 -16.5239 -16.5066 -16.4746 -16.4655 -16.2740 -16.2498 -15.6509
   -15.6509 -11.1608  -5.3832  -5.3829  -4.9010  -4.8869  -4.8859  -4.8730
    -4.8510  -4.7694  -4.7578  -4.7186  -4.6580  -4.6036  -4.5662  -4.5596
    -4.4905  -4.4685  -4.4453  -4.3911  -4.3753  -4.2651  -4.2529  -4.2451
    -4.1579  -4.1160  -4.0659  -4.0319  -3.9920  -3.9011  -3.8832  -3.8665
    -3.7808  -3.7316  -3.6733  -3.6663  -3.6518  -3.6464  -3.6225  -3.4102
    -3.3596  -3.3460  -3.1489  -3.0765  -3.0707  -3.0308  -2.9282  -2.9261
    -2.9170  -2.8490  -2.8261  -2.7900  -2.7728  -2.6928  -2.6688  -2.6431
    -2.5212  -2.5022  -2.4192  -2.4030  -2.3949  -2.3730  -2.3092  -2.2412
    -2.2260  -2.1644  -2.1178  -2.0558  -2.0042  -1.9789  -1.9748  -1.9696
    -1.9651  -1.9407  -1.8361  -1.7975  -1.7773  -1.7272  -1.6911  -1.6554
    -1.6396  -1.6089  -1.5904  -1.5157  -1.5066  -1.4642  -1.4447  -1.4212
    -1.3811  -1.3302  -1.2756  -1.1772  -1.1368  -1.1153  -1.0893  -1.0583
    -0.8369  -0.8136  -0.6162  -0.6072  -0.6022  -0.5940  -0.5451  -0.4965
     1.4849   1.4876   1.6372   1.6378   1.7168   1.7177   2.0878   2.0886
     2.1518   2.2067   2.3773   2.4122   2.4487   2.4947   2.5424   2.5498
     2.6571   2.6691   2.6786   2.6921   2.7439   2.7547   2.8117   2.8150
     2.9147   2.9498   2.9935   3.0212   3.0262   3.0291   3.0355   3.0390
     3.0462   3.2274   3.2370   3.2678   3.3001   3.3422   3.3685   3.3987
     3.4361   3.4510   3.5055   3.6281   3.6973   3.7368   3.7514   3.7930
     3.8484   4.0385   4.3792   4.7593   4.8349   4.8685   4.8692   5.0551
     5.1467   5.2266   5.3172   5.3330   5.3676   5.4106   5.4710   5.5464
     5.5674   5.5993   5.6020   5.6890   5.7018   5.7210   5.7316   5.7453
     5.7698   5.8105   5.8446   5.9448   6.0260   6.1603   6.2701   6.3842
     6.4616   6.4774   6.5876   6.6065   6.9269   6.9820   7.4434   7.6101
     8.0299   8.2271   8.7069   8.9250   9.1263   9.1836   9.3486   9.3501
     9.4398   9.6168   9.7033

          k = 0.0253 0.0000 0.0000 ( 34707 PWs)   bands (ev):

   -58.3037 -58.2687 -57.3853 -57.3803 -57.3469 -57.3092 -57.2578 -57.0885
   -57.0621 -57.0573 -57.0187 -56.9197 -56.8935 -56.8845 -56.8004 -56.7620
   -34.7493 -34.5723 -34.5435 -34.5095 -34.4154 -34.3585 -33.8809 -33.8702
   -33.7503 -33.6693 -33.6352 -33.5924 -33.5637 -33.5535 -33.5495 -33.5410
   -33.5291 -33.5175 -33.4885 -33.4873 -33.4715 -33.4690 -33.4670 -33.4494
   -33.3390 -33.3362 -33.3274 -33.3262 -33.3107 -33.2859 -33.2809 -33.2616
   -33.2455 -33.2349 -33.2343 -33.2253 -33.1949 -33.1750 -33.1383 -33.1373
   -33.0986 -33.0784 -33.0485 -33.0319 -33.0137 -32.9893 -32.9468 -32.8818
   -18.4244 -17.9982 -17.7901 -17.7839 -17.5606 -17.4561 -17.4486 -17.3831
   -17.3615 -17.3208 -17.1060 -17.0376 -17.0121 -16.9781 -16.9252 -16.8916
   -16.8570 -16.7936 -16.7639 -16.7418 -16.6380 -16.5960 -16.5862 -16.5785
   -16.4638 -16.4429 -16.3996 -16.3827 -16.3227 -16.1452 -16.0864 -15.5980
   -15.5381 -11.1570  -5.9227  -5.3898  -5.2140  -5.1986  -5.0735  -5.0236
    -4.9690  -4.9131  -4.8781  -4.7338  -4.6975  -4.5831  -4.5793  -4.5117
    -4.4839  -4.4082  -4.3270  -4.2624  -4.2575  -4.1974  -4.1923  -4.1043
    -4.0291  -3.9963  -3.9893  -3.9147  -3.8991  -3.8573  -3.8471  -3.7988
    -3.7345  -3.6902  -3.6512  -3.5994  -3.5633  -3.5531  -3.5225  -3.4995
    -3.4427  -3.4155  -3.3178  -3.3148  -3.2730  -3.2569  -3.2369  -3.1507
    -3.0115  -2.9008  -2.8375  -2.8171  -2.7695  -2.7424  -2.6999  -2.6693
    -2.6107  -2.5573  -2.5390  -2.4970  -2.4338  -2.3809  -2.3320  -2.2654
    -2.2466  -2.1977  -2.0895  -2.0447  -2.0036  -1.9545  -1.8822  -1.8496
    -1.8263  -1.7969  -1.7115  -1.6236  -1.5775  -1.5699  -1.5437  -1.5078
    -1.4763  -1.4318  -1.4276  -1.3916  -1.3329  -1.3029  -1.2907  -1.2202
    -1.1853  -1.1545  -1.1048  -1.0797  -1.0405  -1.0211  -0.9552  -0.9103
    -0.8335  -0.8250  -0.6696  -0.6427  -0.6056  -0.5879  -0.5564  -0.2452
     1.1097   1.1243   1.4179   1.7847   1.8209   1.9061   1.9324   2.0515
     2.0874   2.1194   2.2058   2.2467   2.3399   2.3857   2.4436   2.5076
     2.5298   2.5985   2.6305   2.6498   2.6801   2.7045   2.8141   2.8282
     2.8479   2.8516   2.8932   2.9024   2.9475   3.0296   3.0772   3.1363
     3.1926   3.2044   3.2177   3.2192   3.2439   3.3111   3.4090   3.4438
     3.4905   3.5462   3.5944   3.6365   3.7017   3.7666   3.7875   3.9109
     4.0538   4.1929   4.2661   4.4276   4.5833   4.6253   4.8116   4.8301
     4.9616   4.9861   5.0892   5.1727   5.3049   5.3187   5.4297   5.5231
     5.5596   5.7115   5.7432   5.9072   5.9152   5.9404   5.9617   5.9871
     6.0256   6.0346   6.0715   6.1713   6.2301   6.2632   6.4418   6.4979
     6.5451   6.6131   6.7418   6.8112   7.2568   7.6646   7.7547   8.0176
     8.2281   8.2997   8.3744   8.6855   8.7603   8.9399   9.0971   9.2044
     9.3952   9.4919   9.7718

          k = 0.0253 0.0280 0.0000 ( 34687 PWs)   bands (ev):

   -58.3014 -58.2710 -57.3836 -57.3786 -57.3493 -57.3103 -57.2574 -57.0883
   -57.0622 -57.0556 -57.0207 -56.9174 -56.8938 -56.8868 -56.7979 -56.7645
   -34.7238 -34.5703 -34.5454 -34.5033 -34.4217 -34.3855 -33.8555 -33.8448
   -33.7294 -33.6632 -33.6290 -33.5899 -33.5641 -33.5500 -33.5466 -33.5370
   -33.5287 -33.5170 -33.5154 -33.4953 -33.4878 -33.4652 -33.4629 -33.4433
   -33.3335 -33.3236 -33.3141 -33.3139 -33.3045 -33.3023 -33.2784 -33.2598
   -33.2493 -33.2361 -33.2356 -33.2263 -33.2007 -33.1967 -33.1430 -33.1324
   -33.1113 -33.0749 -33.0546 -33.0300 -33.0147 -32.9940 -32.9741 -32.9103
   -18.3671 -17.9399 -17.7725 -17.7363 -17.5200 -17.5177 -17.4095 -17.3649
   -17.3480 -17.3163 -17.1103 -17.0672 -16.9953 -16.9643 -16.9149 -16.8742
   -16.8274 -16.8017 -16.7924 -16.7302 -16.6674 -16.6635 -16.6103 -16.5470
   -16.4852 -16.4627 -16.4077 -16.4026 -16.3543 -16.1639 -16.1286 -15.6122
   -15.5638 -11.1579  -5.8377  -5.3064  -5.1410  -5.1248  -4.9903  -4.9526
    -4.9198  -4.9005  -4.8172  -4.6949  -4.6738  -4.6326  -4.5305  -4.4950
    -4.4363  -4.3984  -4.3101  -4.2910  -4.2410  -4.2039  -4.1802  -4.1525
    -4.1239  -4.0921  -4.0293  -3.9938  -3.9514  -3.9385  -3.8954  -3.8196
    -3.7881  -3.7399  -3.7214  -3.6719  -3.6316  -3.6062  -3.5241  -3.3998
    -3.3426  -3.3215  -3.3117  -3.2640  -3.2334  -3.1888  -3.1144  -3.0934
    -2.9272  -2.8913  -2.8374  -2.7763  -2.7470  -2.7078  -2.6757  -2.6366
    -2.6074  -2.5206  -2.4977  -2.4678  -2.4481  -2.3803  -2.3270  -2.3024
    -2.2258  -2.1861  -2.1263  -2.0619  -2.0119  -1.9513  -1.9345  -1.9063
[...]
    -1.7274  -1.5043  -1.4635  -1.4524  -1.4331  -1.3958  -1.3168  -1.1530
    -1.1423  -1.0854  -1.0682  -1.0522  -0.9687  -0.9091  -0.8694  -0.7851
    -0.7314  -0.7245  -0.6956  -0.6682  -0.5928  -0.5713  -0.5574   0.3016
     1.6038   1.6073   1.6199   1.6252   1.9677   1.9685   2.0974   2.0984
     2.2810   2.3017   2.3150   2.3968   2.4198   2.4899   2.5759   2.6359
     2.6578   2.7024   2.7859   2.8192   2.8766   2.9282   2.9501   2.9780
     2.9928   3.0011   3.0421   3.1001   3.1147   3.2116   3.2371   3.2462
     3.2620   3.2856   3.3431   3.3893   3.4027   3.4082   3.4644   3.4757
     3.4858   3.5137   3.5282   3.5827   3.6398   3.6556   3.7788   3.8795
     3.9155   3.9256   4.1426   4.1430   4.5933   4.6222   4.6446   4.7300
     4.8850   4.9013   4.9343   5.0842   5.1629   5.1678   5.1874   5.4493
     5.6757   5.6846   5.6960   5.9287   5.9340   5.9679   6.0179   6.0208
     6.0956   6.1081   6.1764   6.2685   6.2730   6.2808   6.3854   6.4627
     6.5011   6.6080   7.0428   7.2253   7.3329   7.3959   7.5553   7.5898
     7.7165   7.7683   7.9229   8.1103   8.2907   8.3380   8.4488   8.8672
     9.0073   9.0463   9.2113

          k =-0.0253 0.0280 0.0000 ( 34687 PWs)   bands (ev):

   -58.3016 -58.2712 -57.3836 -57.3786 -57.3493 -57.3103 -57.2583 -57.0923
   -57.0634 -57.0568 -57.0219 -56.9182 -56.9178 -56.8876 -56.8014 -56.7681
   -34.7240 -34.5706 -34.5457 -34.5035 -34.4219 -34.3857 -33.8555 -33.8449
   -33.7303 -33.6633 -33.6290 -33.5900 -33.5641 -33.5501 -33.5466 -33.5377
   -33.5295 -33.5170 -33.5154 -33.4953 -33.4888 -33.4658 -33.4645 -33.4456
   -33.3343 -33.3252 -33.3176 -33.3148 -33.3097 -33.3036 -33.2799 -33.2605
   -33.2499 -33.2370 -33.2368 -33.2281 -33.2094 -33.2013 -33.1629 -33.1331
   -33.1295 -33.0782 -33.0553 -33.0376 -33.0188 -32.9973 -32.9749 -32.9130
   -18.3668 -17.9376 -17.7723 -17.7300 -17.5193 -17.5128 -17.3716 -17.3647
   -17.3414 -17.3116 -17.1079 -17.0650 -16.9803 -16.9353 -16.8693 -16.8270
   -16.7886 -16.7463 -16.7290 -16.6656 -16.6591 -16.5788 -16.5403 -16.4816
   -16.4575 -16.4020 -16.3620 -16.3441 -16.1535 -16.1193 -15.8780 -15.6084
   -15.5597 -10.7539  -5.8376  -5.3061  -5.1400  -5.1218  -4.9901  -4.9491
    -4.9102  -4.8209  -4.6949  -4.6740  -4.6328  -4.5326  -4.4947  -4.4381
    -4.4046  -4.3099  -4.2865  -4.2466  -4.1963  -4.1789  -4.1382  -4.1233
    -4.0896  -4.0425  -4.0017  -3.9869  -3.9494  -3.9094  -3.8777  -3.7960
    -3.7789  -3.7206  -3.6873  -3.6220  -3.6010  -3.5403  -3.5005  -3.3892
    -3.3418  -3.3168  -3.2857  -3.2596  -3.2206  -3.1784  -3.1093  -3.0928
    -2.9168  -2.8786  -2.8191  -2.7744  -2.7183  -2.6823  -2.6710  -2.6140
    -2.5833  -2.5056  -2.4963  -2.4388  -2.4062  -2.3550  -2.2847  -2.2623
    -2.2104  -2.1893  -2.1010  -2.0392  -1.9561  -1.9376  -1.9130  -1.8471
    -1.8360  -1.7878  -1.7424  -1.6817  -1.6323  -1.5918  -1.5589  -1.5075
    -1.4734  -1.4326  -1.4037  -1.3777  -1.3589  -1.3428  -1.3114  -1.2873
    -1.2021  -1.1220  -1.0599  -1.0074  -0.9840  -0.9503  -0.9262  -0.8818
    -0.8398  -0.8172  -0.6285  -0.6066  -0.5825  -0.5191  -0.2621   0.3263
     1.1557   1.2493   1.4333   1.8226   1.8620   1.9292   1.9656   2.0332
     2.0442   2.1933   2.3042   2.3499   2.3913   2.4347   2.4579   2.5077
     2.5279   2.5521   2.5929   2.6533   2.7012   2.7256   2.7810   2.8357
     2.8803   2.9177   2.9342   2.9777   2.9945   3.0183   3.0442   3.0973
     3.1742   3.1948   3.2372   3.2623   3.2982   3.3403   3.4336   3.4687
     3.4988   3.5611   3.6152   3.6459   3.6676   3.7478   3.8254   3.8689
     4.0157   4.2123   4.2884   4.4396   4.6284   4.7261   4.8476   4.8648
     5.0053   5.0291   5.1164   5.2017   5.2447   5.3597   5.4641   5.5517
     5.6579   5.6985   5.7163   5.8066   5.8533   5.8868   5.9129   5.9352
     5.9701   5.9931   6.0675   6.1244   6.1787   6.2853   6.4018   6.4518
     6.4655   6.5828   6.7533   6.8084   7.3741   7.4873   7.7869   7.8846
     8.0880   8.2147   8.4886   8.5290   8.7786   8.8798   9.0706   9.3084
     9.3660   9.5281   9.6107

          k =-0.0253 0.0560 0.0000 ( 34699 PWs)   bands (ev):

   -58.2952 -58.2776 -57.3804 -57.3733 -57.3556 -57.3126 -57.2575 -57.0918
   -57.0639 -57.0522 -57.0268 -56.9183 -56.9118 -56.8941 -56.7947 -56.7748
   -34.6541 -34.5653 -34.5509 -34.4865 -34.4589 -34.4393 -33.7857 -33.7757
   -33.6796 -33.6480 -33.6123 -33.5887 -33.5846 -33.5836 -33.5722 -33.5655
   -33.5391 -33.5291 -33.5158 -33.4937 -33.4810 -33.4632 -33.4530 -33.4115
   -33.3692 -33.3222 -33.3189 -33.3097 -33.2817 -33.2722 -33.2557 -33.2555
   -33.2548 -33.2452 -33.2418 -33.2286 -33.2197 -33.2111 -33.1781 -33.1587
   -33.1169 -33.0753 -33.0720 -33.0488 -33.0346 -33.0211 -33.0094 -32.9836
   -18.2091 -17.7991 -17.7773 -17.6085 -17.5974 -17.4532 -17.3907 -17.3668
   -17.2457 -17.2385 -17.2009 -17.0550 -16.9454 -16.9165 -16.8782 -16.8374
   -16.7946 -16.7408 -16.7302 -16.7149 -16.6809 -16.5947 -16.5452 -16.5285
   -16.4972 -16.4383 -16.4084 -16.4036 -16.2160 -16.2001 -15.8768 -15.6371
   -15.6135 -10.7559  -5.6024  -5.0788  -5.0213  -4.9531  -4.9207  -4.8144
    -4.7924  -4.7551  -4.6848  -4.6701  -4.5231  -4.5062  -4.4432  -4.3925
    -4.3747  -4.3663  -4.3180  -4.2741  -4.2473  -4.2371  -4.2015  -4.1697
    -4.1283  -4.1179  -4.0529  -4.0163  -3.9890  -3.9492  -3.9239  -3.8872
    -3.8258  -3.7953  -3.6941  -3.5989  -3.5457  -3.5263  -3.4562  -3.3816
    -3.3611  -3.2871  -3.1849  -3.1576  -3.1175  -3.1088  -3.0562  -3.0213
    -2.9797  -2.9240  -2.8404  -2.7901  -2.7593  -2.7012  -2.6063  -2.5869
    -2.5219  -2.5076  -2.4537  -2.3886  -2.3731  -2.3149  -2.2972  -2.2557
    -2.1848  -2.1328  -2.1183  -2.0860  -2.0457  -2.0038  -1.9824  -1.9455
    -1.9282  -1.9031  -1.8901  -1.8432  -1.7648  -1.6994  -1.6870  -1.5908
    -1.5696  -1.5413  -1.5156  -1.4819  -1.4413  -1.4101  -1.3810  -1.3215
    -1.2863  -1.2194  -1.1527  -1.0310  -1.0013  -0.9666  -0.9347  -0.8544
    -0.7601  -0.7333  -0.7018  -0.6370  -0.6063  -0.5526  -0.3594   0.3067
     1.2900   1.4720   1.5673   1.7612   1.7766   1.9149   1.9817   2.0613
     2.2683   2.2790   2.3455   2.3818   2.4183   2.4905   2.5256   2.5514
     2.5759   2.5994   2.6571   2.7089   2.7242   2.7677   2.8104   2.8603
     2.8857   2.9207   2.9651   3.0101   3.0361   3.0494   3.0593   3.1129
     3.1622   3.2021   3.2212   3.2922   3.3209   3.3494   3.3810   3.4611
     3.5125   3.5377   3.6160   3.6377   3.6715   3.7298   3.7490   3.8023
     3.8984   4.1025   4.3958   4.5041   4.7192   4.8622   4.9133   4.9642
     4.9987   5.0932   5.1903   5.2111   5.3393   5.3911   5.4372   5.5316
     5.5672   5.6026   5.6551   5.7128   5.7422   5.8070   5.8234   5.8637
     5.9301   5.9454   5.9911   6.0932   6.1361   6.2143   6.3311   6.4339
     6.4575   6.4771   6.7208   6.7719   7.0663   7.2842   7.6689   7.8258
     8.0919   8.2257   8.3107   8.4842   8.7647   8.8966   9.0068   9.1758
     9.3708   9.5530   9.6372

          k =-0.0506 0.0280 0.0000 ( 34685 PWs)   bands (ev):

   -58.3016 -58.2712 -57.3827 -57.3795 -57.3493 -57.3104 -57.2583 -57.0923
   -57.0630 -57.0572 -57.0219 -56.9182 -56.9178 -56.8876 -56.8015 -56.7681
   -34.7248 -34.5705 -34.5457 -34.5019 -34.4219 -34.3858 -33.8559 -33.8489
   -33.7305 -33.6437 -33.6288 -33.5902 -33.5693 -33.5520 -33.5506 -33.5430
   -33.5297 -33.5244 -33.5142 -33.4952 -33.4889 -33.4656 -33.4535 -33.4467
   -33.3345 -33.3188 -33.3171 -33.3147 -33.3050 -33.3032 -33.2800 -33.2625
   -33.2598 -33.2371 -33.2359 -33.2309 -33.2095 -33.2008 -33.1588 -33.1331
   -33.1298 -33.0783 -33.0553 -33.0446 -33.0171 -32.9973 -32.9749 -32.9131
   -18.2585 -17.8604 -17.8479 -17.6973 -17.5839 -17.4519 -17.4343 -17.3407
   -17.3135 -17.2468 -17.1765 -17.0825 -16.9930 -16.9479 -16.9190 -16.8921
   -16.8064 -16.7637 -16.7525 -16.6926 -16.6298 -16.5459 -16.5188 -16.4859
   -16.4575 -16.4029 -16.3860 -16.3490 -16.1500 -16.1197 -15.8788 -15.6066
   -15.5598 -10.7537  -5.5363  -5.1836  -5.1504  -5.1171  -4.9456  -4.8660
    -4.7640  -4.7061  -4.6789  -4.6487  -4.5976  -4.5835  -4.5293  -4.4037
    -4.3596  -4.3194  -4.2382  -4.2115  -4.1771  -4.1614  -4.1449  -4.0524
    -4.0239  -4.0059  -3.9688  -3.9233  -3.8828  -3.8354  -3.8108  -3.7814
    -3.7178  -3.6656  -3.6357  -3.5912  -3.5493  -3.5246  -3.4840  -3.4535
    -3.3776  -3.3655  -3.2965  -3.2615  -3.2006  -3.1451  -3.1147  -3.0546
    -3.0061  -2.9770  -2.8989  -2.8323  -2.7544  -2.6952  -2.6858  -2.6628
    -2.6133  -2.5907  -2.5771  -2.5221  -2.5132  -2.3899  -2.3376  -2.3291
    -2.2669  -2.1981  -2.1824  -2.1557  -2.0773  -2.0070  -2.0008  -1.9398
    -1.9205  -1.8907  -1.8069  -1.7186  -1.7058  -1.6814  -1.6119  -1.5825
    -1.5208  -1.4726  -1.4503  -1.3912  -1.3756  -1.3245  -1.3086  -1.2574
    -1.2413  -1.1176  -1.0546  -1.0315  -1.0074  -0.9537  -0.9209  -0.8734
    -0.8249  -0.7936  -0.7174  -0.6782  -0.6569  -0.5328  -0.3881   0.3112
     1.1426   1.3426   1.4677   1.5685   1.9364   1.9465   1.9690   2.0608
     2.1270   2.2018   2.2567   2.3325   2.4082   2.4424   2.5311   2.5487
     2.5952   2.6538   2.6902   2.7038   2.7575   2.8311   2.8540   2.8845
     2.9429   2.9491   2.9828   2.9873   2.9941   3.1047   3.1116   3.1403
     3.1881   3.2171   3.2915   3.3125   3.3584   3.3855   3.4093   3.4577
     3.4723   3.5498   3.6044   3.6695   3.7454   3.7816   3.8014   3.9028
     3.9611   4.0639   4.1119   4.4099   4.5129   4.6587   4.7504   4.8115
     4.8443   4.9166   4.9689   5.2911   5.3319   5.4147   5.5296   5.5616
     5.6427   5.7693   5.7893   5.8563   5.9009   5.9158   5.9626   6.0577
     6.0965   6.1676   6.2527   6.3364   6.3889   6.4004   6.4453   6.4923
     6.5437   6.5540   6.7129   6.9138   7.0674   7.2189   7.5528   7.6074
     7.7221   8.2086   8.4088   8.4596   8.8610   8.9339   9.0587   9.2089
     9.4243   9.6048   9.6770

          k =-0.0506 0.0560 0.0000 ( 34596 PWs)   bands (ev):

   -58.2952 -58.2776 -57.3799 -57.3737 -57.3556 -57.3126 -57.2575 -57.0918
   -57.0637 -57.0523 -57.0268 -56.9183 -56.9118 -56.8941 -56.7947 -56.7748
   -34.6547 -34.5653 -34.5508 -34.4851 -34.4591 -34.4389 -33.7859 -33.7802
   -33.6797 -33.6322 -33.6121 -33.5879 -33.5862 -33.5834 -33.5666 -33.5655
   -33.5424 -33.5293 -33.5279 -33.4940 -33.4902 -33.4633 -33.4413 -33.4131
   -33.3695 -33.3220 -33.3074 -33.3052 -33.2842 -33.2744 -33.2568 -33.2556
   -33.2544 -33.2450 -33.2413 -33.2386 -33.2203 -33.2115 -33.1775 -33.1545
   -33.1169 -33.0754 -33.0720 -33.0487 -33.0389 -33.0218 -33.0093 -32.9834
   -18.1059 -17.8169 -17.6993 -17.6115 -17.5953 -17.5554 -17.3783 -17.3669
   -17.2167 -17.2044 -17.1152 -17.0930 -16.9755 -16.9100 -16.8654 -16.8404
   -16.8215 -16.8055 -16.7598 -16.7337 -16.7188 -16.6252 -16.5947 -16.5045
   -16.4941 -16.4359 -16.4188 -16.4090 -16.2154 -16.1965 -15.8767 -15.6359
   -15.6140 -10.7556  -5.2998  -4.9898  -4.9391  -4.9311  -4.7812  -4.7735
    -4.7145  -4.6376  -4.5244  -4.5042  -4.4986  -4.4158  -4.4013  -4.3787
    -4.3591  -4.3254  -4.3073  -4.2457  -4.1981  -4.1740  -4.1638  -4.1111
    -4.1008  -4.0536  -4.0402  -3.9895  -3.9765  -3.9018  -3.8824  -3.8273
    -3.7779  -3.7079  -3.6757  -3.6088  -3.5785  -3.5379  -3.5005  -3.4309
    -3.3942  -3.3177  -3.2581  -3.2289  -3.1320  -3.1277  -3.0779  -3.0500
    -2.9936  -2.9756  -2.9561  -2.9005  -2.7984  -2.7616  -2.7470  -2.7039
    -2.6276  -2.5854  -2.5435  -2.5009  -2.4761  -2.4122  -2.3872  -2.3676
    -2.3488  -2.2877  -2.1928  -2.1700  -2.1448  -2.1265  -2.1004  -2.0458
    -2.0110  -1.9694  -1.9421  -1.8683  -1.8462  -1.7795  -1.7286  -1.6540
    -1.5638  -1.5467  -1.5367  -1.4943  -1.4420  -1.3829  -1.3507  -1.3040
    -1.2419  -1.1734  -1.0748  -1.0197  -0.9863  -0.9007  -0.8503  -0.8429
    -0.7913  -0.7042  -0.6898  -0.6686  -0.6535  -0.5507  -0.4732   0.3092
     1.3106   1.5003   1.6490   1.6707   1.8554   2.0065   2.0350   2.0703
     2.2461   2.2588   2.3628   2.3793   2.4356   2.4642   2.5508   2.5878
     2.6531   2.6982   2.7324   2.7470   2.8143   2.8455   2.8738   2.9061
     2.9370   2.9538   3.0094   3.0444   3.0751   3.1162   3.1477   3.1934
     3.1985   3.2528   3.2873   3.3274   3.3365   3.3797   3.4188   3.4698
     3.4841   3.5518   3.5816   3.6441   3.6704   3.7468   3.8067   3.8426
     3.8855   3.9624   4.1553   4.5066   4.5993   4.6188   4.7572   4.8248
     4.8913   4.9677   5.0128   5.1894   5.3046   5.3786   5.4145   5.4471
     5.5968   5.6188   5.6707   5.7196   5.8821   5.8995   5.9901   6.0088
     6.0703   6.1112   6.1717   6.2081   6.3125   6.3389   6.4131   6.4259
     6.5424   6.6165   6.7609   6.8102   7.1725   7.3525   7.4989   7.6160
     7.9326   8.0103   8.0994   8.3652   8.6038   8.7139   8.8028   9.0353
     9.1886   9.3262   9.4337

     the Fermi energy is    -0.2885 ev

!    total energy              =   -3021.14927670 Ry
     Harris-Foulkes estimate   =   -3021.14927673 Ry
     estimated scf accuracy    <       0.00000041 Ry

     The total energy is the sum of the following terms:

     one-electron contribution =  -40438.35363358 Ry
     hartree contribution      =   20290.56602575 Ry
     xc contribution           =    -553.19140465 Ry
     ewald contribution        =   17679.84953884 Ry
     smearing contrib. (-TS)   =      -0.01980305 Ry

     total magnetization       =     1.06 Bohr mag/cell
     absolute magnetization    =     1.23 Bohr mag/cell

     convergence has been achieved in  10 iterations

     Forces acting on atoms (Ry/au):


     negative rho (up, down):  1.188E-02 1.194E-02
     atom    1 type  1   force =     0.00018642   -0.00089936   -0.10468740
     atom    2 type  2   force =     0.00014504    0.00068143    0.04002359
     atom    3 type  1   force =     0.00074993   -0.00175385   -0.02053969
     atom    4 type  2   force =    -0.00326786    0.00312256   -0.00324032
     atom    5 type  1   force =     0.00034852    0.00006688    0.00035007
     atom    6 type  2   force =    -0.00012699   -0.00009721    0.00022829
     atom    7 type  1   force =    -0.00025450   -0.00010234   -0.00009118
     atom    8 type  2   force =    -0.00019567   -0.00017986   -0.00023912
     atom    9 type  1   force =    -0.00003236    0.00056554   -0.10482114
     atom   10 type  2   force =     0.00035002   -0.00021139    0.03599785
     atom   11 type  1   force =     0.00068086    0.00183772    0.00261902
     atom   12 type  2   force =    -0.00519558   -0.00266973   -0.00520469
     atom   13 type  1   force =     0.00041463    0.00008875   -0.00022908
     atom   14 type  2   force =     0.00013548   -0.00008249   -0.00007897
     atom   15 type  1   force =    -0.00008349   -0.00002572   -0.00001343
     atom   16 type  2   force =    -0.00025817    0.00004071   -0.00036672
     atom   17 type  2   force =     0.00001094   -0.00001341    0.06658206
     atom   18 type  1   force =     0.00005932    0.00002995    0.13147776
     atom   19 type  2   force =     0.00017853   -0.00052870   -0.08522300
     atom   20 type  2   force =    -0.05792468    0.00014180   -0.03608020
     atom   21 type  2   force =     0.05781945   -0.00004926   -0.03604184
     atom   22 type  1   force =    -0.00042902    0.00074785    0.08017031
     atom   23 type  2   force =     0.00020007   -0.00004937    0.00003055
     atom   24 type  2   force =     0.00064279    0.00185996   -0.03467258
     atom   25 type  2   force =     0.00414179    0.00332420   -0.00510845
     atom   26 type  1   force =     0.00040666   -0.00004753    0.00006984
     atom   27 type  2   force =    -0.00009693   -0.00012651    0.00010239
     atom   28 type  2   force =     0.00004854   -0.00019617   -0.00001684
     atom   29 type  2   force =     0.00001225   -0.00007501    0.00007614
     atom   30 type  1   force =    -0.00023543   -0.00013245   -0.00002872
     atom   31 type  2   force =     0.00010659   -0.00005968    0.00001880
     atom   32 type  2   force =    -0.00004265   -0.00005706    0.00006344
     atom   33 type  2   force =    -0.00016451    0.00004905    0.06631557
     atom   34 type  1   force =     0.00007917   -0.00003502    0.13125763
     atom   35 type  2   force =     0.00018898   -0.00012900   -0.08483081
     atom   36 type  2   force =    -0.05782050    0.00006464   -0.03569506
     atom   37 type  2   force =     0.05799189   -0.00017720   -0.03608950
     atom   38 type  1   force =    -0.00037275   -0.00020593    0.07984136
     atom   39 type  2   force =     0.00007890   -0.00026299   -0.00009371
     atom   40 type  2   force =     0.00049163    0.00123914   -0.03527745
     atom   41 type  2   force =     0.00589036   -0.00243668   -0.00723248
     atom   42 type  1   force =     0.00024336   -0.00006983    0.00001217
     atom   43 type  2   force =    -0.00019541   -0.00010187    0.00009387
     atom   44 type  2   force =     0.00000162   -0.00015962   -0.00002727
     atom   45 type  2   force =     0.00001185   -0.00016891    0.00006069
     atom   46 type  1   force =    -0.00016662   -0.00011665   -0.00010463
     atom   47 type  2   force =    -0.00011045   -0.00017818    0.00021871
     atom   48 type  2   force =    -0.00007740    0.00004478    0.00031427
     atom   49 type  2   force =    -0.00024486   -0.00030359   -0.00027784
     atom   50 type  3   force =    -0.02433254    0.01000364    0.00905756
     atom   51 type  4   force =    -0.00186648    0.00038588    0.00029590
     atom   52 type  4   force =    -0.00170722    0.00073151    0.00112022
     atom   53 type  4   force =    -0.00091393   -0.00145081   -0.00011444
     atom   54 type  4   force =     0.02450043   -0.01187258   -0.00997151

     Total force =     0.344664     Total SCF correction =     0.001089
 !ASE

     Writing output data file calc.save
 
     init_run     :     66.14s CPU     77.14s WALL (       1 calls)
     electrons    :   2798.59s CPU   3246.19s WALL (       1 calls)
     forces       :     48.81s CPU     50.83s WALL (       1 calls)

     Called by init_run:
     wfcinit      :     57.84s CPU     68.22s WALL (       1 calls)
     potinit      :      1.50s CPU      1.76s WALL (       1 calls)

     Called by electrons:
     c_bands      :   2459.56s CPU   2844.80s WALL (      11 calls)
     sum_band     :    294.78s CPU    351.56s WALL (      11 calls)
     v_of_rho     :     11.46s CPU     13.96s WALL (      11 calls)
     newd         :     36.65s CPU     39.94s WALL (      11 calls)
     mix_rho      :      0.38s CPU      0.52s WALL (      11 calls)
     vdW_energy   :      2.51s CPU      2.91s WALL (      12 calls)
     vdW_ffts     :      3.03s CPU      3.97s WALL (      24 calls)
     vdW_v        :      1.18s CPU      1.32s WALL (      12 calls)

     Called by c_bands:
     init_us_2    :      6.83s CPU      7.44s WALL (     960 calls)
     cegterg      :   2416.65s CPU   2799.83s WALL (     440 calls)

     Called by *egterg:
     h_psi        :    947.85s CPU   1238.36s WALL (    2067 calls)
     s_psi        :    163.86s CPU    169.67s WALL (    2067 calls)
     g_psi        :      4.81s CPU      5.02s WALL (    1587 calls)
     cdiaghg      :    765.17s CPU    788.53s WALL (    1987 calls)

     Called by h_psi:
     add_vuspsi   :    165.63s CPU    171.49s WALL (    2067 calls)

     General routines
     calbec       :    242.33s CPU    248.74s WALL (    2547 calls)
     fft          :      6.14s CPU      7.85s WALL (     956 calls)
     ffts         :      0.04s CPU      0.06s WALL (      44 calls)
     fftw         :    523.18s CPU    848.61s WALL (  780002 calls)
     interpolate  :      0.34s CPU      0.50s WALL (      44 calls)
     davcio       :      0.01s CPU      0.81s WALL (      40 calls)
 
     Parallel routines
     fft_scatter  :    260.17s CPU    439.77s WALL (  781002 calls)
 
     PWSCF        : 48m36.27s CPU    56m18.27s WALL

 
   This run was terminated on:   0:30:19  27Feb2018            

=------------------------------------------------------------------------------=
   JOB DONE.
=------------------------------------------------------------------------------=
