  python dir          : /home/vossj/suncat/lib/python2.7/site-packages/espresso
  espresso dir        : /home/vossj/suncat/esdld/espresso-dynpy-beef/bin
  pseudo dir          : /home/alatimer/bin/psp/esp_psp_w_gbrvRu/
  ase-espresso py git : ffa2778-git



     Program PWSCF v.5.1rc2 (svn rev. ) starts on 13Feb2018 at  0:48:30 

     This program is part of the open-source Quantum ESPRESSO suite
     for quantum simulation of materials; please cite
         "P. Giannozzi et al., J. Phys.:Condens. Matter 21 395502 (2009);
          URL http://www.quantum-espresso.org", 
     in publications or presentations arising from this work. More details at
     http://www.quantum-espresso.org/quote

     Parallel version (MPI), running on    16 processors
     R & G space division:  proc/nbgrp/npool/nimage =      16
     Reading input from pw.inp
     Message from routine read_cards :
     DEPRECATED: no units specified in CELL_PARAMETERS card

     Current dimensions of program PWSCF are:
     Max number of different atomic species (ntypx) = 10
     Max number of k-points (npk) =  40000
     Max angular momentum in pseudopotentials (lmaxx) =  3

     **************************************************************************
     Initializing libbeef V0.1.1 with the BEEF-vdW functional.
     Citation: Wellendorff et al., PRB 85, 235149 (2012).
     **************************************************************************


     IMPORTANT: XC functional enforced from input :
     Exchange-correlation      = BEEF ( 1  4 27 13 2)
     Any further DFT definition will be discarded
     Please, verify this is what you really want


     Subspace diagonalization in iterative solution of the eigenvalue problem:
     a serial algorithm will be used

 
     Parallelization info
     --------------------
     sticks:   dense  smooth     PW     G-vecs:    dense   smooth      PW
     Min         281     112     31                68535    17318    2565
     Max         282     113     32                68545    17369    2582
     Sum        4501    1795    503              1096637   277353   41113
 
     Generating pointlists ...
     new r_m :   0.4125 (alat units)  0.7795 (a.u.) for type    1
     new r_m :   0.3969 (alat units)  0.7500 (a.u.) for type    2
     new r_m :   0.4125 (alat units)  0.7795 (a.u.) for type    3
     new r_m :   0.3969 (alat units)  0.7500 (a.u.) for type    4


     bravais-lattice index     =            0
     lattice parameter (alat)  =       1.8897  a.u.
     unit-cell volume          =    7990.9933 (a.u.)^3
     number of atoms/cell      =           54
     number of atomic types    =            4
     number of electrons       =       398.00
     number of Kohn-Sham states=          299
     kinetic-energy cutoff     =      40.4243  Ry
     charge density cutoff     =     404.2426  Ry
     convergence threshold     =      7.3E-07
     mixing beta               =       0.1000
     number of iterations used =           10  plain     mixing
     Exchange-correlation      = BEEF ( 1  4 27 13 2)
     nstep                     =           50


     celldm(1)=   1.889726  celldm(2)=   0.000000  celldm(3)=   0.000000
     celldm(4)=   0.000000  celldm(5)=   0.000000  celldm(6)=   0.000000

     crystal axes: (cart. coord. in units of alat)
               a(1) = (   6.590708   0.000000   0.000000 )  
               a(2) = (   0.000000   5.950229   0.000000 )  
               a(3) = (   0.000000   0.000000  30.195235 )  

     reciprocal axes: (cart. coord. in units 2 pi/alat)
               b(1) = (  0.151729  0.000000  0.000000 )  
               b(2) = (  0.000000  0.168061  0.000000 )  
               b(3) = (  0.000000  0.000000  0.033118 )  


     PseudoPot. # 1 for Ti read from file:
     /home/alatimer/bin/psp/esp_psp_w_gbrvRu/Ti.UPF
     MD5 check sum: 8e4df49b7f0d34bbd5052bf3f5ea0213
     Pseudo is Ultrasoft, Zval = 12.0
     Generated by new atomic code, or converted to UPF format
     Using radial grid of  851 points,  6 beta functions with: 
                l(1) =   0
                l(2) =   0
                l(3) =   1
                l(4) =   1
                l(5) =   2
                l(6) =   2
     Q(r) pseudized with  8 coefficients,  rinner =    1.000   1.000   1.000
                                                       1.000   1.000

     PseudoPot. # 2 for  O read from file:
     /home/alatimer/bin/psp/esp_psp_w_gbrvRu/O.UPF
     MD5 check sum: e057bbcf3229fb5d8c36c0c92f9568b4
     Pseudo is Ultrasoft + core correction, Zval =  6.0
     Generated using "atomic" code by A. Dal Corso  v.5.0.2 svn rev. 9415
     Using radial grid of 1095 points,  4 beta functions with: 
                l(1) =   0
                l(2) =   0
                l(3) =   1
                l(4) =   1
     Q(r) pseudized with 0 coefficients 


     PseudoPot. # 3 for  C read from file:
     /home/alatimer/bin/psp/esp_psp_w_gbrvRu/C.UPF
     MD5 check sum: ab446d787031eba755f1d5ee46644bb0
     Pseudo is Ultrasoft + core correction, Zval =  4.0
     Generated using "atomic" code by A. Dal Corso  v.5.0.2 svn rev. 9415
     Using radial grid of 1073 points,  4 beta functions with: 
                l(1) =   0
                l(2) =   0
                l(3) =   1
                l(4) =   1
     Q(r) pseudized with 0 coefficients 


     PseudoPot. # 4 for  H read from file:
     /home/alatimer/bin/psp/esp_psp_w_gbrvRu/H.UPF
     MD5 check sum: bd57da0722753ddfd9833a65b40bb853
     Pseudo is Ultrasoft, Zval =  1.0
     Generated using "atomic" code by A. Dal Corso  v.5.0.2 svn rev. 9415
     Using radial grid of  929 points,  2 beta functions with: 
                l(1) =   0
                l(2) =   0
     Q(r) pseudized with 0 coefficients 


     vdW kernel table read from file vdW_kernel_table
     MD5 check sum: 095c7af220d748ca6e76c0b4c6cfb241

     atomic species   valence    mass     pseudopotential
        Ti1           12.00    47.88000     Ti( 1.00)
        O1             6.00    15.99940      O( 1.00)
        C1             4.00    12.01100      C( 1.00)
        H1             1.00     1.00794      H( 1.00)

     Starting magnetic structure 
     atomic species   magnetization
        Ti1          0.250
        O1           0.500
        C1           0.750
        H1           0.000

     No symmetry found



   Cartesian axes

     site n.     atom                  positions (alat units)
         1           Ti1 tau(   1) = (   1.6476770   0.7437786   2.6545865  )
         2           O1  tau(   2) = (   1.6476770   2.2313359   3.9361215  )
         3           Ti1 tau(   3) = (   1.6476770   2.2313359   5.9499405  )
         4           O1  tau(   4) = (   0.3661420   0.7437786   5.9499405  )
         5           Ti1 tau(   5) = (   1.7592931   0.7557636   9.1813031  )
         6           O1  tau(   6) = (   1.6162490   2.2572048  10.5951269  )
         7           Ti1 tau(   7) = (   1.5595004   2.2680265  12.4668274  )
         8           O1  tau(   8) = (   0.3709531   0.7738127  12.6996540  )
         9           Ti1 tau(   9) = (   1.6476770   3.7188931   2.6545865  )
        10           O1  tau(  10) = (   1.6476770   5.2064503   3.9361215  )
        11           Ti1 tau(  11) = (   1.6476770   5.2064503   5.9499405  )
        12           O1  tau(  12) = (   0.3661420   3.7188931   5.9499405  )
        13           Ti1 tau(  13) = (   1.7607536   3.7112867   9.1949733  )
        14           O1  tau(  14) = (   1.6133076   5.2250699  10.5465640  )
        15           Ti1 tau(  15) = (   1.6492307   5.2431137  12.3448001  )
        16           O1  tau(  16) = (   0.3719744   3.7598389  12.7007434  )
        17           O1  tau(  17) = (   1.6476770   2.2313359   1.3730516  )
        18           Ti1 tau(  18) = (   4.9430310   2.2313359   2.6545865  )
        19           O1  tau(  19) = (   4.9430310   2.2313359   4.6684056  )
        20           O1  tau(  20) = (   6.2245660   0.7437786   2.6545865  )
        21           O1  tau(  21) = (   3.6614961   0.7437786   2.6545865  )
        22           Ti1 tau(  22) = (   4.9430310   0.7437786   5.9499405  )
        23           O1  tau(  23) = (   1.6387103   2.2391978   8.0037664  )
        24           O1  tau(  24) = (   4.9430310   2.2313359   7.2314755  )
        25           O1  tau(  25) = (   2.9292120   0.7437786   5.9499405  )
        26           Ti1 tau(  26) = (   5.0158092   2.2383949   9.3973727  )
        27           O1  tau(  27) = (   4.9391445   2.2276729  11.2675731  )
        28           O1  tau(  28) = (   6.2094020   0.7514556   9.2742047  )
        29           O1  tau(  29) = (   3.6131301   0.7515640   9.2682932  )
        30           Ti1 tau(  30) = (   4.8940083   0.8207741  12.7348365  )
        31           O1  tau(  31) = (   4.8487174   2.2703822  13.8475395  )
        32           O1  tau(  32) = (   2.8766274   0.7418004  12.6316555  )
        33           O1  tau(  33) = (   1.6476770   5.2064503   1.3730516  )
        34           Ti1 tau(  34) = (   4.9430310   5.2064503   2.6545865  )
        35           O1  tau(  35) = (   4.9430310   5.2064503   4.6684056  )
        36           O1  tau(  36) = (   6.2245660   3.7188931   2.6545865  )
        37           O1  tau(  37) = (   3.6614961   3.7188931   2.6545865  )
        38           Ti1 tau(  38) = (   4.9430310   3.7188931   5.9499405  )
        39           O1  tau(  39) = (   1.6418458   5.2133935   8.0066417  )
        40           O1  tau(  40) = (   4.9430310   5.2064503   7.2314755  )
        41           O1  tau(  41) = (   2.9292120   3.7188931   5.9499405  )
        42           Ti1 tau(  42) = (   5.0218241   5.2139137   9.3870600  )
        43           O1  tau(  43) = (   4.9399496   5.2040061  11.2598200  )
        44           O1  tau(  44) = (   6.2073000   3.7245411   9.2731052  )
        45           O1  tau(  45) = (   3.6137513   3.7232133   9.2682466  )
        46           Ti1 tau(  46) = (   4.8936935   3.8094630  12.7397413  )
        47           O1  tau(  47) = (   4.9051259   5.2510468  13.8339921  )
        48           O1  tau(  48) = (   2.8743370   3.7938830  12.6403791  )
        49           C1  tau(  49) = (   1.0587210   2.2268971  15.9066084  )
        50           O1  tau(  50) = (   1.8917182   2.2355032  14.7378010  )
        51           H1  tau(  51) = (   0.0310076   2.2200215  15.5603933  )
        52           H1  tau(  52) = (   2.8355400   2.2288152  14.9243747  )
        53           H1  tau(  53) = (   1.2478062   1.3326534  16.5039879  )
        54           H1  tau(  54) = (   1.2341453   3.1195140  16.5098874  )

     number of k points=    40  Fermi-Dirac smearing, width (Ry)=  0.0073
                       cart. coord. in units 2pi/alat
        k(    1) = (   0.0000000   0.0000000   0.0000000), wk =   0.0277778
        k(    2) = (   0.0000000   0.0280101   0.0000000), wk =   0.0555556
        k(    3) = (   0.0000000   0.0560203   0.0000000), wk =   0.0555556
        k(    4) = (   0.0000000  -0.0840304   0.0000000), wk =   0.0277778
        k(    5) = (   0.0252881   0.0000000   0.0000000), wk =   0.0555556
        k(    6) = (   0.0252881   0.0280101   0.0000000), wk =   0.0555556
        k(    7) = (   0.0252881   0.0560203   0.0000000), wk =   0.0555556
        k(    8) = (   0.0252881  -0.0840304   0.0000000), wk =   0.0555556
        k(    9) = (   0.0505763   0.0000000   0.0000000), wk =   0.0555556
        k(   10) = (   0.0505763   0.0280101   0.0000000), wk =   0.0555556
        k(   11) = (   0.0505763   0.0560203   0.0000000), wk =   0.0555556
        k(   12) = (   0.0505763  -0.0840304   0.0000000), wk =   0.0555556
        k(   13) = (  -0.0758644   0.0000000   0.0000000), wk =   0.0277778
        k(   14) = (  -0.0758644   0.0280101   0.0000000), wk =   0.0555556
        k(   15) = (  -0.0758644   0.0560203   0.0000000), wk =   0.0555556
        k(   16) = (  -0.0758644  -0.0840304   0.0000000), wk =   0.0277778
        k(   17) = (  -0.0252881   0.0280101   0.0000000), wk =   0.0555556
        k(   18) = (  -0.0252881   0.0560203   0.0000000), wk =   0.0555556
        k(   19) = (  -0.0505763   0.0280101   0.0000000), wk =   0.0555556
        k(   20) = (  -0.0505763   0.0560203   0.0000000), wk =   0.0555556
        k(   21) = (   0.0000000   0.0000000   0.0000000), wk =   0.0277778
        k(   22) = (   0.0000000   0.0280101   0.0000000), wk =   0.0555556
        k(   23) = (   0.0000000   0.0560203   0.0000000), wk =   0.0555556
        k(   24) = (   0.0000000  -0.0840304   0.0000000), wk =   0.0277778
        k(   25) = (   0.0252881   0.0000000   0.0000000), wk =   0.0555556
        k(   26) = (   0.0252881   0.0280101   0.0000000), wk =   0.0555556
        k(   27) = (   0.0252881   0.0560203   0.0000000), wk =   0.0555556
        k(   28) = (   0.0252881  -0.0840304   0.0000000), wk =   0.0555556
        k(   29) = (   0.0505763   0.0000000   0.0000000), wk =   0.0555556
        k(   30) = (   0.0505763   0.0280101   0.0000000), wk =   0.0555556
        k(   31) = (   0.0505763   0.0560203   0.0000000), wk =   0.0555556
        k(   32) = (   0.0505763  -0.0840304   0.0000000), wk =   0.0555556
        k(   33) = (  -0.0758644   0.0000000   0.0000000), wk =   0.0277778
        k(   34) = (  -0.0758644   0.0280101   0.0000000), wk =   0.0555556
        k(   35) = (  -0.0758644   0.0560203   0.0000000), wk =   0.0555556
        k(   36) = (  -0.0758644  -0.0840304   0.0000000), wk =   0.0277778
        k(   37) = (  -0.0252881   0.0280101   0.0000000), wk =   0.0555556
        k(   38) = (  -0.0252881   0.0560203   0.0000000), wk =   0.0555556
        k(   39) = (  -0.0505763   0.0280101   0.0000000), wk =   0.0555556
        k(   40) = (  -0.0505763   0.0560203   0.0000000), wk =   0.0555556

     Dense  grid:  1096637 G-vectors     FFT dimensions: (  80,  72, 375)

     Smooth grid:   277353 G-vectors     FFT dimensions: (  54,  45, 240)

     Largest allocated arrays     est. size (Mb)     dimensions
        Kohn-Sham Wavefunctions         9.95 Mb     (    2180,  299)
        NL pseudopotentials            18.89 Mb     (    2180,  568)
        Each V/rho on FFT grid          4.22 Mb     (  138240,   2)
        Each G-vector array             0.52 Mb     (   68538)
        G-vector shells                 0.25 Mb     (   33046)
     Largest temporary arrays     est. size (Mb)     dimensions
        Auxiliary wavefunctions        39.78 Mb     (    2180, 1196)
        Each subspace H/S matrix       21.83 Mb     (    1196, 1196)
        Each <psi_i|beta_j> matrix      2.59 Mb     (     568,  299)
        Arrays for rho mixing          21.09 Mb     (  138240,   10)

     Check: negative/imaginary core charge=   -0.000049    0.000000

     The initial density is read from file :
     ./calc.save/charge-density.dat


     negative rho (up, down):  1.209E-02 1.209E-02


     ************************************************************************
     *
     * You are using vdW-DF for exchange-correlation in this calculation.
     * Please cite the following three references that made this development
     * possible:
     *
     *   M. Dion, H. Rydberg, E. Schroder, D. C. Langreth, and
     *   B. I. Lundqvist, Phys. Rev. Lett. 92, 246401 (2004).
     *
     *   T. Thonhauser, V. R. Cooper, S. Li, A. Puzder, P. Hyldgaard, and
     *   D. C. Langreth, Phys. Rev. B 76, 125112 (2007).
     *
     *   G. Roman-Perez and J. M. Soler, Phys. Rev. Lett. 103, 096102 (2009).
     *
     *
     * If you are using vdW-DF2, please also cite:
     *
     *   K. Lee, E. D. Murray, L. Kong, B. I. Lundqvist, and
     *   D. C. Langreth, Phys. Rev. B 82, 081101(R) (2010).
     *
     *
     * If you are calculating the stress with vdW-DF, please also cite:
     *
     *   R. Sabatini, E. Kucukbenli, B. Kolb, T. Thonhauser, and
     *   S. de Gironcoli, J. Phys.: Condens. Matter 24, 424209 (2012).
     *
     ************************************************************************

     Carrying out vdW-DF run using the following parameters:

     Nqs =      20    Nr_points =    1024   r_max =   100.000
     q_mesh =
               0.00001000     0.04494208     0.09755937     0.15916263
               0.23128650     0.31572767     0.41458969     0.53033537
               0.66584808     0.82450364     1.01025438     1.22772762
               1.48234092     1.78043706     2.12944203     2.53805004
               3.01644009     3.57652955     4.23227104     5.00000000

     Gradients computed in reciprocal space

     ************************************************************************


     Starting wfc are  300 randomized atomic wfcs

     total cpu time spent up to now is       72.4 secs

     Self-consistent Calculation

     iteration #  1     ecut=    40.42 Ry     beta=0.10
     Davidson diagonalization with overlap
     ethr =  1.00E-05,  avg # of iterations = 14.8

     Threshold (ethr) on eigenvalues was too large:
     Diagonalizing with lowered threshold

     Davidson diagonalization with overlap
     ethr =  3.27E-07,  avg # of iterations =  1.0

     negative rho (up, down):  1.209E-02 1.209E-02
 
     Magnetic moment per site:
     atom:    1    charge:    3.1250    magn:   -0.0002    constr:    0.0000
     atom:    2    charge:    1.9174    magn:    0.0000    constr:    0.0000
     atom:    3    charge:    3.1198    magn:    0.0000    constr:    0.0000
     atom:    4    charge:    1.9231    magn:   -0.0001    constr:    0.0000
     atom:    5    charge:    3.1166    magn:    0.0000    constr:    0.0000
     atom:    6    charge:    1.9204    magn:   -0.0001    constr:    0.0000
     atom:    7    charge:    3.1159    magn:    0.0001    constr:    0.0000
     atom:    8    charge:    1.9179    magn:   -0.0001    constr:    0.0000
     atom:    9    charge:    3.1250    magn:   -0.0002    constr:    0.0000
     atom:   10    charge:    1.9174    magn:    0.0000    constr:    0.0000
     atom:   11    charge:    3.1197    magn:    0.0000    constr:    0.0000
     atom:   12    charge:    1.9231    magn:   -0.0001    constr:    0.0000
     atom:   13    charge:    3.1158    magn:    0.0000    constr:    0.0000
     atom:   14    charge:    1.9318    magn:   -0.0001    constr:    0.0000
     atom:   15    charge:    3.1188    magn:    0.0001    constr:    0.0000
     atom:   16    charge:    1.9176    magn:   -0.0001    constr:    0.0000
     atom:   17    charge:    1.8904    magn:    0.0004    constr:    0.0000
     atom:   18    charge:    3.1239    magn:   -0.0001    constr:    0.0000
     atom:   19    charge:    1.9129    magn:   -0.0000    constr:    0.0000
     atom:   20    charge:    1.9198    magn:    0.0000    constr:    0.0000
     atom:   21    charge:    1.9198    magn:    0.0000    constr:    0.0000
     atom:   22    charge:    3.1196    magn:    0.0000    constr:    0.0000
     atom:   23    charge:    1.9294    magn:   -0.0001    constr:    0.0000
     atom:   24    charge:    1.9119    magn:   -0.0001    constr:    0.0000
     atom:   25    charge:    1.9232    magn:   -0.0001    constr:    0.0000
     atom:   26    charge:    3.1145    magn:    0.0001    constr:    0.0000
     atom:   27    charge:    1.9121    magn:   -0.0001    constr:    0.0000
     atom:   28    charge:    1.9243    magn:   -0.0001    constr:    0.0000
     atom:   29    charge:    1.9202    magn:   -0.0001    constr:    0.0000
     atom:   30    charge:    3.1167    magn:    0.0000    constr:    0.0000
     atom:   31    charge:    1.9178    magn:   -0.0000    constr:    0.0000
     atom:   32    charge:    1.9168    magn:   -0.0001    constr:    0.0000
     atom:   33    charge:    1.8904    magn:    0.0004    constr:    0.0000
     atom:   34    charge:    3.1239    magn:   -0.0001    constr:    0.0000
     atom:   35    charge:    1.9129    magn:   -0.0000    constr:    0.0000
     atom:   36    charge:    1.9198    magn:    0.0000    constr:    0.0000
     atom:   37    charge:    1.9198    magn:    0.0000    constr:    0.0000
     atom:   38    charge:    3.1196    magn:    0.0000    constr:    0.0000
     atom:   39    charge:    1.9274    magn:   -0.0001    constr:    0.0000
     atom:   40    charge:    1.9122    magn:   -0.0001    constr:    0.0000
     atom:   41    charge:    1.9232    magn:   -0.0001    constr:    0.0000
     atom:   42    charge:    3.1141    magn:    0.0001    constr:    0.0000
     atom:   43    charge:    1.9144    magn:   -0.0001    constr:    0.0000
     atom:   44    charge:    1.9245    magn:   -0.0001    constr:    0.0000
     atom:   45    charge:    1.9196    magn:   -0.0001    constr:    0.0000
     atom:   46    charge:    3.1165    magn:    0.0000    constr:    0.0000
     atom:   47    charge:    1.9168    magn:   -0.0000    constr:    0.0000
     atom:   48    charge:    1.9167    magn:   -0.0001    constr:    0.0000
     atom:   49    charge:    0.6579    magn:   -0.0001    constr:    0.0000
     atom:   50    charge:    1.9305    magn:   -0.0001    constr:    0.0000
     atom:   51    charge:    0.3969    magn:    0.0000    constr:    0.0000
     atom:   52    charge:    0.3987    magn:    0.0000    constr:    0.0000
     atom:   53    charge:    0.3977    magn:    0.0000    constr:    0.0000
     atom:   54    charge:    0.3984    magn:    0.0000    constr:    0.0000

     total cpu time spent up to now is     1007.9 secs

     total energy              =   -3021.41996467 Ry
     Harris-Foulkes estimate   =   -3021.42009748 Ry
     estimated scf accuracy    <       0.00129948 Ry

     total magnetization       =     0.00 Bohr mag/cell
     absolute magnetization    =     0.01 Bohr mag/cell

     iteration #  2     ecut=    40.42 Ry     beta=0.10
     Davidson diagonalization with overlap
     ethr =  3.27E-07,  avg # of iterations =  2.0

     negative rho (up, down):  1.209E-02 1.209E-02
 
     Magnetic moment per site:
     atom:    1    charge:    3.1250    magn:   -0.0002    constr:    0.0000
     atom:    2    charge:    1.9174    magn:    0.0000    constr:    0.0000
     atom:    3    charge:    3.1198    magn:    0.0000    constr:    0.0000
     atom:    4    charge:    1.9231    magn:   -0.0000    constr:    0.0000
     atom:    5    charge:    3.1166    magn:    0.0000    constr:    0.0000
     atom:    6    charge:    1.9205    magn:   -0.0001    constr:    0.0000
     atom:    7    charge:    3.1160    magn:    0.0001    constr:    0.0000
     atom:    8    charge:    1.9179    magn:   -0.0001    constr:    0.0000
     atom:    9    charge:    3.1250    magn:   -0.0002    constr:    0.0000
     atom:   10    charge:    1.9174    magn:    0.0000    constr:    0.0000
     atom:   11    charge:    3.1197    magn:    0.0000    constr:    0.0000
     atom:   12    charge:    1.9231    magn:   -0.0000    constr:    0.0000
     atom:   13    charge:    3.1158    magn:    0.0000    constr:    0.0000
     atom:   14    charge:    1.9318    magn:   -0.0001    constr:    0.0000
     atom:   15    charge:    3.1188    magn:    0.0001    constr:    0.0000
     atom:   16    charge:    1.9176    magn:   -0.0001    constr:    0.0000
     atom:   17    charge:    1.8905    magn:    0.0004    constr:    0.0000
     atom:   18    charge:    3.1239    magn:   -0.0001    constr:    0.0000
     atom:   19    charge:    1.9129    magn:   -0.0000    constr:    0.0000
     atom:   20    charge:    1.9198    magn:    0.0000    constr:    0.0000
     atom:   21    charge:    1.9198    magn:    0.0000    constr:    0.0000
     atom:   22    charge:    3.1196    magn:    0.0000    constr:    0.0000
     atom:   23    charge:    1.9294    magn:   -0.0001    constr:    0.0000
     atom:   24    charge:    1.9119    magn:   -0.0000    constr:    0.0000
     atom:   25    charge:    1.9233    magn:   -0.0000    constr:    0.0000
     atom:   26    charge:    3.1145    magn:    0.0000    constr:    0.0000
     atom:   27    charge:    1.9121    magn:   -0.0001    constr:    0.0000
     atom:   28    charge:    1.9243    magn:   -0.0001    constr:    0.0000
     atom:   29    charge:    1.9202    magn:   -0.0001    constr:    0.0000
     atom:   30    charge:    3.1167    magn:    0.0000    constr:    0.0000
     atom:   31    charge:    1.9178    magn:   -0.0000    constr:    0.0000
     atom:   32    charge:    1.9169    magn:   -0.0001    constr:    0.0000
     atom:   33    charge:    1.8905    magn:    0.0004    constr:    0.0000
     atom:   34    charge:    3.1239    magn:   -0.0001    constr:    0.0000
     atom:   35    charge:    1.9129    magn:   -0.0000    constr:    0.0000
     atom:   36    charge:    1.9198    magn:    0.0000    constr:    0.0000
     atom:   37    charge:    1.9198    magn:    0.0000    constr:    0.0000
     atom:   38    charge:    3.1196    magn:    0.0000    constr:    0.0000
     atom:   39    charge:    1.9274    magn:   -0.0001    constr:    0.0000
     atom:   40    charge:    1.9122    magn:   -0.0001    constr:    0.0000
     atom:   41    charge:    1.9232    magn:   -0.0000    constr:    0.0000
     atom:   42    charge:    3.1141    magn:    0.0000    constr:    0.0000
     atom:   43    charge:    1.9144    magn:   -0.0001    constr:    0.0000
     atom:   44    charge:    1.9245    magn:   -0.0001    constr:    0.0000
     atom:   45    charge:    1.9196    magn:   -0.0001    constr:    0.0000
     atom:   46    charge:    3.1165    magn:    0.0000    constr:    0.0000
     atom:   47    charge:    1.9167    magn:   -0.0000    constr:    0.0000
     atom:   48    charge:    1.9168    magn:   -0.0001    constr:    0.0000
     atom:   49    charge:    0.6575    magn:   -0.0000    constr:    0.0000
     atom:   50    charge:    1.9317    magn:   -0.0001    constr:    0.0000
     atom:   51    charge:    0.3969    magn:    0.0000    constr:    0.0000
     atom:   52    charge:    0.3988    magn:    0.0000    constr:    0.0000
     atom:   53    charge:    0.3977    magn:    0.0000    constr:    0.0000
     atom:   54    charge:    0.3984    magn:    0.0000    constr:    0.0000

     total cpu time spent up to now is     1195.9 secs

     total energy              =   -3021.41985316 Ry
     Harris-Foulkes estimate   =   -3021.41998538 Ry
     estimated scf accuracy    <       0.00076134 Ry

     total magnetization       =     0.00 Bohr mag/cell
     absolute magnetization    =     0.01 Bohr mag/cell

     iteration #  3     ecut=    40.42 Ry     beta=0.10
     Davidson diagonalization with overlap
     ethr =  1.91E-07,  avg # of iterations =  3.0

     negative rho (up, down):  1.209E-02 1.209E-02
 
     Magnetic moment per site:
     atom:    1    charge:    3.1250    magn:   -0.0001    constr:    0.0000
     atom:    2    charge:    1.9174    magn:    0.0000    constr:    0.0000
     atom:    3    charge:    3.1197    magn:    0.0000    constr:    0.0000
     atom:    4    charge:    1.9231    magn:   -0.0000    constr:    0.0000
     atom:    5    charge:    3.1166    magn:    0.0000    constr:    0.0000
     atom:    6    charge:    1.9205    magn:   -0.0001    constr:    0.0000
     atom:    7    charge:    3.1157    magn:    0.0000    constr:    0.0000
     atom:    8    charge:    1.9180    magn:   -0.0001    constr:    0.0000
     atom:    9    charge:    3.1250    magn:   -0.0001    constr:    0.0000
     atom:   10    charge:    1.9174    magn:    0.0000    constr:    0.0000
     atom:   11    charge:    3.1197    magn:    0.0000    constr:    0.0000
     atom:   12    charge:    1.9231    magn:   -0.0000    constr:    0.0000
     atom:   13    charge:    3.1158    magn:    0.0000    constr:    0.0000
     atom:   14    charge:    1.9317    magn:   -0.0001    constr:    0.0000
     atom:   15    charge:    3.1189    magn:    0.0000    constr:    0.0000
     atom:   16    charge:    1.9177    magn:   -0.0001    constr:    0.0000
     atom:   17    charge:    1.8906    magn:    0.0003    constr:    0.0000
     atom:   18    charge:    3.1240    magn:   -0.0001    constr:    0.0000
     atom:   19    charge:    1.9129    magn:   -0.0000    constr:    0.0000
     atom:   20    charge:    1.9198    magn:    0.0000    constr:    0.0000
     atom:   21    charge:    1.9198    magn:    0.0000    constr:    0.0000
     atom:   22    charge:    3.1196    magn:    0.0000    constr:    0.0000
     atom:   23    charge:    1.9295    magn:   -0.0001    constr:    0.0000
     atom:   24    charge:    1.9118    magn:   -0.0000    constr:    0.0000
     atom:   25    charge:    1.9232    magn:   -0.0000    constr:    0.0000
     atom:   26    charge:    3.1145    magn:    0.0000    constr:    0.0000
     atom:   27    charge:    1.9120    magn:   -0.0000    constr:    0.0000
     atom:   28    charge:    1.9243    magn:   -0.0001    constr:    0.0000
     atom:   29    charge:    1.9202    magn:   -0.0001    constr:    0.0000
     atom:   30    charge:    3.1167    magn:    0.0000    constr:    0.0000
     atom:   31    charge:    1.9179    magn:   -0.0000    constr:    0.0000
     atom:   32    charge:    1.9168    magn:   -0.0001    constr:    0.0000
     atom:   33    charge:    1.8906    magn:    0.0003    constr:    0.0000
     atom:   34    charge:    3.1240    magn:   -0.0001    constr:    0.0000
     atom:   35    charge:    1.9129    magn:   -0.0000    constr:    0.0000
     atom:   36    charge:    1.9198    magn:    0.0000    constr:    0.0000
     atom:   37    charge:    1.9198    magn:    0.0000    constr:    0.0000
     atom:   38    charge:    3.1196    magn:    0.0000    constr:    0.0000
     atom:   39    charge:    1.9275    magn:   -0.0001    constr:    0.0000
     atom:   40    charge:    1.9122    magn:   -0.0000    constr:    0.0000
     atom:   41    charge:    1.9232    magn:   -0.0000    constr:    0.0000
     atom:   42    charge:    3.1141    magn:    0.0000    constr:    0.0000
     atom:   43    charge:    1.9143    magn:   -0.0000    constr:    0.0000
     atom:   44    charge:    1.9245    magn:   -0.0001    constr:    0.0000
     atom:   45    charge:    1.9196    magn:   -0.0001    constr:    0.0000
     atom:   46    charge:    3.1165    magn:    0.0000    constr:    0.0000
     atom:   47    charge:    1.9170    magn:   -0.0000    constr:    0.0000
     atom:   48    charge:    1.9167    magn:   -0.0001    constr:    0.0000
     atom:   49    charge:    0.6574    magn:   -0.0000    constr:    0.0000
     atom:   50    charge:    1.9322    magn:   -0.0000    constr:    0.0000
     atom:   51    charge:    0.3969    magn:    0.0000    constr:    0.0000
     atom:   52    charge:    0.3991    magn:    0.0000    constr:    0.0000
     atom:   53    charge:    0.3977    magn:    0.0000    constr:    0.0000
     atom:   54    charge:    0.3983    magn:    0.0000    constr:    0.0000

     total cpu time spent up to now is     1400.4 secs

     total energy              =   -3021.41986007 Ry
     Harris-Foulkes estimate   =   -3021.41989117 Ry
     estimated scf accuracy    <       0.00028624 Ry

     total magnetization       =     0.00 Bohr mag/cell
     absolute magnetization    =     0.00 Bohr mag/cell

     iteration #  4     ecut=    40.42 Ry     beta=0.10
     Davidson diagonalization with overlap
     ethr =  7.19E-08,  avg # of iterations =  3.5

     negative rho (up, down):  1.210E-02 1.210E-02
 
     Magnetic moment per site:
     atom:    1    charge:    3.1250    magn:   -0.0001    constr:    0.0000
     atom:    2    charge:    1.9174    magn:    0.0000    constr:    0.0000
     atom:    3    charge:    3.1198    magn:    0.0000    constr:    0.0000
     atom:    4    charge:    1.9231    magn:   -0.0000    constr:    0.0000
     atom:    5    charge:    3.1166    magn:    0.0000    constr:    0.0000
     atom:    6    charge:    1.9205    magn:   -0.0000    constr:    0.0000
     atom:    7    charge:    3.1155    magn:    0.0000    constr:    0.0000
     atom:    8    charge:    1.9181    magn:   -0.0000    constr:    0.0000
     atom:    9    charge:    3.1250    magn:   -0.0001    constr:    0.0000
     atom:   10    charge:    1.9174    magn:    0.0000    constr:    0.0000
     atom:   11    charge:    3.1197    magn:    0.0000    constr:    0.0000
     atom:   12    charge:    1.9231    magn:   -0.0000    constr:    0.0000
     atom:   13    charge:    3.1158    magn:    0.0000    constr:    0.0000
     atom:   14    charge:    1.9318    magn:   -0.0000    constr:    0.0000
     atom:   15    charge:    3.1189    magn:    0.0000    constr:    0.0000
     atom:   16    charge:    1.9177    magn:   -0.0000    constr:    0.0000
     atom:   17    charge:    1.8905    magn:    0.0002    constr:    0.0000
     atom:   18    charge:    3.1239    magn:   -0.0000    constr:    0.0000
     atom:   19    charge:    1.9129    magn:   -0.0000    constr:    0.0000
     atom:   20    charge:    1.9198    magn:    0.0000    constr:    0.0000
     atom:   21    charge:    1.9198    magn:    0.0000    constr:    0.0000
     atom:   22    charge:    3.1196    magn:    0.0000    constr:    0.0000
     atom:   23    charge:    1.9295    magn:   -0.0000    constr:    0.0000
     atom:   24    charge:    1.9118    magn:   -0.0000    constr:    0.0000
     atom:   25    charge:    1.9232    magn:   -0.0000    constr:    0.0000
     atom:   26    charge:    3.1145    magn:    0.0000    constr:    0.0000
     atom:   27    charge:    1.9120    magn:   -0.0000    constr:    0.0000
     atom:   28    charge:    1.9243    magn:   -0.0000    constr:    0.0000
     atom:   29    charge:    1.9202    magn:   -0.0000    constr:    0.0000
     atom:   30    charge:    3.1167    magn:    0.0000    constr:    0.0000
     atom:   31    charge:    1.9178    magn:   -0.0000    constr:    0.0000
     atom:   32    charge:    1.9167    magn:   -0.0000    constr:    0.0000
     atom:   33    charge:    1.8905    magn:    0.0002    constr:    0.0000
     atom:   34    charge:    3.1239    magn:   -0.0000    constr:    0.0000
     atom:   35    charge:    1.9129    magn:   -0.0000    constr:    0.0000
     atom:   36    charge:    1.9198    magn:    0.0000    constr:    0.0000
     atom:   37    charge:    1.9198    magn:    0.0000    constr:    0.0000
     atom:   38    charge:    3.1196    magn:    0.0000    constr:    0.0000
     atom:   39    charge:    1.9275    magn:   -0.0000    constr:    0.0000
     atom:   40    charge:    1.9122    magn:   -0.0000    constr:    0.0000
     atom:   41    charge:    1.9232    magn:   -0.0000    constr:    0.0000
     atom:   42    charge:    3.1141    magn:    0.0000    constr:    0.0000
     atom:   43    charge:    1.9143    magn:   -0.0000    constr:    0.0000
     atom:   44    charge:    1.9245    magn:   -0.0000    constr:    0.0000
     atom:   45    charge:    1.9196    magn:   -0.0000    constr:    0.0000
     atom:   46    charge:    3.1165    magn:    0.0000    constr:    0.0000
     atom:   47    charge:    1.9171    magn:   -0.0000    constr:    0.0000
     atom:   48    charge:    1.9166    magn:   -0.0000    constr:    0.0000
     atom:   49    charge:    0.6576    magn:   -0.0000    constr:    0.0000
     atom:   50    charge:    1.9319    magn:   -0.0000    constr:    0.0000
     atom:   51    charge:    0.3969    magn:    0.0000    constr:    0.0000
     atom:   52    charge:    0.3993    magn:    0.0000    constr:    0.0000
     atom:   53    charge:    0.3977    magn:    0.0000    constr:    0.0000
     atom:   54    charge:    0.3983    magn:    0.0000    constr:    0.0000

     total cpu time spent up to now is     1611.4 secs

     total energy              =   -3021.41987951 Ry
     Harris-Foulkes estimate   =   -3021.41987528 Ry
     estimated scf accuracy    <       0.00008184 Ry

     total magnetization       =     0.00 Bohr mag/cell
     absolute magnetization    =     0.00 Bohr mag/cell

     iteration #  5     ecut=    40.42 Ry     beta=0.10
     Davidson diagonalization with overlap
     ethr =  2.06E-08,  avg # of iterations =  3.0

     negative rho (up, down):  1.209E-02 1.209E-02
 
     Magnetic moment per site:
     atom:    1    charge:    3.1250    magn:   -0.0001    constr:    0.0000
     atom:    2    charge:    1.9173    magn:    0.0000    constr:    0.0000
     atom:    3    charge:    3.1198    magn:    0.0000    constr:    0.0000
     atom:    4    charge:    1.9231    magn:   -0.0000    constr:    0.0000
     atom:    5    charge:    3.1166    magn:    0.0000    constr:    0.0000
     atom:    6    charge:    1.9205    magn:   -0.0000    constr:    0.0000
     atom:    7    charge:    3.1156    magn:    0.0000    constr:    0.0000
     atom:    8    charge:    1.9180    magn:   -0.0000    constr:    0.0000
     atom:    9    charge:    3.1250    magn:   -0.0001    constr:    0.0000
     atom:   10    charge:    1.9174    magn:    0.0000    constr:    0.0000
     atom:   11    charge:    3.1197    magn:    0.0000    constr:    0.0000
     atom:   12    charge:    1.9231    magn:   -0.0000    constr:    0.0000
     atom:   13    charge:    3.1158    magn:    0.0000    constr:    0.0000
     atom:   14    charge:    1.9318    magn:   -0.0000    constr:    0.0000
     atom:   15    charge:    3.1188    magn:    0.0000    constr:    0.0000
     atom:   16    charge:    1.9176    magn:   -0.0000    constr:    0.0000
     atom:   17    charge:    1.8905    magn:    0.0002    constr:    0.0000
     atom:   18    charge:    3.1239    magn:   -0.0000    constr:    0.0000
     atom:   19    charge:    1.9129    magn:   -0.0000    constr:    0.0000
     atom:   20    charge:    1.9198    magn:    0.0000    constr:    0.0000
     atom:   21    charge:    1.9198    magn:    0.0000    constr:    0.0000
     atom:   22    charge:    3.1196    magn:    0.0000    constr:    0.0000
     atom:   23    charge:    1.9294    magn:   -0.0000    constr:    0.0000
     atom:   24    charge:    1.9119    magn:   -0.0000    constr:    0.0000
     atom:   25    charge:    1.9232    magn:   -0.0000    constr:    0.0000
     atom:   26    charge:    3.1145    magn:    0.0000    constr:    0.0000
     atom:   27    charge:    1.9121    magn:   -0.0000    constr:    0.0000
     atom:   28    charge:    1.9243    magn:   -0.0000    constr:    0.0000
     atom:   29    charge:    1.9202    magn:   -0.0000    constr:    0.0000
     atom:   30    charge:    3.1167    magn:    0.0000    constr:    0.0000
     atom:   31    charge:    1.9178    magn:   -0.0000    constr:    0.0000
     atom:   32    charge:    1.9166    magn:   -0.0000    constr:    0.0000
     atom:   33    charge:    1.8905    magn:    0.0002    constr:    0.0000
     atom:   34    charge:    3.1239    magn:   -0.0000    constr:    0.0000
     atom:   35    charge:    1.9129    magn:   -0.0000    constr:    0.0000
     atom:   36    charge:    1.9198    magn:    0.0000    constr:    0.0000
     atom:   37    charge:    1.9198    magn:    0.0000    constr:    0.0000
     atom:   38    charge:    3.1196    magn:    0.0000    constr:    0.0000
     atom:   39    charge:    1.9274    magn:   -0.0000    constr:    0.0000
     atom:   40    charge:    1.9122    magn:   -0.0000    constr:    0.0000
     atom:   41    charge:    1.9232    magn:   -0.0000    constr:    0.0000
     atom:   42    charge:    3.1141    magn:    0.0000    constr:    0.0000
     atom:   43    charge:    1.9144    magn:   -0.0000    constr:    0.0000
     atom:   44    charge:    1.9245    magn:   -0.0000    constr:    0.0000
     atom:   45    charge:    1.9196    magn:   -0.0000    constr:    0.0000
     atom:   46    charge:    3.1165    magn:    0.0000    constr:    0.0000
     atom:   47    charge:    1.9170    magn:   -0.0000    constr:    0.0000
     atom:   48    charge:    1.9165    magn:   -0.0000    constr:    0.0000
     atom:   49    charge:    0.6579    magn:   -0.0000    constr:    0.0000
     atom:   50    charge:    1.9311    magn:   -0.0000    constr:    0.0000
     atom:   51    charge:    0.3968    magn:    0.0000    constr:    0.0000
     atom:   52    charge:    0.3995    magn:    0.0000    constr:    0.0000
     atom:   53    charge:    0.3977    magn:    0.0000    constr:    0.0000
     atom:   54    charge:    0.3984    magn:    0.0000    constr:    0.0000

     total cpu time spent up to now is     1814.5 secs

     total energy              =   -3021.41988205 Ry
     Harris-Foulkes estimate   =   -3021.41988294 Ry
     estimated scf accuracy    <       0.00002468 Ry

     total magnetization       =     0.00 Bohr mag/cell
     absolute magnetization    =     0.00 Bohr mag/cell

     iteration #  6     ecut=    40.42 Ry     beta=0.10
     Davidson diagonalization with overlap
     ethr =  6.20E-09,  avg # of iterations =  3.5

     negative rho (up, down):  1.209E-02 1.209E-02
 
     Magnetic moment per site:
     atom:    1    charge:    3.1250    magn:   -0.0001    constr:    0.0000
     atom:    2    charge:    1.9174    magn:    0.0000    constr:    0.0000
     atom:    3    charge:    3.1198    magn:    0.0000    constr:    0.0000
     atom:    4    charge:    1.9231    magn:   -0.0000    constr:    0.0000
     atom:    5    charge:    3.1166    magn:    0.0000    constr:    0.0000
     atom:    6    charge:    1.9205    magn:   -0.0000    constr:    0.0000
     atom:    7    charge:    3.1157    magn:    0.0000    constr:    0.0000
     atom:    8    charge:    1.9180    magn:   -0.0000    constr:    0.0000
     atom:    9    charge:    3.1250    magn:   -0.0001    constr:    0.0000
     atom:   10    charge:    1.9174    magn:    0.0000    constr:    0.0000
     atom:   11    charge:    3.1197    magn:    0.0000    constr:    0.0000
     atom:   12    charge:    1.9231    magn:   -0.0000    constr:    0.0000
     atom:   13    charge:    3.1158    magn:    0.0000    constr:    0.0000
     atom:   14    charge:    1.9318    magn:   -0.0000    constr:    0.0000
     atom:   15    charge:    3.1188    magn:    0.0000    constr:    0.0000
     atom:   16    charge:    1.9176    magn:   -0.0000    constr:    0.0000
     atom:   17    charge:    1.8905    magn:    0.0002    constr:    0.0000
     atom:   18    charge:    3.1239    magn:   -0.0000    constr:    0.0000
     atom:   19    charge:    1.9129    magn:   -0.0000    constr:    0.0000
     atom:   20    charge:    1.9198    magn:    0.0000    constr:    0.0000
     atom:   21    charge:    1.9198    magn:    0.0000    constr:    0.0000
     atom:   22    charge:    3.1196    magn:    0.0000    constr:    0.0000
     atom:   23    charge:    1.9295    magn:   -0.0000    constr:    0.0000
     atom:   24    charge:    1.9119    magn:   -0.0000    constr:    0.0000
     atom:   25    charge:    1.9232    magn:   -0.0000    constr:    0.0000
     atom:   26    charge:    3.1145    magn:    0.0000    constr:    0.0000
     atom:   27    charge:    1.9121    magn:   -0.0000    constr:    0.0000
     atom:   28    charge:    1.9243    magn:   -0.0000    constr:    0.0000
     atom:   29    charge:    1.9202    magn:   -0.0000    constr:    0.0000
     atom:   30    charge:    3.1167    magn:    0.0000    constr:    0.0000
     atom:   31    charge:    1.9178    magn:   -0.0000    constr:    0.0000
     atom:   32    charge:    1.9167    magn:   -0.0000    constr:    0.0000
     atom:   33    charge:    1.8905    magn:    0.0002    constr:    0.0000
     atom:   34    charge:    3.1239    magn:   -0.0000    constr:    0.0000
     atom:   35    charge:    1.9129    magn:   -0.0000    constr:    0.0000
     atom:   36    charge:    1.9198    magn:    0.0000    constr:    0.0000
     atom:   37    charge:    1.9198    magn:    0.0000    constr:    0.0000
     atom:   38    charge:    3.1196    magn:    0.0000    constr:    0.0000
     atom:   39    charge:    1.9275    magn:   -0.0000    constr:    0.0000
     atom:   40    charge:    1.9122    magn:   -0.0000    constr:    0.0000
     atom:   41    charge:    1.9232    magn:   -0.0000    constr:    0.0000
     atom:   42    charge:    3.1141    magn:    0.0000    constr:    0.0000
     atom:   43    charge:    1.9144    magn:   -0.0000    constr:    0.0000
     atom:   44    charge:    1.9245    magn:   -0.0000    constr:    0.0000
     atom:   45    charge:    1.9196    magn:   -0.0000    constr:    0.0000
     atom:   46    charge:    3.1165    magn:    0.0000    constr:    0.0000
     atom:   47    charge:    1.9170    magn:   -0.0000    constr:    0.0000
     atom:   48    charge:    1.9166    magn:   -0.0000    constr:    0.0000
     atom:   49    charge:    0.6578    magn:   -0.0000    constr:    0.0000
     atom:   50    charge:    1.9313    magn:   -0.0000    constr:    0.0000
     atom:   51    charge:    0.3968    magn:    0.0000    constr:    0.0000
     atom:   52    charge:    0.3995    magn:    0.0000    constr:    0.0000
     atom:   53    charge:    0.3977    magn:    0.0000    constr:    0.0000
     atom:   54    charge:    0.3984    magn:    0.0000    constr:    0.0000

     total cpu time spent up to now is     2028.7 secs

     total energy              =   -3021.41988484 Ry
     Harris-Foulkes estimate   =   -3021.41988498 Ry
     estimated scf accuracy    <       0.00000491 Ry

     total magnetization       =     0.00 Bohr mag/cell
     absolute magnetization    =     0.00 Bohr mag/cell

     iteration #  7     ecut=    40.42 Ry     beta=0.10
     Davidson diagonalization with overlap
     ethr =  1.23E-09,  avg # of iterations =  3.0

     negative rho (up, down):  1.209E-02 1.209E-02
 
     Magnetic moment per site:
     atom:    1    charge:    3.1250    magn:   -0.0000    constr:    0.0000
     atom:    2    charge:    1.9174    magn:    0.0000    constr:    0.0000
     atom:    3    charge:    3.1198    magn:    0.0000    constr:    0.0000
     atom:    4    charge:    1.9231    magn:   -0.0000    constr:    0.0000
     atom:    5    charge:    3.1166    magn:    0.0000    constr:    0.0000
     atom:    6    charge:    1.9205    magn:   -0.0000    constr:    0.0000
     atom:    7    charge:    3.1157    magn:    0.0000    constr:    0.0000
     atom:    8    charge:    1.9180    magn:   -0.0000    constr:    0.0000
     atom:    9    charge:    3.1250    magn:   -0.0000    constr:    0.0000
     atom:   10    charge:    1.9174    magn:    0.0000    constr:    0.0000
     atom:   11    charge:    3.1197    magn:    0.0000    constr:    0.0000
     atom:   12    charge:    1.9231    magn:   -0.0000    constr:    0.0000
     atom:   13    charge:    3.1158    magn:    0.0000    constr:    0.0000
     atom:   14    charge:    1.9318    magn:   -0.0000    constr:    0.0000
     atom:   15    charge:    3.1188    magn:    0.0000    constr:    0.0000
     atom:   16    charge:    1.9176    magn:   -0.0000    constr:    0.0000
     atom:   17    charge:    1.8905    magn:    0.0001    constr:    0.0000
     atom:   18    charge:    3.1239    magn:   -0.0000    constr:    0.0000
     atom:   19    charge:    1.9129    magn:   -0.0000    constr:    0.0000
     atom:   20    charge:    1.9198    magn:    0.0000    constr:    0.0000
     atom:   21    charge:    1.9198    magn:    0.0000    constr:    0.0000
     atom:   22    charge:    3.1196    magn:    0.0000    constr:    0.0000
     atom:   23    charge:    1.9295    magn:   -0.0000    constr:    0.0000
     atom:   24    charge:    1.9118    magn:   -0.0000    constr:    0.0000
     atom:   25    charge:    1.9232    magn:   -0.0000    constr:    0.0000
     atom:   26    charge:    3.1145    magn:    0.0000    constr:    0.0000
     atom:   27    charge:    1.9121    magn:   -0.0000    constr:    0.0000
     atom:   28    charge:    1.9243    magn:   -0.0000    constr:    0.0000
     atom:   29    charge:    1.9202    magn:   -0.0000    constr:    0.0000
     atom:   30    charge:    3.1167    magn:    0.0000    constr:    0.0000
     atom:   31    charge:    1.9178    magn:   -0.0000    constr:    0.0000
     atom:   32    charge:    1.9167    magn:   -0.0000    constr:    0.0000
     atom:   33    charge:    1.8905    magn:    0.0001    constr:    0.0000
     atom:   34    charge:    3.1239    magn:   -0.0000    constr:    0.0000
     atom:   35    charge:    1.9129    magn:   -0.0000    constr:    0.0000
     atom:   36    charge:    1.9198    magn:    0.0000    constr:    0.0000
     atom:   37    charge:    1.9198    magn:    0.0000    constr:    0.0000
     atom:   38    charge:    3.1196    magn:    0.0000    constr:    0.0000
     atom:   39    charge:    1.9275    magn:   -0.0000    constr:    0.0000
     atom:   40    charge:    1.9122    magn:   -0.0000    constr:    0.0000
     atom:   41    charge:    1.9232    magn:   -0.0000    constr:    0.0000
     atom:   42    charge:    3.1141    magn:    0.0000    constr:    0.0000
     atom:   43    charge:    1.9144    magn:   -0.0000    constr:    0.0000
     atom:   44    charge:    1.9245    magn:   -0.0000    constr:    0.0000
     atom:   45    charge:    1.9196    magn:   -0.0000    constr:    0.0000
     atom:   46    charge:    3.1165    magn:    0.0000    constr:    0.0000
     atom:   47    charge:    1.9169    magn:   -0.0000    constr:    0.0000
     atom:   48    charge:    1.9166    magn:   -0.0000    constr:    0.0000
     atom:   49    charge:    0.6578    magn:   -0.0000    constr:    0.0000
     atom:   50    charge:    1.9312    magn:   -0.0000    constr:    0.0000
     atom:   51    charge:    0.3968    magn:    0.0000    constr:    0.0000
     atom:   52    charge:    0.3995    magn:    0.0000    constr:    0.0000
     atom:   53    charge:    0.3977    magn:    0.0000    constr:    0.0000
     atom:   54    charge:    0.3984    magn:    0.0000    constr:    0.0000

     total cpu time spent up to now is     2233.6 secs

     total energy              =   -3021.41988501 Ry
     Harris-Foulkes estimate   =   -3021.41988515 Ry
     estimated scf accuracy    <       0.00000251 Ry

     total magnetization       =     0.00 Bohr mag/cell
     absolute magnetization    =     0.00 Bohr mag/cell

     iteration #  8     ecut=    40.42 Ry     beta=0.10
     Davidson diagonalization with overlap
     ethr =  6.30E-10,  avg # of iterations =  3.0

     negative rho (up, down):  1.209E-02 1.209E-02
 
     Magnetic moment per site:
     atom:    1    charge:    3.1250    magn:   -0.0000    constr:    0.0000
     atom:    2    charge:    1.9174    magn:    0.0000    constr:    0.0000
     atom:    3    charge:    3.1198    magn:    0.0000    constr:    0.0000
     atom:    4    charge:    1.9231    magn:   -0.0000    constr:    0.0000
     atom:    5    charge:    3.1166    magn:    0.0000    constr:    0.0000
     atom:    6    charge:    1.9205    magn:   -0.0000    constr:    0.0000
     atom:    7    charge:    3.1157    magn:    0.0000    constr:    0.0000
     atom:    8    charge:    1.9180    magn:   -0.0000    constr:    0.0000
     atom:    9    charge:    3.1250    magn:   -0.0000    constr:    0.0000
     atom:   10    charge:    1.9174    magn:    0.0000    constr:    0.0000
     atom:   11    charge:    3.1197    magn:    0.0000    constr:    0.0000
     atom:   12    charge:    1.9231    magn:   -0.0000    constr:    0.0000
     atom:   13    charge:    3.1158    magn:    0.0000    constr:    0.0000
     atom:   14    charge:    1.9318    magn:   -0.0000    constr:    0.0000
     atom:   15    charge:    3.1188    magn:    0.0000    constr:    0.0000
     atom:   16    charge:    1.9177    magn:   -0.0000    constr:    0.0000
     atom:   17    charge:    1.8905    magn:    0.0001    constr:    0.0000
     atom:   18    charge:    3.1239    magn:   -0.0000    constr:    0.0000
     atom:   19    charge:    1.9129    magn:   -0.0000    constr:    0.0000
     atom:   20    charge:    1.9198    magn:    0.0000    constr:    0.0000
     atom:   21    charge:    1.9198    magn:    0.0000    constr:    0.0000
     atom:   22    charge:    3.1196    magn:    0.0000    constr:    0.0000
     atom:   23    charge:    1.9295    magn:   -0.0000    constr:    0.0000
     atom:   24    charge:    1.9119    magn:   -0.0000    constr:    0.0000
     atom:   25    charge:    1.9232    magn:   -0.0000    constr:    0.0000
     atom:   26    charge:    3.1145    magn:    0.0000    constr:    0.0000
     atom:   27    charge:    1.9121    magn:   -0.0000    constr:    0.0000
     atom:   28    charge:    1.9243    magn:   -0.0000    constr:    0.0000
     atom:   29    charge:    1.9202    magn:   -0.0000    constr:    0.0000
     atom:   30    charge:    3.1167    magn:    0.0000    constr:    0.0000
     atom:   31    charge:    1.9178    magn:   -0.0000    constr:    0.0000
     atom:   32    charge:    1.9167    magn:   -0.0000    constr:    0.0000
     atom:   33    charge:    1.8905    magn:    0.0001    constr:    0.0000
     atom:   34    charge:    3.1239    magn:   -0.0000    constr:    0.0000
     atom:   35    charge:    1.9129    magn:   -0.0000    constr:    0.0000
     atom:   36    charge:    1.9198    magn:    0.0000    constr:    0.0000
     atom:   37    charge:    1.9198    magn:    0.0000    constr:    0.0000
     atom:   38    charge:    3.1196    magn:    0.0000    constr:    0.0000
     atom:   39    charge:    1.9275    magn:   -0.0000    constr:    0.0000
     atom:   40    charge:    1.9122    magn:   -0.0000    constr:    0.0000
     atom:   41    charge:    1.9232    magn:   -0.0000    constr:    0.0000
     atom:   42    charge:    3.1141    magn:    0.0000    constr:    0.0000
     atom:   43    charge:    1.9144    magn:   -0.0000    constr:    0.0000
     atom:   44    charge:    1.9245    magn:   -0.0000    constr:    0.0000
     atom:   45    charge:    1.9196    magn:   -0.0000    constr:    0.0000
     atom:   46    charge:    3.1165    magn:    0.0000    constr:    0.0000
     atom:   47    charge:    1.9170    magn:   -0.0000    constr:    0.0000
     atom:   48    charge:    1.9166    magn:   -0.0000    constr:    0.0000
     atom:   49    charge:    0.6577    magn:   -0.0000    constr:    0.0000
     atom:   50    charge:    1.9315    magn:   -0.0000    constr:    0.0000
     atom:   51    charge:    0.3968    magn:    0.0000    constr:    0.0000
     atom:   52    charge:    0.3995    magn:    0.0000    constr:    0.0000
     atom:   53    charge:    0.3977    magn:    0.0000    constr:    0.0000
     atom:   54    charge:    0.3984    magn:    0.0000    constr:    0.0000

     total cpu time spent up to now is     2442.7 secs

     End of self-consistent calculation

 ------ SPIN UP ------------


          k = 0.0000 0.0000 0.0000 ( 34665 PWs)   bands (ev):

   -57.7032 -57.6683 -57.3230 -57.2867 -57.2365 -57.1144 -57.0780 -57.0770
   -57.0573 -57.0422 -56.9955 -56.9601 -56.7378 -56.7003 -56.1538 -56.1185
   -34.1393 -33.9854 -33.9569 -33.9042 -33.8753 -33.8099 -33.7494 -33.6584
   -33.6236 -33.6099 -33.5722 -33.5460 -33.5240 -33.5130 -33.4951 -33.4891
   -33.4694 -33.4595 -33.4373 -33.4035 -33.3287 -33.2967 -33.2765 -33.2672
   -33.2612 -33.2597 -33.2502 -33.2476 -33.2416 -33.2351 -33.2341 -33.2172
   -33.1858 -33.1856 -33.1792 -33.1464 -33.1237 -33.0037 -32.9857 -32.9647
   -32.9152 -32.8125 -32.5716 -32.5061 -32.4801 -32.3758 -32.2841 -32.1758
   -20.3076 -18.0179 -17.8460 -17.5622 -17.4676 -17.3782 -17.2569 -17.0826
   -17.0708 -16.9797 -16.9433 -16.8887 -16.7895 -16.7829 -16.7352 -16.7121
   -16.7098 -16.6682 -16.6156 -16.6112 -16.5407 -16.4211 -16.4090 -16.4027
   -16.3279 -16.2724 -16.1997 -16.1724 -16.1547 -15.9874 -15.9358 -14.7382
   -14.6545 -11.5063  -7.2580  -5.4750  -5.3994  -5.3171  -5.2105  -5.1982
    -5.1507  -5.1326  -4.8439  -4.8222  -4.4767  -4.4483  -4.3645  -4.3607
    -4.3270  -4.2371  -4.0950  -4.0664  -4.0609  -4.0225  -4.0045  -3.9964
    -3.9651  -3.9582  -3.9558  -3.8448  -3.7945  -3.7719  -3.7420  -3.7233
    -3.6378  -3.6224  -3.5929  -3.5831  -3.5245  -3.5125  -3.4136  -3.3981
    -3.3747  -3.2703  -3.2404  -3.1891  -3.0186  -2.9412  -2.8832  -2.8330
    -2.6986  -2.6133  -2.5945  -2.5846  -2.5830  -2.5743  -2.4378  -2.4195
    -2.3407  -2.2737  -2.2518  -2.2098  -2.2056  -2.1714  -2.1437  -2.0979
    -2.0529  -2.0325  -2.0254  -1.8893  -1.8711  -1.7669  -1.7415  -1.6288
    -1.5490  -1.5462  -1.4957  -1.4860  -1.4681  -1.4283  -1.3299  -1.3142
    -1.3074  -1.2850  -1.2479  -1.1413  -1.0918  -1.0855  -1.0726  -1.0278
    -0.9598  -0.9210  -0.8245  -0.7701  -0.6152  -0.5923  -0.5738  -0.4858
    -0.3819  -0.2464  -0.0891  -0.0315   0.1269   0.2438   0.2575   1.6383
     1.6707   1.9810   1.9977   2.0602   2.0894   2.2003   2.2387   2.2818
     2.4247   2.4922   2.5209   2.5264   2.5375   2.6261   2.6444   2.6527
     2.7101   2.7946   2.8208   2.8333   2.9051   2.9945   3.0278   3.0937
     3.1010   3.1089   3.1565   3.1975   3.2031   3.2222   3.2347   3.2459
     3.2563   3.2836   3.3908   3.4273   3.4510   3.4607   3.5240   3.5804
     3.6473   3.6898   3.8023   3.9768   4.0111   4.0852   4.1756   4.3217
     4.3331   4.3875   4.5909   4.5983   4.8078   4.8331   5.0831   5.1615
     5.2429   5.3263   5.4776   5.5130   5.5308   5.5870   5.6739   5.7060
     5.7953   5.8607   5.8715   5.8831   5.9494   6.0408   6.0436   6.0700
     6.1401   6.2245   6.2372   6.2918   6.3736   6.5810   6.6309   6.7541
     6.8357   7.0162   7.0452   7.1696   7.2980   7.5811   7.9125   8.2507
     8.3460   8.6903   8.7913   8.8734   8.9385   9.0102   9.1785   9.2582
     9.3496   9.3843   9.5382

          k = 0.0000 0.0280 0.0000 ( 34717 PWs)   bands (ev):

   -57.7009 -57.6706 -57.3206 -57.2891 -57.2361 -57.1121 -57.0801 -57.0749
   -57.0577 -57.0446 -56.9932 -56.9624 -56.7353 -56.7027 -56.1515 -56.1209
   -34.1140 -33.9834 -33.9588 -33.8980 -33.8494 -33.8164 -33.7765 -33.6356
   -33.6167 -33.5849 -33.5469 -33.5431 -33.5259 -33.5060 -33.4968 -33.4896
   -33.4762 -33.4664 -33.4353 -33.3965 -33.3226 -33.2949 -33.2902 -33.2687
   -33.2654 -33.2585 -33.2558 -33.2443 -33.2425 -33.2407 -33.2404 -33.2246
   -33.2071 -33.1907 -33.1826 -33.1503 -33.1472 -32.9998 -32.9843 -32.9660
   -32.9203 -32.8405 -32.5460 -32.5044 -32.4819 -32.3697 -32.2904 -32.2033
   -20.3075 -17.9561 -17.7883 -17.5093 -17.4154 -17.3345 -17.2303 -17.0968
   -17.0405 -17.0028 -16.9976 -16.8904 -16.8247 -16.7670 -16.7125 -16.6949
   -16.6809 -16.6718 -16.6636 -16.6463 -16.5997 -16.4449 -16.3904 -16.3728
   -16.3546 -16.3020 -16.2168 -16.1793 -16.1582 -16.0184 -15.9726 -14.7483
   -14.6779 -11.5060  -7.2576  -5.4381  -5.3186  -5.2570  -5.2024  -5.1358
    -5.0734  -5.0533  -4.7683  -4.7082  -4.4410  -4.4056  -4.3987  -4.3171
    -4.3066  -4.1645  -4.1295  -4.1189  -4.0965  -4.0755  -4.0376  -4.0359
    -3.9706  -3.9665  -3.9551  -3.8976  -3.8585  -3.8522  -3.8436  -3.7715
    -3.7261  -3.7129  -3.6706  -3.6206  -3.5804  -3.5618  -3.4347  -3.3607
    -3.3113  -3.2405  -3.2022  -3.1083  -2.9394  -2.8767  -2.7461  -2.7299
    -2.6184  -2.6039  -2.5296  -2.5149  -2.4834  -2.4476  -2.4168  -2.4126
    -2.3919  -2.3670  -2.2928  -2.2818  -2.1736  -2.1473  -2.1413  -2.1001
    -2.0269  -2.0025  -1.9590  -1.8816  -1.8154  -1.7716  -1.7126  -1.6875
    -1.6483  -1.6310  -1.5691  -1.5306  -1.4866  -1.4440  -1.4410  -1.4012
    -1.3604  -1.2759  -1.2235  -1.2191  -1.1650  -1.0955  -1.0755  -1.0272
    -1.0150  -0.9096  -0.8717  -0.7964  -0.7658  -0.7114  -0.6133  -0.5974
    -0.4002  -0.2747  -0.0959  -0.0858   0.1418   0.1974   0.2240   1.7245
     1.7705   1.9815   2.0597   2.1247   2.1469   2.2135   2.2694   2.3079
     2.4193   2.4565   2.4947   2.5300   2.5810   2.5986   2.6252   2.6869
     2.7276   2.7653   2.7916   2.9064   2.9171   2.9455   2.9703   3.0055
     3.1059   3.1113   3.1300   3.1702   3.1878   3.2000   3.2528   3.2987
     3.3307   3.3663   3.4011   3.4680   3.5012   3.5473   3.5561   3.6445
     3.6595   3.6797   3.7659   3.9541   4.0279   4.1097   4.1868   4.2804
     4.3188   4.3971   4.5365   4.6975   4.8626   4.9196   5.0869   5.2535
     5.3004   5.3308   5.5328   5.5654   5.5976   5.6267   5.6807   5.7174
     5.7797   5.7877   5.8465   5.8727   5.8963   5.9434   6.0663   6.1192
     6.1450   6.1511   6.1751   6.2030   6.2706   6.5560   6.5987   6.6910
     6.8444   6.9487   7.0012   7.0837   7.2271   7.5864   7.9269   8.0174
     8.0574   8.4529   8.5730   8.8501   8.9114   8.9991   9.0879   9.1373
     9.2732   9.4375   9.5007

          k = 0.0000 0.0560 0.0000 ( 34721 PWs)   bands (ev):

   -57.6945 -57.6771 -57.3141 -57.2957 -57.2353 -57.1061 -57.0862 -57.0685
   -57.0586 -57.0510 -56.9867 -56.9690 -56.7287 -56.7094 -56.1450 -56.1274
   -34.0442 -33.9781 -33.9638 -33.8810 -33.8494 -33.8339 -33.7783 -33.6012
   -33.5777 -33.5772 -33.5398 -33.5327 -33.5111 -33.5093 -33.4805 -33.4768
   -33.4608 -33.4325 -33.4243 -33.3771 -33.3223 -33.3176 -33.3175 -33.3061
   -33.2906 -33.2807 -33.2724 -33.2702 -33.2579 -33.2518 -33.2387 -33.2366
   -33.2156 -33.2037 -33.1761 -33.1711 -33.1331 -32.9949 -32.9808 -32.9693
   -32.9332 -32.9102 -32.4996 -32.4867 -32.4752 -32.3532 -32.3073 -32.2775
   -20.3072 -17.7850 -17.6297 -17.3779 -17.2813 -17.2657 -17.2243 -17.1715
   -17.1413 -16.9676 -16.9577 -16.9232 -16.8788 -16.8257 -16.7936 -16.7300
   -16.7206 -16.6896 -16.6316 -16.6016 -16.5466 -16.5103 -16.4294 -16.3827
   -16.3682 -16.3065 -16.2459 -16.2004 -16.1619 -16.1189 -16.0459 -14.7665
   -14.7285 -11.5052  -7.2567  -5.4035  -5.2132  -5.0810  -5.0431  -4.9297
    -4.8632  -4.8307  -4.5666  -4.5108  -4.4783  -4.4230  -4.4141  -4.3718
    -4.3368  -4.2646  -4.2401  -4.2168  -4.2009  -4.1918  -4.1618  -4.0805
    -4.0632  -4.0114  -3.9933  -3.9744  -3.9353  -3.8970  -3.8625  -3.8228
    -3.8025  -3.7363  -3.6407  -3.5905  -3.4383  -3.4323  -3.3287  -3.2736
    -3.2439  -3.2155  -3.1973  -3.0864  -2.8940  -2.8485  -2.8417  -2.8039
    -2.7266  -2.6733  -2.5519  -2.4784  -2.4471  -2.3272  -2.3215  -2.3160
    -2.3087  -2.2549  -2.2124  -2.1849  -2.1524  -2.1236  -2.0369  -2.0157
    -1.9666  -1.9532  -1.9235  -1.9097  -1.8885  -1.8543  -1.8223  -1.7876
    -1.7504  -1.6983  -1.6311  -1.5471  -1.5326  -1.5151  -1.4615  -1.4251
    -1.3861  -1.3698  -1.3558  -1.2958  -1.2457  -1.2228  -1.1608  -1.1076
    -1.0874  -1.0287  -0.9291  -0.8964  -0.8564  -0.7901  -0.7688  -0.6647
    -0.5922  -0.4686  -0.2475   0.0868   0.1390   0.1741   0.1808   1.8602
     2.0202   2.0924   2.1046   2.2041   2.2293   2.2646   2.3611   2.3841
     2.3914   2.4060   2.4286   2.4714   2.4987   2.5328   2.6691   2.6898
     2.7282   2.7705   2.8253   2.8982   2.9101   2.9323   2.9668   2.9672
     3.0093   3.0932   3.1315   3.1518   3.2447   3.2561   3.2808   3.3247
     3.3625   3.3803   3.4358   3.5322   3.5383   3.6304   3.6711   3.7212
     3.7539   3.8181   3.8521   3.8852   3.9253   4.1250   4.1364   4.1537
     4.3222   4.3709   4.5634   4.9052   5.0106   5.0705   5.1714   5.3737
     5.3774   5.4731   5.5127   5.5446   5.6425   5.7169   5.7195   5.7278
     5.7744   5.7829   5.7953   5.8519   5.8806   5.9465   5.9719   5.9922
     5.9973   6.0498   6.1508   6.1664   6.3146   6.3740   6.4132   6.6132
     6.6606   6.7766   6.8704   7.0395   7.2193   7.3321   7.4487   7.7325
     8.0883   8.2095   8.3496   8.6186   8.8927   8.9878   9.3121   9.3406
     9.4288   9.4461   9.5681

          k = 0.0000-0.0840 0.0000 ( 34678 PWs)   bands (ev):

   -57.6859 -57.6857 -57.3066 -57.3033 -57.2348 -57.1006 -57.0917 -57.0598
   -57.0597 -57.0591 -56.9784 -56.9773 -56.7218 -56.7164 -56.1362 -56.1362
   -33.9711 -33.9709 -33.9476 -33.9475 -33.8576 -33.8574 -33.6914 -33.6674
   -33.5714 -33.5676 -33.5331 -33.5234 -33.5191 -33.4807 -33.4578 -33.4301
   -33.4188 -33.4122 -33.3797 -33.3794 -33.3691 -33.3517 -33.3458 -33.3296
   -33.3282 -33.2895 -33.2826 -33.2805 -33.2739 -33.2736 -33.2372 -33.2354
   -33.2211 -33.2192 -33.1692 -33.1684 -33.0561 -33.0357 -32.9778 -32.9721
   -32.9473 -32.9439 -32.4931 -32.4931 -32.3773 -32.3773 -32.3302 -32.3302
   -20.3070 -17.5747 -17.5105 -17.4149 -17.3946 -17.2346 -17.1808 -17.0708
   -17.0674 -17.0214 -17.0090 -16.9950 -16.8772 -16.8441 -16.8440 -16.8055
   -16.7989 -16.6019 -16.5999 -16.5321 -16.5299 -16.4932 -16.4918 -16.4106
   -16.4090 -16.2684 -16.2664 -16.2062 -16.2018 -16.1400 -16.1077 -14.7652
   -14.7651 -11.5049  -7.2561  -5.3947  -5.2190  -4.8054  -4.7378  -4.7367
    -4.6612  -4.6478  -4.6429  -4.6067  -4.5785  -4.5163  -4.5084  -4.4058
    -4.3786  -4.3442  -4.3426  -4.3133  -4.3002  -4.2850  -4.2798  -4.0603
    -4.0384  -4.0290  -4.0166  -3.9976  -3.9492  -3.8155  -3.7992  -3.7932
    -3.7207  -3.6999  -3.6453  -3.5111  -3.4783  -3.3447  -3.3313  -3.2327
    -3.1436  -3.1215  -3.0496  -3.0244  -2.9686  -2.9290  -2.8097  -2.7939
    -2.7029  -2.6985  -2.5826  -2.5442  -2.5185  -2.5002  -2.4837  -2.4521
    -2.4439  -2.4229  -2.3358  -2.2494  -2.0335  -2.0119  -1.9740  -1.9461
    -1.9324  -1.8337  -1.8275  -1.8142  -1.7884  -1.7500  -1.7360  -1.7052
    -1.6706  -1.6458  -1.6186  -1.5643  -1.5219  -1.4925  -1.4860  -1.4592
    -1.4300  -1.4223  -1.4148  -1.3892  -1.3648  -1.3323  -1.2264  -1.1940
    -1.1059  -1.0787  -1.0145  -0.9831  -0.9755  -0.9650  -0.9481  -0.5298
    -0.5245  -0.4623  -0.4483   0.1391   0.1391   0.1818   0.1835   2.0346
     2.0377   2.2134   2.2154   2.2161   2.2314   2.2794   2.3341   2.3426
     2.3427   2.3673   2.3778   2.5224   2.5493   2.5503   2.5954   2.6592
     2.7098   2.7324   2.7450   2.8861   2.9173   2.9849   2.9921   3.0513
     3.0523   3.0968   3.1072   3.1742   3.2126   3.2278   3.2404   3.3985
     3.4212   3.4323   3.4351   3.4677   3.4782   3.7183   3.7600   3.7980
     3.8013   3.8264   3.9039   3.9263   3.9625   4.0689   4.0713   4.1213
     4.1219   4.4129   4.6719   4.9554   4.9958   5.2566   5.3297   5.4525
     5.4839   5.5038   5.5039   5.5765   5.6194   5.6418   5.6616   5.6666
     5.7934   5.7991   5.8211   5.8473   5.8572   5.8620   5.8762   5.9687
     6.0169   6.0549   6.0679   6.1546   6.1934   6.4110   6.4649   6.5637
     6.6017   6.7465   6.7776   6.9835   7.0281   7.1020   7.3290   7.7010
     7.8879   8.1751   8.4141   8.7854   8.8459   8.8701   9.1527   9.7005
     9.7250   9.7483   9.7927

          k = 0.0253 0.0000 0.0000 ( 34707 PWs)   bands (ev):

   -57.7032 -57.6683 -57.3230 -57.2867 -57.2365 -57.1144 -57.0780 -57.0771
   -57.0573 -57.0422 -56.9956 -56.9601 -56.7378 -56.7003 -56.1538 -56.1185
   -34.1396 -33.9854 -33.9570 -33.9035 -33.8754 -33.8100 -33.7495 -33.6591
   -33.6236 -33.6115 -33.5725 -33.5426 -33.5378 -33.5138 -33.4891 -33.4802
   -33.4681 -33.4595 -33.4373 -33.3965 -33.3286 -33.2968 -33.2762 -33.2672
   -33.2641 -33.2636 -33.2489 -33.2464 -33.2458 -33.2352 -33.2342 -33.2170
   -33.1857 -33.1855 -33.1796 -33.1465 -33.1238 -33.0037 -32.9881 -32.9638
   -32.9153 -32.8127 -32.5715 -32.5072 -32.4795 -32.3758 -32.2842 -32.1759
   -20.3074 -17.9881 -17.8060 -17.5199 -17.4387 -17.3616 -17.2635 -17.1488
   -17.0972 -16.9806 -16.9429 -16.8768 -16.8234 -16.8120 -16.7951 -16.7849
   -16.7357 -16.6972 -16.5621 -16.5405 -16.4586 -16.4579 -16.4100 -16.3746
   -16.3454 -16.3171 -16.1884 -16.1701 -16.1560 -15.9872 -15.9355 -14.7370
   -14.6544 -11.5051  -7.2554  -5.4689  -5.3082  -5.2683  -5.1972  -5.1029
    -5.0491  -5.0225  -4.8385  -4.8175  -4.6232  -4.4737  -4.4401  -4.3359
    -4.3164  -4.3064  -4.2537  -4.1046  -4.0422  -4.0384  -4.0017  -3.9493
    -3.9423  -3.9149  -3.8353  -3.8058  -3.7575  -3.7245  -3.6996  -3.6973
    -3.6263  -3.6034  -3.5757  -3.5680  -3.5211  -3.4517  -3.3300  -3.3134
    -3.2567  -3.2363  -3.1828  -3.1114  -3.0391  -2.9817  -2.9278  -2.9004
    -2.7499  -2.6802  -2.6382  -2.6058  -2.5837  -2.5352  -2.5246  -2.5085
    -2.4373  -2.3402  -2.3274  -2.2413  -2.2260  -2.1865  -2.1637  -2.0758
    -2.0143  -2.0041  -1.9679  -1.8863  -1.8555  -1.7583  -1.7452  -1.6554
    -1.5911  -1.5872  -1.5434  -1.4684  -1.4627  -1.3717  -1.3625  -1.3509
    -1.3420  -1.2957  -1.2787  -1.1956  -1.1329  -1.1221  -1.0843  -1.0521
    -0.9777  -0.9204  -0.8349  -0.7907  -0.7790  -0.6563  -0.6487  -0.5552
    -0.4264  -0.2408  -0.1205  -0.0585   0.1128   0.2011   0.2019   1.6576
     1.7207   1.9969   2.0666   2.1440   2.2178   2.2328   2.2649   2.3734
     2.3802   2.4526   2.4994   2.5171   2.5369   2.5736   2.5926   2.6316
     2.6512   2.7288   2.7524   2.8613   2.8781   2.9646   3.0252   3.0983
     3.1170   3.1385   3.1580   3.1989   3.2033   3.2488   3.2652   3.3353
     3.3711   3.3963   3.4458   3.4682   3.5313   3.5544   3.5868   3.5953
     3.6588   3.7244   3.7416   3.9088   3.9967   4.0907   4.1698   4.2714
     4.3704   4.3958   4.5496   4.6826   4.8577   4.9085   4.9209   5.0653
     5.1178   5.1414   5.1826   5.3481   5.5686   5.6222   5.6908   5.8637
     5.8788   5.9197   5.9548   6.0278   6.0757   6.1160   6.1553   6.2044
     6.2142   6.2471   6.2523   6.3035   6.4442   6.5279   6.6393   6.6656
     6.8176   6.8664   7.0298   7.1473   7.2978   7.7688   7.8558   8.0953
     8.3362   8.3641   8.4302   8.6882   8.8422   8.9695   9.1507   9.3461
     9.3603   9.4709   9.4995

          k = 0.0253 0.0280 0.0000 ( 34687 PWs)   bands (ev):

   -57.7009 -57.6706 -57.3206 -57.2891 -57.2361 -57.1121 -57.0801 -57.0749
   -57.0577 -57.0446 -56.9932 -56.9624 -56.7353 -56.7027 -56.1515 -56.1209
   -34.1143 -33.9835 -33.9588 -33.8974 -33.8494 -33.8163 -33.7765 -33.6363
   -33.6168 -33.5866 -33.5471 -33.5398 -33.5272 -33.5215 -33.4970 -33.4770
   -33.4713 -33.4652 -33.4354 -33.3898 -33.3225 -33.2950 -33.2879 -33.2687
   -33.2655 -33.2596 -33.2586 -33.2521 -33.2421 -33.2407 -33.2396 -33.2234
   -33.2073 -33.1907 -33.1827 -33.1502 -33.1472 -32.9999 -32.9865 -32.9653
   -32.9203 -32.8405 -32.5459 -32.5053 -32.4813 -32.3697 -32.2904 -32.2033
   -20.3073 -17.9278 -17.7493 -17.4687 -17.3889 -17.3145 -17.2370 -17.1326
   -17.1031 -17.0109 -16.9675 -16.8639 -16.8346 -16.8112 -16.7895 -16.7748
   -16.7172 -16.7061 -16.6055 -16.5862 -16.5109 -16.4804 -16.3874 -16.3707
   -16.3615 -16.3339 -16.2055 -16.1788 -16.1580 -16.0188 -15.9724 -14.7472
   -14.6779 -11.5047  -7.2548  -5.4410  -5.2453  -5.2014  -5.1858  -5.0265
    -4.9708  -4.9423  -4.7634  -4.7052  -4.5674  -4.4076  -4.3763  -4.3500
    -4.2646  -4.2583  -4.1915  -4.1241  -4.0919  -4.0698  -4.0386  -4.0259
    -3.9809  -3.9472  -3.9178  -3.8732  -3.8268  -3.8150  -3.7891  -3.7241
    -3.7032  -3.6699  -3.6199  -3.6100  -3.5457  -3.5303  -3.3554  -3.2923
    -3.2563  -3.2219  -3.1529  -3.0776  -2.9866  -2.9552  -2.7867  -2.7087
    -2.6839  -2.6406  -2.6150  -2.5398  -2.5086  -2.4592  -2.4531  -2.4257
    -2.4098  -2.3918  -2.3452  -2.3070  -2.2207  -2.1830  -2.1211  -2.1057
    -2.0715  -1.9997  -1.9536  -1.8967  -1.8697  -1.8310  -1.7673  -1.6796
    -1.6505  -1.6218  -1.5937  -1.5670  -1.5141  -1.4674  -1.4450  -1.4059
    -1.3491  -1.3331  -1.2747  -1.2609  -1.2134  -1.1136  -1.1025  -1.0658
    -1.0154  -0.8917  -0.8439  -0.8399  -0.7699  -0.7437  -0.7025  -0.6634
    -0.4374  -0.2856  -0.1391  -0.0900   0.1450   0.1743   0.1845   1.7166
     1.8408   2.0122   2.0939   2.1909   2.2392   2.2774   2.3116   2.3920
     2.4132   2.4620   2.4840   2.5197   2.5285   2.5470   2.5854   2.6694
     2.7006   2.7226   2.7821   2.8016   2.9246   2.9813   3.0051   3.0296
     3.1010   3.1292   3.1414   3.1680   3.2040   3.2369   3.3384   3.3691
     3.4016   3.4312   3.4579   3.5048   3.5472   3.5633   3.6312   3.6567
     3.6688   3.7028   3.7441   3.8894   3.9874   4.1336   4.1812   4.2476
     4.3023   4.4520   4.5066   4.7781   4.9237   4.9502   4.9882   5.0738
     5.1562   5.1709   5.2177   5.3835   5.6404   5.6806   5.7305   5.7754
     5.8519   5.8612   5.8680   6.0023   6.0667   6.0814   6.1146   6.1399
     6.1925   6.2044   6.2177   6.2332   6.4243   6.5298   6.6096   6.6582
     6.7888   6.8642   6.9589   7.1515   7.2244   7.5205   7.9325   8.0373
     8.0909   8.2603   8.4495   8.5776   8.6532   8.7792   8.9454   9.2670
     9.3607   9.4697   9.5130

          k = 0.0253 0.0560 0.0000 ( 34699 PWs)   bands (ev):

   -57.6945 -57.6771 -57.3141 -57.2957 -57.2353 -57.1060 -57.0862 -57.0685
   -57.0586 -57.0510 -56.9867 -56.9690 -56.7287 -56.7094 -56.1450 -56.1274
   -34.0444 -33.9781 -33.9639 -33.8805 -33.8495 -33.8336 -33.7783 -33.6012
   -33.5782 -33.5772 -33.5399 -33.5307 -33.5138 -33.5123 -33.4806 -33.4772
   -33.4598 -33.4325 -33.4189 -33.3717 -33.3227 -33.3183 -33.3131 -33.3059
   -33.2908 -33.2811 -33.2724 -33.2691 -33.2580 -33.2540 -33.2428 -33.2389
   -33.2158 -33.2044 -33.1761 -33.1709 -33.1329 -32.9949 -32.9822 -32.9692
   -32.9332 -32.9101 -32.5003 -32.4864 -32.4751 -32.3532 -32.3073 -32.2774
   -20.3070 -17.7616 -17.5939 -17.3486 -17.2693 -17.2504 -17.1986 -17.1724
   -17.1445 -17.0002 -16.9752 -16.8852 -16.8808 -16.8352 -16.8017 -16.7768
   -16.7525 -16.6758 -16.6294 -16.6110 -16.5839 -16.5358 -16.4317 -16.4183
   -16.3615 -16.2894 -16.2390 -16.1997 -16.1616 -16.1197 -16.0453 -14.7658
   -14.7287 -11.5039  -7.2538  -5.4110  -5.2124  -5.0368  -4.9531  -4.8182
    -4.7615  -4.7208  -4.5629  -4.5034  -4.4956  -4.4190  -4.3985  -4.3444
    -4.2758  -4.2361  -4.2203  -4.1971  -4.1527  -4.1460  -4.1119  -4.0665
    -4.0378  -4.0184  -3.9988  -3.9408  -3.9291  -3.8803  -3.8650  -3.8267
    -3.7795  -3.7203  -3.6597  -3.5765  -3.4780  -3.3989  -3.3239  -3.2869
    -3.2418  -3.2286  -3.1823  -3.0173  -2.9387  -2.8688  -2.8341  -2.7847
    -2.7610  -2.6509  -2.5968  -2.5145  -2.4928  -2.4425  -2.3972  -2.3715
    -2.3476  -2.3291  -2.2940  -2.2687  -2.1947  -2.1457  -2.1325  -2.0451
    -2.0172  -2.0146  -1.9517  -1.9433  -1.9081  -1.8662  -1.8392  -1.8175
    -1.7499  -1.7089  -1.6835  -1.6425  -1.5783  -1.5434  -1.4998  -1.4805
    -1.4355  -1.3788  -1.3437  -1.3078  -1.2289  -1.2114  -1.1353  -1.1104
    -1.0643  -1.0176  -0.9180  -0.8800  -0.8266  -0.8044  -0.7495  -0.6851
    -0.6117  -0.4706  -0.2612   0.0877   0.1243   0.1514   0.1839   1.8575
     2.0438   2.1272   2.1746   2.2265   2.2665   2.3014   2.3422   2.3804
     2.4209   2.4575   2.4757   2.5029   2.5160   2.5790   2.6885   2.7162
     2.7340   2.7720   2.8187   2.8351   2.8988   2.9467   2.9693   2.9805
     3.0221   3.0290   3.1509   3.2022   3.2810   3.3249   3.3351   3.3780
     3.4023   3.4343   3.4555   3.5353   3.5551   3.6255   3.6503   3.7287
     3.7869   3.8138   3.8567   3.8948   3.8999   4.0663   4.1124   4.1610
     4.3387   4.3798   4.6153   4.9633   5.0075   5.1285   5.1444   5.1539
     5.2577   5.2855   5.3083   5.4324   5.5048   5.5570   5.6316   5.7536
     5.8203   5.8455   5.8868   5.9305   5.9572   6.0000   6.0455   6.0611
     6.1322   6.1538   6.2187   6.3335   6.3752   6.4053   6.4832   6.6400
     6.6918   6.7923   6.8501   7.0327   7.1553   7.3612   7.4860   7.5989
     7.9828   8.1824   8.3549   8.5220   8.6512   8.8594   9.0498   9.1108
     9.1914   9.4975   9.6305

          k = 0.0253-0.0840 0.0000 ( 34722 PWs)   bands (ev):

   -57.6859 -57.6857 -57.3066 -57.3033 -57.2348 -57.1006 -57.0917 -57.0598
   -57.0598 -57.0591 -56.9784 -56.9773 -56.7218 -56.7164 -56.1362 -56.1362
   -33.9711 -33.9709 -33.9479 -33.9477 -33.8572 -33.8571 -33.6915 -33.6676
   -33.5714 -33.5676 -33.5336 -33.5232 -33.5189 -33.4807 -33.4570 -33.4303
   -33.4209 -33.4146 -33.3806 -33.3805 -33.3698 -33.3449 -33.3390 -33.3282
   -33.3268 -33.2893 -33.2824 -33.2807 -33.2740 -33.2723 -33.2407 -33.2393
   -33.2227 -33.2209 -33.1692 -33.1683 -33.0561 -33.0357 -32.9784 -32.9729
   -32.9472 -32.9439 -32.4934 -32.4933 -32.3773 -32.3773 -32.3302 -32.3302
   -20.3068 -17.5614 -17.4924 -17.3867 -17.3682 -17.2186 -17.1597 -17.0639
   -17.0549 -17.0097 -16.9854 -16.9810 -16.8936 -16.8837 -16.8740 -16.7903
   -16.7850 -16.6402 -16.6344 -16.5747 -16.5713 -16.5269 -16.5255 -16.3942
   -16.3933 -16.2599 -16.2577 -16.2043 -16.2003 -16.1406 -16.1071 -14.7651
   -14.7650 -11.5035  -7.2534  -5.4022  -5.2184  -4.8056  -4.6501  -4.6399
    -4.6290  -4.5536  -4.5527  -4.5369  -4.5295  -4.4247  -4.4151  -4.3747
    -4.3516  -4.3215  -4.3029  -4.2897  -4.2679  -4.2361  -4.2324  -4.0479
    -4.0441  -4.0196  -3.9889  -3.9697  -3.9266  -3.8534  -3.8480  -3.8215
    -3.7433  -3.6665  -3.6469  -3.4194  -3.4053  -3.3523  -3.3240  -3.2251
    -3.1244  -3.0992  -3.0651  -3.0559  -3.0149  -2.9680  -2.9237  -2.8993
    -2.8136  -2.8096  -2.6281  -2.6082  -2.5825  -2.5643  -2.5351  -2.4707
    -2.4403  -2.3475  -2.3200  -2.2783  -2.1270  -2.0782  -2.0601  -2.0146
    -1.9277  -1.9252  -1.8838  -1.8717  -1.8616  -1.8215  -1.8108  -1.8007
    -1.7723  -1.7343  -1.6914  -1.6631  -1.6258  -1.6126  -1.5999  -1.4817
    -1.4064  -1.3934  -1.2837  -1.2669  -1.2469  -1.2331  -1.1909  -1.1359
    -1.0882  -1.0565  -1.0485  -1.0184  -0.9633  -0.8954  -0.8833  -0.5429
    -0.5348  -0.4627  -0.4503   0.1129   0.1130   0.1923   0.1940   2.0462
     2.0485   2.2124   2.2287   2.2321   2.2351   2.2731   2.3110   2.4188
     2.4210   2.4358   2.4379   2.5535   2.5549   2.5730   2.6499   2.7167
     2.7508   2.8156   2.8244   2.8748   2.8943   2.9329   2.9429   3.0206
     3.0346   3.0804   3.1096   3.2157   3.2638   3.2847   3.3013   3.4179
     3.4235   3.4472   3.4645   3.4891   3.5167   3.7082   3.7345   3.8016
     3.8205   3.8324   3.8805   3.9087   3.9150   4.0765   4.0791   4.1128
     4.1132   4.4683   4.7139   4.9798   5.0191   5.2656   5.2976   5.3057
     5.3248   5.3560   5.3812   5.4217   5.4746   5.5043   5.5496   5.6471
     5.6607   5.7588   5.8293   5.8720   5.8869   6.0104   6.0719   6.0836
     6.1288   6.1813   6.2140   6.2772   6.2984   6.4729   6.5178   6.5944
     6.6347   6.7916   6.7978   6.9906   7.0311   7.1235   7.3863   7.5919
     7.7462   8.0059   8.2839   8.7248   8.7444   8.9720   9.0117   9.3051
     9.3499   9.4529   9.5472

          k = 0.0506 0.0000 0.0000 ( 34729 PWs)   bands (ev):

   -57.7032 -57.6683 -57.3230 -57.2867 -57.2365 -57.1142 -57.0779 -57.0774
   -57.0573 -57.0422 -56.9956 -56.9601 -56.7378 -56.7003 -56.1538 -56.1185
   -34.1403 -33.9854 -33.9570 -33.9021 -33.8756 -33.8100 -33.7495 -33.6606
   -33.6235 -33.6148 -33.5730 -33.5546 -33.5347 -33.5140 -33.4890 -33.4656
   -33.4638 -33.4588 -33.4374 -33.3799 -33.3283 -33.2970 -33.2756 -33.2723
   -33.2673 -33.2672 -33.2661 -33.2420 -33.2411 -33.2353 -33.2342 -33.2165
   -33.1856 -33.1852 -33.1802 -33.1465 -33.1239 -33.0037 -32.9932 -32.9620
   -32.9153 -32.8128 -32.5714 -32.5093 -32.4784 -32.3757 -32.2842 -32.1760
   -20.3070 -17.9221 -17.7110 -17.4210 -17.3960 -17.2883 -17.2710 -17.2417
   -17.1447 -16.9837 -16.9731 -16.9420 -16.8998 -16.8922 -16.8747 -16.8502
   -16.7561 -16.7054 -16.5420 -16.4617 -16.4550 -16.4152 -16.4112 -16.3655
   -16.3587 -16.3321 -16.1807 -16.1650 -16.1585 -15.9874 -15.9351 -14.7348
   -14.6540 -11.5025  -7.2499  -5.4764  -5.2953  -5.1953  -4.9843  -4.9185
    -4.8078  -4.8034  -4.7767  -4.7542  -4.7188  -4.6375  -4.5297  -4.4695
    -4.4254  -4.2532  -4.1374  -4.0458  -4.0306  -4.0249  -3.9793  -3.9349
    -3.9163  -3.8336  -3.7933  -3.7664  -3.7579  -3.6638  -3.6435  -3.6194
    -3.5613  -3.5588  -3.5461  -3.5321  -3.5046  -3.2874  -3.2839  -3.2689
    -3.2462  -3.2080  -3.1612  -3.1152  -2.9994  -2.9469  -2.8851  -2.8572
    -2.8330  -2.7818  -2.7610  -2.6836  -2.6290  -2.6173  -2.5816  -2.5521
    -2.4680  -2.4645  -2.4320  -2.3704  -2.3184  -2.2111  -2.2034  -2.1270
    -2.0916  -1.9966  -1.9441  -1.9370  -1.8483  -1.8227  -1.8061  -1.7189
    -1.6419  -1.5801  -1.5630  -1.5598  -1.4917  -1.4834  -1.4494  -1.4051
    -1.3575  -1.3382  -1.3103  -1.2180  -1.1244  -1.1109  -1.0930  -1.0763
    -0.9945  -0.9596  -0.8942  -0.8203  -0.8146  -0.7986  -0.7626  -0.5367
    -0.5291  -0.2730  -0.2280  -0.0516   0.0885   0.1146   0.1330   1.6376
     1.8140   1.9958   2.0918   2.0960   2.1742   2.1918   2.2759   2.2890
     2.4485   2.4528   2.4648   2.5544   2.5584   2.5800   2.6208   2.6734
     2.7025   2.8173   2.8656   2.8681   2.8936   2.9180   3.0779   3.1023
     3.1432   3.1590   3.1959   3.1966   3.2822   3.2830   3.3264   3.4027
     3.4323   3.4428   3.4948   3.5482   3.5717   3.5812   3.6944   3.7059
     3.7539   3.7578   3.7940   3.8881   3.9190   4.0768   4.1528   4.2058
     4.3429   4.4614   4.5781   4.6459   4.7634   4.7929   4.8549   4.9010
[...]
    -1.3028  -1.2724  -1.2548  -1.1944  -1.1562  -1.0365  -1.0245  -1.0163
    -0.9938  -0.9540  -0.9120  -0.8436  -0.7619  -0.7071  -0.6515  -0.5985
    -0.5944  -0.5398  -0.5231   0.0619   0.0620   0.2066   0.2083   2.1491
     2.1500   2.1965   2.1984   2.2330   2.2341   2.2613   2.2927   2.4834
     2.4892   2.5204   2.5498   2.6040   2.6118   2.6750   2.6770   2.6860
     2.6873   2.8388   2.9045   2.9783   2.9929   3.0292   3.0368   3.0933
     3.2144   3.2446   3.2674   3.3278   3.3685   3.3852   3.4398   3.4875
     3.4951   3.5176   3.5436   3.5756   3.5984   3.6743   3.6931   3.7390
     3.8289   3.8851   3.9014   3.9485   3.9489   4.0918   4.0986   4.1074
     4.1079   4.6090   4.7796   4.7828   4.8015   4.8654   4.9161   4.9210
     4.9372   4.9791   5.0203   5.2441   5.3364   5.3536   5.3660   5.7469
     5.7957   5.9067   5.9228   5.9783   6.0425   6.1527   6.3084   6.3443
     6.3606   6.3696   6.4075   6.5729   6.6259   6.6608   6.6609   6.6975
     6.7646   6.8415   6.8425   6.8480   6.8489   7.3643   7.4189   7.5292
     7.6664   7.8280   8.0196   8.1737   8.2254   8.3204   8.3934   8.8346
     8.9160   9.0440   9.0837

          k =-0.0253 0.0280 0.0000 ( 34687 PWs)   bands (ev):

   -57.7010 -57.6707 -57.3206 -57.2891 -57.2360 -57.1121 -57.0801 -57.0749
   -57.0577 -57.0445 -56.9931 -56.9624 -56.7353 -56.7027 -56.1517 -56.1211
   -34.1143 -33.9836 -33.9589 -33.8974 -33.8494 -33.8164 -33.7766 -33.6362
   -33.6167 -33.5865 -33.5471 -33.5398 -33.5272 -33.5214 -33.4969 -33.4769
   -33.4712 -33.4652 -33.4353 -33.3898 -33.3224 -33.2950 -33.2879 -33.2687
   -33.2652 -33.2596 -33.2587 -33.2521 -33.2420 -33.2407 -33.2396 -33.2234
   -33.2073 -33.1906 -33.1826 -33.1502 -33.1472 -32.9998 -32.9864 -32.9653
   -32.9202 -32.8405 -32.5461 -32.5055 -32.4816 -32.3699 -32.2906 -32.2035
   -20.3073 -17.9279 -17.7492 -17.4687 -17.3889 -17.3145 -17.2371 -17.1325
   -17.1032 -17.0105 -16.9675 -16.8643 -16.8345 -16.8121 -16.7891 -16.7747
   -16.7171 -16.7064 -16.6053 -16.5859 -16.5109 -16.4805 -16.3875 -16.3708
   -16.3615 -16.3339 -16.2056 -16.1788 -16.1579 -16.0189 -15.9724 -14.7468
   -14.6775 -11.5047  -7.2548  -5.4409  -5.2451  -5.2014  -5.1858  -5.0269
    -4.9708  -4.9426  -4.7634  -4.7059  -4.5672  -4.4073  -4.3762  -4.3503
    -4.2660  -4.2549  -4.1928  -4.1225  -4.0964  -4.0694  -4.0412  -4.0258
    -3.9797  -3.9455  -3.9192  -3.8743  -3.8269  -3.8166  -3.7892  -3.7242
    -3.7061  -3.6687  -3.6196  -3.6092  -3.5441  -3.5294  -3.3585  -3.2879
    -3.2561  -3.2228  -3.1515  -3.0755  -2.9878  -2.9514  -2.7855  -2.7080
    -2.6832  -2.6411  -2.6148  -2.5373  -2.5095  -2.4565  -2.4527  -2.4277
    -2.4107  -2.3899  -2.3446  -2.3060  -2.2227  -2.1802  -2.1271  -2.1088
    -2.0672  -1.9960  -1.9550  -1.8998  -1.8681  -1.8316  -1.7480  -1.7131
    -1.6579  -1.6040  -1.5980  -1.5649  -1.5208  -1.4758  -1.4409  -1.3979
    -1.3492  -1.3378  -1.2860  -1.2480  -1.2029  -1.1150  -1.1030  -1.0639
    -1.0160  -0.8970  -0.8455  -0.8350  -0.7607  -0.7434  -0.7148  -0.6643
    -0.4384  -0.2856  -0.1396  -0.0897   0.1452   0.1747   0.1849   1.7165
     1.8407   2.0120   2.0954   2.1907   2.2407   2.2806   2.3144   2.3990
     2.4111   2.4450   2.4811   2.5253   2.5283   2.5421   2.6028   2.6638
     2.7008   2.7342   2.7707   2.8070   2.9331   2.9806   2.9993   3.0224
     3.1021   3.1307   3.1419   3.1696   3.2041   3.2341   3.3419   3.3680
     3.3993   3.4149   3.4595   3.5013   3.5562   3.5653   3.6321   3.6566
     3.6685   3.7037   3.7436   3.8882   3.9862   4.1354   4.1812   4.2481
     4.3023   4.4522   4.5068   4.7791   4.9317   4.9492   4.9791   5.0738
     5.1551   5.1705   5.2177   5.3824   5.6414   5.6745   5.7280   5.7847
     5.8500   5.8610   5.8691   6.0011   6.0697   6.0743   6.1193   6.1406
     6.1926   6.2037   6.2134   6.2413   6.4242   6.5275   6.6092   6.6636
     6.7943   6.8568   6.9588   7.1517   7.2247   7.5198   7.9319   8.0365
     8.0909   8.2585   8.4446   8.5793   8.6494   8.7804   8.9512   9.2724
     9.3576   9.4713   9.5100

          k =-0.0253 0.0560 0.0000 ( 34699 PWs)   bands (ev):

   -57.6946 -57.6771 -57.3140 -57.2957 -57.2352 -57.1060 -57.0862 -57.0685
   -57.0586 -57.0510 -56.9867 -56.9689 -56.7287 -56.7093 -56.1453 -56.1276
   -34.0445 -33.9782 -33.9640 -33.8805 -33.8496 -33.8337 -33.7783 -33.6011
   -33.5782 -33.5772 -33.5399 -33.5306 -33.5138 -33.5123 -33.4805 -33.4771
   -33.4597 -33.4325 -33.4188 -33.3717 -33.3226 -33.3183 -33.3131 -33.3059
   -33.2907 -33.2811 -33.2724 -33.2690 -33.2580 -33.2541 -33.2427 -33.2389
   -33.2156 -33.2044 -33.1761 -33.1709 -33.1328 -32.9948 -32.9821 -32.9693
   -32.9332 -32.9101 -32.5005 -32.4866 -32.4754 -32.3534 -32.3075 -32.2777
   -20.3070 -17.7616 -17.5939 -17.3486 -17.2693 -17.2506 -17.1989 -17.1723
   -17.1443 -17.0002 -16.9751 -16.8853 -16.8810 -16.8358 -16.8021 -16.7768
   -16.7523 -16.6755 -16.6293 -16.6106 -16.5839 -16.5361 -16.4317 -16.4184
   -16.3616 -16.2894 -16.2391 -16.1998 -16.1616 -16.1197 -16.0453 -14.7654
   -14.7282 -11.5039  -7.2538  -5.4109  -5.2124  -5.0364  -4.9531  -4.8188
    -4.7615  -4.7209  -4.5629  -4.5017  -4.4961  -4.4187  -4.3988  -4.3493
    -4.2761  -4.2372  -4.2198  -4.1971  -4.1525  -4.1454  -4.1134  -4.0665
    -4.0368  -4.0158  -3.9999  -3.9419  -3.9288  -3.8782  -3.8690  -3.8273
    -3.7792  -3.7185  -3.6607  -3.5766  -3.4775  -3.3987  -3.3300  -3.2864
    -3.2426  -3.2218  -3.1767  -3.0182  -2.9364  -2.8698  -2.8309  -2.7880
    -2.7587  -2.6502  -2.5959  -2.5151  -2.4912  -2.4439  -2.3985  -2.3681
    -2.3479  -2.3287  -2.2963  -2.2712  -2.1944  -2.1456  -2.1316  -2.0421
    -2.0254  -2.0082  -1.9504  -1.9475  -1.9095  -1.8665  -1.8348  -1.8122
    -1.7479  -1.7153  -1.6775  -1.6473  -1.5847  -1.5447  -1.5102  -1.4654
    -1.4354  -1.3778  -1.3523  -1.3065  -1.2292  -1.2116  -1.1340  -1.1086
    -1.0651  -1.0185  -0.9300  -0.8809  -0.8193  -0.8045  -0.7433  -0.6848
    -0.6117  -0.4722  -0.2626   0.0880   0.1246   0.1517   0.1842   1.8573
     2.0437   2.1301   2.1746   2.2234   2.2646   2.3021   2.3280   2.3795
     2.4395   2.4542   2.4807   2.5084   2.5164   2.5790   2.6877   2.7194
     2.7396   2.7715   2.8227   2.8362   2.8881   2.9442   2.9654   2.9815
     3.0190   3.0301   3.1650   3.2029   3.2851   3.3116   3.3294   3.3656
     3.4065   3.4319   3.4552   3.5378   3.5548   3.6296   3.6517   3.7293
     3.7872   3.8113   3.8576   3.8931   3.9019   4.0670   4.1123   4.1611
     4.3384   4.3798   4.6161   4.9644   5.0145   5.1238   5.1431   5.1517
     5.2551   5.2834   5.3104   5.4238   5.5067   5.5567   5.6346   5.7582
     5.8214   5.8436   5.8906   5.9331   5.9524   5.9942   6.0503   6.0623
     6.1320   6.1521   6.2249   6.3261   6.3753   6.4127   6.4794   6.6435
     6.6949   6.7921   6.8438   7.0331   7.1532   7.3612   7.4866   7.5972
     7.9813   8.1818   8.3555   8.5239   8.6518   8.8624   9.0549   9.1130
     9.1878   9.5024   9.6297

          k =-0.0506 0.0280 0.0000 ( 34685 PWs)   bands (ev):

   -57.7010 -57.6707 -57.3205 -57.2891 -57.2360 -57.1119 -57.0801 -57.0751
   -57.0577 -57.0445 -56.9931 -56.9624 -56.7353 -56.7027 -56.1517 -56.1211
   -34.1150 -33.9836 -33.9589 -33.8961 -33.8496 -33.8164 -33.7766 -33.6377
   -33.6167 -33.5899 -33.5477 -33.5408 -33.5327 -33.5249 -33.4969 -33.4765
   -33.4628 -33.4540 -33.4353 -33.3736 -33.3222 -33.2953 -33.2836 -33.2699
   -33.2687 -33.2666 -33.2650 -33.2594 -33.2421 -33.2407 -33.2385 -33.2210
   -33.2077 -33.1908 -33.1825 -33.1500 -33.1471 -32.9999 -32.9907 -32.9639
   -32.9202 -32.8405 -32.5460 -32.5074 -32.4806 -32.3699 -32.2906 -32.2036
   -20.3069 -17.8657 -17.6556 -17.3737 -17.3470 -17.2547 -17.2297 -17.2188
   -17.1275 -17.0482 -16.9678 -16.9260 -16.8768 -16.8622 -16.8593 -16.8388
   -16.7685 -16.7492 -16.5646 -16.5334 -16.5103 -16.4425 -16.4199 -16.3825
   -16.3746 -16.3160 -16.1966 -16.1771 -16.1567 -16.0201 -15.9722 -14.7449
   -14.6775 -11.5021  -7.2493  -5.4542  -5.2301  -5.1998  -4.8966  -4.8386
    -4.7256  -4.7098  -4.6808  -4.6603  -4.6350  -4.5137  -4.4323  -4.3503
    -4.3245  -4.3070  -4.1646  -4.1320  -4.0661  -4.0316  -4.0135  -3.9981
    -3.9874  -3.9143  -3.8645  -3.8206  -3.7788  -3.7664  -3.7236  -3.6953
    -3.6611  -3.6386  -3.5877  -3.5566  -3.4491  -3.3181  -3.2817  -3.2661
    -3.2247  -3.1751  -3.1048  -3.0634  -2.9574  -2.9414  -2.8744  -2.8444
    -2.7477  -2.6945  -2.6652  -2.6548  -2.6098  -2.5947  -2.5403  -2.5005
    -2.4418  -2.3921  -2.3855  -2.3405  -2.3133  -2.2592  -2.1844  -2.1408
    -2.1191  -2.0672  -2.0312  -1.9789  -1.9447  -1.9103  -1.8649  -1.8364
    -1.7593  -1.7448  -1.7165  -1.6457  -1.5449  -1.5113  -1.4903  -1.4226
    -1.3729  -1.3528  -1.2849  -1.2654  -1.2426  -1.1521  -1.1166  -1.0178
    -0.9818  -0.8846  -0.8610  -0.8185  -0.7837  -0.7685  -0.7104  -0.6942
    -0.5177  -0.3163  -0.2641  -0.0770   0.1059   0.1353   0.1586   1.7000
     1.9009   2.0562   2.1180   2.1230   2.1683   2.2360   2.3560   2.3676
     2.4017   2.4332   2.5133   2.5629   2.5704   2.5983   2.6790   2.6916
     2.7385   2.7980   2.8281   2.8984   2.9508   2.9767   3.0373   3.0552
     3.0857   3.1556   3.1669   3.1964   3.2978   3.3509   3.3717   3.4051
     3.4404   3.4528   3.5421   3.5808   3.5997   3.6486   3.6717   3.6801
     3.7124   3.7660   3.8142   3.8642   3.9259   4.0539   4.1645   4.2778
     4.2887   4.4187   4.6246   4.6846   4.7602   4.8067   4.8499   4.9944
     5.0071   5.1254   5.2220   5.4661   5.5905   5.6380   5.7209   5.8057
     5.8583   5.8692   5.9213   5.9447   5.9785   6.0903   6.1142   6.1356
     6.2309   6.4271   6.4795   6.5349   6.5733   6.6052   6.6805   6.7407
     6.7929   6.8132   6.9697   7.1208   7.1647   7.3996   7.5835   7.7128
     8.1373   8.1605   8.2451   8.3990   8.7653   8.9673   9.0200   9.0504
     9.3775   9.4530   9.6145

          k =-0.0506 0.0560 0.0000 ( 34596 PWs)   bands (ev):

   -57.6946 -57.6771 -57.3140 -57.2957 -57.2352 -57.1059 -57.0861 -57.0686
   -57.0585 -57.0510 -56.9867 -56.9689 -56.7287 -56.7093 -56.1453 -56.1276
   -34.0450 -33.9782 -33.9639 -33.8793 -33.8498 -33.8333 -33.7785 -33.6011
   -33.5793 -33.5773 -33.5403 -33.5266 -33.5204 -33.5155 -33.4805 -33.4779
   -33.4577 -33.4325 -33.4092 -33.3581 -33.3235 -33.3225 -33.3055 -33.3034
   -33.2910 -33.2810 -33.2722 -33.2667 -33.2587 -33.2581 -33.2521 -33.2440
   -33.2157 -33.2059 -33.1761 -33.1705 -33.1324 -32.9949 -32.9849 -32.9690
   -32.9331 -32.9099 -32.5016 -32.4862 -32.4752 -32.3534 -32.3075 -32.2776
   -20.3066 -17.7112 -17.5049 -17.2964 -17.2446 -17.2030 -17.1781 -17.1666
   -17.0951 -17.0413 -17.0106 -16.9183 -16.8615 -16.8538 -16.8498 -16.8114
   -16.7808 -16.7282 -16.6677 -16.6283 -16.6185 -16.5552 -16.5170 -16.4052
   -16.3489 -16.2680 -16.2313 -16.1983 -16.1608 -16.1214 -16.0445 -14.7642
   -14.7286 -11.5012  -7.2480  -5.4264  -5.2111  -5.0270  -4.6635  -4.6217
    -4.5206  -4.5043  -4.4891  -4.4619  -4.4377  -4.3724  -4.3294  -4.3063
    -4.2305  -4.2104  -4.1507  -4.1367  -4.0878  -4.0726  -4.0511  -4.0421
    -4.0199  -4.0018  -3.9738  -3.9200  -3.8994  -3.8929  -3.8275  -3.7927
    -3.7358  -3.6646  -3.6352  -3.5277  -3.4921  -3.3747  -3.3333  -3.2668
    -3.2598  -3.2499  -3.1325  -3.0155  -2.9374  -2.9094  -2.8552  -2.8335
    -2.7612  -2.7310  -2.6891  -2.6151  -2.5962  -2.5726  -2.5352  -2.4947
    -2.4330  -2.4099  -2.3711  -2.3341  -2.3213  -2.3048  -2.2600  -2.1837
    -2.1577  -2.1259  -2.1194  -2.0821  -2.0524  -2.0078  -1.9896  -1.9067
    -1.8966  -1.8569  -1.8382  -1.7295  -1.6426  -1.6111  -1.5780  -1.4835
    -1.4140  -1.3801  -1.3126  -1.2542  -1.2113  -1.1155  -1.0786  -1.0221
    -1.0066  -0.9417  -0.8579  -0.8251  -0.7752  -0.7617  -0.6981  -0.6616
    -0.6560  -0.5227  -0.3294   0.0739   0.1081   0.1261   0.1896   1.8626
     2.0725   2.1607   2.1944   2.2165   2.2394   2.2938   2.3429   2.3882
     2.3994   2.5332   2.5655   2.5748   2.6031   2.6234   2.6785   2.7501
     2.7778   2.7995   2.8338   2.8761   2.9588   2.9993   3.0238   3.0572
     3.0926   3.1313   3.1629   3.2520   3.3310   3.3624   3.3920   3.4360
     3.4737   3.4949   3.5165   3.5373   3.6105   3.6423   3.7064   3.7396
     3.7743   3.8450   3.8748   3.9151   3.9209   3.9490   4.1075   4.1706
     4.2852   4.4687   4.7258   4.8027   4.8117   4.8920   4.9365   5.0888
     5.1604   5.2299   5.2680   5.3399   5.3684   5.4298   5.4912   5.6212
     5.7771   5.8289   5.8776   5.9488   6.0435   6.1208   6.2139   6.2557
     6.2829   6.3466   6.4115   6.4466   6.5081   6.5747   6.6471   6.7123
     6.7266   6.8215   6.8576   6.9807   7.0591   7.4080   7.4355   7.5847
     7.7501   7.9457   8.0751   8.3944   8.5764   8.6127   8.7445   9.0146
     9.2266   9.3255   9.4512

     the Fermi energy is     0.9929 ev

!    total energy              =   -3021.41988518 Ry
     Harris-Foulkes estimate   =   -3021.41988530 Ry
     estimated scf accuracy    <       0.00000058 Ry

     The total energy is the sum of the following terms:

     one-electron contribution =  -41243.22938995 Ry
     hartree contribution      =   20695.79194662 Ry
     xc contribution           =    -553.69724518 Ry
     ewald contribution        =   18079.71501459 Ry
     smearing contrib. (-TS)   =      -0.00021127 Ry

     total magnetization       =     0.00 Bohr mag/cell
     absolute magnetization    =     0.00 Bohr mag/cell

     convergence has been achieved in   8 iterations

     Forces acting on atoms (Ry/au):


     negative rho (up, down):  1.209E-02 1.209E-02
     atom    1 type  1   force =     0.00001789   -0.00035494   -0.13382509
     atom    2 type  2   force =     0.00000726    0.00002877    0.07215289
     atom    3 type  1   force =    -0.00135625    0.00031001   -0.06099372
     atom    4 type  2   force =     0.00290107    0.00048791    0.00639382
     atom    5 type  1   force =     0.00026115    0.00191091    0.00351689
     atom    6 type  2   force =     0.00009141    0.00000709   -0.00305803
     atom    7 type  1   force =    -0.00126101   -0.00072861    0.00480102
     atom    8 type  2   force =     0.00086166   -0.00033117   -0.00078236
     atom    9 type  1   force =    -0.00002562    0.00002000   -0.13358204
     atom   10 type  2   force =    -0.00006638    0.00006680    0.07133426
     atom   11 type  1   force =    -0.00131774   -0.00024161   -0.05590922
     atom   12 type  2   force =     0.00299557   -0.00006777    0.00611076
     atom   13 type  1   force =     0.00028187   -0.00154106    0.00345879
     atom   14 type  2   force =    -0.00118067   -0.00038578   -0.00283317
     atom   15 type  1   force =    -0.00079177    0.00019977    0.00454196
     atom   16 type  2   force =     0.00050682   -0.00007395   -0.00015582
     atom   17 type  2   force =    -0.00006831   -0.00007156    0.07938941
     atom   18 type  1   force =     0.00013735   -0.00017211    0.11908330
     atom   19 type  2   force =    -0.00010509   -0.00017305   -0.06666344
     atom   20 type  2   force =    -0.06322513    0.00014809   -0.03223845
     atom   21 type  2   force =     0.06320679    0.00001575   -0.03244235
     atom   22 type  1   force =     0.00072654    0.00108106    0.05972023
     atom   23 type  2   force =    -0.00017307    0.00005762   -0.00174152
     atom   24 type  2   force =    -0.00142903   -0.00000307   -0.02322386
     atom   25 type  2   force =    -0.00312615    0.00058943    0.00787802
     atom   26 type  1   force =     0.00064954    0.00029176    0.00453055
     atom   27 type  2   force =     0.00052166    0.00059105   -0.00374334
     atom   28 type  2   force =     0.00012426   -0.00009262   -0.00118118
     atom   29 type  2   force =     0.00023773   -0.00034965   -0.00056988
     atom   30 type  1   force =     0.00059643   -0.00101348    0.00373287
     atom   31 type  2   force =    -0.00036422    0.00011857   -0.00245191
     atom   32 type  2   force =     0.00014702    0.00004655   -0.00105890
     atom   33 type  2   force =    -0.00011759    0.00003751    0.07899022
     atom   34 type  1   force =     0.00007090   -0.00021903    0.11899892
     atom   35 type  2   force =    -0.00030125   -0.00005339   -0.06636219
     atom   36 type  2   force =    -0.06318480   -0.00005273   -0.03232555
     atom   37 type  2   force =     0.06333621   -0.00020310   -0.03248141
     atom   38 type  1   force =     0.00066421   -0.00098208    0.05993719
     atom   39 type  2   force =    -0.00046019    0.00010585   -0.00248049
     atom   40 type  2   force =    -0.00118458    0.00030668   -0.02213768
     atom   41 type  2   force =    -0.00316610   -0.00015155    0.00790627
     atom   42 type  1   force =     0.00052433    0.00006493    0.00364899
     atom   43 type  2   force =     0.00065866    0.00023845   -0.00290725
     atom   44 type  2   force =     0.00021208    0.00010488   -0.00114046
     atom   45 type  2   force =     0.00021619    0.00031327   -0.00060183
     atom   46 type  1   force =     0.00081201    0.00060277    0.00385902
     atom   47 type  2   force =     0.00005546   -0.00033223   -0.00143050
     atom   48 type  2   force =     0.00021460    0.00001331   -0.00081615
     atom   49 type  3   force =     0.00272970   -0.00072754    0.00352991
     atom   50 type  2   force =    -0.01274924   -0.00005247   -0.01221700
     atom   51 type  4   force =     0.00035473    0.00005435   -0.00062097
     atom   52 type  4   force =     0.01097488    0.00020361    0.00944273
     atom   53 type  4   force =     0.00015550    0.00102679   -0.00055302
     atom   54 type  4   force =     0.00040267   -0.00066898   -0.00042923

     Total force =     0.363330     Total SCF correction =     0.001387
 !ASE

     Writing output data file calc.save
 
     init_run     :     57.18s CPU     71.85s WALL (       1 calls)
     electrons    :   1907.71s CPU   2370.67s WALL (       1 calls)
     forces       :     40.07s CPU     41.79s WALL (       1 calls)

     Called by init_run:
     wfcinit      :     48.90s CPU     62.81s WALL (       1 calls)
     potinit      :      1.33s CPU      1.66s WALL (       1 calls)

     Called by electrons:
     c_bands      :   1662.11s CPU   2062.01s WALL (       9 calls)
     sum_band     :    210.48s CPU    268.18s WALL (       9 calls)
     v_of_rho     :      8.71s CPU     10.99s WALL (       9 calls)
     newd         :     30.26s CPU     33.60s WALL (       9 calls)
     mix_rho      :      0.30s CPU      0.43s WALL (       9 calls)
     vdW_energy   :      1.63s CPU      2.02s WALL (      10 calls)
     vdW_ffts     :      2.36s CPU      3.09s WALL (      20 calls)
     vdW_v        :      0.92s CPU      1.07s WALL (      10 calls)

     Called by c_bands:
     init_us_2    :      5.40s CPU      5.96s WALL (     800 calls)
     cegterg      :   1629.60s CPU   2027.61s WALL (     360 calls)

     Called by *egterg:
     h_psi        :    683.55s CPU   1009.03s WALL (    1872 calls)
     s_psi        :     83.19s CPU     87.91s WALL (    1872 calls)
     g_psi        :      4.53s CPU      4.60s WALL (    1472 calls)
     cdiaghg      :    554.73s CPU    569.75s WALL (    1792 calls)

     Called by h_psi:
     add_vuspsi   :     83.77s CPU     88.27s WALL (    1872 calls)

     General routines
     calbec       :    127.45s CPU    131.26s WALL (    2272 calls)
     fft          :      4.93s CPU      6.47s WALL (     794 calls)
     ffts         :      0.04s CPU      0.05s WALL (      36 calls)
     fftw         :    449.02s CPU    810.99s WALL (  662656 calls)
     interpolate  :      0.27s CPU      0.45s WALL (      36 calls)
     davcio       :      0.00s CPU      0.57s WALL (      40 calls)
 
     Parallel routines
     fft_scatter  :    240.52s CPU    425.03s WALL (  663486 calls)
 
     PWSCF        : 33m29.21s CPU    41m29.95s WALL

 
   This run was terminated on:   1:30: 0  13Feb2018            

=------------------------------------------------------------------------------=
   JOB DONE.
=------------------------------------------------------------------------------=
