  python dir          : /home/vossj/suncat/lib/python2.7/site-packages/espresso
  espresso dir        : /home/vossj/suncat/esdld/espresso-dynpy-beef/bin
  pseudo dir          : /home/alatimer/bin/psp/esp_psp_w_gbrvRu/
  ase-espresso py git : ffa2778-git



     Program PWSCF v.5.1rc2 (svn rev. ) starts on 10Mar2018 at  9:43:22 

     This program is part of the open-source Quantum ESPRESSO suite
     for quantum simulation of materials; please cite
         "P. Giannozzi et al., J. Phys.:Condens. Matter 21 395502 (2009);
          URL http://www.quantum-espresso.org", 
     in publications or presentations arising from this work. More details at
     http://www.quantum-espresso.org/quote

     Parallel version (MPI), running on    16 processors
     R & G space division:  proc/nbgrp/npool/nimage =      16
     Reading input from pw.inp
     Message from routine read_cards :
     DEPRECATED: no units specified in CELL_PARAMETERS card

     Current dimensions of program PWSCF are:
     Max number of different atomic species (ntypx) = 10
     Max number of k-points (npk) =  40000
     Max angular momentum in pseudopotentials (lmaxx) =  3

     **************************************************************************
     Initializing libbeef V0.1.1 with the BEEF-vdW functional.
     Citation: Wellendorff et al., PRB 85, 235149 (2012).
     **************************************************************************


     IMPORTANT: XC functional enforced from input :
     Exchange-correlation      = BEEF ( 1  4 27 13 2)
     Any further DFT definition will be discarded
     Please, verify this is what you really want


     Subspace diagonalization in iterative solution of the eigenvalue problem:
     a serial algorithm will be used

 
     Parallelization info
     --------------------
     sticks:   dense  smooth     PW     G-vecs:    dense   smooth      PW
     Min         281     112     31                68535    17318    2565
     Max         282     113     32                68545    17369    2582
     Sum        4501    1795    503              1096637   277353   41113
 
     Generating pointlists ...
     new r_m :   0.4125 (alat units)  0.7795 (a.u.) for type    1
     new r_m :   0.4125 (alat units)  0.7795 (a.u.) for type    2
     new r_m :   0.4125 (alat units)  0.7795 (a.u.) for type    3


     bravais-lattice index     =            0
     lattice parameter (alat)  =       1.8897  a.u.
     unit-cell volume          =    7990.9933 (a.u.)^3
     number of atoms/cell      =           51
     number of atomic types    =            3
     number of electrons       =       400.00
     number of Kohn-Sham states=          300
     kinetic-energy cutoff     =      40.4243  Ry
     charge density cutoff     =     404.2426  Ry
     convergence threshold     =      7.3E-07
     mixing beta               =       0.1000
     number of iterations used =           10  plain     mixing
     Exchange-correlation      = BEEF ( 1  4 27 13 2)
     nstep                     =           50


     celldm(1)=   1.889726  celldm(2)=   0.000000  celldm(3)=   0.000000
     celldm(4)=   0.000000  celldm(5)=   0.000000  celldm(6)=   0.000000

     crystal axes: (cart. coord. in units of alat)
               a(1) = (   6.590708   0.000000   0.000000 )  
               a(2) = (   0.000000   5.950229   0.000000 )  
               a(3) = (   0.000000   0.000000  30.195235 )  

     reciprocal axes: (cart. coord. in units 2 pi/alat)
               b(1) = (  0.151729  0.000000  0.000000 )  
               b(2) = (  0.000000  0.168061  0.000000 )  
               b(3) = (  0.000000  0.000000  0.033118 )  


     PseudoPot. # 1 for Ti read from file:
     /home/alatimer/bin/psp/esp_psp_w_gbrvRu/Ti.UPF
     MD5 check sum: 8e4df49b7f0d34bbd5052bf3f5ea0213
     Pseudo is Ultrasoft, Zval = 12.0
     Generated by new atomic code, or converted to UPF format
     Using radial grid of  851 points,  6 beta functions with: 
                l(1) =   0
                l(2) =   0
                l(3) =   1
                l(4) =   1
                l(5) =   2
                l(6) =   2
     Q(r) pseudized with  8 coefficients,  rinner =    1.000   1.000   1.000
                                                       1.000   1.000

     PseudoPot. # 2 for  O read from file:
     /home/alatimer/bin/psp/esp_psp_w_gbrvRu/O.UPF
     MD5 check sum: e057bbcf3229fb5d8c36c0c92f9568b4
     Pseudo is Ultrasoft + core correction, Zval =  6.0
     Generated using "atomic" code by A. Dal Corso  v.5.0.2 svn rev. 9415
     Using radial grid of 1095 points,  4 beta functions with: 
                l(1) =   0
                l(2) =   0
                l(3) =   1
                l(4) =   1
     Q(r) pseudized with 0 coefficients 


     PseudoPot. # 3 for  N read from file:
     /home/alatimer/bin/psp/esp_psp_w_gbrvRu/N.UPF
     MD5 check sum: ed8b6a90f28a53b7d71920e7015d2dd6
     Pseudo is Ultrasoft + core correction, Zval =  5.0
     Generated using "atomic" code by A. Dal Corso  v.5.0.2 svn rev. 9415
     Using radial grid of 1085 points,  4 beta functions with: 
                l(1) =   0
                l(2) =   0
                l(3) =   1
                l(4) =   1
     Q(r) pseudized with 0 coefficients 


     vdW kernel table read from file vdW_kernel_table
     MD5 check sum: 095c7af220d748ca6e76c0b4c6cfb241

     atomic species   valence    mass     pseudopotential
        Ti1           12.00    47.88000     Ti( 1.00)
        O1             6.00    15.99940      O( 1.00)
        N1             5.00    14.00670      N( 1.00)

     Starting magnetic structure 
     atomic species   magnetization
        Ti1          0.250
        O1           0.500
        N1           0.600

     No symmetry found



   Cartesian axes

     site n.     atom                  positions (alat units)
         1           Ti1 tau(   1) = (   1.6476770   0.7437786   2.6545865  )
         2           O1  tau(   2) = (   1.6476770   2.2313359   3.9361215  )
         3           Ti1 tau(   3) = (   1.6476770   2.2313359   5.9499405  )
         4           O1  tau(   4) = (   0.3661420   0.7437786   5.9499405  )
         5           Ti1 tau(   5) = (   1.5280591   0.7315068   9.1973351  )
         6           O1  tau(   6) = (   1.6613943   2.1836906  10.6091769  )
         7           Ti1 tau(   7) = (   1.6665780   2.2096385  12.4157880  )
         8           O1  tau(   8) = (   0.4439715   0.7264440  12.7601561  )
         9           Ti1 tau(   9) = (   1.6476770   3.7188931   2.6545865  )
        10           O1  tau(  10) = (   1.6476770   5.2064503   3.9361215  )
        11           Ti1 tau(  11) = (   1.6476770   5.2064503   5.9499405  )
        12           O1  tau(  12) = (   0.3661420   3.7188931   5.9499405  )
        13           Ti1 tau(  13) = (   1.5319291   3.7072436   9.2118370  )
        14           O1  tau(  14) = (   1.6575607   5.2126413  10.6087893  )
        15           Ti1 tau(  15) = (   1.6606453   5.1916961  12.4165775  )
        16           O1  tau(  16) = (   0.4123725   3.7022030  12.5882193  )
        17           O1  tau(  17) = (   1.6476770   2.2313359   1.3730516  )
        18           Ti1 tau(  18) = (   4.9430310   2.2313359   2.6545865  )
        19           O1  tau(  19) = (   4.9430310   2.2313359   4.6684056  )
        20           O1  tau(  20) = (   6.2245660   0.7437786   2.6545865  )
        21           O1  tau(  21) = (   3.6614961   0.7437786   2.6545865  )
        22           Ti1 tau(  22) = (   4.9430310   0.7437786   5.9499405  )
        23           O1  tau(  23) = (   1.6517842   2.2287041   8.0298356  )
        24           O1  tau(  24) = (   4.9430310   2.2313359   7.2314755  )
        25           O1  tau(  25) = (   2.9292120   0.7437786   5.9499405  )
        26           Ti1 tau(  26) = (   4.8605205   2.2076595   9.4238065  )
        27           O1  tau(  27) = (   4.9553550   2.1639423  11.2756624  )
        28           O1  tau(  28) = (   6.2690671   0.7288246   9.2688367  )
        29           O1  tau(  29) = (   3.6660957   0.7249325   9.2867299  )
        30           Ti1 tau(  30) = (   4.9284588   0.7282168  12.7798302  )
        31           O1  tau(  31) = (   4.9953437   2.2216212  13.8477397  )
        32           O1  tau(  32) = (   2.9112183   0.7266397  12.7651274  )
        33           O1  tau(  33) = (   1.6476770   5.2064503   1.3730516  )
        34           Ti1 tau(  34) = (   4.9430310   5.2064503   2.6545865  )
        35           O1  tau(  35) = (   4.9430310   5.2064503   4.6684056  )
        36           O1  tau(  36) = (   6.2245660   3.7188931   2.6545865  )
        37           O1  tau(  37) = (   3.6614961   3.7188931   2.6545865  )
        38           Ti1 tau(  38) = (   4.9430310   3.7188931   5.9499405  )
        39           O1  tau(  39) = (   1.6524867   5.1852222   8.0294571  )
        40           O1  tau(  40) = (   4.9430310   5.2064503   7.2314755  )
        41           O1  tau(  41) = (   2.9292120   3.7188931   5.9499405  )
        42           Ti1 tau(  42) = (   4.8610151   5.1886528   9.4241876  )
        43           O1  tau(  43) = (   4.9550983   5.2107439  11.2753448  )
        44           O1  tau(  44) = (   6.2713562   3.7024388   9.3047907  )
        45           O1  tau(  45) = (   3.6650622   3.7005085   9.3135888  )
        46           Ti1 tau(  46) = (   5.0160509   3.7038162  12.7585864  )
        47           O1  tau(  47) = (   4.9984032   5.1727849  13.8485277  )
        48           O1  tau(  48) = (   2.9655234   3.7049164  12.5317472  )
        49           O1  tau(  49) = (   2.2548149   3.7063572  14.5993114  )
        50           N1  tau(  50) = (   2.4020298   3.6667063  16.9651815  )
        51           N1  tau(  51) = (   2.1425646   3.6919273  15.8611024  )

     number of k points=    40  Fermi-Dirac smearing, width (Ry)=  0.0073
                       cart. coord. in units 2pi/alat
        k(    1) = (   0.0000000   0.0000000   0.0000000), wk =   0.0277778
        k(    2) = (   0.0000000   0.0280101   0.0000000), wk =   0.0555556
        k(    3) = (   0.0000000   0.0560203   0.0000000), wk =   0.0555556
        k(    4) = (   0.0000000  -0.0840304   0.0000000), wk =   0.0277778
        k(    5) = (   0.0252881   0.0000000   0.0000000), wk =   0.0555556
        k(    6) = (   0.0252881   0.0280101   0.0000000), wk =   0.0555556
        k(    7) = (   0.0252881   0.0560203   0.0000000), wk =   0.0555556
        k(    8) = (   0.0252881  -0.0840304   0.0000000), wk =   0.0555556
        k(    9) = (   0.0505763   0.0000000   0.0000000), wk =   0.0555556
        k(   10) = (   0.0505763   0.0280101   0.0000000), wk =   0.0555556
        k(   11) = (   0.0505763   0.0560203   0.0000000), wk =   0.0555556
        k(   12) = (   0.0505763  -0.0840304   0.0000000), wk =   0.0555556
        k(   13) = (  -0.0758644   0.0000000   0.0000000), wk =   0.0277778
        k(   14) = (  -0.0758644   0.0280101   0.0000000), wk =   0.0555556
        k(   15) = (  -0.0758644   0.0560203   0.0000000), wk =   0.0555556
        k(   16) = (  -0.0758644  -0.0840304   0.0000000), wk =   0.0277778
        k(   17) = (  -0.0252881   0.0280101   0.0000000), wk =   0.0555556
        k(   18) = (  -0.0252881   0.0560203   0.0000000), wk =   0.0555556
        k(   19) = (  -0.0505763   0.0280101   0.0000000), wk =   0.0555556
        k(   20) = (  -0.0505763   0.0560203   0.0000000), wk =   0.0555556
        k(   21) = (   0.0000000   0.0000000   0.0000000), wk =   0.0277778
        k(   22) = (   0.0000000   0.0280101   0.0000000), wk =   0.0555556
        k(   23) = (   0.0000000   0.0560203   0.0000000), wk =   0.0555556
        k(   24) = (   0.0000000  -0.0840304   0.0000000), wk =   0.0277778
        k(   25) = (   0.0252881   0.0000000   0.0000000), wk =   0.0555556
        k(   26) = (   0.0252881   0.0280101   0.0000000), wk =   0.0555556
        k(   27) = (   0.0252881   0.0560203   0.0000000), wk =   0.0555556
        k(   28) = (   0.0252881  -0.0840304   0.0000000), wk =   0.0555556
        k(   29) = (   0.0505763   0.0000000   0.0000000), wk =   0.0555556
        k(   30) = (   0.0505763   0.0280101   0.0000000), wk =   0.0555556
        k(   31) = (   0.0505763   0.0560203   0.0000000), wk =   0.0555556
        k(   32) = (   0.0505763  -0.0840304   0.0000000), wk =   0.0555556
        k(   33) = (  -0.0758644   0.0000000   0.0000000), wk =   0.0277778
        k(   34) = (  -0.0758644   0.0280101   0.0000000), wk =   0.0555556
        k(   35) = (  -0.0758644   0.0560203   0.0000000), wk =   0.0555556
        k(   36) = (  -0.0758644  -0.0840304   0.0000000), wk =   0.0277778
        k(   37) = (  -0.0252881   0.0280101   0.0000000), wk =   0.0555556
        k(   38) = (  -0.0252881   0.0560203   0.0000000), wk =   0.0555556
        k(   39) = (  -0.0505763   0.0280101   0.0000000), wk =   0.0555556
        k(   40) = (  -0.0505763   0.0560203   0.0000000), wk =   0.0555556

     Dense  grid:  1096637 G-vectors     FFT dimensions: (  80,  72, 375)

     Smooth grid:   277353 G-vectors     FFT dimensions: (  54,  45, 240)

     Largest allocated arrays     est. size (Mb)     dimensions
        Kohn-Sham Wavefunctions         9.98 Mb     (    2180,  300)
        NL pseudopotentials            18.89 Mb     (    2180,  568)
        Each V/rho on FFT grid          4.22 Mb     (  138240,   2)
        Each G-vector array             0.52 Mb     (   68538)
        G-vector shells                 0.25 Mb     (   33046)
     Largest temporary arrays     est. size (Mb)     dimensions
        Auxiliary wavefunctions        39.92 Mb     (    2180, 1200)
        Each subspace H/S matrix       21.97 Mb     (    1200, 1200)
        Each <psi_i|beta_j> matrix      2.60 Mb     (     568,  300)
        Arrays for rho mixing          21.09 Mb     (  138240,   10)

     Check: negative/imaginary core charge=   -0.000049    0.000000

     The initial density is read from file :
     ./calc.save/charge-density.dat


     negative rho (up, down):  1.158E-02 1.158E-02


     ************************************************************************
     *
     * You are using vdW-DF for exchange-correlation in this calculation.
     * Please cite the following three references that made this development
     * possible:
     *
     *   M. Dion, H. Rydberg, E. Schroder, D. C. Langreth, and
     *   B. I. Lundqvist, Phys. Rev. Lett. 92, 246401 (2004).
     *
     *   T. Thonhauser, V. R. Cooper, S. Li, A. Puzder, P. Hyldgaard, and
     *   D. C. Langreth, Phys. Rev. B 76, 125112 (2007).
     *
     *   G. Roman-Perez and J. M. Soler, Phys. Rev. Lett. 103, 096102 (2009).
     *
     *
     * If you are using vdW-DF2, please also cite:
     *
     *   K. Lee, E. D. Murray, L. Kong, B. I. Lundqvist, and
     *   D. C. Langreth, Phys. Rev. B 82, 081101(R) (2010).
     *
     *
     * If you are calculating the stress with vdW-DF, please also cite:
     *
     *   R. Sabatini, E. Kucukbenli, B. Kolb, T. Thonhauser, and
     *   S. de Gironcoli, J. Phys.: Condens. Matter 24, 424209 (2012).
     *
     ************************************************************************

     Carrying out vdW-DF run using the following parameters:

     Nqs =      20    Nr_points =    1024   r_max =   100.000
     q_mesh =
               0.00001000     0.04494208     0.09755937     0.15916263
               0.23128650     0.31572767     0.41458969     0.53033537
               0.66584808     0.82450364     1.01025438     1.22772762
               1.48234092     1.78043706     2.12944203     2.53805004
               3.01644009     3.57652955     4.23227104     5.00000000

     Gradients computed in reciprocal space

     ************************************************************************


     Starting wfc are  300 randomized atomic wfcs

     total cpu time spent up to now is       69.1 secs

     Self-consistent Calculation

     iteration #  1     ecut=    40.42 Ry     beta=0.10
     Davidson diagonalization with overlap
     ethr =  1.00E-05,  avg # of iterations = 14.4

     negative rho (up, down):  1.157E-02 1.157E-02
 
     Magnetic moment per site:
     atom:    1    charge:    3.1249    magn:   -0.0002    constr:    0.0000
     atom:    2    charge:    2.0895    magn:    0.0001    constr:    0.0000
     atom:    3    charge:    3.1195    magn:   -0.0001    constr:    0.0000
     atom:    4    charge:    2.0870    magn:    0.0000    constr:    0.0000
     atom:    5    charge:    3.1170    magn:   -0.0001    constr:    0.0000
     atom:    6    charge:    2.0918    magn:    0.0001    constr:    0.0000
     atom:    7    charge:    3.1178    magn:   -0.0000    constr:    0.0000
     atom:    8    charge:    2.0823    magn:    0.0001    constr:    0.0000
     atom:    9    charge:    3.1249    magn:   -0.0002    constr:    0.0000
     atom:   10    charge:    2.0895    magn:    0.0001    constr:    0.0000
     atom:   11    charge:    3.1195    magn:   -0.0001    constr:    0.0000
     atom:   12    charge:    2.0870    magn:    0.0000    constr:    0.0000
     atom:   13    charge:    3.1147    magn:   -0.0001    constr:    0.0000
     atom:   14    charge:    2.0913    magn:    0.0001    constr:    0.0000
     atom:   15    charge:    3.1187    magn:   -0.0000    constr:    0.0000
     atom:   16    charge:    2.0880    magn:    0.0001    constr:    0.0000
     atom:   17    charge:    2.0628    magn:    0.0004    constr:    0.0000
     atom:   18    charge:    3.1241    magn:   -0.0000    constr:    0.0000
     atom:   19    charge:    2.0877    magn:   -0.0000    constr:    0.0000
     atom:   20    charge:    2.0847    magn:   -0.0001    constr:    0.0000
     atom:   21    charge:    2.0847    magn:   -0.0001    constr:    0.0000
     atom:   22    charge:    3.1198    magn:   -0.0000    constr:    0.0000
     atom:   23    charge:    2.0910    magn:    0.0001    constr:    0.0000
     atom:   24    charge:    2.0775    magn:    0.0001    constr:    0.0000
     atom:   25    charge:    2.0869    magn:    0.0000    constr:    0.0000
     atom:   26    charge:    3.1165    magn:   -0.0001    constr:    0.0000
     atom:   27    charge:    2.0821    magn:    0.0002    constr:    0.0000
     atom:   28    charge:    2.0879    magn:    0.0001    constr:    0.0000
     atom:   29    charge:    2.0877    magn:    0.0001    constr:    0.0000
     atom:   30    charge:    3.1166    magn:   -0.0001    constr:    0.0000
     atom:   31    charge:    2.0826    magn:    0.0003    constr:    0.0000
     atom:   32    charge:    2.0846    magn:    0.0001    constr:    0.0000
     atom:   33    charge:    2.0628    magn:    0.0004    constr:    0.0000
     atom:   34    charge:    3.1241    magn:   -0.0000    constr:    0.0000
     atom:   35    charge:    2.0877    magn:   -0.0000    constr:    0.0000
     atom:   36    charge:    2.0847    magn:   -0.0001    constr:    0.0000
     atom:   37    charge:    2.0847    magn:   -0.0001    constr:    0.0000
     atom:   38    charge:    3.1198    magn:   -0.0000    constr:    0.0000
     atom:   39    charge:    2.0914    magn:    0.0001    constr:    0.0000
     atom:   40    charge:    2.0775    magn:    0.0001    constr:    0.0000
     atom:   41    charge:    2.0869    magn:    0.0000    constr:    0.0000
     atom:   42    charge:    3.1181    magn:   -0.0001    constr:    0.0000
     atom:   43    charge:    2.0835    magn:    0.0002    constr:    0.0000
     atom:   44    charge:    2.0865    magn:    0.0001    constr:    0.0000
     atom:   45    charge:    2.0871    magn:    0.0001    constr:    0.0000
     atom:   46    charge:    3.1167    magn:   -0.0001    constr:    0.0000
     atom:   47    charge:    2.0807    magn:    0.0003    constr:    0.0000
     atom:   48    charge:    2.0803    magn:    0.0002    constr:    0.0000
     atom:   49    charge:    2.0395    magn:   -0.0000    constr:    0.0000
     atom:   50    charge:    1.2607    magn:   -0.0000    constr:    0.0000
     atom:   51    charge:    1.2937    magn:    0.0000    constr:    0.0000

     total cpu time spent up to now is      800.8 secs

     total energy              =   -3044.99119840 Ry
     Harris-Foulkes estimate   =   -3045.02031838 Ry
     estimated scf accuracy    <       0.17729344 Ry

     total magnetization       =     0.00 Bohr mag/cell
     absolute magnetization    =     0.01 Bohr mag/cell

     iteration #  2     ecut=    40.42 Ry     beta=0.10
     Davidson diagonalization with overlap
     ethr =  4.43E-05,  avg # of iterations =  2.4

     negative rho (up, down):  1.157E-02 1.157E-02
 
     Magnetic moment per site:
     atom:    1    charge:    3.1251    magn:   -0.0001    constr:    0.0000
     atom:    2    charge:    2.0894    magn:    0.0001    constr:    0.0000
     atom:    3    charge:    3.1196    magn:   -0.0001    constr:    0.0000
     atom:    4    charge:    2.0870    magn:    0.0000    constr:    0.0000
     atom:    5    charge:    3.1170    magn:   -0.0001    constr:    0.0000
     atom:    6    charge:    2.0919    magn:    0.0001    constr:    0.0000
     atom:    7    charge:    3.1175    magn:   -0.0000    constr:    0.0000
     atom:    8    charge:    2.0822    magn:    0.0001    constr:    0.0000
     atom:    9    charge:    3.1251    magn:   -0.0001    constr:    0.0000
     atom:   10    charge:    2.0894    magn:    0.0001    constr:    0.0000
     atom:   11    charge:    3.1196    magn:   -0.0001    constr:    0.0000
     atom:   12    charge:    2.0870    magn:    0.0000    constr:    0.0000
     atom:   13    charge:    3.1147    magn:   -0.0001    constr:    0.0000
     atom:   14    charge:    2.0913    magn:    0.0001    constr:    0.0000
     atom:   15    charge:    3.1184    magn:   -0.0000    constr:    0.0000
     atom:   16    charge:    2.0876    magn:    0.0001    constr:    0.0000
     atom:   17    charge:    2.0624    magn:    0.0004    constr:    0.0000
     atom:   18    charge:    3.1239    magn:   -0.0000    constr:    0.0000
     atom:   19    charge:    2.0878    magn:   -0.0000    constr:    0.0000
     atom:   20    charge:    2.0847    magn:   -0.0001    constr:    0.0000
     atom:   21    charge:    2.0847    magn:   -0.0001    constr:    0.0000
     atom:   22    charge:    3.1197    magn:   -0.0000    constr:    0.0000
     atom:   23    charge:    2.0909    magn:    0.0001    constr:    0.0000
     atom:   24    charge:    2.0777    magn:    0.0001    constr:    0.0000
     atom:   25    charge:    2.0869    magn:    0.0000    constr:    0.0000
     atom:   26    charge:    3.1165    magn:   -0.0001    constr:    0.0000
     atom:   27    charge:    2.0822    magn:    0.0002    constr:    0.0000
     atom:   28    charge:    2.0879    magn:    0.0001    constr:    0.0000
     atom:   29    charge:    2.0877    magn:    0.0001    constr:    0.0000
     atom:   30    charge:    3.1167    magn:   -0.0001    constr:    0.0000
     atom:   31    charge:    2.0824    magn:    0.0003    constr:    0.0000
     atom:   32    charge:    2.0846    magn:    0.0001    constr:    0.0000
     atom:   33    charge:    2.0624    magn:    0.0004    constr:    0.0000
     atom:   34    charge:    3.1239    magn:   -0.0000    constr:    0.0000
     atom:   35    charge:    2.0878    magn:   -0.0000    constr:    0.0000
     atom:   36    charge:    2.0847    magn:   -0.0001    constr:    0.0000
     atom:   37    charge:    2.0847    magn:   -0.0001    constr:    0.0000
     atom:   38    charge:    3.1197    magn:   -0.0000    constr:    0.0000
     atom:   39    charge:    2.0913    magn:    0.0001    constr:    0.0000
     atom:   40    charge:    2.0777    magn:    0.0001    constr:    0.0000
     atom:   41    charge:    2.0869    magn:    0.0000    constr:    0.0000
     atom:   42    charge:    3.1181    magn:   -0.0001    constr:    0.0000
     atom:   43    charge:    2.0836    magn:    0.0002    constr:    0.0000
     atom:   44    charge:    2.0865    magn:    0.0001    constr:    0.0000
     atom:   45    charge:    2.0871    magn:    0.0001    constr:    0.0000
     atom:   46    charge:    3.1169    magn:   -0.0001    constr:    0.0000
     atom:   47    charge:    2.0806    magn:    0.0003    constr:    0.0000
     atom:   48    charge:    2.0795    magn:    0.0001    constr:    0.0000
     atom:   49    charge:    2.0415    magn:   -0.0000    constr:    0.0000
     atom:   50    charge:    1.2602    magn:   -0.0000    constr:    0.0000
     atom:   51    charge:    1.3021    magn:    0.0000    constr:    0.0000

     total cpu time spent up to now is      988.7 secs

     total energy              =   -3044.97278127 Ry
     Harris-Foulkes estimate   =   -3044.99576185 Ry
     estimated scf accuracy    <       0.07793367 Ry

     total magnetization       =     0.00 Bohr mag/cell
     absolute magnetization    =     0.01 Bohr mag/cell

     iteration #  3     ecut=    40.42 Ry     beta=0.10
     Davidson diagonalization with overlap
     ethr =  1.95E-05,  avg # of iterations =  5.2

     negative rho (up, down):  1.157E-02 1.157E-02
 
     Magnetic moment per site:
     atom:    1    charge:    3.1251    magn:   -0.0001    constr:    0.0000
     atom:    2    charge:    2.0894    magn:    0.0001    constr:    0.0000
     atom:    3    charge:    3.1197    magn:   -0.0000    constr:    0.0000
     atom:    4    charge:    2.0870    magn:    0.0000    constr:    0.0000
     atom:    5    charge:    3.1170    magn:   -0.0000    constr:    0.0000
     atom:    6    charge:    2.0917    magn:    0.0000    constr:    0.0000
     atom:    7    charge:    3.1182    magn:   -0.0000    constr:    0.0000
     atom:    8    charge:    2.0811    magn:    0.0001    constr:    0.0000
     atom:    9    charge:    3.1251    magn:   -0.0001    constr:    0.0000
     atom:   10    charge:    2.0894    magn:    0.0001    constr:    0.0000
     atom:   11    charge:    3.1197    magn:   -0.0000    constr:    0.0000
     atom:   12    charge:    2.0870    magn:    0.0000    constr:    0.0000
     atom:   13    charge:    3.1149    magn:   -0.0000    constr:    0.0000
     atom:   14    charge:    2.0911    magn:    0.0000    constr:    0.0000
     atom:   15    charge:    3.1191    magn:   -0.0000    constr:    0.0000
     atom:   16    charge:    2.0877    magn:    0.0000    constr:    0.0000
     atom:   17    charge:    2.0620    magn:    0.0003    constr:    0.0000
     atom:   18    charge:    3.1238    magn:   -0.0000    constr:    0.0000
     atom:   19    charge:    2.0878    magn:   -0.0000    constr:    0.0000
     atom:   20    charge:    2.0847    magn:   -0.0000    constr:    0.0000
     atom:   21    charge:    2.0847    magn:   -0.0000    constr:    0.0000
     atom:   22    charge:    3.1197    magn:   -0.0000    constr:    0.0000
     atom:   23    charge:    2.0907    magn:    0.0001    constr:    0.0000
     atom:   24    charge:    2.0780    magn:    0.0000    constr:    0.0000
     atom:   25    charge:    2.0869    magn:    0.0000    constr:    0.0000
     atom:   26    charge:    3.1164    magn:   -0.0001    constr:    0.0000
     atom:   27    charge:    2.0826    magn:    0.0001    constr:    0.0000
     atom:   28    charge:    2.0878    magn:    0.0001    constr:    0.0000
     atom:   29    charge:    2.0877    magn:    0.0001    constr:    0.0000
     atom:   30    charge:    3.1169    magn:   -0.0001    constr:    0.0000
     atom:   31    charge:    2.0813    magn:    0.0002    constr:    0.0000
     atom:   32    charge:    2.0841    magn:    0.0001    constr:    0.0000
     atom:   33    charge:    2.0620    magn:    0.0003    constr:    0.0000
     atom:   34    charge:    3.1238    magn:   -0.0000    constr:    0.0000
     atom:   35    charge:    2.0878    magn:   -0.0000    constr:    0.0000
     atom:   36    charge:    2.0847    magn:   -0.0000    constr:    0.0000
     atom:   37    charge:    2.0847    magn:   -0.0000    constr:    0.0000
     atom:   38    charge:    3.1197    magn:   -0.0000    constr:    0.0000
     atom:   39    charge:    2.0911    magn:    0.0001    constr:    0.0000
     atom:   40    charge:    2.0780    magn:    0.0000    constr:    0.0000
     atom:   41    charge:    2.0869    magn:    0.0000    constr:    0.0000
     atom:   42    charge:    3.1181    magn:   -0.0001    constr:    0.0000
     atom:   43    charge:    2.0840    magn:    0.0001    constr:    0.0000
     atom:   44    charge:    2.0865    magn:    0.0001    constr:    0.0000
     atom:   45    charge:    2.0871    magn:    0.0001    constr:    0.0000
     atom:   46    charge:    3.1173    magn:   -0.0001    constr:    0.0000
     atom:   47    charge:    2.0794    magn:    0.0002    constr:    0.0000
     atom:   48    charge:    2.0822    magn:    0.0001    constr:    0.0000
     atom:   49    charge:    2.0499    magn:   -0.0000    constr:    0.0000
     atom:   50    charge:    1.2595    magn:   -0.0000    constr:    0.0000
     atom:   51    charge:    1.3037    magn:    0.0000    constr:    0.0000

     total cpu time spent up to now is     1220.6 secs

     total energy              =   -3044.96674865 Ry
     Harris-Foulkes estimate   =   -3044.97712168 Ry
     estimated scf accuracy    <       0.02473436 Ry

     total magnetization       =     0.00 Bohr mag/cell
     absolute magnetization    =     0.01 Bohr mag/cell

     iteration #  4     ecut=    40.42 Ry     beta=0.10
     Davidson diagonalization with overlap
     ethr =  6.18E-06,  avg # of iterations =  6.5

     negative rho (up, down):  1.158E-02 1.158E-02
 
     Magnetic moment per site:
     atom:    1    charge:    3.1250    magn:   -0.0001    constr:    0.0000
     atom:    2    charge:    2.0894    magn:    0.0001    constr:    0.0000
     atom:    3    charge:    3.1196    magn:   -0.0000    constr:    0.0000
     atom:    4    charge:    2.0871    magn:    0.0000    constr:    0.0000
     atom:    5    charge:    3.1170    magn:   -0.0000    constr:    0.0000
     atom:    6    charge:    2.0914    magn:    0.0000    constr:    0.0000
     atom:    7    charge:    3.1191    magn:   -0.0000    constr:    0.0000
     atom:    8    charge:    2.0809    magn:    0.0000    constr:    0.0000
     atom:    9    charge:    3.1250    magn:   -0.0001    constr:    0.0000
     atom:   10    charge:    2.0894    magn:    0.0001    constr:    0.0000
     atom:   11    charge:    3.1196    magn:   -0.0000    constr:    0.0000
     atom:   12    charge:    2.0871    magn:    0.0000    constr:    0.0000
     atom:   13    charge:    3.1148    magn:   -0.0000    constr:    0.0000
     atom:   14    charge:    2.0909    magn:    0.0000    constr:    0.0000
     atom:   15    charge:    3.1200    magn:   -0.0000    constr:    0.0000
     atom:   16    charge:    2.0884    magn:    0.0000    constr:    0.0000
     atom:   17    charge:    2.0623    magn:    0.0002    constr:    0.0000
     atom:   18    charge:    3.1239    magn:   -0.0000    constr:    0.0000
     atom:   19    charge:    2.0878    magn:   -0.0000    constr:    0.0000
     atom:   20    charge:    2.0846    magn:   -0.0000    constr:    0.0000
     atom:   21    charge:    2.0846    magn:   -0.0000    constr:    0.0000
     atom:   22    charge:    3.1197    magn:   -0.0000    constr:    0.0000
     atom:   23    charge:    2.0907    magn:    0.0000    constr:    0.0000
     atom:   24    charge:    2.0777    magn:    0.0000    constr:    0.0000
     atom:   25    charge:    2.0869    magn:    0.0000    constr:    0.0000
     atom:   26    charge:    3.1165    magn:   -0.0000    constr:    0.0000
     atom:   27    charge:    2.0825    magn:    0.0001    constr:    0.0000
     atom:   28    charge:    2.0878    magn:    0.0001    constr:    0.0000
     atom:   29    charge:    2.0878    magn:    0.0000    constr:    0.0000
     atom:   30    charge:    3.1168    magn:   -0.0001    constr:    0.0000
     atom:   31    charge:    2.0808    magn:    0.0002    constr:    0.0000
     atom:   32    charge:    2.0839    magn:    0.0000    constr:    0.0000
     atom:   33    charge:    2.0623    magn:    0.0002    constr:    0.0000
     atom:   34    charge:    3.1239    magn:   -0.0000    constr:    0.0000
     atom:   35    charge:    2.0878    magn:   -0.0000    constr:    0.0000
     atom:   36    charge:    2.0846    magn:   -0.0000    constr:    0.0000
     atom:   37    charge:    2.0846    magn:   -0.0000    constr:    0.0000
     atom:   38    charge:    3.1197    magn:   -0.0000    constr:    0.0000
     atom:   39    charge:    2.0911    magn:    0.0000    constr:    0.0000
     atom:   40    charge:    2.0777    magn:    0.0000    constr:    0.0000
     atom:   41    charge:    2.0869    magn:    0.0000    constr:    0.0000
     atom:   42    charge:    3.1181    magn:   -0.0000    constr:    0.0000
     atom:   43    charge:    2.0840    magn:    0.0001    constr:    0.0000
     atom:   44    charge:    2.0864    magn:    0.0001    constr:    0.0000
     atom:   45    charge:    2.0871    magn:    0.0000    constr:    0.0000
     atom:   46    charge:    3.1172    magn:   -0.0001    constr:    0.0000
     atom:   47    charge:    2.0789    magn:    0.0002    constr:    0.0000
     atom:   48    charge:    2.0854    magn:    0.0001    constr:    0.0000
     atom:   49    charge:    2.0588    magn:   -0.0000    constr:    0.0000
     atom:   50    charge:    1.2607    magn:   -0.0000    constr:    0.0000
     atom:   51    charge:    1.2964    magn:    0.0000    constr:    0.0000

     total cpu time spent up to now is     1479.2 secs

     total energy              =   -3044.96578143 Ry
     Harris-Foulkes estimate   =   -3044.96876111 Ry
     estimated scf accuracy    <       0.00639977 Ry

     total magnetization       =     0.00 Bohr mag/cell
     absolute magnetization    =     0.00 Bohr mag/cell

     iteration #  5     ecut=    40.42 Ry     beta=0.10
     Davidson diagonalization with overlap
     ethr =  1.60E-06,  avg # of iterations =  5.9

     negative rho (up, down):  1.158E-02 1.158E-02
 
     Magnetic moment per site:
     atom:    1    charge:    3.1250    magn:   -0.0001    constr:    0.0000
     atom:    2    charge:    2.0894    magn:    0.0001    constr:    0.0000
     atom:    3    charge:    3.1196    magn:   -0.0000    constr:    0.0000
     atom:    4    charge:    2.0870    magn:    0.0000    constr:    0.0000
     atom:    5    charge:    3.1170    magn:   -0.0000    constr:    0.0000
     atom:    6    charge:    2.0916    magn:    0.0000    constr:    0.0000
     atom:    7    charge:    3.1189    magn:   -0.0000    constr:    0.0000
     atom:    8    charge:    2.0816    magn:    0.0000    constr:    0.0000
     atom:    9    charge:    3.1250    magn:   -0.0001    constr:    0.0000
     atom:   10    charge:    2.0894    magn:    0.0001    constr:    0.0000
     atom:   11    charge:    3.1196    magn:   -0.0000    constr:    0.0000
     atom:   12    charge:    2.0870    magn:    0.0000    constr:    0.0000
     atom:   13    charge:    3.1147    magn:   -0.0000    constr:    0.0000
     atom:   14    charge:    2.0910    magn:    0.0000    constr:    0.0000
     atom:   15    charge:    3.1199    magn:   -0.0000    constr:    0.0000
     atom:   16    charge:    2.0887    magn:    0.0000    constr:    0.0000
     atom:   17    charge:    2.0623    magn:    0.0002    constr:    0.0000
     atom:   18    charge:    3.1239    magn:   -0.0000    constr:    0.0000
     atom:   19    charge:    2.0878    magn:   -0.0000    constr:    0.0000
     atom:   20    charge:    2.0846    magn:   -0.0000    constr:    0.0000
     atom:   21    charge:    2.0846    magn:   -0.0000    constr:    0.0000
     atom:   22    charge:    3.1197    magn:   -0.0000    constr:    0.0000
     atom:   23    charge:    2.0909    magn:    0.0000    constr:    0.0000
     atom:   24    charge:    2.0776    magn:    0.0000    constr:    0.0000
     atom:   25    charge:    2.0869    magn:    0.0000    constr:    0.0000
     atom:   26    charge:    3.1165    magn:   -0.0000    constr:    0.0000
     atom:   27    charge:    2.0823    magn:    0.0001    constr:    0.0000
     atom:   28    charge:    2.0879    magn:    0.0000    constr:    0.0000
     atom:   29    charge:    2.0878    magn:    0.0000    constr:    0.0000
     atom:   30    charge:    3.1168    magn:   -0.0001    constr:    0.0000
     atom:   31    charge:    2.0813    magn:    0.0001    constr:    0.0000
     atom:   32    charge:    2.0842    magn:    0.0000    constr:    0.0000
     atom:   33    charge:    2.0623    magn:    0.0002    constr:    0.0000
     atom:   34    charge:    3.1239    magn:   -0.0000    constr:    0.0000
     atom:   35    charge:    2.0878    magn:   -0.0000    constr:    0.0000
     atom:   36    charge:    2.0846    magn:   -0.0000    constr:    0.0000
     atom:   37    charge:    2.0846    magn:   -0.0000    constr:    0.0000
     atom:   38    charge:    3.1197    magn:   -0.0000    constr:    0.0000
     atom:   39    charge:    2.0912    magn:    0.0000    constr:    0.0000
     atom:   40    charge:    2.0776    magn:    0.0000    constr:    0.0000
     atom:   41    charge:    2.0869    magn:    0.0000    constr:    0.0000
     atom:   42    charge:    3.1181    magn:   -0.0000    constr:    0.0000
     atom:   43    charge:    2.0837    magn:    0.0001    constr:    0.0000
     atom:   44    charge:    2.0864    magn:    0.0001    constr:    0.0000
     atom:   45    charge:    2.0871    magn:    0.0000    constr:    0.0000
     atom:   46    charge:    3.1170    magn:   -0.0001    constr:    0.0000
     atom:   47    charge:    2.0794    magn:    0.0001    constr:    0.0000
     atom:   48    charge:    2.0847    magn:    0.0001    constr:    0.0000
     atom:   49    charge:    2.0599    magn:   -0.0000    constr:    0.0000
     atom:   50    charge:    1.2610    magn:   -0.0000    constr:    0.0000
     atom:   51    charge:    1.2931    magn:    0.0000    constr:    0.0000

     total cpu time spent up to now is     1726.3 secs

     total energy              =   -3044.96617309 Ry
     Harris-Foulkes estimate   =   -3044.96645938 Ry
     estimated scf accuracy    <       0.00083296 Ry

     total magnetization       =     0.00 Bohr mag/cell
     absolute magnetization    =     0.00 Bohr mag/cell

     iteration #  6     ecut=    40.42 Ry     beta=0.10
     Davidson diagonalization with overlap
     ethr =  2.08E-07,  avg # of iterations =  3.0

     negative rho (up, down):  1.158E-02 1.158E-02
 
     Magnetic moment per site:
     atom:    1    charge:    3.1251    magn:   -0.0001    constr:    0.0000
     atom:    2    charge:    2.0894    magn:    0.0000    constr:    0.0000
     atom:    3    charge:    3.1196    magn:   -0.0000    constr:    0.0000
     atom:    4    charge:    2.0870    magn:    0.0000    constr:    0.0000
     atom:    5    charge:    3.1170    magn:   -0.0000    constr:    0.0000
     atom:    6    charge:    2.0916    magn:    0.0000    constr:    0.0000
     atom:    7    charge:    3.1188    magn:   -0.0000    constr:    0.0000
     atom:    8    charge:    2.0817    magn:    0.0000    constr:    0.0000
     atom:    9    charge:    3.1251    magn:   -0.0001    constr:    0.0000
     atom:   10    charge:    2.0894    magn:    0.0000    constr:    0.0000
     atom:   11    charge:    3.1196    magn:   -0.0000    constr:    0.0000
     atom:   12    charge:    2.0870    magn:    0.0000    constr:    0.0000
     atom:   13    charge:    3.1148    magn:   -0.0000    constr:    0.0000
     atom:   14    charge:    2.0911    magn:    0.0000    constr:    0.0000
     atom:   15    charge:    3.1198    magn:   -0.0000    constr:    0.0000
     atom:   16    charge:    2.0886    magn:    0.0000    constr:    0.0000
     atom:   17    charge:    2.0623    magn:    0.0002    constr:    0.0000
     atom:   18    charge:    3.1239    magn:   -0.0000    constr:    0.0000
     atom:   19    charge:    2.0878    magn:   -0.0000    constr:    0.0000
     atom:   20    charge:    2.0847    magn:   -0.0000    constr:    0.0000
     atom:   21    charge:    2.0847    magn:   -0.0000    constr:    0.0000
     atom:   22    charge:    3.1197    magn:   -0.0000    constr:    0.0000
     atom:   23    charge:    2.0909    magn:    0.0000    constr:    0.0000
     atom:   24    charge:    2.0777    magn:    0.0000    constr:    0.0000
     atom:   25    charge:    2.0869    magn:    0.0000    constr:    0.0000
     atom:   26    charge:    3.1165    magn:   -0.0000    constr:    0.0000
     atom:   27    charge:    2.0823    magn:    0.0001    constr:    0.0000
     atom:   28    charge:    2.0879    magn:    0.0000    constr:    0.0000
     atom:   29    charge:    2.0877    magn:    0.0000    constr:    0.0000
     atom:   30    charge:    3.1168    magn:   -0.0001    constr:    0.0000
     atom:   31    charge:    2.0815    magn:    0.0001    constr:    0.0000
     atom:   32    charge:    2.0843    magn:    0.0000    constr:    0.0000
     atom:   33    charge:    2.0623    magn:    0.0002    constr:    0.0000
     atom:   34    charge:    3.1239    magn:   -0.0000    constr:    0.0000
     atom:   35    charge:    2.0878    magn:   -0.0000    constr:    0.0000
     atom:   36    charge:    2.0847    magn:   -0.0000    constr:    0.0000
     atom:   37    charge:    2.0847    magn:   -0.0000    constr:    0.0000
     atom:   38    charge:    3.1197    magn:   -0.0000    constr:    0.0000
     atom:   39    charge:    2.0912    magn:    0.0000    constr:    0.0000
     atom:   40    charge:    2.0777    magn:    0.0000    constr:    0.0000
     atom:   41    charge:    2.0869    magn:    0.0000    constr:    0.0000
     atom:   42    charge:    3.1181    magn:   -0.0000    constr:    0.0000
     atom:   43    charge:    2.0837    magn:    0.0001    constr:    0.0000
     atom:   44    charge:    2.0865    magn:    0.0000    constr:    0.0000
     atom:   45    charge:    2.0871    magn:    0.0000    constr:    0.0000
     atom:   46    charge:    3.1171    magn:   -0.0001    constr:    0.0000
     atom:   47    charge:    2.0796    magn:    0.0001    constr:    0.0000
     atom:   48    charge:    2.0843    magn:    0.0001    constr:    0.0000
     atom:   49    charge:    2.0600    magn:    0.0000    constr:    0.0000
     atom:   50    charge:    1.2604    magn:   -0.0000    constr:    0.0000
     atom:   51    charge:    1.2923    magn:    0.0000    constr:    0.0000

     total cpu time spent up to now is     1926.5 secs

     total energy              =   -3044.96620607 Ry
     Harris-Foulkes estimate   =   -3044.96624938 Ry
     estimated scf accuracy    <       0.00018311 Ry

     total magnetization       =     0.00 Bohr mag/cell
     absolute magnetization    =     0.00 Bohr mag/cell

     iteration #  7     ecut=    40.42 Ry     beta=0.10
     Davidson diagonalization with overlap
     ethr =  4.58E-08,  avg # of iterations =  2.0

     negative rho (up, down):  1.158E-02 1.158E-02
 
     Magnetic moment per site:
     atom:    1    charge:    3.1250    magn:   -0.0001    constr:    0.0000
     atom:    2    charge:    2.0894    magn:    0.0000    constr:    0.0000
     atom:    3    charge:    3.1196    magn:   -0.0000    constr:    0.0000
     atom:    4    charge:    2.0870    magn:    0.0000    constr:    0.0000
     atom:    5    charge:    3.1170    magn:   -0.0000    constr:    0.0000
     atom:    6    charge:    2.0917    magn:    0.0000    constr:    0.0000
     atom:    7    charge:    3.1187    magn:   -0.0000    constr:    0.0000
     atom:    8    charge:    2.0817    magn:    0.0000    constr:    0.0000
     atom:    9    charge:    3.1250    magn:   -0.0001    constr:    0.0000
     atom:   10    charge:    2.0894    magn:    0.0000    constr:    0.0000
     atom:   11    charge:    3.1196    magn:   -0.0000    constr:    0.0000
     atom:   12    charge:    2.0870    magn:    0.0000    constr:    0.0000
     atom:   13    charge:    3.1148    magn:   -0.0000    constr:    0.0000
     atom:   14    charge:    2.0912    magn:    0.0000    constr:    0.0000
     atom:   15    charge:    3.1196    magn:   -0.0000    constr:    0.0000
     atom:   16    charge:    2.0884    magn:    0.0000    constr:    0.0000
     atom:   17    charge:    2.0624    magn:    0.0001    constr:    0.0000
     atom:   18    charge:    3.1239    magn:   -0.0000    constr:    0.0000
     atom:   19    charge:    2.0878    magn:   -0.0000    constr:    0.0000
     atom:   20    charge:    2.0847    magn:   -0.0000    constr:    0.0000
     atom:   21    charge:    2.0847    magn:   -0.0000    constr:    0.0000
     atom:   22    charge:    3.1197    magn:   -0.0000    constr:    0.0000
     atom:   23    charge:    2.0909    magn:    0.0000    constr:    0.0000
     atom:   24    charge:    2.0777    magn:    0.0000    constr:    0.0000
     atom:   25    charge:    2.0869    magn:    0.0000    constr:    0.0000
     atom:   26    charge:    3.1165    magn:   -0.0000    constr:    0.0000
     atom:   27    charge:    2.0823    magn:    0.0001    constr:    0.0000
     atom:   28    charge:    2.0879    magn:    0.0000    constr:    0.0000
     atom:   29    charge:    2.0877    magn:    0.0000    constr:    0.0000
     atom:   30    charge:    3.1168    magn:   -0.0000    constr:    0.0000
     atom:   31    charge:    2.0817    magn:    0.0001    constr:    0.0000
     atom:   32    charge:    2.0844    magn:    0.0000    constr:    0.0000
     atom:   33    charge:    2.0624    magn:    0.0001    constr:    0.0000
     atom:   34    charge:    3.1239    magn:   -0.0000    constr:    0.0000
     atom:   35    charge:    2.0878    magn:   -0.0000    constr:    0.0000
     atom:   36    charge:    2.0847    magn:   -0.0000    constr:    0.0000
     atom:   37    charge:    2.0847    magn:   -0.0000    constr:    0.0000
     atom:   38    charge:    3.1197    magn:   -0.0000    constr:    0.0000
     atom:   39    charge:    2.0912    magn:    0.0000    constr:    0.0000
     atom:   40    charge:    2.0777    magn:    0.0000    constr:    0.0000
     atom:   41    charge:    2.0869    magn:    0.0000    constr:    0.0000
     atom:   42    charge:    3.1181    magn:   -0.0000    constr:    0.0000
     atom:   43    charge:    2.0837    magn:    0.0001    constr:    0.0000
     atom:   44    charge:    2.0865    magn:    0.0000    constr:    0.0000
     atom:   45    charge:    2.0871    magn:    0.0000    constr:    0.0000
     atom:   46    charge:    3.1171    magn:   -0.0000    constr:    0.0000
     atom:   47    charge:    2.0798    magn:    0.0001    constr:    0.0000
     atom:   48    charge:    2.0837    magn:    0.0001    constr:    0.0000
     atom:   49    charge:    2.0594    magn:    0.0000    constr:    0.0000
     atom:   50    charge:    1.2598    magn:   -0.0000    constr:    0.0000
     atom:   51    charge:    1.2917    magn:    0.0000    constr:    0.0000

     total cpu time spent up to now is     2111.4 secs

     total energy              =   -3044.96619019 Ry
     Harris-Foulkes estimate   =   -3044.96621347 Ry
     estimated scf accuracy    <       0.00007165 Ry

     total magnetization       =     0.00 Bohr mag/cell
     absolute magnetization    =     0.00 Bohr mag/cell

     iteration #  8     ecut=    40.42 Ry     beta=0.10
     Davidson diagonalization with overlap
     ethr =  1.79E-08,  avg # of iterations =  2.1

     negative rho (up, down):  1.158E-02 1.158E-02
 
     Magnetic moment per site:
     atom:    1    charge:    3.1250    magn:   -0.0000    constr:    0.0000
     atom:    2    charge:    2.0894    magn:    0.0000    constr:    0.0000
     atom:    3    charge:    3.1196    magn:   -0.0000    constr:    0.0000
     atom:    4    charge:    2.0870    magn:    0.0000    constr:    0.0000
     atom:    5    charge:    3.1170    magn:   -0.0000    constr:    0.0000
     atom:    6    charge:    2.0917    magn:    0.0000    constr:    0.0000
     atom:    7    charge:    3.1186    magn:   -0.0000    constr:    0.0000
     atom:    8    charge:    2.0816    magn:    0.0000    constr:    0.0000
     atom:    9    charge:    3.1250    magn:   -0.0000    constr:    0.0000
     atom:   10    charge:    2.0894    magn:    0.0000    constr:    0.0000
     atom:   11    charge:    3.1196    magn:   -0.0000    constr:    0.0000
     atom:   12    charge:    2.0870    magn:    0.0000    constr:    0.0000
     atom:   13    charge:    3.1148    magn:   -0.0000    constr:    0.0000
     atom:   14    charge:    2.0911    magn:    0.0000    constr:    0.0000
     atom:   15    charge:    3.1195    magn:   -0.0000    constr:    0.0000
     atom:   16    charge:    2.0883    magn:    0.0000    constr:    0.0000
     atom:   17    charge:    2.0624    magn:    0.0001    constr:    0.0000
     atom:   18    charge:    3.1239    magn:   -0.0000    constr:    0.0000
     atom:   19    charge:    2.0878    magn:   -0.0000    constr:    0.0000
     atom:   20    charge:    2.0847    magn:   -0.0000    constr:    0.0000
     atom:   21    charge:    2.0847    magn:   -0.0000    constr:    0.0000
     atom:   22    charge:    3.1197    magn:   -0.0000    constr:    0.0000
     atom:   23    charge:    2.0909    magn:    0.0000    constr:    0.0000
     atom:   24    charge:    2.0777    magn:    0.0000    constr:    0.0000
     atom:   25    charge:    2.0869    magn:    0.0000    constr:    0.0000
     atom:   26    charge:    3.1165    magn:   -0.0000    constr:    0.0000
     atom:   27    charge:    2.0824    magn:    0.0000    constr:    0.0000
     atom:   28    charge:    2.0879    magn:    0.0000    constr:    0.0000
     atom:   29    charge:    2.0877    magn:    0.0000    constr:    0.0000
     atom:   30    charge:    3.1168    magn:   -0.0000    constr:    0.0000
     atom:   31    charge:    2.0817    magn:    0.0001    constr:    0.0000
     atom:   32    charge:    2.0843    magn:    0.0000    constr:    0.0000
     atom:   33    charge:    2.0624    magn:    0.0001    constr:    0.0000
     atom:   34    charge:    3.1239    magn:   -0.0000    constr:    0.0000
     atom:   35    charge:    2.0878    magn:   -0.0000    constr:    0.0000
     atom:   36    charge:    2.0847    magn:   -0.0000    constr:    0.0000
     atom:   37    charge:    2.0847    magn:   -0.0000    constr:    0.0000
     atom:   38    charge:    3.1197    magn:   -0.0000    constr:    0.0000
     atom:   39    charge:    2.0912    magn:    0.0000    constr:    0.0000
     atom:   40    charge:    2.0777    magn:    0.0000    constr:    0.0000
     atom:   41    charge:    2.0869    magn:    0.0000    constr:    0.0000
     atom:   42    charge:    3.1181    magn:   -0.0000    constr:    0.0000
     atom:   43    charge:    2.0838    magn:    0.0000    constr:    0.0000
     atom:   44    charge:    2.0865    magn:    0.0000    constr:    0.0000
     atom:   45    charge:    2.0871    magn:    0.0000    constr:    0.0000
     atom:   46    charge:    3.1171    magn:   -0.0000    constr:    0.0000
     atom:   47    charge:    2.0798    magn:    0.0001    constr:    0.0000
     atom:   48    charge:    2.0836    magn:    0.0000    constr:    0.0000
     atom:   49    charge:    2.0592    magn:    0.0000    constr:    0.0000
     atom:   50    charge:    1.2596    magn:   -0.0000    constr:    0.0000
     atom:   51    charge:    1.2917    magn:    0.0000    constr:    0.0000

     total cpu time spent up to now is     2300.2 secs

     total energy              =   -3044.96619264 Ry
     Harris-Foulkes estimate   =   -3044.96619606 Ry
     estimated scf accuracy    <       0.00001749 Ry

     total magnetization       =     0.00 Bohr mag/cell
     absolute magnetization    =     0.00 Bohr mag/cell

     iteration #  9     ecut=    40.42 Ry     beta=0.10
     Davidson diagonalization with overlap
     ethr =  4.37E-09,  avg # of iterations =  3.0

     negative rho (up, down):  1.158E-02 1.158E-02
 
     Magnetic moment per site:
     atom:    1    charge:    3.1250    magn:   -0.0000    constr:    0.0000
     atom:    2    charge:    2.0894    magn:    0.0000    constr:    0.0000
     atom:    3    charge:    3.1196    magn:   -0.0000    constr:    0.0000
     atom:    4    charge:    2.0870    magn:    0.0000    constr:    0.0000
     atom:    5    charge:    3.1170    magn:   -0.0000    constr:    0.0000
     atom:    6    charge:    2.0917    magn:    0.0000    constr:    0.0000
     atom:    7    charge:    3.1185    magn:   -0.0000    constr:    0.0000
     atom:    8    charge:    2.0816    magn:    0.0000    constr:    0.0000
     atom:    9    charge:    3.1250    magn:   -0.0000    constr:    0.0000
     atom:   10    charge:    2.0894    magn:    0.0000    constr:    0.0000
     atom:   11    charge:    3.1196    magn:   -0.0000    constr:    0.0000
     atom:   12    charge:    2.0870    magn:    0.0000    constr:    0.0000
     atom:   13    charge:    3.1148    magn:   -0.0000    constr:    0.0000
     atom:   14    charge:    2.0911    magn:    0.0000    constr:    0.0000
     atom:   15    charge:    3.1195    magn:   -0.0000    constr:    0.0000
     atom:   16    charge:    2.0883    magn:    0.0000    constr:    0.0000
     atom:   17    charge:    2.0624    magn:    0.0001    constr:    0.0000
     atom:   18    charge:    3.1239    magn:   -0.0000    constr:    0.0000
     atom:   19    charge:    2.0878    magn:   -0.0000    constr:    0.0000
     atom:   20    charge:    2.0847    magn:   -0.0000    constr:    0.0000
     atom:   21    charge:    2.0847    magn:   -0.0000    constr:    0.0000
     atom:   22    charge:    3.1197    magn:   -0.0000    constr:    0.0000
     atom:   23    charge:    2.0908    magn:    0.0000    constr:    0.0000
     atom:   24    charge:    2.0777    magn:    0.0000    constr:    0.0000
     atom:   25    charge:    2.0869    magn:    0.0000    constr:    0.0000
     atom:   26    charge:    3.1165    magn:   -0.0000    constr:    0.0000
     atom:   27    charge:    2.0824    magn:    0.0000    constr:    0.0000
     atom:   28    charge:    2.0879    magn:    0.0000    constr:    0.0000
     atom:   29    charge:    2.0877    magn:    0.0000    constr:    0.0000
     atom:   30    charge:    3.1168    magn:   -0.0000    constr:    0.0000
     atom:   31    charge:    2.0816    magn:    0.0001    constr:    0.0000
     atom:   32    charge:    2.0843    magn:    0.0000    constr:    0.0000
     atom:   33    charge:    2.0624    magn:    0.0001    constr:    0.0000
     atom:   34    charge:    3.1239    magn:   -0.0000    constr:    0.0000
     atom:   35    charge:    2.0878    magn:   -0.0000    constr:    0.0000
     atom:   36    charge:    2.0847    magn:   -0.0000    constr:    0.0000
     atom:   37    charge:    2.0847    magn:   -0.0000    constr:    0.0000
     atom:   38    charge:    3.1197    magn:   -0.0000    constr:    0.0000
     atom:   39    charge:    2.0912    magn:    0.0000    constr:    0.0000
     atom:   40    charge:    2.0777    magn:    0.0000    constr:    0.0000
     atom:   41    charge:    2.0869    magn:    0.0000    constr:    0.0000
     atom:   42    charge:    3.1181    magn:   -0.0000    constr:    0.0000
     atom:   43    charge:    2.0838    magn:    0.0000    constr:    0.0000
     atom:   44    charge:    2.0865    magn:    0.0000    constr:    0.0000
     atom:   45    charge:    2.0871    magn:    0.0000    constr:    0.0000
     atom:   46    charge:    3.1171    magn:   -0.0000    constr:    0.0000
     atom:   47    charge:    2.0797    magn:    0.0001    constr:    0.0000
     atom:   48    charge:    2.0835    magn:    0.0000    constr:    0.0000
     atom:   49    charge:    2.0593    magn:    0.0000    constr:    0.0000
     atom:   50    charge:    1.2596    magn:   -0.0000    constr:    0.0000
     atom:   51    charge:    1.2917    magn:    0.0000    constr:    0.0000

     total cpu time spent up to now is     2499.8 secs

     total energy              =   -3044.96619425 Ry
     Harris-Foulkes estimate   =   -3044.96619407 Ry
     estimated scf accuracy    <       0.00000442 Ry

     total magnetization       =     0.00 Bohr mag/cell
     absolute magnetization    =     0.00 Bohr mag/cell

     iteration # 10     ecut=    40.42 Ry     beta=0.10
     Davidson diagonalization with overlap
     ethr =  1.10E-09,  avg # of iterations =  2.0

     negative rho (up, down):  1.158E-02 1.158E-02
 
     Magnetic moment per site:
     atom:    1    charge:    3.1250    magn:   -0.0000    constr:    0.0000
     atom:    2    charge:    2.0894    magn:    0.0000    constr:    0.0000
     atom:    3    charge:    3.1196    magn:   -0.0000    constr:    0.0000
     atom:    4    charge:    2.0870    magn:    0.0000    constr:    0.0000
     atom:    5    charge:    3.1170    magn:   -0.0000    constr:    0.0000
     atom:    6    charge:    2.0917    magn:    0.0000    constr:    0.0000
     atom:    7    charge:    3.1185    magn:   -0.0000    constr:    0.0000
     atom:    8    charge:    2.0816    magn:    0.0000    constr:    0.0000
     atom:    9    charge:    3.1250    magn:   -0.0000    constr:    0.0000
     atom:   10    charge:    2.0894    magn:    0.0000    constr:    0.0000
     atom:   11    charge:    3.1196    magn:   -0.0000    constr:    0.0000
     atom:   12    charge:    2.0870    magn:    0.0000    constr:    0.0000
     atom:   13    charge:    3.1148    magn:   -0.0000    constr:    0.0000
     atom:   14    charge:    2.0911    magn:    0.0000    constr:    0.0000
     atom:   15    charge:    3.1194    magn:   -0.0000    constr:    0.0000
     atom:   16    charge:    2.0883    magn:    0.0000    constr:    0.0000
     atom:   17    charge:    2.0624    magn:    0.0001    constr:    0.0000
     atom:   18    charge:    3.1239    magn:   -0.0000    constr:    0.0000
     atom:   19    charge:    2.0878    magn:   -0.0000    constr:    0.0000
     atom:   20    charge:    2.0847    magn:   -0.0000    constr:    0.0000
     atom:   21    charge:    2.0847    magn:   -0.0000    constr:    0.0000
     atom:   22    charge:    3.1197    magn:   -0.0000    constr:    0.0000
     atom:   23    charge:    2.0908    magn:    0.0000    constr:    0.0000
     atom:   24    charge:    2.0777    magn:    0.0000    constr:    0.0000
     atom:   25    charge:    2.0869    magn:    0.0000    constr:    0.0000
     atom:   26    charge:    3.1165    magn:   -0.0000    constr:    0.0000
     atom:   27    charge:    2.0824    magn:    0.0000    constr:    0.0000
     atom:   28    charge:    2.0879    magn:    0.0000    constr:    0.0000
     atom:   29    charge:    2.0877    magn:    0.0000    constr:    0.0000
     atom:   30    charge:    3.1168    magn:   -0.0000    constr:    0.0000
     atom:   31    charge:    2.0816    magn:    0.0000    constr:    0.0000
     atom:   32    charge:    2.0842    magn:    0.0000    constr:    0.0000
     atom:   33    charge:    2.0624    magn:    0.0001    constr:    0.0000
     atom:   34    charge:    3.1239    magn:   -0.0000    constr:    0.0000
     atom:   35    charge:    2.0878    magn:   -0.0000    constr:    0.0000
     atom:   36    charge:    2.0847    magn:   -0.0000    constr:    0.0000
     atom:   37    charge:    2.0847    magn:   -0.0000    constr:    0.0000
     atom:   38    charge:    3.1197    magn:   -0.0000    constr:    0.0000
     atom:   39    charge:    2.0912    magn:    0.0000    constr:    0.0000
     atom:   40    charge:    2.0777    magn:    0.0000    constr:    0.0000
     atom:   41    charge:    2.0869    magn:    0.0000    constr:    0.0000
     atom:   42    charge:    3.1181    magn:   -0.0000    constr:    0.0000
     atom:   43    charge:    2.0838    magn:    0.0000    constr:    0.0000
     atom:   44    charge:    2.0865    magn:    0.0000    constr:    0.0000
     atom:   45    charge:    2.0871    magn:    0.0000    constr:    0.0000
     atom:   46    charge:    3.1171    magn:   -0.0000    constr:    0.0000
     atom:   47    charge:    2.0797    magn:    0.0000    constr:    0.0000
     atom:   48    charge:    2.0834    magn:    0.0000    constr:    0.0000
     atom:   49    charge:    2.0594    magn:    0.0000    constr:    0.0000
     atom:   50    charge:    1.2597    magn:   -0.0000    constr:    0.0000
     atom:   51    charge:    1.2918    magn:    0.0000    constr:    0.0000

     total cpu time spent up to now is     2684.7 secs

     total energy              =   -3044.96619453 Ry
     Harris-Foulkes estimate   =   -3044.96619445 Ry
     estimated scf accuracy    <       0.00000199 Ry

     total magnetization       =     0.00 Bohr mag/cell
     absolute magnetization    =     0.00 Bohr mag/cell

     iteration # 11     ecut=    40.42 Ry     beta=0.10
     Davidson diagonalization with overlap
     ethr =  4.98E-10,  avg # of iterations =  2.0

     negative rho (up, down):  1.157E-02 1.157E-02
 
     Magnetic moment per site:
     atom:    1    charge:    3.1250    magn:   -0.0000    constr:    0.0000
     atom:    2    charge:    2.0894    magn:    0.0000    constr:    0.0000
     atom:    3    charge:    3.1196    magn:   -0.0000    constr:    0.0000
     atom:    4    charge:    2.0870    magn:    0.0000    constr:    0.0000
     atom:    5    charge:    3.1170    magn:   -0.0000    constr:    0.0000
     atom:    6    charge:    2.0917    magn:    0.0000    constr:    0.0000
     atom:    7    charge:    3.1185    magn:   -0.0000    constr:    0.0000
     atom:    8    charge:    2.0816    magn:    0.0000    constr:    0.0000
     atom:    9    charge:    3.1250    magn:   -0.0000    constr:    0.0000
     atom:   10    charge:    2.0894    magn:    0.0000    constr:    0.0000
     atom:   11    charge:    3.1196    magn:   -0.0000    constr:    0.0000
     atom:   12    charge:    2.0870    magn:    0.0000    constr:    0.0000
     atom:   13    charge:    3.1148    magn:   -0.0000    constr:    0.0000
     atom:   14    charge:    2.0911    magn:    0.0000    constr:    0.0000
     atom:   15    charge:    3.1195    magn:   -0.0000    constr:    0.0000
     atom:   16    charge:    2.0882    magn:    0.0000    constr:    0.0000
     atom:   17    charge:    2.0624    magn:    0.0000    constr:    0.0000
     atom:   18    charge:    3.1239    magn:   -0.0000    constr:    0.0000
     atom:   19    charge:    2.0878    magn:   -0.0000    constr:    0.0000
     atom:   20    charge:    2.0847    magn:   -0.0000    constr:    0.0000
     atom:   21    charge:    2.0847    magn:   -0.0000    constr:    0.0000
     atom:   22    charge:    3.1197    magn:   -0.0000    constr:    0.0000
     atom:   23    charge:    2.0909    magn:    0.0000    constr:    0.0000
     atom:   24    charge:    2.0777    magn:    0.0000    constr:    0.0000
     atom:   25    charge:    2.0869    magn:    0.0000    constr:    0.0000
     atom:   26    charge:    3.1165    magn:   -0.0000    constr:    0.0000
     atom:   27    charge:    2.0824    magn:    0.0000    constr:    0.0000
     atom:   28    charge:    2.0879    magn:    0.0000    constr:    0.0000
     atom:   29    charge:    2.0877    magn:    0.0000    constr:    0.0000
     atom:   30    charge:    3.1168    magn:   -0.0000    constr:    0.0000
     atom:   31    charge:    2.0816    magn:    0.0000    constr:    0.0000
     atom:   32    charge:    2.0843    magn:    0.0000    constr:    0.0000
     atom:   33    charge:    2.0624    magn:    0.0000    constr:    0.0000
     atom:   34    charge:    3.1239    magn:   -0.0000    constr:    0.0000
     atom:   35    charge:    2.0878    magn:   -0.0000    constr:    0.0000
     atom:   36    charge:    2.0847    magn:   -0.0000    constr:    0.0000
     atom:   37    charge:    2.0847    magn:   -0.0000    constr:    0.0000
     atom:   38    charge:    3.1197    magn:   -0.0000    constr:    0.0000
     atom:   39    charge:    2.0912    magn:    0.0000    constr:    0.0000
     atom:   40    charge:    2.0777    magn:    0.0000    constr:    0.0000
     atom:   41    charge:    2.0869    magn:    0.0000    constr:    0.0000
     atom:   42    charge:    3.1181    magn:   -0.0000    constr:    0.0000
     atom:   43    charge:    2.0838    magn:    0.0000    constr:    0.0000
     atom:   44    charge:    2.0865    magn:    0.0000    constr:    0.0000
     atom:   45    charge:    2.0871    magn:    0.0000    constr:    0.0000
     atom:   46    charge:    3.1171    magn:   -0.0000    constr:    0.0000
     atom:   47    charge:    2.0797    magn:    0.0000    constr:    0.0000
     atom:   48    charge:    2.0834    magn:    0.0000    constr:    0.0000
     atom:   49    charge:    2.0596    magn:    0.0000    constr:    0.0000
     atom:   50    charge:    1.2597    magn:   -0.0000    constr:    0.0000
     atom:   51    charge:    1.2919    magn:    0.0000    constr:    0.0000

     total cpu time spent up to now is     2873.4 secs

     End of self-consistent calculation

 ------ SPIN UP ------------


          k = 0.0000 0.0000 0.0000 ( 34665 PWs)   bands (ev):

   -57.8328 -57.7978 -57.5255 -57.4695 -57.4018 -57.3655 -57.2888 -57.2535
   -57.1916 -57.1563 -57.1297 -57.0944 -56.9004 -56.8273 -56.2944 -56.2592
   -34.2691 -34.1139 -34.0854 -34.0723 -34.0343 -33.9400 -33.8792 -33.8769
   -33.8402 -33.7823 -33.7466 -33.7367 -33.7321 -33.7000 -33.6828 -33.6805
   -33.6615 -33.6520 -33.6305 -33.5674 -33.5386 -33.4713 -33.4702 -33.4495
   -33.4425 -33.4404 -33.4038 -33.3954 -33.3892 -33.3715 -33.3671 -33.3468
   -33.3258 -33.3196 -33.2905 -33.2867 -33.2610 -33.1615 -33.1563 -33.0985
   -33.0548 -32.9544 -32.7132 -32.6456 -32.6196 -32.5171 -32.4254 -32.3171
   -24.5849 -21.1987 -18.1887 -17.9854 -17.7652 -17.6416 -17.5085 -17.5066
   -17.2237 -17.2013 -17.1591 -17.0647 -17.0639 -17.0194 -17.0086 -16.9336
   -16.8891 -16.8729 -16.8477 -16.8100 -16.7464 -16.7010 -16.5835 -16.5594
   -16.5347 -16.5128 -16.4325 -16.3218 -16.2877 -16.2570 -16.1230 -16.0937
   -14.8765 -14.7916  -9.7791  -7.6529  -7.6351  -5.9400  -5.5800  -5.5215
    -5.3723  -5.3647  -5.3061  -5.0115  -4.9492  -4.6006  -4.5950  -4.5606
    -4.5521  -4.5044  -4.3772  -4.2831  -4.2347  -4.2167  -4.1833  -4.1786
    -4.1750  -4.1666  -4.1010  -4.0957  -4.0202  -3.9953  -3.9668  -3.9268
    -3.8907  -3.8176  -3.7858  -3.7603  -3.7317  -3.6538  -3.6332  -3.5570
    -3.5554  -3.5305  -3.4663  -3.3443  -3.2132  -3.1785  -3.0758  -3.0145
    -2.9685  -2.8877  -2.8386  -2.8257  -2.7536  -2.7531  -2.7352  -2.6134
    -2.5752  -2.5179  -2.4494  -2.4122  -2.3822  -2.3670  -2.3389  -2.2947
    -2.2933  -2.2616  -2.2260  -2.2023  -2.1884  -2.0646  -2.0065  -1.9062
    -1.7666  -1.7594  -1.7364  -1.6942  -1.6653  -1.6533  -1.5754  -1.5543
    -1.4537  -1.4448  -1.4231  -1.4107  -1.4034  -1.2962  -1.2447  -1.2347
    -1.2160  -1.1451  -1.0847  -1.0290  -0.9294  -0.7542  -0.7238  -0.7205
    -0.6584  -0.5299  -0.3806  -0.2445  -0.1836  -0.0178   0.1091   0.1242
     1.5093   1.5380   1.8220   1.8576   1.8714   1.8896   2.0564   2.0773
     2.1110   2.2269   2.3469   2.3608   2.3977   2.4157   2.4528   2.4683
     2.5169   2.5523   2.6226   2.6518   2.6654   2.7398   2.7500   2.8040
     2.8559   2.8825   2.9759   2.9843   2.9856   3.0093   3.0533   3.0697
     3.0833   3.0874   3.0940   3.1296   3.2251   3.2884   3.2910   3.3382
     3.3661   3.3734   3.4054   3.5180   3.5231   3.6581   3.8666   3.9695
     4.0259   4.0336   4.0480   4.1667   4.2433   4.4500   4.5250   4.6443
     4.8946   4.9322   5.0002   5.1220   5.1963   5.3796   5.3852   5.4096
     5.4850   5.5719   5.6137   5.6265   5.7029   5.7200   5.7254   5.7614
     5.9122   5.9587   6.0017   6.0087   6.0860   6.1314   6.2037   6.2093
     6.4616   6.6183   6.7550   6.7766   6.8714   7.1542   7.2818   7.6948
     7.9695   7.9828   8.1590   8.4347   8.6958   8.9018   8.9099   8.9521
     9.2267   9.2672   9.2803   9.3600

          k = 0.0000 0.0280 0.0000 ( 34717 PWs)   bands (ev):

   -57.8304 -57.8002 -57.5240 -57.4710 -57.3995 -57.3679 -57.2865 -57.2559
   -57.1892 -57.1586 -57.1274 -57.0967 -56.8991 -56.8285 -56.2921 -56.2615
   -34.2437 -34.1119 -34.0872 -34.0465 -34.0281 -33.9465 -33.9062 -33.8518
   -33.8338 -33.7586 -33.7490 -33.7408 -33.7307 -33.7008 -33.6853 -33.6816
   -33.6575 -33.6280 -33.6240 -33.5604 -33.5476 -33.4964 -33.4681 -33.4592
   -33.4443 -33.4343 -33.4163 -33.3914 -33.3774 -33.3705 -33.3658 -33.3533
   -33.3251 -33.3246 -33.3160 -33.2884 -33.2867 -33.1610 -33.1533 -33.0991
   -33.0591 -32.9826 -32.6875 -32.6439 -32.6214 -32.5110 -32.4317 -32.3446
   -24.5849 -21.1986 -18.1271 -17.9274 -17.7123 -17.5883 -17.4877 -17.4597
   -17.2420 -17.2010 -17.1711 -17.1304 -17.0687 -17.0164 -17.0008 -16.9194
   -16.8997 -16.8575 -16.8412 -16.8094 -16.7771 -16.7585 -16.6075 -16.5443
   -16.5291 -16.5132 -16.4621 -16.3179 -16.3055 -16.2748 -16.1486 -16.1358
   -14.8863 -14.8149  -9.7789  -7.6544  -7.6349  -5.9390  -5.4919  -5.4372
    -5.2950  -5.2844  -5.2287  -4.8933  -4.8741  -4.6252  -4.5954  -4.5262
    -4.4997  -4.4661  -4.3297  -4.3029  -4.3003  -4.2497  -4.2431  -4.2084
    -4.1716  -4.1565  -4.1189  -4.1066  -4.0922  -4.0604  -4.0212  -3.9978
    -3.9396  -3.9318  -3.8724  -3.8134  -3.7480  -3.7328  -3.7133  -3.5786
    -3.4976  -3.4835  -3.3935  -3.3207  -3.1402  -3.0938  -3.0050  -2.9666
    -2.8494  -2.8221  -2.7668  -2.7603  -2.6837  -2.6525  -2.6457  -2.6290
    -2.5815  -2.5688  -2.5329  -2.4677  -2.4246  -2.3637  -2.3339  -2.2929
    -2.2511  -2.2363  -2.2183  -2.1403  -2.0658  -2.0323  -1.9514  -1.8881
    -1.8549  -1.8333  -1.8009  -1.7915  -1.7102  -1.6849  -1.6442  -1.6126
    -1.5692  -1.5085  -1.4814  -1.4194  -1.4011  -1.3706  -1.2886  -1.2486
    -1.2050  -1.1649  -1.0787  -1.0419  -0.9601  -0.9231  -0.8561  -0.7718
    -0.7420  -0.5446  -0.4219  -0.2390  -0.2332  -0.0070   0.0636   0.0886
     1.5948   1.6418   1.8518   1.8593   1.9136   1.9912   2.0347   2.1023
     2.1611   2.2551   2.3103   2.3657   2.3670   2.4296   2.4401   2.4736
     2.5080   2.5339   2.5793   2.6409   2.6966   2.7544   2.7707   2.7826
     2.8179   2.8659   2.9305   2.9445   2.9780   3.0085   3.0315   3.0623
     3.0821   3.0918   3.1777   3.1942   3.2451   3.3054   3.3472   3.4064
     3.4249   3.4666   3.4908   3.4978   3.5652   3.6252   3.8169   3.9282
     3.9943   4.0454   4.1183   4.1602   4.1752   4.3929   4.5830   4.7427
     4.9001   5.0098   5.0981   5.1868   5.2005   5.3953   5.4161   5.4704
     5.4810   5.5524   5.5861   5.6119   5.6572   5.6831   5.7215   5.8119
     5.8608   5.9202   5.9665   6.0066   6.0139   6.0273   6.1064   6.2842
     6.4422   6.5358   6.7161   6.7763   6.8000   7.0603   7.3695   7.5526
     7.7688   7.9752   8.1069   8.2863   8.4188   8.7362   9.0205   9.0627
     9.1125   9.3037   9.3697   9.4127

          k = 0.0000 0.0560 0.0000 ( 34721 PWs)   bands (ev):

   -57.8241 -57.8066 -57.5207 -57.4743 -57.3933 -57.3741 -57.2800 -57.2624
   -57.1829 -57.1651 -57.1210 -57.1032 -56.8966 -56.8312 -56.2857 -56.2680
   -34.1739 -34.1066 -34.0923 -34.0110 -33.9792 -33.9759 -33.9639 -33.8179
   -33.7867 -33.7769 -33.7646 -33.7280 -33.7186 -33.7047 -33.6864 -33.6825
   -33.6065 -33.5881 -33.5875 -33.5594 -33.5472 -33.5409 -33.4896 -33.4832
   -33.4628 -33.4491 -33.4180 -33.3919 -33.3870 -33.3710 -33.3682 -33.3640
   -33.3522 -33.3378 -33.3164 -33.3152 -33.2811 -33.1603 -33.1497 -33.1004
   -33.0726 -33.0500 -32.6391 -32.6262 -32.6167 -32.4945 -32.4485 -32.4188
   -24.5848 -21.1985 -17.9557 -17.7673 -17.5724 -17.4601 -17.4398 -17.4344
   -17.3316 -17.3020 -17.1929 -17.0957 -17.0883 -17.0561 -17.0332 -16.9936
   -16.8734 -16.8647 -16.8608 -16.8244 -16.7622 -16.7003 -16.6705 -16.6224
   -16.5429 -16.4844 -16.4568 -16.3428 -16.3319 -16.2947 -16.2605 -16.1980
   -14.9039 -14.8652  -9.7787  -7.6573  -7.6345  -5.9372  -5.2494  -5.2017
    -5.0879  -5.0548  -5.0201  -4.7491  -4.6749  -4.6392  -4.5645  -4.5531
    -4.5253  -4.5102  -4.4814  -4.4014  -4.3692  -4.3625  -4.3390  -4.3347
    -4.2685  -4.2303  -4.2112  -4.1609  -4.1472  -4.1038  -4.0790  -4.0279
    -3.9657  -3.9390  -3.8685  -3.7917  -3.7365  -3.6140  -3.5868  -3.4939
    -3.4307  -3.3990  -3.3777  -3.2793  -3.1871  -3.0340  -2.9874  -2.9760
    -2.9560  -2.8912  -2.8015  -2.7495  -2.6984  -2.6656  -2.6212  -2.4832
    -2.4651  -2.4608  -2.4281  -2.4065  -2.3509  -2.3187  -2.2953  -2.2858
    -2.2166  -2.1925  -2.1116  -2.0831  -2.0637  -2.0476  -2.0247  -2.0062
    -1.9543  -1.9150  -1.8790  -1.8107  -1.7318  -1.6958  -1.6820  -1.6686
    -1.6521  -1.5841  -1.5309  -1.5129  -1.4957  -1.4558  -1.3858  -1.3686
    -1.2915  -1.2515  -1.1781  -1.1563  -1.0759  -1.0112  -0.9387  -0.9060
    -0.8084  -0.7254  -0.6061  -0.4040  -0.0523   0.0037   0.0346   0.0378
     1.7316   1.8734   1.8941   1.9738   2.0014   2.0453   2.1242   2.1886
     2.2086   2.2465   2.2508   2.2654   2.2927   2.3452   2.3688   2.4995
     2.5110   2.5444   2.6364   2.6524   2.7244   2.7372   2.7547   2.7911
     2.7983   2.8208   2.8401   2.9291   2.9515   3.0008   3.0745   3.0831
     3.1033   3.1620   3.1863   3.2106   3.3153   3.3611   3.3989   3.4726
     3.5286   3.5460   3.6005   3.6558   3.6770   3.7106   3.7320   3.8349
     3.9710   3.9856   4.0006   4.0857   4.2280   4.3193   4.7075   4.8324
     5.0169   5.1554   5.2429   5.2890   5.3193   5.3877   5.4082   5.4660
     5.5116   5.5880   5.5991   5.6090   5.6315   5.6832   5.7154   5.7264
     5.7435   5.7831   5.8192   5.8854   5.9716   6.0139   6.1889   6.3004
     6.3674   6.4054   6.6333   6.6403   6.7980   6.9095   7.0251   7.2594
     7.6735   7.7322   7.9105   8.2753   8.4187   8.6094   8.8881   9.0385
     9.2833   9.3479   9.4492   9.5764

          k = 0.0000-0.0840 0.0000 ( 34678 PWs)   bands (ev):

   -57.8153 -57.8153 -57.5189 -57.4761 -57.3875 -57.3799 -57.2713 -57.2711
   -57.1753 -57.1726 -57.1131 -57.1111 -56.8952 -56.8325 -56.2769 -56.2768
   -34.0994 -34.0994 -34.0773 -34.0773 -33.9875 -33.9875 -33.8934 -33.8601
   -33.8011 -33.7829 -33.7305 -33.7231 -33.7079 -33.6899 -33.6829 -33.6715
   -33.5881 -33.5879 -33.5833 -33.5760 -33.5133 -33.5128 -33.4917 -33.4893
   -33.4684 -33.4605 -33.4559 -33.4556 -33.3956 -33.3933 -33.3668 -33.3637
   -33.3559 -33.3539 -33.3095 -33.3077 -33.2159 -33.1820 -33.1570 -33.1062
   -33.1002 -33.0693 -32.6326 -32.6326 -32.5187 -32.5187 -32.4715 -32.4715
   -24.5848 -21.1984 -17.7179 -17.7058 -17.5467 -17.5460 -17.4327 -17.4150
   -17.2601 -17.2551 -17.1910 -17.1903 -17.1565 -17.1533 -16.9748 -16.9747
   -16.9523 -16.9483 -16.7775 -16.7609 -16.7319 -16.7254 -16.6563 -16.6494
   -16.5657 -16.5174 -16.3896 -16.3880 -16.3449 -16.3435 -16.2657 -16.2650
   -14.9020 -14.9020  -9.7786  -7.6587  -7.6343  -5.9364  -4.9386  -4.9358
    -4.8682  -4.8681  -4.8172  -4.8036  -4.7762  -4.7699  -4.7304  -4.7160
    -4.5405  -4.5220  -4.5081  -4.5055  -4.4352  -4.4337  -4.4293  -4.4267
    -4.2719  -4.2332  -4.1705  -4.1695  -4.1563  -4.1339  -4.0231  -3.9661
    -3.9652  -3.9294  -3.8531  -3.8110  -3.6663  -3.6277  -3.4752  -3.4638
    -3.3095  -3.3018  -3.2342  -3.1669  -3.1424  -3.1181  -2.9802  -2.9655
    -2.9575  -2.8947  -2.8720  -2.8314  -2.7287  -2.7021  -2.6829  -2.6632
    -2.6372  -2.6301  -2.5869  -2.4723  -2.4691  -2.4416  -2.1740  -2.1362
    -2.1158  -2.0789  -2.0299  -1.9975  -1.9473  -1.9466  -1.9410  -1.8919
    -1.8822  -1.8792  -1.8610  -1.8047  -1.7902  -1.7271  -1.6429  -1.6421
    -1.6059  -1.5886  -1.5688  -1.5679  -1.5599  -1.5565  -1.5379  -1.4273
    -1.3896  -1.2795  -1.2649  -1.2356  -1.1411  -1.1348  -1.1119  -1.1057
    -0.6978  -0.6443  -0.6091  -0.6021   0.0034   0.0037   0.0406   0.0409
     1.8963   1.9003   1.9962   1.9987   2.0892   2.0894   2.0910   2.1124
     2.2115   2.2115   2.2142   2.2297   2.3277   2.3683   2.4196   2.4219
     2.5119   2.5166   2.5820   2.5827   2.7363   2.7447   2.7779   2.8103
     2.8180   2.8512   2.8899   2.9332   2.9613   2.9803   3.0434   3.0618
     3.0672   3.2064   3.2424   3.3116   3.3187   3.3202   3.3213   3.5521
     3.6030   3.6055   3.6739   3.6878   3.7156   3.7756   3.7772   3.8543
     3.9121   3.9144   3.9780   3.9785   4.1157   4.4042   4.7809   4.8060
     5.1394   5.1555   5.2749   5.3132   5.3725   5.3726   5.4803   5.5055
     5.5405   5.5578   5.5671   5.6281   5.6463   5.6913   5.6940   5.6960
     5.7399   5.8192   5.8284   5.8556   5.9911   5.9991   6.0287   6.0962
     6.4098   6.4156   6.5445   6.5859   6.8563   6.8647   6.9748   6.9920
     7.5002   7.5399   7.9500   8.1945   8.3462   8.6445   9.0392   9.1318
     9.3737   9.4300   9.6032   9.6506

          k = 0.0253 0.0000 0.0000 ( 34707 PWs)   bands (ev):

   -57.8328 -57.7978 -57.5255 -57.4695 -57.4018 -57.3655 -57.2888 -57.2535
   -57.1916 -57.1563 -57.1297 -57.0944 -56.9004 -56.8273 -56.2944 -56.2592
   -34.2694 -34.1139 -34.0854 -34.0723 -34.0336 -33.9400 -33.8793 -33.8776
   -33.8402 -33.7838 -33.7463 -33.7364 -33.7311 -33.7010 -33.6918 -33.6832
   -33.6616 -33.6381 -33.6287 -33.5618 -33.5391 -33.4714 -33.4701 -33.4492
   -33.4426 -33.4405 -33.4032 -33.3989 -33.3892 -33.3770 -33.3659 -33.3469
   -33.3257 -33.3195 -33.2907 -33.2867 -33.2611 -33.1626 -33.1564 -33.0985
   -33.0549 -32.9545 -32.7131 -32.6467 -32.6190 -32.5171 -32.4254 -32.3172
   -24.5849 -21.1986 -18.1605 -17.9439 -17.7249 -17.6038 -17.5079 -17.5032
   -17.2794 -17.2426 -17.1583 -17.0743 -17.0642 -17.0579 -17.0305 -16.9722
   -16.9266 -16.9105 -16.8307 -16.8000 -16.7161 -16.6202 -16.6183 -16.5354
   -16.5280 -16.5178 -16.4753 -16.3222 -16.2781 -16.2576 -16.1224 -16.0938
   -14.8753 -14.7915  -9.7784  -7.6532  -7.6349  -5.9395  -5.5504  -5.4051
    -5.2630  -5.2509  -5.1984  -5.0034  -4.9479  -4.7937  -4.5914  -4.5780
    -4.5289  -4.5053  -4.4568  -4.4479  -4.3454  -4.2111  -4.2004  -4.1831
    -4.1021  -4.0860  -4.0798  -3.9976  -3.9809  -3.9477  -3.8868  -3.8513
    -3.8459  -3.8227  -3.7853  -3.7413  -3.7134  -3.6315  -3.5911  -3.5011
    -3.4766  -3.4355  -3.3471  -3.2719  -3.2292  -3.1692  -3.1469  -3.0487
    -3.0309  -2.9314  -2.9045  -2.8283  -2.7711  -2.7344  -2.7142  -2.6871
    -2.6623  -2.6243  -2.5137  -2.5125  -2.4613  -2.3905  -2.3736  -2.3267
    -2.2664  -2.2311  -2.2282  -2.1501  -2.1097  -2.0440  -1.9529  -1.9110
    -1.8150  -1.7881  -1.7660  -1.7395  -1.7167  -1.6500  -1.6216  -1.5070
    -1.4971  -1.4883  -1.4450  -1.4240  -1.3771  -1.3535  -1.2858  -1.2668
    -1.2439  -1.1303  -1.1081  -1.0083  -0.9723  -0.9098  -0.8231  -0.7831
    -0.7024  -0.5740  -0.3751  -0.2729  -0.2132  -0.0320   0.0665   0.0675
     1.5263   1.5935   1.8706   1.8876   1.9818   1.9986   2.0451   2.1251
     2.2053   2.2355   2.3038   2.3140   2.3569   2.4081   2.4258   2.4404
     2.4553   2.5252   2.5395   2.5967   2.6613   2.6878   2.7892   2.8175
     2.8313   2.8879   2.9864   2.9924   3.0002   3.0655   3.0767   3.0869
     3.1384   3.1750   3.1963   3.2295   3.2831   3.3223   3.3705   3.3738
     3.3836   3.4215   3.4549   3.4859   3.5807   3.6039   3.7971   3.8965
     4.0279   4.0569   4.0816   4.1566   4.2282   4.4033   4.6309   4.6701
     4.7563   4.9161   4.9317   4.9794   5.0011   5.0526   5.2121   5.4862
     5.5581   5.6229   5.7173   5.7275   5.7859   5.8233   5.9345   5.9458
     5.9768   6.0265   6.0283   6.0612   6.1246   6.1396   6.2430   6.3069
     6.4759   6.6331   6.7359   6.7617   6.8754   7.1540   7.1686   7.3643
     7.9694   8.0412   8.1673   8.3438   8.4057   8.7465   8.8394   8.9257
     8.9540   9.2501   9.2866   9.4198

          k = 0.0253 0.0280 0.0000 ( 34687 PWs)   bands (ev):

   -57.8304 -57.8002 -57.5240 -57.4710 -57.3995 -57.3679 -57.2865 -57.2559
   -57.1893 -57.1586 -57.1274 -57.0967 -56.8991 -56.8285 -56.2921 -56.2615
   -34.2440 -34.1119 -34.0872 -34.0465 -34.0274 -33.9464 -33.9062 -33.8524
   -33.8339 -33.7599 -33.7491 -33.7406 -33.7295 -33.7012 -33.6884 -33.6852
[...]
    -2.6897  -2.6441  -2.6352  -2.6272  -2.5996  -2.5547  -2.5156  -2.4979
    -2.4972  -2.4383  -2.3980  -2.3874  -2.3456  -2.3142  -2.2745  -2.2734
    -2.2439  -2.1595  -2.1522  -2.1518  -2.0242  -1.9896  -1.8361  -1.8085
    -1.7480  -1.6992  -1.4460  -1.4028  -1.3335  -1.3325  -1.1805  -1.1647
    -1.1565  -1.1549  -1.1320  -1.0993  -1.0543  -0.9255  -0.9020  -0.7669
    -0.7574  -0.7410  -0.6761  -0.6754  -0.0721  -0.0721   0.0655   0.0658
     1.9753   1.9913   2.0338   2.0401   2.0640   2.0666   2.0767   2.0809
     2.3450   2.3585   2.3640   2.3756   2.4407   2.4465   2.5134   2.5291
     2.5502   2.5507   2.6080   2.7134   2.8202   2.8396   2.8415   2.8566
     2.8682   2.9438   3.0189   3.0938   3.1016   3.1528   3.1829   3.2465
     3.2719   3.3181   3.3237   3.3540   3.3852   3.3883   3.4301   3.4772
     3.5465   3.5825   3.7112   3.7153   3.7803   3.8030   3.8085   3.8086
     3.9399   3.9448   3.9644   3.9645   4.2782   4.5385   4.6507   4.6511
     4.7044   4.7264   4.7637   4.7733   4.7745   4.7961   5.0648   5.0957
     5.2179   5.2503   5.6085   5.6254   5.7995   5.8139   5.9278   6.0337
     6.1613   6.1970   6.2037   6.2354   6.4058   6.4626   6.4939   6.5223
     6.5238   6.5685   6.6995   6.7003   6.7582   6.7597   7.0398   7.1511
     7.6565   7.7103   7.8246   7.8256   8.0450   8.1068   8.3771   8.4085
     8.5468   8.6922   8.8987   9.1840

          k =-0.0253 0.0280 0.0000 ( 34687 PWs)   bands (ev):

   -57.8304 -57.8002 -57.5240 -57.4710 -57.3995 -57.3679 -57.2865 -57.2559
   -57.1893 -57.1587 -57.1274 -57.0968 -56.8992 -56.8286 -56.2922 -56.2617
   -34.2440 -34.1119 -34.0872 -34.0466 -34.0274 -33.9464 -33.9063 -33.8525
   -33.8339 -33.7599 -33.7491 -33.7407 -33.7295 -33.7012 -33.6885 -33.6852
   -33.6578 -33.6224 -33.6191 -33.5550 -33.5478 -33.4965 -33.4681 -33.4579
   -33.4444 -33.4345 -33.4172 -33.3946 -33.3771 -33.3749 -33.3653 -33.3533
   -33.3252 -33.3247 -33.3161 -33.2885 -33.2867 -33.1620 -33.1535 -33.0993
   -33.0592 -32.9827 -32.6875 -32.6449 -32.6210 -32.5112 -32.4318 -32.3448
   -24.5848 -21.1986 -18.1002 -17.8868 -17.6734 -17.5519 -17.4871 -17.4543
   -17.2638 -17.2446 -17.2167 -17.0943 -17.0727 -17.0545 -17.0024 -16.9633
   -16.9358 -16.8746 -16.8494 -16.8286 -16.7592 -16.6704 -16.6413 -16.5467
   -16.5188 -16.5104 -16.4919 -16.3176 -16.2963 -16.2753 -16.1482 -16.1361
   -14.8850 -14.8146  -9.7783  -7.6546  -7.6347  -5.9385  -5.4659  -5.3203
    -5.1831  -5.1714  -5.1203  -4.8882  -4.8727  -4.7410  -4.5812  -4.5325
    -4.4853  -4.4573  -4.4268  -4.3668  -4.3338  -4.2968  -4.2382  -4.2054
    -4.1687  -4.1331  -4.1013  -4.0829  -4.0429  -3.9831  -3.9715  -3.9408
    -3.9230  -3.8665  -3.8565  -3.7677  -3.7476  -3.6922  -3.6857  -3.4907
    -3.4649  -3.3988  -3.3466  -3.2906  -3.1737  -3.1175  -3.0810  -2.9463
    -2.8635  -2.8453  -2.8119  -2.7990  -2.7631  -2.6891  -2.6441  -2.6229
    -2.6042  -2.5851  -2.5596  -2.5304  -2.4694  -2.4184  -2.3610  -2.3396
    -2.2765  -2.2580  -2.2088  -2.1284  -2.0754  -2.0446  -2.0034  -1.9261
    -1.8898  -1.8671  -1.8049  -1.7749  -1.7512  -1.7300  -1.6749  -1.6370
    -1.5769  -1.5197  -1.4921  -1.4756  -1.4315  -1.3907  -1.3414  -1.2426
    -1.2221  -1.2124  -1.0666  -1.0056  -0.9841  -0.9227  -0.8978  -0.8769
    -0.7948  -0.5839  -0.4330  -0.2918  -0.2270  -0.0023   0.0397   0.0488
     1.5879   1.7146   1.8829   1.8925   2.0083   2.0266   2.1270   2.1629
     2.2256   2.2667   2.3032   2.3132   2.3699   2.3827   2.3993   2.4201
     2.4968   2.5322   2.5689   2.5987   2.6195   2.7407   2.7912   2.8053
     2.8380   2.8808   2.9648   2.9751   2.9835   2.9883   3.0436   3.0798
     3.1568   3.2181   3.2538   3.2607   3.2895   3.3257   3.3685   3.4319
     3.4523   3.5012   3.5079   3.5233   3.5697   3.6242   3.7528   3.8764
     4.0120   4.0359   4.0910   4.1586   4.2144   4.3526   4.6746   4.7536
     4.8105   4.9279   4.9731   5.0171   5.0283   5.1181   5.2673   5.5131
     5.5499   5.5896   5.6320   5.7139   5.7310   5.8091   5.8743   5.9149
     5.9446   5.9868   6.0142   6.0308   6.0403   6.0870   6.2867   6.3090
     6.4630   6.5435   6.7321   6.7638   6.8053   7.0510   7.2450   7.4640
     7.6394   8.0078   8.1530   8.2772   8.4132   8.5208   8.5964   8.8460
     9.0285   9.2881   9.4054   9.4682

          k =-0.0253 0.0560 0.0000 ( 34699 PWs)   bands (ev):

   -57.8241 -57.8066 -57.5208 -57.4743 -57.3934 -57.3741 -57.2800 -57.2624
   -57.1829 -57.1651 -57.1210 -57.1032 -56.8967 -56.8313 -56.2858 -56.2681
   -34.1742 -34.1066 -34.0923 -34.0105 -33.9793 -33.9760 -33.9637 -33.8180
   -33.7871 -33.7772 -33.7647 -33.7273 -33.7186 -33.7049 -33.6879 -33.6838
   -33.6052 -33.5883 -33.5881 -33.5559 -33.5470 -33.5366 -33.4904 -33.4801
   -33.4627 -33.4491 -33.4180 -33.3921 -33.3889 -33.3715 -33.3711 -33.3652
   -33.3524 -33.3384 -33.3164 -33.3152 -33.2811 -33.1610 -33.1499 -33.1008
   -33.0727 -33.0500 -32.6399 -32.6260 -32.6167 -32.4946 -32.4487 -32.4189
   -24.5848 -21.1984 -17.9331 -17.7301 -17.5397 -17.4544 -17.4315 -17.4102
   -17.3223 -17.3046 -17.1965 -17.1317 -17.1004 -17.0425 -17.0167 -17.0028
   -16.9091 -16.9013 -16.8599 -16.8167 -16.7807 -16.7446 -16.6944 -16.5970
   -16.5857 -16.4790 -16.4424 -16.3359 -16.3294 -16.2955 -16.2614 -16.1975
   -14.9030 -14.8651  -9.7780  -7.6574  -7.6343  -5.9368  -5.2348  -5.0858
    -4.9736  -4.9450  -4.9141  -4.7430  -4.6745  -4.6597  -4.5435  -4.5366
    -4.5135  -4.5061  -4.4065  -4.3658  -4.3578  -4.3287  -4.2959  -4.2797
    -4.2366  -4.2225  -4.2019  -4.1679  -4.0999  -4.0846  -4.0725  -4.0188
    -3.9820  -3.9265  -3.8571  -3.8171  -3.7351  -3.6402  -3.5550  -3.4780
    -3.4431  -3.4234  -3.3855  -3.2150  -3.1868  -3.0467  -3.0027  -2.9820
    -2.9531  -2.8843  -2.8117  -2.7776  -2.7233  -2.6829  -2.6465  -2.5934
    -2.5698  -2.5291  -2.4813  -2.4661  -2.4257  -2.4133  -2.3329  -2.2867
    -2.2694  -2.2429  -2.1865  -2.1480  -2.1022  -2.0907  -2.0259  -2.0117
    -1.9629  -1.9398  -1.8896  -1.8485  -1.8302  -1.7904  -1.7339  -1.7079
    -1.6746  -1.5993  -1.5758  -1.5025  -1.4822  -1.4368  -1.3962  -1.3539
    -1.2686  -1.2405  -1.1687  -1.1089  -1.0807  -0.9812  -0.9537  -0.8849
    -0.8300  -0.7451  -0.6116  -0.4158  -0.0508  -0.0101   0.0151   0.0381
     1.7278   1.9001   1.9189   2.0413   2.0456   2.0702   2.1569   2.1676
     2.2417   2.2577   2.2810   2.2958   2.3411   2.3861   2.4149   2.4954
     2.5479   2.5678   2.6367   2.6518   2.6696   2.7120   2.7714   2.7892
     2.7967   2.8163   2.8641   2.8733   2.9781   3.0498   3.1122   3.1326
     3.1889   3.2025   3.2340   3.2657   3.3158   3.3611   3.4154   3.4371
     3.5089   3.5671   3.6264   3.6545   3.6886   3.7243   3.7457   3.8080
     3.9249   3.9671   4.0034   4.1261   4.1978   4.3598   4.7657   4.8352
     4.9777   5.0156   5.0872   5.1049   5.1286   5.2149   5.3151   5.4206
     5.4452   5.5062   5.5836   5.6162   5.7070   5.7199   5.7823   5.8120
     5.8704   5.8968   5.9390   6.0031   6.0428   6.2157   6.2390   6.3631
     6.4044   6.4455   6.6418   6.6466   6.8409   6.9071   7.0679   7.2822
     7.5263   7.7648   7.8507   8.2376   8.3941   8.5634   8.6429   8.9120
     9.0216   9.0755   9.3322   9.3980

          k =-0.0506 0.0280 0.0000 ( 34685 PWs)   bands (ev):

   -57.8304 -57.8002 -57.5240 -57.4710 -57.3995 -57.3679 -57.2864 -57.2559
   -57.1893 -57.1587 -57.1275 -57.0968 -56.8993 -56.8287 -56.2922 -56.2617
   -34.2447 -34.1119 -34.0872 -34.0468 -34.0260 -33.9463 -33.9063 -33.8537
   -33.8339 -33.7625 -33.7493 -33.7404 -33.7285 -33.7027 -33.6955 -33.6852
   -33.6586 -33.6189 -33.6055 -33.5482 -33.5429 -33.4967 -33.4679 -33.4554
   -33.4444 -33.4347 -33.4202 -33.4011 -33.3842 -33.3764 -33.3638 -33.3533
   -33.3252 -33.3249 -33.3162 -33.2884 -33.2866 -33.1640 -33.1536 -33.0994
   -33.0592 -32.9827 -32.6874 -32.6468 -32.6201 -32.5112 -32.4318 -32.3448
   -24.5848 -21.1984 -18.0417 -17.7881 -17.5812 -17.4889 -17.4854 -17.4115
   -17.3499 -17.2676 -17.2535 -17.1216 -17.1005 -17.0751 -17.0716 -17.0110
   -16.9915 -16.9786 -16.8794 -16.7731 -16.7301 -16.6826 -16.5967 -16.5799
   -16.5367 -16.5033 -16.4707 -16.3164 -16.2850 -16.2763 -16.1481 -16.1371
   -14.8830 -14.8146  -9.7770  -7.6549  -7.6344  -5.9378  -5.4496  -5.0267
    -4.9548  -4.9435  -4.8748  -4.8506  -4.8318  -4.7889  -4.6511  -4.5917
    -4.5729  -4.5209  -4.4613  -4.3710  -4.3234  -4.2388  -4.1870  -4.1672
    -4.1464  -4.1370  -4.0647  -4.0209  -3.9881  -3.9608  -3.9204  -3.8941
    -3.8732  -3.8392  -3.7938  -3.7337  -3.7177  -3.5984  -3.4636  -3.4321
    -3.4030  -3.3444  -3.3155  -3.2665  -3.1983  -3.1152  -3.0718  -3.0143
    -2.9469  -2.9241  -2.8803  -2.8723  -2.8202  -2.7685  -2.7479  -2.6981
    -2.6568  -2.6315  -2.6003  -2.5506  -2.5131  -2.4920  -2.4492  -2.4190
    -2.3561  -2.3255  -2.2469  -2.2184  -2.1507  -2.1178  -2.1043  -2.0613
    -2.0134  -1.9475  -1.9181  -1.8868  -1.8599  -1.7911  -1.7048  -1.6483
    -1.6156  -1.5841  -1.5120  -1.4827  -1.4436  -1.4210  -1.3367  -1.2846
    -1.2008  -1.1573  -1.0510  -1.0323  -0.9668  -0.9367  -0.9014  -0.8692
    -0.8276  -0.6640  -0.4651  -0.4113  -0.2139  -0.0313  -0.0006   0.0129
     1.5724   1.7785   1.9084   1.9287   1.9462   2.0226   2.0553   2.1322
     2.2296   2.2456   2.2865   2.3474   2.3965   2.4392   2.4418   2.5073
     2.5230   2.5664   2.5935   2.6436   2.7383   2.7905   2.8137   2.8339
     2.8617   2.9128   2.9365   2.9997   3.0066   3.0546   3.1303   3.1555
     3.2168   3.2528   3.2887   3.3098   3.3680   3.4018   3.4315   3.4714
     3.4849   3.5214   3.5331   3.5986   3.6361   3.6768   3.7270   3.8097
     3.9141   4.0194   4.1339   4.1397   4.2719   4.3375   4.5129   4.6234
     4.6434   4.6705   4.8347   4.8879   4.9812   5.2987   5.3672   5.4625
     5.5056   5.5634   5.6411   5.6969   5.7225   5.7399   5.8740   5.9193
     5.9709   6.0109   6.2494   6.2663   6.3079   6.3600   6.4212   6.5067
     6.5318   6.6192   6.6761   6.7299   6.8155   6.9758   7.0182   7.4198
     7.6395   7.7249   7.8463   8.0735   8.3318   8.4890   8.5569   8.9144
     9.0958   9.1739   9.4029   9.4751

          k =-0.0506 0.0560 0.0000 ( 34596 PWs)   bands (ev):

   -57.8241 -57.8066 -57.5208 -57.4743 -57.3934 -57.3741 -57.2800 -57.2624
   -57.1829 -57.1651 -57.1210 -57.1033 -56.8967 -56.8313 -56.2858 -56.2681
   -34.1747 -34.1066 -34.0923 -34.0093 -33.9795 -33.9761 -33.9633 -33.8180
   -33.7877 -33.7776 -33.7647 -33.7261 -33.7185 -33.7053 -33.6902 -33.6862
   -33.6024 -33.5891 -33.5883 -33.5492 -33.5466 -33.5263 -33.4931 -33.4738
   -33.4626 -33.4491 -33.4181 -33.3929 -33.3918 -33.3789 -33.3711 -33.3672
   -33.3526 -33.3397 -33.3163 -33.3151 -33.2809 -33.1622 -33.1500 -33.1014
   -33.0727 -33.0499 -32.6410 -32.6256 -32.6166 -32.4946 -32.4487 -32.4188
   -24.5848 -21.1983 -17.8849 -17.6370 -17.4662 -17.4437 -17.4246 -17.3514
   -17.3102 -17.2817 -17.2080 -17.1734 -17.1054 -17.0841 -17.0193 -16.9957
   -16.9932 -16.9258 -16.9157 -16.8448 -16.8111 -16.7844 -16.7173 -16.6716
   -16.5667 -16.4687 -16.4234 -16.3265 -16.3236 -16.2981 -16.2634 -16.1971
   -14.9017 -14.8654  -9.7767  -7.6576  -7.6339  -5.9362  -5.2268  -4.7922
    -4.7426  -4.7341  -4.6956  -4.6596  -4.6495  -4.6122  -4.5097  -4.4892
    -4.4646  -4.4467  -4.3554  -4.3063  -4.2857  -4.2818  -4.2401  -4.2202
    -4.1935  -4.1830  -4.1684  -4.1398  -4.0880  -4.0510  -4.0405  -4.0106
    -3.9548  -3.8949  -3.8296  -3.7938  -3.6923  -3.6619  -3.5189  -3.4925
    -3.4764  -3.4078  -3.3902  -3.2151  -3.1235  -3.0875  -3.0391  -2.9958
    -2.9652  -2.9225  -2.9012  -2.8658  -2.8192  -2.7787  -2.7232  -2.7189
    -2.6492  -2.6308  -2.6043  -2.5283  -2.4980  -2.4812  -2.4632  -2.4403
    -2.4113  -2.3708  -2.2992  -2.2854  -2.2621  -2.2344  -2.1917  -2.1788
    -2.1053  -2.0639  -2.0352  -1.9952  -1.9480  -1.8649  -1.7988  -1.7814
    -1.7135  -1.6128  -1.5407  -1.4967  -1.4618  -1.3832  -1.3493  -1.2410
    -1.1843  -1.1464  -1.1031  -1.0457  -0.9990  -0.9343  -0.9213  -0.8421
    -0.8081  -0.7943  -0.6650  -0.4755  -0.0626  -0.0254  -0.0121   0.0439
     1.7306   1.9238   1.9478   2.0065   2.0639   2.1044   2.1125   2.1662
     2.2131   2.2619   2.3757   2.4130   2.4219   2.4465   2.4661   2.4912
     2.5857   2.6020   2.6362   2.6583   2.7094   2.7777   2.7974   2.8332
     2.8847   2.8955   2.9362   2.9673   3.0169   3.0559   3.1807   3.2103
     3.2343   3.2571   3.3102   3.3205   3.3634   3.3792   3.4073   3.4626
     3.5402   3.5993   3.6088   3.6877   3.7312   3.7624   3.7726   3.7879
     3.8266   3.9634   4.0155   4.1420   4.2007   4.4428   4.6367   4.6697
     4.7395   4.7426   4.8877   4.9910   5.0622   5.1332   5.2012   5.2257
     5.2976   5.4552   5.5613   5.6260   5.7050   5.7313   5.8232   5.9632
     6.0046   6.1067   6.1604   6.2027   6.2459   6.2963   6.4607   6.4805
     6.5440   6.5841   6.6586   6.6745   6.8369   6.9167   7.0731   7.3195
     7.3239   7.7629   7.8897   8.0269   8.1334   8.1850   8.6054   8.6999
     8.8959   9.0246   9.1511   9.3763

     the Fermi energy is     0.8571 ev

!    total energy              =   -3044.96619831 Ry
     Harris-Foulkes estimate   =   -3044.96619471 Ry
     estimated scf accuracy    <       0.00000030 Ry

     The total energy is the sum of the following terms:

     one-electron contribution =  -40844.64007487 Ry
     hartree contribution      =   20494.45648759 Ry
     xc contribution           =    -557.20173810 Ry
     ewald contribution        =   17862.41933340 Ry
     smearing contrib. (-TS)   =      -0.00020632 Ry

     total magnetization       =     0.00 Bohr mag/cell
     absolute magnetization    =     0.00 Bohr mag/cell

     convergence has been achieved in  11 iterations

     Forces acting on atoms (Ry/au):


     negative rho (up, down):  1.157E-02 1.157E-02
     atom    1 type  1   force =    -0.00008608    0.00031794   -0.13611385
     atom    2 type  2   force =     0.00012099   -0.00009885    0.07523484
     atom    3 type  1   force =     0.00127437    0.00109376   -0.05999600
     atom    4 type  2   force =     0.00665499   -0.00006826    0.00969667
     atom    5 type  1   force =    -0.00128457   -0.00013538   -0.00011043
     atom    6 type  2   force =    -0.00194668   -0.00366913   -0.00884066
     atom    7 type  1   force =     0.01215024    0.00904616   -0.01814874
     atom    8 type  2   force =     0.00034017   -0.00012977    0.00096684
     atom    9 type  1   force =     0.00015122    0.00034555   -0.13617028
     atom   10 type  2   force =     0.00017225   -0.00001697    0.07518798
     atom   11 type  1   force =     0.00126831   -0.00087364   -0.06014142
     atom   12 type  2   force =     0.00605696   -0.00012343    0.00850850
     atom   13 type  1   force =     0.00018997   -0.00014303   -0.00039885
     atom   14 type  2   force =    -0.00212364    0.00311152   -0.00889856
     atom   15 type  1   force =     0.01234348   -0.00889549   -0.01838761
     atom   16 type  2   force =     0.00797406    0.00009970    0.01213759
     atom   17 type  2   force =     0.00003520   -0.00002873    0.08011757
     atom   18 type  1   force =    -0.00005429    0.00022229    0.11900182
     atom   19 type  2   force =     0.00038609    0.00015397   -0.06803187
     atom   20 type  2   force =    -0.06266529    0.00005262   -0.03212092
     atom   21 type  2   force =     0.06272835    0.00014398   -0.03251674
     atom   22 type  1   force =    -0.00048541   -0.00013329    0.06421949
     atom   23 type  2   force =     0.00017931    0.00061792   -0.00254211
     atom   24 type  2   force =     0.00054201    0.00000492   -0.02239305
     atom   25 type  2   force =    -0.00642909   -0.00026183    0.00825287
     atom   26 type  1   force =    -0.00014192   -0.00005144    0.00233540
     atom   27 type  2   force =     0.00265464   -0.00155835   -0.00228958
     atom   28 type  2   force =     0.00000802   -0.00001039   -0.00149819
     atom   29 type  2   force =     0.00012789   -0.00004386   -0.00046277
     atom   30 type  1   force =     0.00591267    0.00036836   -0.00104826
     atom   31 type  2   force =    -0.00216162    0.00158057    0.00130057
     atom   32 type  2   force =     0.00162526   -0.00007621    0.00218270
     atom   33 type  2   force =     0.00005146    0.00012018    0.08019160
     atom   34 type  1   force =    -0.00007167    0.00024782    0.11899883
     atom   35 type  2   force =     0.00036155    0.00033898   -0.06797274
     atom   36 type  2   force =    -0.06268618    0.00009675   -0.03232209
     atom   37 type  2   force =     0.06284958    0.00017576   -0.03205195
     atom   38 type  1   force =    -0.00068935    0.00001768    0.06398779
     atom   39 type  2   force =     0.00021149   -0.00083431   -0.00252119
     atom   40 type  2   force =     0.00065094   -0.00225402   -0.02255315
     atom   41 type  2   force =    -0.00613741   -0.00030056    0.00763357
     atom   42 type  1   force =    -0.00011485   -0.00008999    0.00235277
     atom   43 type  2   force =     0.00272019    0.00149994   -0.00232790
     atom   44 type  2   force =     0.00034443   -0.00011859   -0.00072394
     atom   45 type  2   force =    -0.00017915   -0.00006556   -0.00088158
     atom   46 type  1   force =    -0.02058544    0.00041273   -0.00555730
     atom   47 type  2   force =    -0.00211000   -0.00140618    0.00137450
     atom   48 type  2   force =    -0.00229345   -0.00047711   -0.02579536
     atom   49 type  2   force =    -0.05231102    0.00117468    0.14831776
     atom   50 type  3   force =    -0.03466449    0.00172005   -0.02458894
     atom   51 type  3   force =     0.06913552   -0.00109948   -0.05459365

     Total force =     0.415571     Total SCF correction =     0.001568
 !ASE

     Writing output data file calc.save
 
     init_run     :     49.31s CPU     68.71s WALL (       1 calls)
     electrons    :   2335.42s CPU   2804.60s WALL (       1 calls)
     forces       :     40.28s CPU     42.22s WALL (       1 calls)

     Called by init_run:
     wfcinit      :     41.98s CPU     59.71s WALL (       1 calls)
     potinit      :      1.23s CPU      1.71s WALL (       1 calls)

     Called by electrons:
     c_bands      :   2029.40s CPU   2422.27s WALL (      11 calls)
     sum_band     :    256.98s CPU    326.54s WALL (      11 calls)
     v_of_rho     :     11.58s CPU     14.72s WALL (      12 calls)
     newd         :     40.72s CPU     45.02s WALL (      12 calls)
     mix_rho      :      0.41s CPU      0.59s WALL (      11 calls)
     vdW_energy   :      2.12s CPU      2.66s WALL (      13 calls)
     vdW_ffts     :      3.02s CPU      4.09s WALL (      26 calls)
     vdW_v        :      1.18s CPU      1.38s WALL (      13 calls)

     Called by c_bands:
     init_us_2    :      6.35s CPU      7.01s WALL (     960 calls)
     cegterg      :   1990.04s CPU   2379.96s WALL (     440 calls)

     Called by *egterg:
     h_psi        :    802.21s CPU   1108.74s WALL (    2422 calls)
     s_psi        :    101.96s CPU    106.73s WALL (    2422 calls)
     g_psi        :      5.32s CPU      5.42s WALL (    1942 calls)
     cdiaghg      :    702.00s CPU    718.45s WALL (    2382 calls)

     Called by h_psi:
     add_vuspsi   :    102.55s CPU    107.19s WALL (    2422 calls)

     General routines
     calbec       :    155.85s CPU    159.85s WALL (    2902 calls)
     fft          :      6.63s CPU      8.74s WALL (    1029 calls)
     ffts         :      0.06s CPU      0.08s WALL (      46 calls)
     fftw         :    515.96s CPU    874.90s WALL (  789110 calls)
     interpolate  :      0.37s CPU      0.60s WALL (      46 calls)
     davcio       :      0.11s CPU      4.41s WALL (      40 calls)
 
     Parallel routines
     fft_scatter  :    263.36s CPU    479.89s WALL (  790185 calls)
 
     PWSCF        : 40m25.96s CPU    48m41.70s WALL

 
   This run was terminated on:  10:32: 4  10Mar2018            

=------------------------------------------------------------------------------=
   JOB DONE.
=------------------------------------------------------------------------------=
