  python dir          : /home/vossj/suncat/lib/python2.7/site-packages/espresso
  espresso dir        : /home/vossj/suncat/esdld/espresso-dynpy-beef/bin
  pseudo dir          : /home/alatimer/bin/psp/esp_psp_w_gbrvRu/
  ase-espresso py git : ffa2778-git



     Program PWSCF v.5.1rc2 (svn rev. ) starts on 12Feb2018 at 16:20:47 

     This program is part of the open-source Quantum ESPRESSO suite
     for quantum simulation of materials; please cite
         "P. Giannozzi et al., J. Phys.:Condens. Matter 21 395502 (2009);
          URL http://www.quantum-espresso.org", 
     in publications or presentations arising from this work. More details at
     http://www.quantum-espresso.org/quote

     Parallel version (MPI), running on    16 processors
     R & G space division:  proc/nbgrp/npool/nimage =      16
     Reading input from pw.inp
     Message from routine read_cards :
     DEPRECATED: no units specified in CELL_PARAMETERS card

     Current dimensions of program PWSCF are:
     Max number of different atomic species (ntypx) = 10
     Max number of k-points (npk) =  40000
     Max angular momentum in pseudopotentials (lmaxx) =  3

     **************************************************************************
     Initializing libbeef V0.1.1 with the BEEF-vdW functional.
     Citation: Wellendorff et al., PRB 85, 235149 (2012).
     **************************************************************************


     IMPORTANT: XC functional enforced from input :
     Exchange-correlation      = BEEF ( 1  4 27 13 2)
     Any further DFT definition will be discarded
     Please, verify this is what you really want


     Subspace diagonalization in iterative solution of the eigenvalue problem:
     a serial algorithm will be used

 
     Parallelization info
     --------------------
     sticks:   dense  smooth     PW     G-vecs:    dense   smooth      PW
     Min         281     112     31                68535    17318    2565
     Max         282     113     32                68545    17369    2582
     Sum        4501    1795    503              1096637   277353   41113
 
     Generating pointlists ...
     new r_m :   0.4125 (alat units)  0.7795 (a.u.) for type    1
     new r_m :   0.4024 (alat units)  0.7604 (a.u.) for type    2
     new r_m :   0.4125 (alat units)  0.7795 (a.u.) for type    3
     new r_m :   0.4024 (alat units)  0.7604 (a.u.) for type    4


     bravais-lattice index     =            0
     lattice parameter (alat)  =       1.8897  a.u.
     unit-cell volume          =    7990.9933 (a.u.)^3
     number of atoms/cell      =           54
     number of atomic types    =            4
     number of electrons       =       398.00
     number of Kohn-Sham states=          299
     kinetic-energy cutoff     =      40.4243  Ry
     charge density cutoff     =     404.2426  Ry
     convergence threshold     =      7.3E-07
     mixing beta               =       0.1000
     number of iterations used =           10  plain     mixing
     Exchange-correlation      = BEEF ( 1  4 27 13 2)
     nstep                     =           50


     celldm(1)=   1.889726  celldm(2)=   0.000000  celldm(3)=   0.000000
     celldm(4)=   0.000000  celldm(5)=   0.000000  celldm(6)=   0.000000

     crystal axes: (cart. coord. in units of alat)
               a(1) = (   6.590708   0.000000   0.000000 )  
               a(2) = (   0.000000   5.950229   0.000000 )  
               a(3) = (   0.000000   0.000000  30.195235 )  

     reciprocal axes: (cart. coord. in units 2 pi/alat)
               b(1) = (  0.151729  0.000000  0.000000 )  
               b(2) = (  0.000000  0.168061  0.000000 )  
               b(3) = (  0.000000  0.000000  0.033118 )  


     PseudoPot. # 1 for Ti read from file:
     /home/alatimer/bin/psp/esp_psp_w_gbrvRu/Ti.UPF
     MD5 check sum: 8e4df49b7f0d34bbd5052bf3f5ea0213
     Pseudo is Ultrasoft, Zval = 12.0
     Generated by new atomic code, or converted to UPF format
     Using radial grid of  851 points,  6 beta functions with: 
                l(1) =   0
                l(2) =   0
                l(3) =   1
                l(4) =   1
                l(5) =   2
                l(6) =   2
     Q(r) pseudized with  8 coefficients,  rinner =    1.000   1.000   1.000
                                                       1.000   1.000

     PseudoPot. # 2 for  O read from file:
     /home/alatimer/bin/psp/esp_psp_w_gbrvRu/O.UPF
     MD5 check sum: e057bbcf3229fb5d8c36c0c92f9568b4
     Pseudo is Ultrasoft + core correction, Zval =  6.0
     Generated using "atomic" code by A. Dal Corso  v.5.0.2 svn rev. 9415
     Using radial grid of 1095 points,  4 beta functions with: 
                l(1) =   0
                l(2) =   0
                l(3) =   1
                l(4) =   1
     Q(r) pseudized with 0 coefficients 


     PseudoPot. # 3 for  C read from file:
     /home/alatimer/bin/psp/esp_psp_w_gbrvRu/C.UPF
     MD5 check sum: ab446d787031eba755f1d5ee46644bb0
     Pseudo is Ultrasoft + core correction, Zval =  4.0
     Generated using "atomic" code by A. Dal Corso  v.5.0.2 svn rev. 9415
     Using radial grid of 1073 points,  4 beta functions with: 
                l(1) =   0
                l(2) =   0
                l(3) =   1
                l(4) =   1
     Q(r) pseudized with 0 coefficients 


     PseudoPot. # 4 for  H read from file:
     /home/alatimer/bin/psp/esp_psp_w_gbrvRu/H.UPF
     MD5 check sum: bd57da0722753ddfd9833a65b40bb853
     Pseudo is Ultrasoft, Zval =  1.0
     Generated using "atomic" code by A. Dal Corso  v.5.0.2 svn rev. 9415
     Using radial grid of  929 points,  2 beta functions with: 
                l(1) =   0
                l(2) =   0
     Q(r) pseudized with 0 coefficients 


     vdW kernel table read from file vdW_kernel_table
     MD5 check sum: 095c7af220d748ca6e76c0b4c6cfb241

     atomic species   valence    mass     pseudopotential
        Ti1           12.00    47.88000     Ti( 1.00)
        O1             6.00    15.99940      O( 1.00)
        C1             4.00    12.01100      C( 1.00)
        H1             1.00     1.00794      H( 1.00)

     Starting magnetic structure 
     atomic species   magnetization
        Ti1          0.250
        O1           0.500
        C1           0.750
        H1           0.000

     No symmetry found



   Cartesian axes

     site n.     atom                  positions (alat units)
         1           Ti1 tau(   1) = (   1.6476770   0.7437786   2.6545865  )
         2           O1  tau(   2) = (   1.6476770   2.2313359   3.9361215  )
         3           Ti1 tau(   3) = (   1.6476770   2.2313359   5.9499405  )
         4           O1  tau(   4) = (   0.3661420   0.7437786   5.9499405  )
         5           Ti1 tau(   5) = (   1.7592931   0.7557636   9.1813031  )
         6           O1  tau(   6) = (   1.6162490   2.2572048  10.5951269  )
         7           Ti1 tau(   7) = (   1.5595004   2.2680265  12.4668274  )
         8           O1  tau(   8) = (   0.3709531   0.7738127  12.6996540  )
         9           Ti1 tau(   9) = (   1.6476770   3.7188931   2.6545865  )
        10           O1  tau(  10) = (   1.6476770   5.2064503   3.9361215  )
        11           Ti1 tau(  11) = (   1.6476770   5.2064503   5.9499405  )
        12           O1  tau(  12) = (   0.3661420   3.7188931   5.9499405  )
        13           Ti1 tau(  13) = (   1.7607536   3.7112867   9.1949733  )
        14           O1  tau(  14) = (   1.6133076   5.2250699  10.5465640  )
        15           Ti1 tau(  15) = (   1.6492307   5.2431137  12.3448001  )
        16           O1  tau(  16) = (   0.3719744   3.7598389  12.7007434  )
        17           O1  tau(  17) = (   1.6476770   2.2313359   1.3730516  )
        18           Ti1 tau(  18) = (   4.9430310   2.2313359   2.6545865  )
        19           O1  tau(  19) = (   4.9430310   2.2313359   4.6684056  )
        20           O1  tau(  20) = (   6.2245660   0.7437786   2.6545865  )
        21           O1  tau(  21) = (   3.6614961   0.7437786   2.6545865  )
        22           Ti1 tau(  22) = (   4.9430310   0.7437786   5.9499405  )
        23           O1  tau(  23) = (   1.6387103   2.2391978   8.0037664  )
        24           O1  tau(  24) = (   4.9430310   2.2313359   7.2314755  )
        25           O1  tau(  25) = (   2.9292120   0.7437786   5.9499405  )
        26           Ti1 tau(  26) = (   5.0158092   2.2383949   9.3973727  )
        27           O1  tau(  27) = (   4.9391445   2.2276729  11.2675731  )
        28           O1  tau(  28) = (   6.2094020   0.7514556   9.2742047  )
        29           O1  tau(  29) = (   3.6131301   0.7515640   9.2682932  )
        30           Ti1 tau(  30) = (   4.8940083   0.8207741  12.7348365  )
        31           O1  tau(  31) = (   4.8487174   2.2703822  13.8475395  )
        32           O1  tau(  32) = (   2.8766274   0.7418004  12.6316555  )
        33           O1  tau(  33) = (   1.6476770   5.2064503   1.3730516  )
        34           Ti1 tau(  34) = (   4.9430310   5.2064503   2.6545865  )
        35           O1  tau(  35) = (   4.9430310   5.2064503   4.6684056  )
        36           O1  tau(  36) = (   6.2245660   3.7188931   2.6545865  )
        37           O1  tau(  37) = (   3.6614961   3.7188931   2.6545865  )
        38           Ti1 tau(  38) = (   4.9430310   3.7188931   5.9499405  )
        39           O1  tau(  39) = (   1.6418458   5.2133935   8.0066417  )
        40           O1  tau(  40) = (   4.9430310   5.2064503   7.2314755  )
        41           O1  tau(  41) = (   2.9292120   3.7188931   5.9499405  )
        42           Ti1 tau(  42) = (   5.0218241   5.2139137   9.3870600  )
        43           O1  tau(  43) = (   4.9399496   5.2040061  11.2598200  )
        44           O1  tau(  44) = (   6.2073000   3.7245411   9.2731052  )
        45           O1  tau(  45) = (   3.6137513   3.7232133   9.2682466  )
        46           Ti1 tau(  46) = (   4.8936935   3.8094630  12.7397413  )
        47           O1  tau(  47) = (   4.9051259   5.2510468  13.8339921  )
        48           O1  tau(  48) = (   2.8743370   3.7938830  12.6403791  )
        49           C1  tau(  49) = (   1.0587210   2.2268971  15.9066084  )
        50           O1  tau(  50) = (   1.8917182   2.2355032  14.7078010  )
        51           H1  tau(  51) = (   0.0310076   2.2200215  15.5603933  )
        52           H1  tau(  52) = (   2.8355400   2.2288152  14.9543747  )
        53           H1  tau(  53) = (   1.2478062   1.3326534  16.5039879  )
        54           H1  tau(  54) = (   1.2341453   3.1195140  16.5098874  )

     number of k points=    40  Fermi-Dirac smearing, width (Ry)=  0.0073
                       cart. coord. in units 2pi/alat
        k(    1) = (   0.0000000   0.0000000   0.0000000), wk =   0.0277778
        k(    2) = (   0.0000000   0.0280101   0.0000000), wk =   0.0555556
        k(    3) = (   0.0000000   0.0560203   0.0000000), wk =   0.0555556
        k(    4) = (   0.0000000  -0.0840304   0.0000000), wk =   0.0277778
        k(    5) = (   0.0252881   0.0000000   0.0000000), wk =   0.0555556
        k(    6) = (   0.0252881   0.0280101   0.0000000), wk =   0.0555556
        k(    7) = (   0.0252881   0.0560203   0.0000000), wk =   0.0555556
        k(    8) = (   0.0252881  -0.0840304   0.0000000), wk =   0.0555556
        k(    9) = (   0.0505763   0.0000000   0.0000000), wk =   0.0555556
        k(   10) = (   0.0505763   0.0280101   0.0000000), wk =   0.0555556
        k(   11) = (   0.0505763   0.0560203   0.0000000), wk =   0.0555556
        k(   12) = (   0.0505763  -0.0840304   0.0000000), wk =   0.0555556
        k(   13) = (  -0.0758644   0.0000000   0.0000000), wk =   0.0277778
        k(   14) = (  -0.0758644   0.0280101   0.0000000), wk =   0.0555556
        k(   15) = (  -0.0758644   0.0560203   0.0000000), wk =   0.0555556
        k(   16) = (  -0.0758644  -0.0840304   0.0000000), wk =   0.0277778
        k(   17) = (  -0.0252881   0.0280101   0.0000000), wk =   0.0555556
        k(   18) = (  -0.0252881   0.0560203   0.0000000), wk =   0.0555556
        k(   19) = (  -0.0505763   0.0280101   0.0000000), wk =   0.0555556
        k(   20) = (  -0.0505763   0.0560203   0.0000000), wk =   0.0555556
        k(   21) = (   0.0000000   0.0000000   0.0000000), wk =   0.0277778
        k(   22) = (   0.0000000   0.0280101   0.0000000), wk =   0.0555556
        k(   23) = (   0.0000000   0.0560203   0.0000000), wk =   0.0555556
        k(   24) = (   0.0000000  -0.0840304   0.0000000), wk =   0.0277778
        k(   25) = (   0.0252881   0.0000000   0.0000000), wk =   0.0555556
        k(   26) = (   0.0252881   0.0280101   0.0000000), wk =   0.0555556
        k(   27) = (   0.0252881   0.0560203   0.0000000), wk =   0.0555556
        k(   28) = (   0.0252881  -0.0840304   0.0000000), wk =   0.0555556
        k(   29) = (   0.0505763   0.0000000   0.0000000), wk =   0.0555556
        k(   30) = (   0.0505763   0.0280101   0.0000000), wk =   0.0555556
        k(   31) = (   0.0505763   0.0560203   0.0000000), wk =   0.0555556
        k(   32) = (   0.0505763  -0.0840304   0.0000000), wk =   0.0555556
        k(   33) = (  -0.0758644   0.0000000   0.0000000), wk =   0.0277778
        k(   34) = (  -0.0758644   0.0280101   0.0000000), wk =   0.0555556
        k(   35) = (  -0.0758644   0.0560203   0.0000000), wk =   0.0555556
        k(   36) = (  -0.0758644  -0.0840304   0.0000000), wk =   0.0277778
        k(   37) = (  -0.0252881   0.0280101   0.0000000), wk =   0.0555556
        k(   38) = (  -0.0252881   0.0560203   0.0000000), wk =   0.0555556
        k(   39) = (  -0.0505763   0.0280101   0.0000000), wk =   0.0555556
        k(   40) = (  -0.0505763   0.0560203   0.0000000), wk =   0.0555556

     Dense  grid:  1096637 G-vectors     FFT dimensions: (  80,  72, 375)

     Smooth grid:   277353 G-vectors     FFT dimensions: (  54,  45, 240)

     Largest allocated arrays     est. size (Mb)     dimensions
        Kohn-Sham Wavefunctions         9.95 Mb     (    2180,  299)
        NL pseudopotentials            18.89 Mb     (    2180,  568)
        Each V/rho on FFT grid          4.22 Mb     (  138240,   2)
        Each G-vector array             0.52 Mb     (   68538)
        G-vector shells                 0.25 Mb     (   33046)
     Largest temporary arrays     est. size (Mb)     dimensions
        Auxiliary wavefunctions        39.78 Mb     (    2180, 1196)
        Each subspace H/S matrix       21.83 Mb     (    1196, 1196)
        Each <psi_i|beta_j> matrix      2.59 Mb     (     568,  299)
        Arrays for rho mixing          21.09 Mb     (  138240,   10)

     Check: negative/imaginary core charge=   -0.000049    0.000000

     The initial density is read from file :
     ./calc.save/charge-density.dat


     negative rho (up, down):  1.209E-02 1.209E-02


     ************************************************************************
     *
     * You are using vdW-DF for exchange-correlation in this calculation.
     * Please cite the following three references that made this development
     * possible:
     *
     *   M. Dion, H. Rydberg, E. Schroder, D. C. Langreth, and
     *   B. I. Lundqvist, Phys. Rev. Lett. 92, 246401 (2004).
     *
     *   T. Thonhauser, V. R. Cooper, S. Li, A. Puzder, P. Hyldgaard, and
     *   D. C. Langreth, Phys. Rev. B 76, 125112 (2007).
     *
     *   G. Roman-Perez and J. M. Soler, Phys. Rev. Lett. 103, 096102 (2009).
     *
     *
     * If you are using vdW-DF2, please also cite:
     *
     *   K. Lee, E. D. Murray, L. Kong, B. I. Lundqvist, and
     *   D. C. Langreth, Phys. Rev. B 82, 081101(R) (2010).
     *
     *
     * If you are calculating the stress with vdW-DF, please also cite:
     *
     *   R. Sabatini, E. Kucukbenli, B. Kolb, T. Thonhauser, and
     *   S. de Gironcoli, J. Phys.: Condens. Matter 24, 424209 (2012).
     *
     ************************************************************************

     Carrying out vdW-DF run using the following parameters:

     Nqs =      20    Nr_points =    1024   r_max =   100.000
     q_mesh =
               0.00001000     0.04494208     0.09755937     0.15916263
               0.23128650     0.31572767     0.41458969     0.53033537
               0.66584808     0.82450364     1.01025438     1.22772762
               1.48234092     1.78043706     2.12944203     2.53805004
               3.01644009     3.57652955     4.23227104     5.00000000

     Gradients computed in reciprocal space

     ************************************************************************


     Starting wfc are  300 randomized atomic wfcs

     total cpu time spent up to now is       70.9 secs

     Self-consistent Calculation

     iteration #  1     ecut=    40.42 Ry     beta=0.10
     Davidson diagonalization with overlap
     c_bands:  1 eigenvalues not converged
     c_bands:  1 eigenvalues not converged
     ethr =  1.00E-05,  avg # of iterations = 15.2

     negative rho (up, down):  1.209E-02 1.209E-02
 
     Magnetic moment per site:
     atom:    1    charge:    3.1251    magn:   -0.0002    constr:    0.0000
     atom:    2    charge:    1.9766    magn:    0.0000    constr:    0.0000
     atom:    3    charge:    3.1199    magn:    0.0000    constr:    0.0000
     atom:    4    charge:    1.9813    magn:   -0.0001    constr:    0.0000
     atom:    5    charge:    3.1167    magn:    0.0000    constr:    0.0000
     atom:    6    charge:    1.9785    magn:   -0.0001    constr:    0.0000
     atom:    7    charge:    3.1183    magn:    0.0001    constr:    0.0000
     atom:    8    charge:    1.9762    magn:   -0.0001    constr:    0.0000
     atom:    9    charge:    3.1251    magn:   -0.0002    constr:    0.0000
     atom:   10    charge:    1.9767    magn:    0.0000    constr:    0.0000
     atom:   11    charge:    3.1198    magn:    0.0000    constr:    0.0000
     atom:   12    charge:    1.9813    magn:   -0.0001    constr:    0.0000
     atom:   13    charge:    3.1159    magn:    0.0000    constr:    0.0000
     atom:   14    charge:    1.9893    magn:   -0.0001    constr:    0.0000
     atom:   15    charge:    3.1186    magn:    0.0001    constr:    0.0000
     atom:   16    charge:    1.9763    magn:   -0.0001    constr:    0.0000
     atom:   17    charge:    1.9501    magn:    0.0005    constr:    0.0000
     atom:   18    charge:    3.1238    magn:   -0.0001    constr:    0.0000
     atom:   19    charge:    1.9740    magn:   -0.0000    constr:    0.0000
     atom:   20    charge:    1.9784    magn:    0.0000    constr:    0.0000
     atom:   21    charge:    1.9784    magn:    0.0000    constr:    0.0000
     atom:   22    charge:    3.1196    magn:    0.0000    constr:    0.0000
     atom:   23    charge:    1.9874    magn:   -0.0001    constr:    0.0000
     atom:   24    charge:    1.9695    magn:   -0.0001    constr:    0.0000
     atom:   25    charge:    1.9814    magn:   -0.0001    constr:    0.0000
     atom:   26    charge:    3.1145    magn:    0.0001    constr:    0.0000
     atom:   27    charge:    1.9724    magn:   -0.0001    constr:    0.0000
     atom:   28    charge:    1.9827    magn:   -0.0001    constr:    0.0000
     atom:   29    charge:    1.9789    magn:   -0.0001    constr:    0.0000
     atom:   30    charge:    3.1169    magn:    0.0000    constr:    0.0000
     atom:   31    charge:    1.9748    magn:   -0.0000    constr:    0.0000
     atom:   32    charge:    1.9764    magn:   -0.0001    constr:    0.0000
     atom:   33    charge:    1.9501    magn:    0.0005    constr:    0.0000
     atom:   34    charge:    3.1238    magn:   -0.0001    constr:    0.0000
     atom:   35    charge:    1.9740    magn:   -0.0000    constr:    0.0000
     atom:   36    charge:    1.9784    magn:    0.0000    constr:    0.0000
     atom:   37    charge:    1.9784    magn:    0.0000    constr:    0.0000
     atom:   38    charge:    3.1196    magn:    0.0000    constr:    0.0000
     atom:   39    charge:    1.9857    magn:   -0.0001    constr:    0.0000
     atom:   40    charge:    1.9699    magn:   -0.0001    constr:    0.0000
     atom:   41    charge:    1.9814    magn:   -0.0001    constr:    0.0000
     atom:   42    charge:    3.1141    magn:    0.0001    constr:    0.0000
     atom:   43    charge:    1.9727    magn:   -0.0001    constr:    0.0000
     atom:   44    charge:    1.9828    magn:   -0.0001    constr:    0.0000
     atom:   45    charge:    1.9786    magn:   -0.0001    constr:    0.0000
     atom:   46    charge:    3.1168    magn:    0.0000    constr:    0.0000
     atom:   47    charge:    1.9718    magn:   -0.0000    constr:    0.0000
     atom:   48    charge:    1.9767    magn:   -0.0001    constr:    0.0000
     atom:   49    charge:    0.6554    magn:   -0.0001    constr:    0.0000
     atom:   50    charge:    1.9915    magn:   -0.0001    constr:    0.0000
     atom:   51    charge:    0.4090    magn:    0.0000    constr:    0.0000
     atom:   52    charge:    0.4064    magn:    0.0000    constr:    0.0000
     atom:   53    charge:    0.4097    magn:    0.0000    constr:    0.0000
     atom:   54    charge:    0.4102    magn:    0.0000    constr:    0.0000

     total cpu time spent up to now is      841.5 secs

     total energy              =   -3021.44804718 Ry
     Harris-Foulkes estimate   =   -3021.46613184 Ry
     estimated scf accuracy    <       0.11467769 Ry

     total magnetization       =     0.00 Bohr mag/cell
     absolute magnetization    =     0.01 Bohr mag/cell

     iteration #  2     ecut=    40.42 Ry     beta=0.10
     Davidson diagonalization with overlap
     ethr =  2.88E-05,  avg # of iterations =  2.3

     negative rho (up, down):  1.210E-02 1.210E-02
 
     Magnetic moment per site:
     atom:    1    charge:    3.1250    magn:   -0.0002    constr:    0.0000
     atom:    2    charge:    1.9767    magn:    0.0000    constr:    0.0000
     atom:    3    charge:    3.1198    magn:    0.0000    constr:    0.0000
     atom:    4    charge:    1.9813    magn:   -0.0000    constr:    0.0000
     atom:    5    charge:    3.1166    magn:    0.0000    constr:    0.0000
     atom:    6    charge:    1.9784    magn:   -0.0001    constr:    0.0000
     atom:    7    charge:    3.1195    magn:    0.0001    constr:    0.0000
     atom:    8    charge:    1.9766    magn:   -0.0001    constr:    0.0000
     atom:    9    charge:    3.1250    magn:   -0.0002    constr:    0.0000
     atom:   10    charge:    1.9767    magn:    0.0000    constr:    0.0000
     atom:   11    charge:    3.1197    magn:    0.0000    constr:    0.0000
     atom:   12    charge:    1.9813    magn:   -0.0000    constr:    0.0000
     atom:   13    charge:    3.1159    magn:    0.0000    constr:    0.0000
     atom:   14    charge:    1.9892    magn:   -0.0001    constr:    0.0000
     atom:   15    charge:    3.1187    magn:    0.0001    constr:    0.0000
     atom:   16    charge:    1.9766    magn:   -0.0001    constr:    0.0000
     atom:   17    charge:    1.9504    magn:    0.0004    constr:    0.0000
     atom:   18    charge:    3.1239    magn:   -0.0001    constr:    0.0000
     atom:   19    charge:    1.9740    magn:   -0.0000    constr:    0.0000
     atom:   20    charge:    1.9783    magn:    0.0000    constr:    0.0000
     atom:   21    charge:    1.9783    magn:    0.0000    constr:    0.0000
     atom:   22    charge:    3.1196    magn:    0.0000    constr:    0.0000
     atom:   23    charge:    1.9875    magn:   -0.0001    constr:    0.0000
     atom:   24    charge:    1.9694    magn:   -0.0001    constr:    0.0000
     atom:   25    charge:    1.9814    magn:   -0.0000    constr:    0.0000
     atom:   26    charge:    3.1145    magn:    0.0000    constr:    0.0000
     atom:   27    charge:    1.9723    magn:   -0.0001    constr:    0.0000
     atom:   28    charge:    1.9827    magn:   -0.0001    constr:    0.0000
     atom:   29    charge:    1.9789    magn:   -0.0001    constr:    0.0000
     atom:   30    charge:    3.1169    magn:    0.0000    constr:    0.0000
     atom:   31    charge:    1.9746    magn:   -0.0000    constr:    0.0000
     atom:   32    charge:    1.9768    magn:   -0.0001    constr:    0.0000
     atom:   33    charge:    1.9504    magn:    0.0004    constr:    0.0000
     atom:   34    charge:    3.1239    magn:   -0.0001    constr:    0.0000
     atom:   35    charge:    1.9740    magn:   -0.0000    constr:    0.0000
     atom:   36    charge:    1.9783    magn:    0.0000    constr:    0.0000
     atom:   37    charge:    1.9783    magn:    0.0000    constr:    0.0000
     atom:   38    charge:    3.1196    magn:    0.0000    constr:    0.0000
     atom:   39    charge:    1.9858    magn:   -0.0001    constr:    0.0000
     atom:   40    charge:    1.9698    magn:   -0.0001    constr:    0.0000
     atom:   41    charge:    1.9814    magn:   -0.0000    constr:    0.0000
     atom:   42    charge:    3.1141    magn:    0.0000    constr:    0.0000
     atom:   43    charge:    1.9728    magn:   -0.0001    constr:    0.0000
     atom:   44    charge:    1.9828    magn:   -0.0001    constr:    0.0000
     atom:   45    charge:    1.9786    magn:   -0.0001    constr:    0.0000
     atom:   46    charge:    3.1166    magn:    0.0000    constr:    0.0000
     atom:   47    charge:    1.9718    magn:   -0.0000    constr:    0.0000
     atom:   48    charge:    1.9770    magn:   -0.0001    constr:    0.0000
     atom:   49    charge:    0.6504    magn:   -0.0000    constr:    0.0000
     atom:   50    charge:    1.9926    magn:   -0.0001    constr:    0.0000
     atom:   51    charge:    0.4101    magn:    0.0000    constr:    0.0000
     atom:   52    charge:    0.4040    magn:    0.0000    constr:    0.0000
     atom:   53    charge:    0.4097    magn:    0.0000    constr:    0.0000
     atom:   54    charge:    0.4102    magn:    0.0000    constr:    0.0000

     total cpu time spent up to now is     1034.8 secs

     total energy              =   -3021.42445979 Ry
     Harris-Foulkes estimate   =   -3021.44966298 Ry
     estimated scf accuracy    <       0.06775635 Ry

     total magnetization       =     0.00 Bohr mag/cell
     absolute magnetization    =     0.01 Bohr mag/cell

     iteration #  3     ecut=    40.42 Ry     beta=0.10
     Davidson diagonalization with overlap
     ethr =  1.70E-05,  avg # of iterations =  5.9

     negative rho (up, down):  1.211E-02 1.211E-02
 
     Magnetic moment per site:
     atom:    1    charge:    3.1249    magn:   -0.0001    constr:    0.0000
     atom:    2    charge:    1.9768    magn:    0.0000    constr:    0.0000
     atom:    3    charge:    3.1196    magn:    0.0000    constr:    0.0000
     atom:    4    charge:    1.9813    magn:   -0.0000    constr:    0.0000
     atom:    5    charge:    3.1165    magn:    0.0000    constr:    0.0000
     atom:    6    charge:    1.9793    magn:   -0.0001    constr:    0.0000
     atom:    7    charge:    3.1158    magn:    0.0000    constr:    0.0000
     atom:    8    charge:    1.9774    magn:   -0.0001    constr:    0.0000
     atom:    9    charge:    3.1249    magn:   -0.0001    constr:    0.0000
     atom:   10    charge:    1.9768    magn:    0.0000    constr:    0.0000
     atom:   11    charge:    3.1195    magn:    0.0000    constr:    0.0000
     atom:   12    charge:    1.9813    magn:   -0.0000    constr:    0.0000
     atom:   13    charge:    3.1158    magn:    0.0000    constr:    0.0000
     atom:   14    charge:    1.9892    magn:   -0.0001    constr:    0.0000
     atom:   15    charge:    3.1191    magn:    0.0000    constr:    0.0000
     atom:   16    charge:    1.9775    magn:   -0.0001    constr:    0.0000
     atom:   17    charge:    1.9510    magn:    0.0003    constr:    0.0000
     atom:   18    charge:    3.1241    magn:   -0.0001    constr:    0.0000
     atom:   19    charge:    1.9739    magn:   -0.0000    constr:    0.0000
     atom:   20    charge:    1.9784    magn:    0.0000    constr:    0.0000
     atom:   21    charge:    1.9784    magn:    0.0000    constr:    0.0000
     atom:   22    charge:    3.1197    magn:    0.0000    constr:    0.0000
     atom:   23    charge:    1.9878    magn:   -0.0001    constr:    0.0000
     atom:   24    charge:    1.9690    magn:   -0.0000    constr:    0.0000
     atom:   25    charge:    1.9814    magn:   -0.0000    constr:    0.0000
     atom:   26    charge:    3.1146    magn:    0.0000    constr:    0.0000
     atom:   27    charge:    1.9716    magn:   -0.0000    constr:    0.0000
     atom:   28    charge:    1.9828    magn:   -0.0001    constr:    0.0000
     atom:   29    charge:    1.9789    magn:   -0.0001    constr:    0.0000
     atom:   30    charge:    3.1165    magn:    0.0000    constr:    0.0000
     atom:   31    charge:    1.9757    magn:   -0.0000    constr:    0.0000
     atom:   32    charge:    1.9766    magn:   -0.0001    constr:    0.0000
     atom:   33    charge:    1.9510    magn:    0.0003    constr:    0.0000
     atom:   34    charge:    3.1241    magn:   -0.0001    constr:    0.0000
     atom:   35    charge:    1.9740    magn:   -0.0000    constr:    0.0000
     atom:   36    charge:    1.9784    magn:    0.0000    constr:    0.0000
     atom:   37    charge:    1.9784    magn:    0.0000    constr:    0.0000
     atom:   38    charge:    3.1197    magn:    0.0000    constr:    0.0000
     atom:   39    charge:    1.9862    magn:   -0.0001    constr:    0.0000
     atom:   40    charge:    1.9694    magn:   -0.0000    constr:    0.0000
     atom:   41    charge:    1.9814    magn:   -0.0000    constr:    0.0000
     atom:   42    charge:    3.1142    magn:    0.0000    constr:    0.0000
     atom:   43    charge:    1.9725    magn:   -0.0000    constr:    0.0000
     atom:   44    charge:    1.9829    magn:   -0.0001    constr:    0.0000
     atom:   45    charge:    1.9786    magn:   -0.0001    constr:    0.0000
     atom:   46    charge:    3.1163    magn:    0.0000    constr:    0.0000
     atom:   47    charge:    1.9736    magn:   -0.0000    constr:    0.0000
     atom:   48    charge:    1.9768    magn:   -0.0001    constr:    0.0000
     atom:   49    charge:    0.6493    magn:   -0.0000    constr:    0.0000
     atom:   50    charge:    1.9919    magn:   -0.0000    constr:    0.0000
     atom:   51    charge:    0.4102    magn:    0.0000    constr:    0.0000
     atom:   52    charge:    0.4020    magn:    0.0000    constr:    0.0000
     atom:   53    charge:    0.4095    magn:    0.0000    constr:    0.0000
     atom:   54    charge:    0.4100    magn:    0.0000    constr:    0.0000

     total cpu time spent up to now is     1285.9 secs

     total energy              =   -3021.41856425 Ry
     Harris-Foulkes estimate   =   -3021.42863261 Ry
     estimated scf accuracy    <       0.02001365 Ry

     total magnetization       =     0.00 Bohr mag/cell
     absolute magnetization    =     0.00 Bohr mag/cell

     iteration #  4     ecut=    40.42 Ry     beta=0.10
     Davidson diagonalization with overlap
     ethr =  5.03E-06,  avg # of iterations =  6.5

     negative rho (up, down):  1.211E-02 1.211E-02
 
     Magnetic moment per site:
     atom:    1    charge:    3.1251    magn:   -0.0001    constr:    0.0000
     atom:    2    charge:    1.9767    magn:    0.0000    constr:    0.0000
     atom:    3    charge:    3.1197    magn:    0.0000    constr:    0.0000
     atom:    4    charge:    1.9813    magn:   -0.0000    constr:    0.0000
     atom:    5    charge:    3.1166    magn:    0.0000    constr:    0.0000
     atom:    6    charge:    1.9795    magn:   -0.0001    constr:    0.0000
     atom:    7    charge:    3.1139    magn:    0.0000    constr:    0.0000
     atom:    8    charge:    1.9770    magn:   -0.0001    constr:    0.0000
     atom:    9    charge:    3.1251    magn:   -0.0001    constr:    0.0000
     atom:   10    charge:    1.9768    magn:    0.0000    constr:    0.0000
     atom:   11    charge:    3.1196    magn:    0.0000    constr:    0.0000
     atom:   12    charge:    1.9812    magn:   -0.0000    constr:    0.0000
     atom:   13    charge:    3.1158    magn:    0.0000    constr:    0.0000
     atom:   14    charge:    1.9894    magn:   -0.0001    constr:    0.0000
     atom:   15    charge:    3.1191    magn:    0.0000    constr:    0.0000
     atom:   16    charge:    1.9772    magn:   -0.0001    constr:    0.0000
     atom:   17    charge:    1.9508    magn:    0.0003    constr:    0.0000
     atom:   18    charge:    3.1240    magn:   -0.0001    constr:    0.0000
     atom:   19    charge:    1.9739    magn:   -0.0000    constr:    0.0000
     atom:   20    charge:    1.9785    magn:    0.0000    constr:    0.0000
     atom:   21    charge:    1.9785    magn:    0.0000    constr:    0.0000
     atom:   22    charge:    3.1196    magn:    0.0000    constr:    0.0000
     atom:   23    charge:    1.9877    magn:   -0.0001    constr:    0.0000
     atom:   24    charge:    1.9693    magn:   -0.0000    constr:    0.0000
     atom:   25    charge:    1.9814    magn:   -0.0000    constr:    0.0000
     atom:   26    charge:    3.1145    magn:    0.0000    constr:    0.0000
     atom:   27    charge:    1.9718    magn:   -0.0000    constr:    0.0000
     atom:   28    charge:    1.9827    magn:   -0.0000    constr:    0.0000
     atom:   29    charge:    1.9790    magn:   -0.0001    constr:    0.0000
     atom:   30    charge:    3.1166    magn:    0.0000    constr:    0.0000
     atom:   31    charge:    1.9761    magn:   -0.0000    constr:    0.0000
     atom:   32    charge:    1.9760    magn:   -0.0001    constr:    0.0000
     atom:   33    charge:    1.9508    magn:    0.0003    constr:    0.0000
     atom:   34    charge:    3.1240    magn:   -0.0000    constr:    0.0000
     atom:   35    charge:    1.9740    magn:   -0.0000    constr:    0.0000
     atom:   36    charge:    1.9785    magn:    0.0000    constr:    0.0000
     atom:   37    charge:    1.9785    magn:    0.0000    constr:    0.0000
     atom:   38    charge:    3.1196    magn:    0.0000    constr:    0.0000
     atom:   39    charge:    1.9861    magn:   -0.0001    constr:    0.0000
     atom:   40    charge:    1.9696    magn:   -0.0000    constr:    0.0000
     atom:   41    charge:    1.9814    magn:   -0.0000    constr:    0.0000
     atom:   42    charge:    3.1142    magn:    0.0000    constr:    0.0000
     atom:   43    charge:    1.9725    magn:   -0.0000    constr:    0.0000
     atom:   44    charge:    1.9828    magn:   -0.0000    constr:    0.0000
     atom:   45    charge:    1.9787    magn:   -0.0001    constr:    0.0000
     atom:   46    charge:    3.1164    magn:    0.0000    constr:    0.0000
     atom:   47    charge:    1.9740    magn:   -0.0000    constr:    0.0000
     atom:   48    charge:    1.9764    magn:   -0.0001    constr:    0.0000
     atom:   49    charge:    0.6519    magn:   -0.0000    constr:    0.0000
     atom:   50    charge:    1.9902    magn:   -0.0000    constr:    0.0000
     atom:   51    charge:    0.4095    magn:    0.0000    constr:    0.0000
     atom:   52    charge:    0.4014    magn:    0.0000    constr:    0.0000
     atom:   53    charge:    0.4092    magn:    0.0000    constr:    0.0000
     atom:   54    charge:    0.4097    magn:    0.0000    constr:    0.0000

     total cpu time spent up to now is     1555.4 secs

     total energy              =   -3021.41919251 Ry
     Harris-Foulkes estimate   =   -3021.42055549 Ry
     estimated scf accuracy    <       0.00308975 Ry

     total magnetization       =     0.00 Bohr mag/cell
     absolute magnetization    =     0.00 Bohr mag/cell

     iteration #  5     ecut=    40.42 Ry     beta=0.10
     Davidson diagonalization with overlap
     ethr =  7.76E-07,  avg # of iterations =  6.3

     negative rho (up, down):  1.211E-02 1.211E-02
 
     Magnetic moment per site:
     atom:    1    charge:    3.1251    magn:   -0.0001    constr:    0.0000
     atom:    2    charge:    1.9767    magn:    0.0000    constr:    0.0000
     atom:    3    charge:    3.1198    magn:    0.0000    constr:    0.0000
     atom:    4    charge:    1.9813    magn:   -0.0000    constr:    0.0000
     atom:    5    charge:    3.1166    magn:    0.0000    constr:    0.0000
     atom:    6    charge:    1.9791    magn:   -0.0000    constr:    0.0000
     atom:    7    charge:    3.1146    magn:    0.0000    constr:    0.0000
     atom:    8    charge:    1.9764    magn:   -0.0000    constr:    0.0000
     atom:    9    charge:    3.1251    magn:   -0.0001    constr:    0.0000
     atom:   10    charge:    1.9767    magn:    0.0000    constr:    0.0000
     atom:   11    charge:    3.1197    magn:    0.0000    constr:    0.0000
     atom:   12    charge:    1.9813    magn:   -0.0000    constr:    0.0000
     atom:   13    charge:    3.1158    magn:    0.0000    constr:    0.0000
     atom:   14    charge:    1.9894    magn:   -0.0000    constr:    0.0000
     atom:   15    charge:    3.1189    magn:    0.0000    constr:    0.0000
     atom:   16    charge:    1.9765    magn:   -0.0000    constr:    0.0000
     atom:   17    charge:    1.9506    magn:    0.0002    constr:    0.0000
     atom:   18    charge:    3.1239    magn:   -0.0000    constr:    0.0000
     atom:   19    charge:    1.9739    magn:   -0.0000    constr:    0.0000
     atom:   20    charge:    1.9784    magn:    0.0000    constr:    0.0000
     atom:   21    charge:    1.9784    magn:    0.0000    constr:    0.0000
     atom:   22    charge:    3.1196    magn:    0.0000    constr:    0.0000
     atom:   23    charge:    1.9875    magn:   -0.0000    constr:    0.0000
     atom:   24    charge:    1.9695    magn:   -0.0000    constr:    0.0000
     atom:   25    charge:    1.9814    magn:   -0.0000    constr:    0.0000
     atom:   26    charge:    3.1145    magn:    0.0000    constr:    0.0000
     atom:   27    charge:    1.9723    magn:   -0.0000    constr:    0.0000
     atom:   28    charge:    1.9827    magn:   -0.0000    constr:    0.0000
     atom:   29    charge:    1.9790    magn:   -0.0000    constr:    0.0000
     atom:   30    charge:    3.1167    magn:    0.0000    constr:    0.0000
     atom:   31    charge:    1.9759    magn:   -0.0000    constr:    0.0000
     atom:   32    charge:    1.9758    magn:   -0.0000    constr:    0.0000
     atom:   33    charge:    1.9506    magn:    0.0002    constr:    0.0000
     atom:   34    charge:    3.1239    magn:   -0.0000    constr:    0.0000
     atom:   35    charge:    1.9739    magn:   -0.0000    constr:    0.0000
     atom:   36    charge:    1.9784    magn:    0.0000    constr:    0.0000
     atom:   37    charge:    1.9784    magn:    0.0000    constr:    0.0000
     atom:   38    charge:    3.1196    magn:    0.0000    constr:    0.0000
     atom:   39    charge:    1.9859    magn:   -0.0000    constr:    0.0000
     atom:   40    charge:    1.9698    magn:   -0.0000    constr:    0.0000
     atom:   41    charge:    1.9814    magn:   -0.0000    constr:    0.0000
     atom:   42    charge:    3.1141    magn:    0.0000    constr:    0.0000
     atom:   43    charge:    1.9726    magn:   -0.0000    constr:    0.0000
     atom:   44    charge:    1.9828    magn:   -0.0000    constr:    0.0000
     atom:   45    charge:    1.9787    magn:   -0.0000    constr:    0.0000
     atom:   46    charge:    3.1166    magn:    0.0000    constr:    0.0000
     atom:   47    charge:    1.9734    magn:   -0.0000    constr:    0.0000
     atom:   48    charge:    1.9762    magn:   -0.0000    constr:    0.0000
     atom:   49    charge:    0.6544    magn:   -0.0000    constr:    0.0000
     atom:   50    charge:    1.9893    magn:   -0.0000    constr:    0.0000
     atom:   51    charge:    0.4087    magn:    0.0000    constr:    0.0000
     atom:   52    charge:    0.4015    magn:    0.0000    constr:    0.0000
     atom:   53    charge:    0.4090    magn:    0.0000    constr:    0.0000
     atom:   54    charge:    0.4095    magn:    0.0000    constr:    0.0000

     total cpu time spent up to now is     1813.0 secs

     total energy              =   -3021.41928115 Ry
     Harris-Foulkes estimate   =   -3021.41951885 Ry
     estimated scf accuracy    <       0.00075238 Ry

     total magnetization       =     0.00 Bohr mag/cell
     absolute magnetization    =     0.00 Bohr mag/cell

     iteration #  6     ecut=    40.42 Ry     beta=0.10
     Davidson diagonalization with overlap
     ethr =  1.89E-07,  avg # of iterations =  3.0

     negative rho (up, down):  1.211E-02 1.211E-02
 
     Magnetic moment per site:
     atom:    1    charge:    3.1250    magn:   -0.0001    constr:    0.0000
     atom:    2    charge:    1.9767    magn:    0.0000    constr:    0.0000
     atom:    3    charge:    3.1198    magn:    0.0000    constr:    0.0000
     atom:    4    charge:    1.9813    magn:   -0.0000    constr:    0.0000
     atom:    5    charge:    3.1166    magn:    0.0000    constr:    0.0000
     atom:    6    charge:    1.9790    magn:   -0.0000    constr:    0.0000
     atom:    7    charge:    3.1149    magn:    0.0000    constr:    0.0000
     atom:    8    charge:    1.9764    magn:   -0.0000    constr:    0.0000
     atom:    9    charge:    3.1250    magn:   -0.0001    constr:    0.0000
     atom:   10    charge:    1.9767    magn:    0.0000    constr:    0.0000
     atom:   11    charge:    3.1197    magn:    0.0000    constr:    0.0000
     atom:   12    charge:    1.9813    magn:   -0.0000    constr:    0.0000
     atom:   13    charge:    3.1158    magn:    0.0000    constr:    0.0000
     atom:   14    charge:    1.9894    magn:   -0.0000    constr:    0.0000
     atom:   15    charge:    3.1189    magn:    0.0000    constr:    0.0000
     atom:   16    charge:    1.9765    magn:   -0.0000    constr:    0.0000
     atom:   17    charge:    1.9506    magn:    0.0002    constr:    0.0000
     atom:   18    charge:    3.1239    magn:   -0.0000    constr:    0.0000
     atom:   19    charge:    1.9739    magn:   -0.0000    constr:    0.0000
     atom:   20    charge:    1.9784    magn:    0.0000    constr:    0.0000
     atom:   21    charge:    1.9784    magn:    0.0000    constr:    0.0000
     atom:   22    charge:    3.1196    magn:    0.0000    constr:    0.0000
     atom:   23    charge:    1.9875    magn:   -0.0000    constr:    0.0000
     atom:   24    charge:    1.9694    magn:   -0.0000    constr:    0.0000
     atom:   25    charge:    1.9814    magn:   -0.0000    constr:    0.0000
     atom:   26    charge:    3.1145    magn:    0.0000    constr:    0.0000
     atom:   27    charge:    1.9722    magn:   -0.0000    constr:    0.0000
     atom:   28    charge:    1.9827    magn:   -0.0000    constr:    0.0000
     atom:   29    charge:    1.9789    magn:   -0.0000    constr:    0.0000
     atom:   30    charge:    3.1167    magn:    0.0000    constr:    0.0000
     atom:   31    charge:    1.9758    magn:   -0.0000    constr:    0.0000
     atom:   32    charge:    1.9759    magn:   -0.0000    constr:    0.0000
     atom:   33    charge:    1.9506    magn:    0.0002    constr:    0.0000
     atom:   34    charge:    3.1239    magn:   -0.0000    constr:    0.0000
     atom:   35    charge:    1.9740    magn:   -0.0000    constr:    0.0000
     atom:   36    charge:    1.9784    magn:    0.0000    constr:    0.0000
     atom:   37    charge:    1.9784    magn:    0.0000    constr:    0.0000
     atom:   38    charge:    3.1196    magn:    0.0000    constr:    0.0000
     atom:   39    charge:    1.9859    magn:   -0.0000    constr:    0.0000
     atom:   40    charge:    1.9698    magn:   -0.0000    constr:    0.0000
     atom:   41    charge:    1.9814    magn:   -0.0000    constr:    0.0000
     atom:   42    charge:    3.1141    magn:    0.0000    constr:    0.0000
     atom:   43    charge:    1.9726    magn:   -0.0000    constr:    0.0000
     atom:   44    charge:    1.9828    magn:   -0.0000    constr:    0.0000
     atom:   45    charge:    1.9786    magn:   -0.0000    constr:    0.0000
     atom:   46    charge:    3.1165    magn:    0.0000    constr:    0.0000
     atom:   47    charge:    1.9733    magn:   -0.0000    constr:    0.0000
     atom:   48    charge:    1.9762    magn:   -0.0000    constr:    0.0000
     atom:   49    charge:    0.6553    magn:   -0.0000    constr:    0.0000
     atom:   50    charge:    1.9891    magn:   -0.0000    constr:    0.0000
     atom:   51    charge:    0.4083    magn:    0.0000    constr:    0.0000
     atom:   52    charge:    0.4015    magn:    0.0000    constr:    0.0000
     atom:   53    charge:    0.4089    magn:    0.0000    constr:    0.0000
     atom:   54    charge:    0.4094    magn:    0.0000    constr:    0.0000

     total cpu time spent up to now is     2018.0 secs

     total energy              =   -3021.41929313 Ry
     Harris-Foulkes estimate   =   -3021.41933877 Ry
     estimated scf accuracy    <       0.00016919 Ry

     total magnetization       =     0.00 Bohr mag/cell
     absolute magnetization    =     0.00 Bohr mag/cell

     iteration #  7     ecut=    40.42 Ry     beta=0.10
     Davidson diagonalization with overlap
     ethr =  4.25E-08,  avg # of iterations =  3.0

     negative rho (up, down):  1.210E-02 1.210E-02
 
     Magnetic moment per site:
     atom:    1    charge:    3.1250    magn:   -0.0001    constr:    0.0000
     atom:    2    charge:    1.9767    magn:    0.0000    constr:    0.0000
     atom:    3    charge:    3.1198    magn:    0.0000    constr:    0.0000
     atom:    4    charge:    1.9813    magn:   -0.0000    constr:    0.0000
     atom:    5    charge:    3.1166    magn:    0.0000    constr:    0.0000
     atom:    6    charge:    1.9789    magn:   -0.0000    constr:    0.0000
     atom:    7    charge:    3.1155    magn:    0.0000    constr:    0.0000
     atom:    8    charge:    1.9765    magn:   -0.0000    constr:    0.0000
     atom:    9    charge:    3.1250    magn:   -0.0001    constr:    0.0000
     atom:   10    charge:    1.9767    magn:    0.0000    constr:    0.0000
     atom:   11    charge:    3.1197    magn:    0.0000    constr:    0.0000
     atom:   12    charge:    1.9813    magn:   -0.0000    constr:    0.0000
     atom:   13    charge:    3.1158    magn:    0.0000    constr:    0.0000
     atom:   14    charge:    1.9893    magn:   -0.0000    constr:    0.0000
     atom:   15    charge:    3.1188    magn:    0.0000    constr:    0.0000
     atom:   16    charge:    1.9766    magn:   -0.0000    constr:    0.0000
     atom:   17    charge:    1.9505    magn:    0.0002    constr:    0.0000
     atom:   18    charge:    3.1239    magn:   -0.0000    constr:    0.0000
     atom:   19    charge:    1.9740    magn:   -0.0000    constr:    0.0000
     atom:   20    charge:    1.9784    magn:    0.0000    constr:    0.0000
     atom:   21    charge:    1.9784    magn:    0.0000    constr:    0.0000
     atom:   22    charge:    3.1196    magn:    0.0000    constr:    0.0000
     atom:   23    charge:    1.9875    magn:   -0.0000    constr:    0.0000
     atom:   24    charge:    1.9693    magn:   -0.0000    constr:    0.0000
     atom:   25    charge:    1.9814    magn:   -0.0000    constr:    0.0000
     atom:   26    charge:    3.1145    magn:    0.0000    constr:    0.0000
     atom:   27    charge:    1.9722    magn:   -0.0000    constr:    0.0000
     atom:   28    charge:    1.9827    magn:   -0.0000    constr:    0.0000
     atom:   29    charge:    1.9789    magn:   -0.0000    constr:    0.0000
     atom:   30    charge:    3.1166    magn:    0.0000    constr:    0.0000
     atom:   31    charge:    1.9755    magn:   -0.0000    constr:    0.0000
     atom:   32    charge:    1.9761    magn:   -0.0000    constr:    0.0000
     atom:   33    charge:    1.9505    magn:    0.0002    constr:    0.0000
     atom:   34    charge:    3.1239    magn:   -0.0000    constr:    0.0000
     atom:   35    charge:    1.9740    magn:   -0.0000    constr:    0.0000
     atom:   36    charge:    1.9784    magn:    0.0000    constr:    0.0000
     atom:   37    charge:    1.9784    magn:    0.0000    constr:    0.0000
     atom:   38    charge:    3.1196    magn:    0.0000    constr:    0.0000
     atom:   39    charge:    1.9859    magn:   -0.0000    constr:    0.0000
     atom:   40    charge:    1.9697    magn:   -0.0000    constr:    0.0000
     atom:   41    charge:    1.9814    magn:   -0.0000    constr:    0.0000
     atom:   42    charge:    3.1141    magn:    0.0000    constr:    0.0000
     atom:   43    charge:    1.9726    magn:   -0.0000    constr:    0.0000
     atom:   44    charge:    1.9828    magn:   -0.0000    constr:    0.0000
     atom:   45    charge:    1.9786    magn:   -0.0000    constr:    0.0000
     atom:   46    charge:    3.1164    magn:    0.0000    constr:    0.0000
     atom:   47    charge:    1.9729    magn:   -0.0000    constr:    0.0000
     atom:   48    charge:    1.9764    magn:   -0.0000    constr:    0.0000
     atom:   49    charge:    0.6562    magn:   -0.0000    constr:    0.0000
     atom:   50    charge:    1.9891    magn:   -0.0000    constr:    0.0000
     atom:   51    charge:    0.4079    magn:    0.0000    constr:    0.0000
     atom:   52    charge:    0.4016    magn:    0.0000    constr:    0.0000
     atom:   53    charge:    0.4088    magn:    0.0000    constr:    0.0000
     atom:   54    charge:    0.4093    magn:    0.0000    constr:    0.0000

     total cpu time spent up to now is     2223.4 secs

     total energy              =   -3021.41928214 Ry
     Harris-Foulkes estimate   =   -3021.41930236 Ry
     estimated scf accuracy    <       0.00005295 Ry

     total magnetization       =     0.00 Bohr mag/cell
     absolute magnetization    =     0.00 Bohr mag/cell

     iteration #  8     ecut=    40.42 Ry     beta=0.10
     Davidson diagonalization with overlap
     ethr =  1.33E-08,  avg # of iterations =  3.4

     negative rho (up, down):  1.210E-02 1.210E-02
 
     Magnetic moment per site:
     atom:    1    charge:    3.1250    magn:   -0.0001    constr:    0.0000
     atom:    2    charge:    1.9767    magn:    0.0000    constr:    0.0000
     atom:    3    charge:    3.1198    magn:    0.0000    constr:    0.0000
     atom:    4    charge:    1.9813    magn:   -0.0000    constr:    0.0000
     atom:    5    charge:    3.1166    magn:    0.0000    constr:    0.0000
     atom:    6    charge:    1.9790    magn:   -0.0000    constr:    0.0000
     atom:    7    charge:    3.1156    magn:    0.0000    constr:    0.0000
     atom:    8    charge:    1.9766    magn:   -0.0000    constr:    0.0000
     atom:    9    charge:    3.1250    magn:   -0.0001    constr:    0.0000
     atom:   10    charge:    1.9767    magn:    0.0000    constr:    0.0000
     atom:   11    charge:    3.1197    magn:    0.0000    constr:    0.0000
     atom:   12    charge:    1.9813    magn:   -0.0000    constr:    0.0000
     atom:   13    charge:    3.1158    magn:    0.0000    constr:    0.0000
     atom:   14    charge:    1.9893    magn:   -0.0000    constr:    0.0000
     atom:   15    charge:    3.1188    magn:    0.0000    constr:    0.0000
     atom:   16    charge:    1.9767    magn:   -0.0000    constr:    0.0000
     atom:   17    charge:    1.9506    magn:    0.0001    constr:    0.0000
     atom:   18    charge:    3.1239    magn:   -0.0000    constr:    0.0000
     atom:   19    charge:    1.9739    magn:   -0.0000    constr:    0.0000
     atom:   20    charge:    1.9784    magn:    0.0000    constr:    0.0000
     atom:   21    charge:    1.9784    magn:    0.0000    constr:    0.0000
     atom:   22    charge:    3.1196    magn:    0.0000    constr:    0.0000
     atom:   23    charge:    1.9876    magn:   -0.0000    constr:    0.0000
     atom:   24    charge:    1.9693    magn:   -0.0000    constr:    0.0000
     atom:   25    charge:    1.9814    magn:   -0.0000    constr:    0.0000
     atom:   26    charge:    3.1145    magn:    0.0000    constr:    0.0000
     atom:   27    charge:    1.9721    magn:   -0.0000    constr:    0.0000
     atom:   28    charge:    1.9827    magn:   -0.0000    constr:    0.0000
     atom:   29    charge:    1.9789    magn:   -0.0000    constr:    0.0000
     atom:   30    charge:    3.1166    magn:    0.0000    constr:    0.0000
     atom:   31    charge:    1.9755    magn:   -0.0000    constr:    0.0000
     atom:   32    charge:    1.9762    magn:   -0.0000    constr:    0.0000
     atom:   33    charge:    1.9506    magn:    0.0001    constr:    0.0000
     atom:   34    charge:    3.1239    magn:   -0.0000    constr:    0.0000
     atom:   35    charge:    1.9740    magn:   -0.0000    constr:    0.0000
     atom:   36    charge:    1.9784    magn:    0.0000    constr:    0.0000
     atom:   37    charge:    1.9784    magn:    0.0000    constr:    0.0000
     atom:   38    charge:    3.1196    magn:    0.0000    constr:    0.0000
     atom:   39    charge:    1.9859    magn:   -0.0000    constr:    0.0000
     atom:   40    charge:    1.9697    magn:   -0.0000    constr:    0.0000
     atom:   41    charge:    1.9814    magn:   -0.0000    constr:    0.0000
     atom:   42    charge:    3.1141    magn:    0.0000    constr:    0.0000
     atom:   43    charge:    1.9726    magn:   -0.0000    constr:    0.0000
     atom:   44    charge:    1.9828    magn:   -0.0000    constr:    0.0000
     atom:   45    charge:    1.9786    magn:   -0.0000    constr:    0.0000
     atom:   46    charge:    3.1165    magn:    0.0000    constr:    0.0000
     atom:   47    charge:    1.9729    magn:   -0.0000    constr:    0.0000
     atom:   48    charge:    1.9765    magn:   -0.0000    constr:    0.0000
     atom:   49    charge:    0.6559    magn:   -0.0000    constr:    0.0000
     atom:   50    charge:    1.9892    magn:   -0.0000    constr:    0.0000
     atom:   51    charge:    0.4079    magn:    0.0000    constr:    0.0000
     atom:   52    charge:    0.4016    magn:    0.0000    constr:    0.0000
     atom:   53    charge:    0.4089    magn:    0.0000    constr:    0.0000
     atom:   54    charge:    0.4094    magn:    0.0000    constr:    0.0000

     total cpu time spent up to now is     2442.0 secs

     total energy              =   -3021.41928893 Ry
     Harris-Foulkes estimate   =   -3021.41929206 Ry
     estimated scf accuracy    <       0.00001451 Ry

     total magnetization       =     0.00 Bohr mag/cell
     absolute magnetization    =     0.00 Bohr mag/cell

     iteration #  9     ecut=    40.42 Ry     beta=0.10
     Davidson diagonalization with overlap
     ethr =  3.65E-09,  avg # of iterations =  3.5

     negative rho (up, down):  1.210E-02 1.210E-02
 
     Magnetic moment per site:
     atom:    1    charge:    3.1250    magn:   -0.0000    constr:    0.0000
     atom:    2    charge:    1.9767    magn:    0.0000    constr:    0.0000
     atom:    3    charge:    3.1198    magn:    0.0000    constr:    0.0000
     atom:    4    charge:    1.9813    magn:   -0.0000    constr:    0.0000
     atom:    5    charge:    3.1166    magn:    0.0000    constr:    0.0000
     atom:    6    charge:    1.9790    magn:   -0.0000    constr:    0.0000
     atom:    7    charge:    3.1157    magn:    0.0000    constr:    0.0000
     atom:    8    charge:    1.9767    magn:   -0.0000    constr:    0.0000
     atom:    9    charge:    3.1250    magn:   -0.0000    constr:    0.0000
     atom:   10    charge:    1.9767    magn:    0.0000    constr:    0.0000
     atom:   11    charge:    3.1197    magn:    0.0000    constr:    0.0000
     atom:   12    charge:    1.9813    magn:   -0.0000    constr:    0.0000
     atom:   13    charge:    3.1158    magn:    0.0000    constr:    0.0000
     atom:   14    charge:    1.9893    magn:   -0.0000    constr:    0.0000
     atom:   15    charge:    3.1189    magn:    0.0000    constr:    0.0000
     atom:   16    charge:    1.9767    magn:   -0.0000    constr:    0.0000
     atom:   17    charge:    1.9506    magn:    0.0001    constr:    0.0000
     atom:   18    charge:    3.1239    magn:   -0.0000    constr:    0.0000
     atom:   19    charge:    1.9739    magn:   -0.0000    constr:    0.0000
     atom:   20    charge:    1.9784    magn:    0.0000    constr:    0.0000
     atom:   21    charge:    1.9784    magn:    0.0000    constr:    0.0000
     atom:   22    charge:    3.1196    magn:    0.0000    constr:    0.0000
     atom:   23    charge:    1.9876    magn:   -0.0000    constr:    0.0000
     atom:   24    charge:    1.9693    magn:   -0.0000    constr:    0.0000
     atom:   25    charge:    1.9814    magn:   -0.0000    constr:    0.0000
     atom:   26    charge:    3.1145    magn:    0.0000    constr:    0.0000
     atom:   27    charge:    1.9721    magn:   -0.0000    constr:    0.0000
     atom:   28    charge:    1.9827    magn:   -0.0000    constr:    0.0000
     atom:   29    charge:    1.9789    magn:   -0.0000    constr:    0.0000
     atom:   30    charge:    3.1166    magn:    0.0000    constr:    0.0000
     atom:   31    charge:    1.9755    magn:   -0.0000    constr:    0.0000
     atom:   32    charge:    1.9762    magn:   -0.0000    constr:    0.0000
     atom:   33    charge:    1.9506    magn:    0.0001    constr:    0.0000
     atom:   34    charge:    3.1239    magn:   -0.0000    constr:    0.0000
     atom:   35    charge:    1.9740    magn:   -0.0000    constr:    0.0000
     atom:   36    charge:    1.9784    magn:    0.0000    constr:    0.0000
     atom:   37    charge:    1.9784    magn:    0.0000    constr:    0.0000
     atom:   38    charge:    3.1196    magn:    0.0000    constr:    0.0000
     atom:   39    charge:    1.9860    magn:   -0.0000    constr:    0.0000
     atom:   40    charge:    1.9697    magn:   -0.0000    constr:    0.0000
     atom:   41    charge:    1.9814    magn:   -0.0000    constr:    0.0000
     atom:   42    charge:    3.1141    magn:    0.0000    constr:    0.0000
     atom:   43    charge:    1.9726    magn:   -0.0000    constr:    0.0000
     atom:   44    charge:    1.9828    magn:   -0.0000    constr:    0.0000
     atom:   45    charge:    1.9786    magn:   -0.0000    constr:    0.0000
     atom:   46    charge:    3.1165    magn:    0.0000    constr:    0.0000
     atom:   47    charge:    1.9729    magn:   -0.0000    constr:    0.0000
     atom:   48    charge:    1.9765    magn:   -0.0000    constr:    0.0000
     atom:   49    charge:    0.6557    magn:   -0.0000    constr:    0.0000
     atom:   50    charge:    1.9892    magn:   -0.0000    constr:    0.0000
     atom:   51    charge:    0.4080    magn:    0.0000    constr:    0.0000
     atom:   52    charge:    0.4016    magn:    0.0000    constr:    0.0000
     atom:   53    charge:    0.4089    magn:    0.0000    constr:    0.0000
     atom:   54    charge:    0.4094    magn:    0.0000    constr:    0.0000

     total cpu time spent up to now is     2654.4 secs

     total energy              =   -3021.41928989 Ry
     Harris-Foulkes estimate   =   -3021.41929000 Ry
     estimated scf accuracy    <       0.00000334 Ry

     total magnetization       =     0.00 Bohr mag/cell
     absolute magnetization    =     0.00 Bohr mag/cell

     iteration # 10     ecut=    40.42 Ry     beta=0.10
     Davidson diagonalization with overlap
     ethr =  8.40E-10,  avg # of iterations =  3.0

     negative rho (up, down):  1.210E-02 1.210E-02
 
     Magnetic moment per site:
     atom:    1    charge:    3.1250    magn:   -0.0000    constr:    0.0000
     atom:    2    charge:    1.9767    magn:    0.0000    constr:    0.0000
     atom:    3    charge:    3.1198    magn:    0.0000    constr:    0.0000
     atom:    4    charge:    1.9813    magn:   -0.0000    constr:    0.0000
     atom:    5    charge:    3.1166    magn:    0.0000    constr:    0.0000
     atom:    6    charge:    1.9790    magn:   -0.0000    constr:    0.0000
     atom:    7    charge:    3.1157    magn:    0.0000    constr:    0.0000
     atom:    8    charge:    1.9766    magn:   -0.0000    constr:    0.0000
     atom:    9    charge:    3.1250    magn:   -0.0000    constr:    0.0000
     atom:   10    charge:    1.9767    magn:    0.0000    constr:    0.0000
     atom:   11    charge:    3.1197    magn:    0.0000    constr:    0.0000
     atom:   12    charge:    1.9813    magn:   -0.0000    constr:    0.0000
     atom:   13    charge:    3.1158    magn:    0.0000    constr:    0.0000
     atom:   14    charge:    1.9893    magn:   -0.0000    constr:    0.0000
     atom:   15    charge:    3.1189    magn:    0.0000    constr:    0.0000
     atom:   16    charge:    1.9767    magn:   -0.0000    constr:    0.0000
     atom:   17    charge:    1.9506    magn:    0.0001    constr:    0.0000
     atom:   18    charge:    3.1239    magn:   -0.0000    constr:    0.0000
     atom:   19    charge:    1.9739    magn:   -0.0000    constr:    0.0000
     atom:   20    charge:    1.9784    magn:    0.0000    constr:    0.0000
     atom:   21    charge:    1.9784    magn:    0.0000    constr:    0.0000
     atom:   22    charge:    3.1196    magn:    0.0000    constr:    0.0000
     atom:   23    charge:    1.9876    magn:   -0.0000    constr:    0.0000
     atom:   24    charge:    1.9693    magn:   -0.0000    constr:    0.0000
     atom:   25    charge:    1.9814    magn:   -0.0000    constr:    0.0000
     atom:   26    charge:    3.1145    magn:    0.0000    constr:    0.0000
     atom:   27    charge:    1.9721    magn:   -0.0000    constr:    0.0000
     atom:   28    charge:    1.9827    magn:   -0.0000    constr:    0.0000
     atom:   29    charge:    1.9789    magn:   -0.0000    constr:    0.0000
     atom:   30    charge:    3.1167    magn:    0.0000    constr:    0.0000
     atom:   31    charge:    1.9755    magn:   -0.0000    constr:    0.0000
     atom:   32    charge:    1.9762    magn:   -0.0000    constr:    0.0000
     atom:   33    charge:    1.9506    magn:    0.0001    constr:    0.0000
     atom:   34    charge:    3.1239    magn:   -0.0000    constr:    0.0000
     atom:   35    charge:    1.9740    magn:   -0.0000    constr:    0.0000
     atom:   36    charge:    1.9784    magn:    0.0000    constr:    0.0000
     atom:   37    charge:    1.9784    magn:    0.0000    constr:    0.0000
     atom:   38    charge:    3.1196    magn:    0.0000    constr:    0.0000
     atom:   39    charge:    1.9859    magn:   -0.0000    constr:    0.0000
     atom:   40    charge:    1.9697    magn:   -0.0000    constr:    0.0000
     atom:   41    charge:    1.9814    magn:   -0.0000    constr:    0.0000
     atom:   42    charge:    3.1141    magn:    0.0000    constr:    0.0000
     atom:   43    charge:    1.9726    magn:   -0.0000    constr:    0.0000
     atom:   44    charge:    1.9828    magn:   -0.0000    constr:    0.0000
     atom:   45    charge:    1.9786    magn:   -0.0000    constr:    0.0000
     atom:   46    charge:    3.1165    magn:    0.0000    constr:    0.0000
     atom:   47    charge:    1.9730    magn:   -0.0000    constr:    0.0000
     atom:   48    charge:    1.9765    magn:   -0.0000    constr:    0.0000
     atom:   49    charge:    0.6557    magn:   -0.0000    constr:    0.0000
     atom:   50    charge:    1.9892    magn:   -0.0000    constr:    0.0000
     atom:   51    charge:    0.4080    magn:    0.0000    constr:    0.0000
     atom:   52    charge:    0.4017    magn:    0.0000    constr:    0.0000
     atom:   53    charge:    0.4089    magn:    0.0000    constr:    0.0000
     atom:   54    charge:    0.4094    magn:    0.0000    constr:    0.0000

     total cpu time spent up to now is     2862.0 secs

     total energy              =   -3021.41929057 Ry
     Harris-Foulkes estimate   =   -3021.41929016 Ry
     estimated scf accuracy    <       0.00000095 Ry

     total magnetization       =     0.00 Bohr mag/cell
     absolute magnetization    =     0.00 Bohr mag/cell

     iteration # 11     ecut=    40.42 Ry     beta=0.10
     Davidson diagonalization with overlap
     ethr =  2.39E-10,  avg # of iterations =  3.0

     negative rho (up, down):  1.209E-02 1.209E-02
 
     Magnetic moment per site:
     atom:    1    charge:    3.1250    magn:   -0.0000    constr:    0.0000
     atom:    2    charge:    1.9767    magn:    0.0000    constr:    0.0000
     atom:    3    charge:    3.1198    magn:    0.0000    constr:    0.0000
     atom:    4    charge:    1.9813    magn:   -0.0000    constr:    0.0000
     atom:    5    charge:    3.1166    magn:    0.0000    constr:    0.0000
     atom:    6    charge:    1.9790    magn:   -0.0000    constr:    0.0000
     atom:    7    charge:    3.1157    magn:    0.0000    constr:    0.0000
     atom:    8    charge:    1.9766    magn:   -0.0000    constr:    0.0000
     atom:    9    charge:    3.1250    magn:   -0.0000    constr:    0.0000
     atom:   10    charge:    1.9767    magn:    0.0000    constr:    0.0000
     atom:   11    charge:    3.1197    magn:    0.0000    constr:    0.0000
     atom:   12    charge:    1.9813    magn:   -0.0000    constr:    0.0000
     atom:   13    charge:    3.1158    magn:    0.0000    constr:    0.0000
     atom:   14    charge:    1.9893    magn:   -0.0000    constr:    0.0000
     atom:   15    charge:    3.1189    magn:    0.0000    constr:    0.0000
     atom:   16    charge:    1.9767    magn:   -0.0000    constr:    0.0000
     atom:   17    charge:    1.9506    magn:    0.0000    constr:    0.0000
     atom:   18    charge:    3.1239    magn:   -0.0000    constr:    0.0000
     atom:   19    charge:    1.9739    magn:   -0.0000    constr:    0.0000
     atom:   20    charge:    1.9784    magn:    0.0000    constr:    0.0000
     atom:   21    charge:    1.9784    magn:    0.0000    constr:    0.0000
     atom:   22    charge:    3.1196    magn:    0.0000    constr:    0.0000
     atom:   23    charge:    1.9876    magn:   -0.0000    constr:    0.0000
     atom:   24    charge:    1.9693    magn:   -0.0000    constr:    0.0000
     atom:   25    charge:    1.9814    magn:   -0.0000    constr:    0.0000
     atom:   26    charge:    3.1145    magn:    0.0000    constr:    0.0000
     atom:   27    charge:    1.9721    magn:   -0.0000    constr:    0.0000
     atom:   28    charge:    1.9827    magn:   -0.0000    constr:    0.0000
     atom:   29    charge:    1.9789    magn:   -0.0000    constr:    0.0000
     atom:   30    charge:    3.1167    magn:    0.0000    constr:    0.0000
     atom:   31    charge:    1.9755    magn:   -0.0000    constr:    0.0000
     atom:   32    charge:    1.9762    magn:   -0.0000    constr:    0.0000
     atom:   33    charge:    1.9506    magn:    0.0000    constr:    0.0000
     atom:   34    charge:    3.1239    magn:   -0.0000    constr:    0.0000
     atom:   35    charge:    1.9740    magn:   -0.0000    constr:    0.0000
     atom:   36    charge:    1.9784    magn:    0.0000    constr:    0.0000
     atom:   37    charge:    1.9784    magn:    0.0000    constr:    0.0000
     atom:   38    charge:    3.1196    magn:    0.0000    constr:    0.0000
     atom:   39    charge:    1.9859    magn:   -0.0000    constr:    0.0000
     atom:   40    charge:    1.9697    magn:   -0.0000    constr:    0.0000
     atom:   41    charge:    1.9814    magn:   -0.0000    constr:    0.0000
     atom:   42    charge:    3.1141    magn:    0.0000    constr:    0.0000
     atom:   43    charge:    1.9726    magn:   -0.0000    constr:    0.0000
     atom:   44    charge:    1.9828    magn:   -0.0000    constr:    0.0000
     atom:   45    charge:    1.9786    magn:   -0.0000    constr:    0.0000
     atom:   46    charge:    3.1165    magn:    0.0000    constr:    0.0000
     atom:   47    charge:    1.9730    magn:   -0.0000    constr:    0.0000
     atom:   48    charge:    1.9765    magn:   -0.0000    constr:    0.0000
     atom:   49    charge:    0.6556    magn:   -0.0000    constr:    0.0000
     atom:   50    charge:    1.9891    magn:   -0.0000    constr:    0.0000
     atom:   51    charge:    0.4081    magn:    0.0000    constr:    0.0000
     atom:   52    charge:    0.4017    magn:    0.0000    constr:    0.0000
     atom:   53    charge:    0.4089    magn:    0.0000    constr:    0.0000
     atom:   54    charge:    0.4094    magn:    0.0000    constr:    0.0000

     total cpu time spent up to now is     3067.4 secs

     End of self-consistent calculation

 ------ SPIN UP ------------


          k = 0.0000 0.0000 0.0000 ( 34665 PWs)   bands (ev):

   -57.6766 -57.6416 -57.2903 -57.2540 -57.2002 -57.0859 -57.0495 -57.0486
   -57.0213 -57.0138 -56.9642 -56.9287 -56.7076 -56.6701 -56.1275 -56.0922
   -34.1127 -33.9587 -33.9302 -33.8776 -33.8424 -33.7833 -33.7228 -33.6225
   -33.5906 -33.5812 -33.5439 -33.5134 -33.4924 -33.4804 -33.4625 -33.4546
   -33.4334 -33.4267 -33.4018 -33.3749 -33.3002 -33.2680 -33.2479 -33.2386
   -33.2283 -33.2256 -33.2201 -33.2192 -33.2132 -33.2057 -33.1992 -33.1886
   -33.1546 -33.1543 -33.1508 -33.1153 -33.0924 -32.9736 -32.9545 -32.9337
   -32.8852 -32.7829 -32.5453 -32.4798 -32.4537 -32.3495 -32.2578 -32.1495
   -20.1711 -17.9857 -17.8184 -17.5314 -17.4350 -17.3461 -17.2242 -17.0525
   -17.0444 -16.9477 -16.9155 -16.8623 -16.7574 -16.7493 -16.7012 -16.6830
   -16.6786 -16.6361 -16.5892 -16.5760 -16.5120 -16.3891 -16.3787 -16.3753
   -16.2929 -16.2437 -16.1708 -16.1441 -16.1269 -15.9574 -15.9080 -14.7123
   -14.6287 -11.4623  -7.1770  -5.4454  -5.3725  -5.2812  -5.1846  -5.1784
    -5.1198  -5.0984  -4.8154  -4.7901  -4.4484  -4.4162  -4.3344  -4.3294
    -4.2954  -4.2101  -4.0653  -4.0439  -4.0313  -3.9938  -3.9718  -3.9663
    -3.9386  -3.9284  -3.9236  -3.8159  -3.7633  -3.7385  -3.7139  -3.6990
    -3.6083  -3.5915  -3.5607  -3.5515  -3.4962  -3.4869  -3.4114  -3.3825
    -3.3618  -3.2938  -3.2226  -3.1777  -2.9895  -2.9135  -2.8568  -2.8181
    -2.6733  -2.5802  -2.5660  -2.5577  -2.5513  -2.5417  -2.4106  -2.3894
    -2.3123  -2.2456  -2.2244  -2.1811  -2.1769  -2.1548  -2.1127  -2.0675
    -2.0232  -2.0046  -1.9934  -1.8697  -1.8465  -1.7568  -1.7105  -1.6016
    -1.5198  -1.5174  -1.4661  -1.4553  -1.4399  -1.3992  -1.3072  -1.2852
    -1.2796  -1.2547  -1.2178  -1.1115  -1.0853  -1.0627  -1.0414  -0.9977
    -0.9295  -0.8911  -0.8034  -0.7428  -0.5865  -0.5634  -0.5467  -0.4539
    -0.3510  -0.2211  -0.0628  -0.0014   0.1533   0.2698   0.2835   1.6649
     1.6977   2.0097   2.0244   2.0924   2.1238   2.2288   2.2707   2.3134
     2.4575   2.5224   2.5503   2.5529   2.5659   2.6563   2.6738   2.6817
     2.7402   2.8245   2.8523   2.8657   2.9367   3.0273   3.0591   3.1275
     3.1286   3.1426   3.1851   3.2262   3.2339   3.2485   3.2650   3.2763
     3.2828   3.3149   3.4188   3.4536   3.4821   3.4914   3.5505   3.6119
     3.6782   3.7205   3.8339   4.0056   4.0399   4.1153   4.2019   4.3427
     4.3639   4.4140   4.5708   4.6207   4.8288   4.8631   5.1111   5.1933
     5.2650   5.3529   5.4820   5.5231   5.5416   5.6195   5.6981   5.7403
     5.8238   5.8888   5.9010   5.9094   5.9807   6.0156   6.0702   6.0916
     6.1665   6.2533   6.2727   6.3231   6.4021   6.5902   6.6592   6.7453
     6.8579   6.9839   7.0553   7.1590   7.3243   7.5395   7.9010   8.2646
     8.2947   8.6205   8.8127   8.8431   8.9436   9.0042   9.0985   9.2222
     9.3669   9.3724   9.5119

          k = 0.0000 0.0280 0.0000 ( 34717 PWs)   bands (ev):

   -57.6742 -57.6440 -57.2879 -57.2564 -57.1998 -57.0836 -57.0516 -57.0465
   -57.0217 -57.0162 -56.9618 -56.9311 -56.7051 -56.6726 -56.1251 -56.0946
   -34.0874 -33.9567 -33.9321 -33.8714 -33.8165 -33.7898 -33.7498 -33.5998
   -33.5837 -33.5562 -33.5185 -33.5105 -33.4932 -33.4737 -33.4630 -33.4579
   -33.4425 -33.4305 -33.4000 -33.3680 -33.2941 -33.2663 -33.2617 -33.2401
   -33.2295 -33.2244 -33.2225 -33.2158 -33.2141 -33.2123 -33.2119 -33.1949
   -33.1787 -33.1592 -33.1516 -33.1189 -33.1162 -32.9698 -32.9532 -32.9351
   -32.8903 -32.8109 -32.5196 -32.4781 -32.4556 -32.3433 -32.2641 -32.1770
   -20.1710 -17.9239 -17.7608 -17.4784 -17.3828 -17.3023 -17.1978 -17.0649
   -17.0141 -16.9756 -16.9674 -16.8633 -16.7914 -16.7348 -16.6793 -16.6635
   -16.6511 -16.6388 -16.6295 -16.6199 -16.5709 -16.4129 -16.3598 -16.3454
   -16.3196 -16.2733 -16.1878 -16.1504 -16.1308 -15.9884 -15.9449 -14.7224
   -14.6521 -11.4619  -7.1767  -5.4077  -5.2913  -5.2219  -5.1892  -5.1038
    -5.0430  -5.0192  -4.7399  -4.6760  -4.4090  -4.3740  -4.3706  -4.2861
    -4.2752  -4.1375  -4.0980  -4.0885  -4.0671  -4.0460  -4.0136  -4.0076
    -3.9427  -3.9363  -3.9247  -3.8660  -3.8282  -3.8213  -3.8115  -3.7429
    -3.7002  -3.6778  -3.6420  -3.5925  -3.5506  -3.5395  -3.4286  -3.3735
    -3.3146  -3.2201  -3.2032  -3.0826  -2.9107  -2.8492  -2.7307  -2.6995
    -2.5910  -2.5795  -2.5036  -2.4862  -2.4531  -2.4187  -2.3884  -2.3855
    -2.3623  -2.3362  -2.2656  -2.2518  -2.1457  -2.1194  -2.1124  -2.0695
    -1.9984  -1.9783  -1.9319  -1.8574  -1.7891  -1.7584  -1.6834  -1.6571
    -1.6176  -1.6012  -1.5372  -1.5012  -1.4615  -1.4136  -1.4116  -1.3709
    -1.3347  -1.2480  -1.1956  -1.1917  -1.1406  -1.0777  -1.0546  -0.9986
    -0.9873  -0.8811  -0.8521  -0.7671  -0.7395  -0.6825  -0.5839  -0.5658
    -0.3693  -0.2484  -0.0702  -0.0555   0.1681   0.2234   0.2500   1.7514
     1.7971   2.0084   2.0927   2.1591   2.1755   2.2447   2.2984   2.3390
     2.4499   2.4857   2.5212   2.5612   2.6112   2.6259   2.6570   2.7177
     2.7576   2.7974   2.8220   2.9385   2.9481   2.9783   3.0012   3.0336
     3.1385   3.1433   3.1583   3.1990   3.2165   3.2299   3.2840   3.3296
     3.3584   3.3941   3.4332   3.4993   3.5304   3.5743   3.5858   3.6714
     3.6898   3.7102   3.7973   3.9841   4.0585   4.1377   4.2127   4.3112
     4.3454   4.4240   4.5631   4.6718   4.8797   4.9496   5.1156   5.2826
     5.3271   5.3574   5.5608   5.5758   5.6166   5.6315   5.7119   5.7400
     5.8084   5.8178   5.8757   5.9023   5.9202   5.9699   6.0776   6.1311
     6.1714   6.1785   6.1892   6.2302   6.2991   6.5724   6.6231   6.7031
     6.8410   6.9386   6.9837   7.0766   7.2483   7.5434   7.8889   7.9923
     8.0761   8.4713   8.5387   8.7712   8.8593   8.9881   9.0931   9.1166
     9.2684   9.4076   9.4658

          k = 0.0000 0.0560 0.0000 ( 34721 PWs)   bands (ev):

   -57.6678 -57.6504 -57.2814 -57.2630 -57.1989 -57.0775 -57.0577 -57.0401
   -57.0226 -57.0226 -56.9554 -56.9376 -56.6985 -56.6792 -56.1187 -56.1011
   -34.0176 -33.9514 -33.9371 -33.8543 -33.8228 -33.8072 -33.7455 -33.5683
   -33.5443 -33.5419 -33.5071 -33.5001 -33.4820 -33.4768 -33.4484 -33.4462
   -33.4248 -33.3972 -33.3929 -33.3486 -33.2891 -33.2889 -33.2863 -33.2776
   -33.2620 -33.2523 -33.2438 -33.2343 -33.2295 -33.2204 -33.2103 -33.2082
   -33.1842 -33.1723 -33.1450 -33.1404 -33.1030 -32.9649 -32.9496 -32.9384
   -32.9032 -32.8805 -32.4733 -32.4603 -32.4489 -32.3268 -32.2810 -32.2511
   -20.1706 -17.7527 -17.6022 -17.3468 -17.2493 -17.2329 -17.1923 -17.1440
   -17.1096 -16.9354 -16.9313 -16.8957 -16.8486 -16.7918 -16.7599 -16.7036
   -16.6920 -16.6576 -16.5967 -16.5726 -16.5159 -16.4784 -16.3943 -16.3539
   -16.3376 -16.2789 -16.2172 -16.1712 -16.1343 -16.0900 -16.0178 -14.7406
   -14.7027 -11.4610  -7.1760  -5.3709  -5.2004  -5.0535  -5.0100  -4.8977
    -4.8337  -4.7963  -4.5382  -4.4785  -4.4464  -4.3910  -4.3862  -4.3407
    -4.3047  -4.2368  -4.2089  -4.1870  -4.1725  -4.1613  -4.1313  -4.0513
    -4.0314  -3.9835  -3.9606  -3.9439  -3.9073  -3.8649  -3.8293  -3.7974
    -3.7725  -3.7085  -3.6130  -3.5629  -3.4333  -3.4064  -3.3937  -3.2441
    -3.2147  -3.1966  -3.1699  -3.0621  -2.8910  -2.8212  -2.8157  -2.7740
    -2.6980  -2.6455  -2.5264  -2.4507  -2.4204  -2.3010  -2.2938  -2.2875
    -2.2804  -2.2251  -2.1828  -2.1549  -2.1259  -2.0955  -2.0088  -1.9846
    -1.9409  -1.9237  -1.8921  -1.8822  -1.8613  -1.8273  -1.7917  -1.7611
    -1.7241  -1.6745  -1.6008  -1.5176  -1.5028  -1.4848  -1.4305  -1.3955
    -1.3580  -1.3415  -1.3265  -1.2654  -1.2191  -1.1934  -1.1414  -1.0990
    -1.0673  -0.9998  -0.9056  -0.8709  -0.8269  -0.7619  -0.7382  -0.6380
    -0.5627  -0.4386  -0.2166   0.1126   0.1652   0.2001   0.2068   1.8870
     2.0468   2.1254   2.1317   2.2373   2.2604   2.2927   2.3927   2.4139
     2.4180   2.4368   2.4609   2.4995   2.5254   2.5668   2.6998   2.7210
     2.7614   2.7986   2.8543   2.9287   2.9414   2.9635   2.9953   2.9986
     3.0397   3.1228   3.1647   3.1816   3.2750   3.2880   3.3120   3.3518
     3.3943   3.4133   3.4638   3.5610   3.5682   3.6613   3.7012   3.7497
     3.7836   3.8454   3.8819   3.9123   3.9559   4.1537   4.1654   4.1811
     4.3514   4.3976   4.5981   4.9209   5.0364   5.0462   5.1959   5.4003
     5.4043   5.5039   5.5443   5.5745   5.6765   5.7460   5.7468   5.7572
     5.8030   5.8097   5.8185   5.8761   5.9053   5.9396   5.9933   6.0094
     6.0270   6.0783   6.1765   6.1924   6.2906   6.3749   6.4089   6.6146
     6.6703   6.8019   6.8824   7.0427   7.1817   7.3429   7.4322   7.7016
     8.0535   8.1743   8.3114   8.5820   8.8604   9.0078   9.2767   9.3089
     9.4204   9.4320   9.5272

          k = 0.0000-0.0840 0.0000 ( 34678 PWs)   bands (ev):

   -57.6592 -57.6590 -57.2738 -57.2705 -57.1985 -57.0721 -57.0632 -57.0314
   -57.0313 -57.0231 -56.9469 -56.9461 -56.6914 -56.6863 -56.1099 -56.1099
   -33.9444 -33.9442 -33.9210 -33.9209 -33.8309 -33.8308 -33.6586 -33.6346
   -33.5384 -33.5345 -33.4973 -33.4908 -33.4865 -33.4463 -33.4218 -33.3955
   -33.3895 -33.3836 -33.3513 -33.3510 -33.3331 -33.3232 -33.3173 -33.2982
   -33.2970 -33.2609 -33.2541 -33.2520 -33.2452 -33.2378 -33.2088 -33.2070
   -33.1895 -33.1879 -33.1380 -33.1374 -33.0267 -33.0057 -32.9465 -32.9411
   -32.9171 -32.9142 -32.4668 -32.4668 -32.3510 -32.3509 -32.3039 -32.3039
   -20.1705 -17.5417 -17.4791 -17.3877 -17.3670 -17.2034 -17.1471 -17.0419
   -17.0359 -16.9897 -16.9757 -16.9630 -16.8425 -16.8177 -16.8177 -16.7769
   -16.7704 -16.5699 -16.5679 -16.4974 -16.4948 -16.4644 -16.4630 -16.3798
   -16.3780 -16.2394 -16.2374 -16.1785 -16.1743 -16.1103 -16.0807 -14.7394
   -14.7393 -11.4606  -7.1756  -5.3614  -5.2065  -4.7723  -4.7113  -4.7102
    -4.6287  -4.6158  -4.6113  -4.5772  -4.5450  -4.4822  -4.4744  -4.3749
    -4.3474  -4.3151  -4.3120  -4.2851  -4.2721  -4.2569  -4.2506  -4.0287
    -4.0094  -3.9995  -3.9846  -3.9675  -3.9144  -3.7843  -3.7728  -3.7678
    -3.6920  -3.6693  -3.6128  -3.5010  -3.4523  -3.3445  -3.3140  -3.2994
    -3.1146  -3.0920  -3.0227  -2.9965  -2.9405  -2.9124  -2.7815  -2.7631
    -2.6741  -2.6698  -2.5540  -2.5162  -2.4901  -2.4709  -2.4577  -2.4236
    -2.4148  -2.3954  -2.3067  -2.2193  -2.0128  -1.9844  -1.9515  -1.9222
    -1.9028  -1.8068  -1.7994  -1.7854  -1.7581  -1.7219  -1.7070  -1.6753
    -1.6404  -1.6152  -1.5908  -1.5319  -1.4884  -1.4638  -1.4573  -1.4268
    -1.4027  -1.3940  -1.3880  -1.3584  -1.3337  -1.3023  -1.2122  -1.1641
    -1.0879  -1.0504  -1.0076  -0.9546  -0.9480  -0.9367  -0.9271  -0.4993
    -0.4945  -0.4318  -0.4172   0.1652   0.1652   0.2077   0.2094   2.0619
     2.0649   2.2418   2.2422   2.2474   2.2645   2.3120   2.3664   2.3692
     2.3695   2.3990   2.4103   2.5557   2.5768   2.5780   2.6279   2.6900
     2.7404   2.7607   2.7745   2.9174   2.9474   3.0142   3.0222   3.0821
     3.0831   3.1264   3.1372   3.2079   3.2465   3.2592   3.2723   3.4295
     3.4499   3.4611   3.4640   3.4972   3.5089   3.7483   3.7896   3.8275
     3.8311   3.8558   3.9321   3.9549   3.9936   4.0959   4.0982   4.1480
     4.1487   4.4439   4.7104   4.9856   5.0257   5.2781   5.3465   5.4815
     5.5134   5.5303   5.5304   5.5599   5.5704   5.6718   5.6907   5.6997
     5.8230   5.8290   5.8504   5.8737   5.8857   5.8905   5.9116   5.9964
     6.0409   6.0763   6.0831   6.1800   6.2083   6.3890   6.4728   6.5739
     6.6165   6.7459   6.7760   6.9568   7.0477   7.0915   7.3207   7.6576
[...]
    -1.2910  -1.2621  -1.2418  -1.1673  -1.1435  -1.0066  -0.9967  -0.9882
    -0.9649  -0.9246  -0.8831  -0.8129  -0.7286  -0.6773  -0.6242  -0.5702
    -0.5662  -0.5096  -0.4926   0.0877   0.0878   0.2325   0.2341   2.1767
     2.1775   2.2238   2.2257   2.2652   2.2673   2.2948   2.3256   2.5117
     2.5165   2.5514   2.5817   2.6344   2.6428   2.7025   2.7041   2.7154
     2.7167   2.8717   2.9367   3.0073   3.0231   3.0590   3.0666   3.1273
     3.2457   3.2738   3.2973   3.3592   3.3984   3.4139   3.4700   3.5184
     3.5256   3.5470   3.5744   3.6062   3.6285   3.7050   3.7241   3.7690
     3.8618   3.9153   3.9314   3.9748   3.9751   4.1187   4.1256   4.1342
     4.1347   4.6407   4.8067   4.8094   4.8323   4.8979   4.9455   4.9498
     4.9689   5.0125   5.0544   5.2742   5.3617   5.3830   5.3906   5.7140
     5.8221   5.9292   5.9558   6.0022   6.0478   6.1364   6.3086   6.3737
     6.3892   6.4001   6.4294   6.5519   6.5841   6.6867   6.6869   6.7252
     6.7602   6.8611   6.8621   6.8746   6.8755   7.3400   7.3742   7.5020
     7.6369   7.8134   7.9843   8.1593   8.2143   8.3096   8.3197   8.7841
     8.9030   9.0005   9.0710

          k =-0.0253 0.0280 0.0000 ( 34687 PWs)   bands (ev):

   -57.6743 -57.6440 -57.2878 -57.2564 -57.1997 -57.0835 -57.0516 -57.0465
   -57.0217 -57.0161 -56.9618 -56.9311 -56.7051 -56.6725 -56.1253 -56.0948
   -34.0877 -33.9568 -33.9321 -33.8708 -33.8166 -33.7897 -33.7499 -33.6005
   -33.5838 -33.5579 -33.5187 -33.5072 -33.4947 -33.4891 -33.4632 -33.4435
   -33.4390 -33.4293 -33.3999 -33.3613 -33.2940 -33.2664 -33.2594 -33.2401
   -33.2294 -33.2282 -33.2236 -33.2229 -33.2136 -33.2123 -33.2111 -33.1934
   -33.1788 -33.1592 -33.1515 -33.1188 -33.1161 -32.9698 -32.9552 -32.9343
   -32.8903 -32.8108 -32.5197 -32.4791 -32.4552 -32.3435 -32.2642 -32.1772
   -20.1708 -17.8955 -17.7218 -17.4379 -17.3563 -17.2824 -17.2046 -17.1061
   -17.0716 -16.9798 -16.9400 -16.8322 -16.8077 -16.7785 -16.7562 -16.7446
   -16.6906 -16.6749 -16.5735 -16.5504 -16.4823 -16.4487 -16.3568 -16.3398
   -16.3301 -16.3058 -16.1765 -16.1500 -16.1305 -15.9888 -15.9447 -14.7210
   -14.6517 -11.4606  -7.1735  -5.4100  -5.2094  -5.1881  -5.1585  -4.9949
    -4.9416  -4.9085  -4.7348  -4.6737  -4.5351  -4.3792  -4.3451  -4.3230
    -4.2353  -4.2239  -4.1633  -4.0900  -4.0655  -4.0394  -4.0113  -3.9991
    -3.9514  -3.9161  -3.8888  -3.8436  -3.7976  -3.7866  -3.7597  -3.6987
    -3.6759  -3.6379  -3.5911  -3.5799  -3.5154  -3.5091  -3.3974  -3.2959
    -3.2317  -3.2055  -3.1297  -3.0515  -2.9595  -2.9223  -2.7651  -2.6883
    -2.6591  -2.6139  -2.5865  -2.5083  -2.4805  -2.4275  -2.4234  -2.3987
    -2.3823  -2.3613  -2.3145  -2.2771  -2.1941  -2.1507  -2.0988  -2.0797
    -2.0393  -1.9749  -1.9267  -1.8734  -1.8437  -1.8062  -1.7186  -1.6845
    -1.6275  -1.5750  -1.5678  -1.5352  -1.4910  -1.4475  -1.4116  -1.3727
    -1.3214  -1.3103  -1.2560  -1.2180  -1.1788  -1.1064  -1.0767  -1.0350
    -0.9946  -0.8713  -0.8166  -0.8111  -0.7309  -0.7162  -0.6838  -0.6351
    -0.4078  -0.2592  -0.1094  -0.0641   0.1714   0.2006   0.2108   1.7434
     1.8674   2.0388   2.1285   2.2216   2.2736   2.3101   2.3438   2.4303
     2.4391   2.4759   2.5111   2.5539   2.5567   2.5738   2.6344   2.6940
     2.7306   2.7641   2.8007   2.8395   2.9645   3.0118   3.0302   3.0535
     3.1333   3.1630   3.1702   3.1990   3.2333   3.2655   3.3718   3.3965
     3.4270   3.4449   3.4885   3.5298   3.5880   3.5960   3.6620   3.6836
     3.6968   3.7350   3.7743   3.9177   4.0172   4.1636   4.2077   4.2792
     4.3289   4.4769   4.5317   4.7535   4.9608   4.9684   5.0105   5.1006
     5.1838   5.1993   5.2501   5.4063   5.6554   5.6806   5.7388   5.8078
     5.8698   5.8868   5.8948   6.0334   6.0889   6.0998   6.1466   6.1704
     6.2068   6.2226   6.2352   6.2626   6.4507   6.5306   6.6263   6.6784
     6.7875   6.8764   6.9852   7.1396   7.2380   7.4642   7.8925   7.9984
     8.1101   8.2025   8.4349   8.5711   8.6367   8.7502   8.9245   9.2507
     9.3425   9.4221   9.4938

          k =-0.0253 0.0560 0.0000 ( 34699 PWs)   bands (ev):

   -57.6679 -57.6504 -57.2813 -57.2629 -57.1989 -57.0775 -57.0576 -57.0401
   -57.0226 -57.0226 -56.9553 -56.9376 -56.6985 -56.6792 -56.1189 -56.1012
   -34.0179 -33.9515 -33.9372 -33.8539 -33.8230 -33.8070 -33.7455 -33.5682
   -33.5443 -33.5425 -33.5072 -33.4980 -33.4837 -33.4808 -33.4488 -33.4462
   -33.4237 -33.3972 -33.3874 -33.3432 -33.2898 -33.2867 -33.2846 -33.2774
   -33.2621 -33.2527 -33.2438 -33.2331 -33.2296 -33.2227 -33.2143 -33.2105
   -33.1842 -33.1730 -33.1450 -33.1402 -33.1028 -32.9649 -32.9509 -32.9383
   -32.9032 -32.8804 -32.4741 -32.4602 -32.4490 -32.3270 -32.2812 -32.2513
   -20.1705 -17.7291 -17.5665 -17.3174 -17.2381 -17.2168 -17.1675 -17.1447
   -17.1123 -16.9732 -16.9432 -16.8570 -16.8519 -16.8018 -16.7688 -16.7501
   -16.7234 -16.6438 -16.5944 -16.5782 -16.5552 -16.5044 -16.4023 -16.3852
   -16.3309 -16.2618 -16.2102 -16.1704 -16.1340 -16.0909 -16.0172 -14.7396
   -14.7025 -11.4598  -7.1727  -5.3781  -5.1996  -5.0020  -4.9264  -4.7869
    -4.7325  -4.6868  -4.5343  -4.4692  -4.4640  -4.3865  -4.3715  -4.3178
    -4.2451  -4.2076  -4.1914  -4.1659  -4.1226  -4.1159  -4.0821  -4.0379
    -4.0057  -3.9857  -3.9694  -3.9116  -3.9007  -3.8484  -3.8374  -3.7977
    -3.7497  -3.6917  -3.6334  -3.5478  -3.4609  -3.4237  -3.3346  -3.2612
    -3.2156  -3.1952  -3.1781  -2.9892  -2.9301  -2.8421  -2.8030  -2.7584
    -2.7352  -2.6219  -2.5703  -2.4875  -2.4641  -2.4148  -2.3691  -2.3398
    -2.3200  -2.3009  -2.2662  -2.2416  -2.1659  -2.1192  -2.1039  -2.0157
    -1.9952  -1.9790  -1.9218  -1.9190  -1.8806  -1.8375  -1.8071  -1.7820
    -1.7201  -1.6867  -1.6488  -1.6183  -1.5563  -1.5147  -1.4801  -1.4368
    -1.4075  -1.3493  -1.3234  -1.2816  -1.2045  -1.1849  -1.1238  -1.0809
    -1.0500  -0.9921  -0.8996  -0.8573  -0.7896  -0.7767  -0.7127  -0.6580
    -0.5824  -0.4419  -0.2321   0.1137   0.1506   0.1776   0.2102   1.8842
     2.0704   2.1640   2.2014   2.2545   2.2969   2.3298   2.3603   2.4065
     2.4705   2.4837   2.5122   2.5401   2.5449   2.6081   2.7194   2.7506
     2.7711   2.7991   2.8534   2.8658   2.9181   2.9753   2.9972   3.0129
     3.0491   3.0591   3.1970   3.2343   3.3159   3.3419   3.3584   3.3967
     3.4375   3.4606   3.4854   3.5688   3.5829   3.6588   3.6838   3.7577
     3.8172   3.8414   3.8850   3.9222   3.9301   4.0977   4.1391   4.1881
     4.3652   4.4102   4.6485   4.9828   5.0451   5.1072   5.1574   5.1790
     5.2840   5.3111   5.3411   5.4517   5.5378   5.5834   5.6651   5.7869
     5.8438   5.8725   5.9176   5.9487   5.9750   6.0066   6.0607   6.0845
     6.1579   6.1761   6.2492   6.3159   6.4006   6.4193   6.4734   6.6474
     6.7005   6.8177   6.8476   7.0410   7.1300   7.3774   7.4641   7.5592
     7.9323   8.1467   8.3238   8.4976   8.6203   8.8489   9.0274   9.1325
     9.1523   9.4543   9.5830

          k =-0.0506 0.0280 0.0000 ( 34685 PWs)   bands (ev):

   -57.6743 -57.6440 -57.2878 -57.2564 -57.1997 -57.0834 -57.0515 -57.0467
   -57.0217 -57.0161 -56.9618 -56.9311 -56.7051 -56.6725 -56.1253 -56.0948
   -34.0884 -33.9568 -33.9322 -33.8694 -33.8168 -33.7897 -33.7500 -33.6019
   -33.5837 -33.5612 -33.5193 -33.5087 -33.5001 -33.4921 -33.4631 -33.4428
   -33.4269 -33.4220 -33.4000 -33.3451 -33.2937 -33.2666 -33.2551 -33.2412
   -33.2401 -33.2354 -33.2295 -33.2236 -33.2137 -33.2122 -33.2100 -33.1907
   -33.1793 -33.1594 -33.1515 -33.1186 -33.1161 -32.9698 -32.9597 -32.9329
   -32.8903 -32.8109 -32.5196 -32.4810 -32.4543 -32.3435 -32.2642 -32.1772
   -20.1704 -17.8328 -17.6284 -17.3437 -17.3143 -17.2220 -17.1978 -17.1923
   -17.0966 -17.0164 -16.9401 -16.8941 -16.8426 -16.8332 -16.8318 -16.8073
   -16.7347 -16.7227 -16.5326 -16.5018 -16.4749 -16.4139 -16.3912 -16.3492
   -16.3435 -16.2887 -16.1674 -16.1482 -16.1294 -15.9901 -15.9445 -14.7191
   -14.6518 -11.4582  -7.1671  -5.4226  -5.1936  -5.1865  -4.8700  -4.8099
    -4.6936  -4.6779  -4.6481  -4.6288  -4.6048  -4.4867  -4.4041  -4.3208
    -4.2924  -4.2757  -4.1325  -4.1012  -4.0350  -4.0041  -3.9844  -3.9683
    -3.9586  -3.8848  -3.8354  -3.7906  -3.7478  -3.7349  -3.6950  -3.6681
    -3.6336  -3.6084  -3.5596  -3.5258  -3.4481  -3.3530  -3.2766  -3.2399
    -3.2108  -3.1472  -3.0805  -3.0349  -2.9329  -2.9145  -2.8603  -2.8164
    -2.7200  -2.6752  -2.6357  -2.6259  -2.5809  -2.5680  -2.5126  -2.4702
    -2.4116  -2.3637  -2.3570  -2.3114  -2.2851  -2.2288  -2.1545  -2.1099
    -2.0910  -2.0385  -2.0073  -1.9507  -1.9169  -1.8841  -1.8337  -1.8059
    -1.7296  -1.7154  -1.6877  -1.6149  -1.5170  -1.4835  -1.4625  -1.3952
    -1.3442  -1.3259  -1.2585  -1.2442  -1.2134  -1.1287  -1.1101  -0.9889
    -0.9598  -0.8573  -0.8332  -0.7898  -0.7558  -0.7401  -0.6798  -0.6667
    -0.4877  -0.2885  -0.2353  -0.0514   0.1318   0.1611   0.1849   1.7269
     1.9277   2.0829   2.1506   2.1534   2.1964   2.2673   2.3882   2.3969
     2.4315   2.4665   2.5432   2.5937   2.5971   2.6273   2.7103   2.7232
     2.7683   2.8301   2.8600   2.9276   2.9824   3.0078   3.0655   3.0865
     3.1197   3.1871   3.1956   3.2238   3.3277   3.3835   3.3997   3.4351
     3.4698   3.4821   3.5733   3.6100   3.6274   3.6791   3.6998   3.7102
     3.7429   3.7964   3.8412   3.8953   3.9569   4.0833   4.1912   4.3049
     4.3204   4.4453   4.6411   4.7164   4.7870   4.8356   4.8826   4.9702
     5.0372   5.1419   5.2487   5.4900   5.6161   5.6532   5.7309   5.8160
     5.8801   5.8942   5.9501   5.9675   5.9966   6.1026   6.1360   6.1603
     6.2371   6.4558   6.4969   6.5666   6.6013   6.6170   6.7084   6.7416
     6.8154   6.8397   6.9961   7.0945   7.1860   7.3688   7.5440   7.6848
     8.0941   8.1806   8.2118   8.3509   8.7084   8.9587   8.9901   9.0241
     9.3340   9.3911   9.5871

          k =-0.0506 0.0560 0.0000 ( 34596 PWs)   bands (ev):

   -57.6679 -57.6504 -57.2813 -57.2629 -57.1989 -57.0774 -57.0576 -57.0402
   -57.0226 -57.0226 -56.9553 -56.9376 -56.6985 -56.6792 -56.1189 -56.1012
   -34.0184 -33.9515 -33.9372 -33.8527 -33.8231 -33.8067 -33.7456 -33.5682
   -33.5444 -33.5436 -33.5077 -33.4940 -33.4884 -33.4858 -33.4495 -33.4462
   -33.4217 -33.3972 -33.3777 -33.3296 -33.2940 -33.2876 -33.2771 -33.2749
   -33.2624 -33.2526 -33.2436 -33.2308 -33.2296 -33.2274 -33.2235 -33.2156
   -33.1843 -33.1745 -33.1449 -33.1398 -33.1023 -32.9649 -32.9538 -32.9381
   -32.9032 -32.8802 -32.4752 -32.4598 -32.4488 -32.3270 -32.2811 -32.2512
   -20.1700 -17.6783 -17.4777 -17.2642 -17.2137 -17.1711 -17.1504 -17.1350
   -17.0629 -17.0140 -16.9803 -16.8885 -16.8315 -16.8250 -16.8175 -16.7789
   -16.7522 -16.6950 -16.6363 -16.5947 -16.5844 -16.5266 -16.4884 -16.3723
   -16.3181 -16.2405 -16.2022 -16.1689 -16.1333 -16.0926 -16.0164 -14.7384
   -14.7029 -11.4573  -7.1660  -5.3931  -5.1984  -4.9923  -4.6366  -4.5934
    -4.4890  -4.4726  -4.4566  -4.4300  -4.4044  -4.3415  -4.3004  -4.2771
    -4.2010  -4.1807  -4.1237  -4.1075  -4.0567  -4.0421  -4.0223  -4.0107
    -3.9889  -3.9701  -3.9445  -3.8894  -3.8691  -3.8642  -3.7978  -3.7627
    -3.7059  -3.6385  -3.6092  -3.5015  -3.4796  -3.3992  -3.3047  -3.2445
    -3.2344  -3.2228  -3.1597  -3.0028  -2.9120  -2.8830  -2.8289  -2.8086
    -2.7319  -2.7034  -2.6608  -2.5863  -2.5693  -2.5429  -2.5041  -2.4659
    -2.4044  -2.3825  -2.3422  -2.3052  -2.2924  -2.2770  -2.2311  -2.1539
    -2.1297  -2.0986  -2.0915  -2.0538  -2.0221  -1.9762  -1.9583  -1.8772
    -1.8663  -1.8271  -1.8085  -1.7026  -1.6151  -1.5808  -1.5487  -1.4547
    -1.3906  -1.3520  -1.2842  -1.2573  -1.1839  -1.0944  -1.0544  -0.9962
    -0.9817  -0.9137  -0.8309  -0.7960  -0.7459  -0.7314  -0.6678  -0.6332
    -0.6285  -0.4924  -0.2995   0.0998   0.1339   0.1519   0.2156   1.8896
     2.0992   2.1946   2.2263   2.2457   2.2667   2.3240   2.3751   2.4198
     2.4271   2.5612   2.5960   2.6051   2.6316   2.6551   2.7109   2.7797
     2.8058   2.8294   2.8641   2.9075   2.9892   3.0317   3.0535   3.0889
     3.1230   3.1618   3.1931   3.2831   3.3597   3.3917   3.4218   3.4667
     3.5050   3.5253   3.5473   3.5689   3.6394   3.6719   3.7377   3.7671
     3.8046   3.8753   3.9049   3.9422   3.9481   3.9792   4.1341   4.1976
     4.3119   4.5009   4.7534   4.8297   4.8433   4.9206   4.9699   5.1147
     5.1903   5.2423   5.2934   5.3181   5.3971   5.4617   5.5202   5.6517
     5.8006   5.8419   5.9023   5.9722   6.0387   6.1461   6.2337   6.2769
     6.3052   6.3525   6.4406   6.4698   6.5043   6.5925   6.6606   6.7363
     6.7502   6.8181   6.8517   7.0022   7.0326   7.3969   7.4280   7.5414
     7.7261   7.9268   8.0504   8.3509   8.5569   8.5713   8.6946   8.9815
     9.2023   9.3145   9.4582

     the Fermi energy is     1.0194 ev

!    total energy              =   -3021.41929293 Ry
     Harris-Foulkes estimate   =   -3021.41929063 Ry
     estimated scf accuracy    <       0.00000026 Ry

     The total energy is the sum of the following terms:

     one-electron contribution =  -41253.20639951 Ry
     hartree contribution      =   20701.19046615 Ry
     xc contribution           =    -553.66872898 Ry
     ewald contribution        =   18084.26557960 Ry
     smearing contrib. (-TS)   =      -0.00021019 Ry

     total magnetization       =     0.00 Bohr mag/cell
     absolute magnetization    =     0.00 Bohr mag/cell

     convergence has been achieved in  11 iterations

     Forces acting on atoms (Ry/au):


     negative rho (up, down):  1.209E-02 1.209E-02
     atom    1 type  1   force =     0.00001270   -0.00034459   -0.13361512
     atom    2 type  2   force =     0.00004734    0.00002186    0.07201513
     atom    3 type  1   force =    -0.00136858    0.00030216   -0.06074144
     atom    4 type  2   force =     0.00287792    0.00046633    0.00630906
     atom    5 type  1   force =     0.00027105    0.00201654    0.00381900
     atom    6 type  2   force =     0.00021283    0.00002603   -0.00377462
     atom    7 type  1   force =    -0.00045114   -0.00068469    0.00325418
     atom    8 type  2   force =     0.00042603   -0.00061235   -0.00088434
     atom    9 type  1   force =    -0.00002760    0.00002419   -0.13340772
     atom   10 type  2   force =    -0.00005947    0.00004992    0.07122135
     atom   11 type  1   force =    -0.00131345   -0.00024785   -0.05568162
     atom   12 type  2   force =     0.00297359   -0.00005980    0.00600857
     atom   13 type  1   force =     0.00031025   -0.00163942    0.00377051
     atom   14 type  2   force =    -0.00128473   -0.00040263   -0.00306409
     atom   15 type  1   force =    -0.00032983    0.00017203    0.00422020
     atom   16 type  2   force =     0.00001971    0.00010799   -0.00018298
     atom   17 type  2   force =    -0.00013450   -0.00008074    0.07926368
     atom   18 type  1   force =     0.00013362   -0.00016579    0.11932198
     atom   19 type  2   force =    -0.00010632   -0.00016759   -0.06678922
     atom   20 type  2   force =    -0.06322488    0.00014713   -0.03227997
     atom   21 type  2   force =     0.06316818    0.00002001   -0.03243440
     atom   22 type  1   force =     0.00072204    0.00105456    0.05988461
     atom   23 type  2   force =    -0.00015046    0.00005277   -0.00201616
     atom   24 type  2   force =    -0.00138310   -0.00000950   -0.02341367
     atom   25 type  2   force =    -0.00309951    0.00057252    0.00787123
     atom   26 type  1   force =     0.00056572    0.00029639    0.00462919
     atom   27 type  2   force =     0.00054672    0.00059186   -0.00376502
     atom   28 type  2   force =     0.00007933   -0.00008411   -0.00124746
     atom   29 type  2   force =     0.00037971   -0.00032408   -0.00064731
     atom   30 type  1   force =     0.00012992   -0.00072992    0.00329910
     atom   31 type  2   force =     0.00030792    0.00022657   -0.00201548
     atom   32 type  2   force =     0.00069927   -0.00083532   -0.00187363
     atom   33 type  2   force =    -0.00013374    0.00003051    0.07891392
     atom   34 type  1   force =     0.00003197   -0.00021071    0.11920202
     atom   35 type  2   force =    -0.00033081   -0.00007545   -0.06649758
     atom   36 type  2   force =    -0.06317908   -0.00007546   -0.03235671
     atom   37 type  2   force =     0.06328075   -0.00022903   -0.03245832
     atom   38 type  1   force =     0.00065281   -0.00094312    0.06009220
     atom   39 type  2   force =    -0.00045988    0.00009491   -0.00270624
     atom   40 type  2   force =    -0.00115166    0.00030104   -0.02228257
     atom   41 type  2   force =    -0.00312167   -0.00014316    0.00789615
     atom   42 type  1   force =     0.00047889    0.00006820    0.00383776
     atom   43 type  2   force =     0.00072808    0.00025566   -0.00286150
     atom   44 type  2   force =     0.00015272    0.00010965   -0.00122253
     atom   45 type  2   force =     0.00036699    0.00028689   -0.00069600
     atom   46 type  1   force =     0.00037250    0.00033526    0.00334842
     atom   47 type  2   force =     0.00007105   -0.00026345   -0.00088192
     atom   48 type  2   force =     0.00075412    0.00087778   -0.00155367
     atom   49 type  3   force =     0.00095097   -0.00057515   -0.01480118
     atom   50 type  2   force =     0.00370767   -0.00056353    0.03398197
     atom   51 type  4   force =     0.00012348    0.00005421    0.00044248
     atom   52 type  4   force =    -0.00980285    0.00050194   -0.00894656
     atom   53 type  4   force =     0.00266131    0.00098525   -0.00382022
     atom   54 type  4   force =     0.00289616   -0.00058273   -0.00368346

     Total force =     0.364722     Total SCF correction =     0.001486
 !ASE

     Writing output data file calc.save
 
     init_run     :     56.00s CPU     70.42s WALL (       1 calls)
     electrons    :   2439.61s CPU   2996.80s WALL (       1 calls)
     forces       :     39.49s CPU     41.81s WALL (       1 calls)

     Called by init_run:
     wfcinit      :     47.54s CPU     60.98s WALL (       1 calls)
     potinit      :      1.36s CPU      1.66s WALL (       1 calls)

     Called by electrons:
     c_bands      :   2134.43s CPU   2613.61s WALL (      11 calls)
     sum_band     :    255.90s CPU    326.77s WALL (      11 calls)
     v_of_rho     :     11.93s CPU     15.15s WALL (      12 calls)
     newd         :     41.13s CPU     45.28s WALL (      12 calls)
     mix_rho      :      0.42s CPU      0.60s WALL (      11 calls)
     vdW_energy   :      2.12s CPU      2.81s WALL (      13 calls)
     vdW_ffts     :      3.17s CPU      4.26s WALL (      26 calls)
     vdW_v        :      1.19s CPU      1.39s WALL (      13 calls)

     Called by c_bands:
     init_us_2    :      6.51s CPU      7.07s WALL (     960 calls)
     cegterg      :   2092.66s CPU   2569.33s WALL (     440 calls)

     Called by *egterg:
     h_psi        :    819.92s CPU   1201.25s WALL (    2687 calls)
     s_psi        :    100.41s CPU    105.09s WALL (    2687 calls)
     g_psi        :      5.34s CPU      5.44s WALL (    2207 calls)
     cdiaghg      :    791.63s CPU    810.97s WALL (    2647 calls)

     Called by h_psi:
     add_vuspsi   :    101.07s CPU    105.98s WALL (    2687 calls)

     General routines
     calbec       :    152.19s CPU    156.51s WALL (    3167 calls)
     fft          :      6.65s CPU      8.80s WALL (    1029 calls)
     ffts         :      0.04s CPU      0.08s WALL (      46 calls)
     fftw         :    540.03s CPU    969.51s WALL (  790482 calls)
     interpolate  :      0.34s CPU      0.58s WALL (      46 calls)
     davcio       :      0.09s CPU      2.84s WALL (      40 calls)
 
     Parallel routines
     fft_scatter  :    288.71s CPU    512.39s WALL (  791557 calls)
 
     PWSCF        : 42m16.18s CPU    51m53.72s WALL

 
   This run was terminated on:  17:12:40  12Feb2018            

=------------------------------------------------------------------------------=
   JOB DONE.
=------------------------------------------------------------------------------=
