  python dir          : /home/vossj/suncat/lib/python2.7/site-packages/espresso
  espresso dir        : /home/vossj/suncat/esdld/espresso-dynpy-beef/bin
  pseudo dir          : /home/alatimer/bin/psp/esp_psp_w_gbrvRu/
  ase-espresso py git : ffa2778-git



     Program PWSCF v.5.1rc2 (svn rev. ) starts on 10Feb2018 at 22:32:31 

     This program is part of the open-source Quantum ESPRESSO suite
     for quantum simulation of materials; please cite
         "P. Giannozzi et al., J. Phys.:Condens. Matter 21 395502 (2009);
          URL http://www.quantum-espresso.org", 
     in publications or presentations arising from this work. More details at
     http://www.quantum-espresso.org/quote

     Parallel version (MPI), running on    16 processors
     R & G space division:  proc/nbgrp/npool/nimage =      16
     Reading input from pw.inp
     Message from routine read_cards :
     DEPRECATED: no units specified in CELL_PARAMETERS card

     Current dimensions of program PWSCF are:
     Max number of different atomic species (ntypx) = 10
     Max number of k-points (npk) =  40000
     Max angular momentum in pseudopotentials (lmaxx) =  3

     **************************************************************************
     Initializing libbeef V0.1.1 with the BEEF-vdW functional.
     Citation: Wellendorff et al., PRB 85, 235149 (2012).
     **************************************************************************


     IMPORTANT: XC functional enforced from input :
     Exchange-correlation      = BEEF ( 1  4 27 13 2)
     Any further DFT definition will be discarded
     Please, verify this is what you really want


     Subspace diagonalization in iterative solution of the eigenvalue problem:
     a serial algorithm will be used

 
     Parallelization info
     --------------------
     sticks:   dense  smooth     PW     G-vecs:    dense   smooth      PW
     Min         281     112     31                68535    17318    2565
     Max         282     113     32                68545    17369    2582
     Sum        4501    1795    503              1096637   277353   41113
 
     Generating pointlists ...
     new r_m :   0.4125 (alat units)  0.7795 (a.u.) for type    1
     new r_m :   0.3887 (alat units)  0.7345 (a.u.) for type    2
     new r_m :   0.3887 (alat units)  0.7345 (a.u.) for type    3


     bravais-lattice index     =            0
     lattice parameter (alat)  =       1.8897  a.u.
     unit-cell volume          =    7990.9933 (a.u.)^3
     number of atoms/cell      =           50
     number of atomic types    =            3
     number of electrons       =       391.00
     number of Kohn-Sham states=          295
     kinetic-energy cutoff     =      40.4243  Ry
     charge density cutoff     =     404.2426  Ry
     convergence threshold     =      7.3E-07
     mixing beta               =       0.1000
     number of iterations used =           10  plain     mixing
     Exchange-correlation      = BEEF ( 1  4 27 13 2)
     nstep                     =           50


     celldm(1)=   1.889726  celldm(2)=   0.000000  celldm(3)=   0.000000
     celldm(4)=   0.000000  celldm(5)=   0.000000  celldm(6)=   0.000000

     crystal axes: (cart. coord. in units of alat)
               a(1) = (   6.590708   0.000000   0.000000 )  
               a(2) = (   0.000000   5.950229   0.000000 )  
               a(3) = (   0.000000   0.000000  30.195235 )  

     reciprocal axes: (cart. coord. in units 2 pi/alat)
               b(1) = (  0.151729  0.000000  0.000000 )  
               b(2) = (  0.000000  0.168061  0.000000 )  
               b(3) = (  0.000000  0.000000  0.033118 )  


     PseudoPot. # 1 for Ti read from file:
     /home/alatimer/bin/psp/esp_psp_w_gbrvRu/Ti.UPF
     MD5 check sum: 8e4df49b7f0d34bbd5052bf3f5ea0213
     Pseudo is Ultrasoft, Zval = 12.0
     Generated by new atomic code, or converted to UPF format
     Using radial grid of  851 points,  6 beta functions with: 
                l(1) =   0
                l(2) =   0
                l(3) =   1
                l(4) =   1
                l(5) =   2
                l(6) =   2
     Q(r) pseudized with  8 coefficients,  rinner =    1.000   1.000   1.000
                                                       1.000   1.000

     PseudoPot. # 2 for  O read from file:
     /home/alatimer/bin/psp/esp_psp_w_gbrvRu/O.UPF
     MD5 check sum: e057bbcf3229fb5d8c36c0c92f9568b4
     Pseudo is Ultrasoft + core correction, Zval =  6.0
     Generated using "atomic" code by A. Dal Corso  v.5.0.2 svn rev. 9415
     Using radial grid of 1095 points,  4 beta functions with: 
                l(1) =   0
                l(2) =   0
                l(3) =   1
                l(4) =   1
     Q(r) pseudized with 0 coefficients 


     PseudoPot. # 3 for  H read from file:
     /home/alatimer/bin/psp/esp_psp_w_gbrvRu/H.UPF
     MD5 check sum: bd57da0722753ddfd9833a65b40bb853
     Pseudo is Ultrasoft, Zval =  1.0
     Generated using "atomic" code by A. Dal Corso  v.5.0.2 svn rev. 9415
     Using radial grid of  929 points,  2 beta functions with: 
                l(1) =   0
                l(2) =   0
     Q(r) pseudized with 0 coefficients 


     vdW kernel table read from file vdW_kernel_table
     MD5 check sum: 095c7af220d748ca6e76c0b4c6cfb241

     atomic species   valence    mass     pseudopotential
        Ti1           12.00    47.88000     Ti( 1.00)
        O1             6.00    15.99940      O( 1.00)
        H1             1.00     1.00794      H( 1.00)

     Starting magnetic structure 
     atomic species   magnetization
        Ti1          0.250
        O1           0.500
        H1           0.000

      2 Sym. Ops. (no inversion) found ( 1 have fractional translation)



   Cartesian axes

     site n.     atom                  positions (alat units)
         1           Ti1 tau(   1) = (   1.6476770   0.7437786   2.6545865  )
         2           O1  tau(   2) = (   1.6476770   2.2313359   3.9361215  )
         3           Ti1 tau(   3) = (   1.6476770   2.2313359   5.9499405  )
         4           O1  tau(   4) = (   0.3661420   0.7437786   5.9499405  )
         5           Ti1 tau(   5) = (   1.6423058   0.7993178   9.2289010  )
         6           O1  tau(   6) = (   1.6406404   2.2313359  10.4535548  )
         7           Ti1 tau(   7) = (   1.6373334   2.2313359  13.0586656  )
         8           O1  tau(   8) = (   0.3716334   0.7231912  12.7369480  )
         9           Ti1 tau(   9) = (   1.6476770   3.7188931   2.6545865  )
        10           O1  tau(  10) = (   1.6476770   5.2064503   3.9361215  )
        11           Ti1 tau(  11) = (   1.6476770   5.2064503   5.9499405  )
        12           O1  tau(  12) = (   0.3661420   3.7188931   5.9499405  )
        13           Ti1 tau(  13) = (   1.6423059   3.6633529   9.2289023  )
        14           O1  tau(  14) = (   1.6396028   5.2064504  10.5374954  )
        15           Ti1 tau(  15) = (   1.6366369   5.2064504  12.3426698  )
        16           O1  tau(  16) = (   0.3716333   3.7394800  12.7369475  )
        17           O1  tau(  17) = (   1.6476770   2.2313359   1.3730516  )
        18           Ti1 tau(  18) = (   4.9430310   2.2313359   2.6545865  )
        19           O1  tau(  19) = (   4.9430310   2.2313359   4.6684056  )
        20           O1  tau(  20) = (   6.2245660   0.7437786   2.6545865  )
        21           O1  tau(  21) = (   3.6614961   0.7437786   2.6545865  )
        22           Ti1 tau(  22) = (   4.9430310   0.7437786   5.9499405  )
        23           O1  tau(  23) = (   1.6444126   2.2313359   7.9291264  )
        24           O1  tau(  24) = (   4.9430310   2.2313359   7.2314755  )
        25           O1  tau(  25) = (   2.9292120   0.7437786   5.9499405  )
        26           Ti1 tau(  26) = (   4.9374203   2.2313360   9.4425711  )
        27           O1  tau(  27) = (   4.9384755   2.2313359  11.2756104  )
        28           O1  tau(  28) = (   6.2333856   0.7395591   9.2701299  )
        29           O1  tau(  29) = (   3.6424277   0.7403199   9.2676498  )
        30           Ti1 tau(  30) = (   4.9388558   0.7382018  12.7898683  )
        31           O1  tau(  31) = (   4.8884434   2.2313358  13.8602379  )
        32           O1  tau(  32) = (   2.8718067   0.7224686  12.6922084  )
        33           O1  tau(  33) = (   1.6476770   5.2064503   1.3730516  )
        34           Ti1 tau(  34) = (   4.9430310   5.2064503   2.6545865  )
        35           O1  tau(  35) = (   4.9430310   5.2064503   4.6684056  )
        36           O1  tau(  36) = (   6.2245660   3.7188931   2.6545865  )
        37           O1  tau(  37) = (   3.6614961   3.7188931   2.6545865  )
        38           Ti1 tau(  38) = (   4.9430310   3.7188931   5.9499405  )
        39           O1  tau(  39) = (   1.6444418   5.2064506   7.9393866  )
        40           O1  tau(  40) = (   4.9430310   5.2064503   7.2314755  )
        41           O1  tau(  41) = (   2.9292120   3.7188931   5.9499405  )
        42           Ti1 tau(  42) = (   4.9387790   5.2064503   9.4241858  )
        43           O1  tau(  43) = (   4.9379278   5.2064504  11.2756977  )
        44           O1  tau(  44) = (   6.2333855   3.7231127   9.2701299  )
        45           O1  tau(  45) = (   3.6424278   3.7223520   9.2676499  )
        46           Ti1 tau(  46) = (   4.9388558   3.7244696  12.7898683  )
        47           O1  tau(  47) = (   4.8902929   5.2064502  13.8618696  )
        48           O1  tau(  48) = (   2.8718066   3.7402036  12.6922086  )
        49           O1  tau(  49) = (   1.7618258   2.2313358  14.8494317  )
        50           H1  tau(  50) = (   2.5707197   2.2313366  15.3328018  )

     number of k points=    32  Fermi-Dirac smearing, width (Ry)=  0.0073
                       cart. coord. in units 2pi/alat
        k(    1) = (   0.0000000   0.0000000   0.0000000), wk =   0.0277778
        k(    2) = (   0.0000000   0.0280101   0.0000000), wk =   0.0555556
        k(    3) = (   0.0000000   0.0560203   0.0000000), wk =   0.0555556
        k(    4) = (   0.0000000  -0.0840304   0.0000000), wk =   0.0277778
        k(    5) = (   0.0252881   0.0000000   0.0000000), wk =   0.0555556
        k(    6) = (   0.0252881   0.0280101   0.0000000), wk =   0.1111111
        k(    7) = (   0.0252881   0.0560203   0.0000000), wk =   0.1111111
        k(    8) = (   0.0252881  -0.0840304   0.0000000), wk =   0.0555556
        k(    9) = (   0.0505763   0.0000000   0.0000000), wk =   0.0555556
        k(   10) = (   0.0505763   0.0280101   0.0000000), wk =   0.1111111
        k(   11) = (   0.0505763   0.0560203   0.0000000), wk =   0.1111111
        k(   12) = (   0.0505763  -0.0840304   0.0000000), wk =   0.0555556
        k(   13) = (  -0.0758644   0.0000000   0.0000000), wk =   0.0277778
        k(   14) = (  -0.0758644   0.0280101   0.0000000), wk =   0.0555556
        k(   15) = (  -0.0758644   0.0560203   0.0000000), wk =   0.0555556
        k(   16) = (  -0.0758644  -0.0840304   0.0000000), wk =   0.0277778
        k(   17) = (   0.0000000   0.0000000   0.0000000), wk =   0.0277778
        k(   18) = (   0.0000000   0.0280101   0.0000000), wk =   0.0555556
        k(   19) = (   0.0000000   0.0560203   0.0000000), wk =   0.0555556
        k(   20) = (   0.0000000  -0.0840304   0.0000000), wk =   0.0277778
        k(   21) = (   0.0252881   0.0000000   0.0000000), wk =   0.0555556
        k(   22) = (   0.0252881   0.0280101   0.0000000), wk =   0.1111111
        k(   23) = (   0.0252881   0.0560203   0.0000000), wk =   0.1111111
        k(   24) = (   0.0252881  -0.0840304   0.0000000), wk =   0.0555556
        k(   25) = (   0.0505763   0.0000000   0.0000000), wk =   0.0555556
        k(   26) = (   0.0505763   0.0280101   0.0000000), wk =   0.1111111
        k(   27) = (   0.0505763   0.0560203   0.0000000), wk =   0.1111111
        k(   28) = (   0.0505763  -0.0840304   0.0000000), wk =   0.0555556
        k(   29) = (  -0.0758644   0.0000000   0.0000000), wk =   0.0277778
        k(   30) = (  -0.0758644   0.0280101   0.0000000), wk =   0.0555556
        k(   31) = (  -0.0758644   0.0560203   0.0000000), wk =   0.0555556
        k(   32) = (  -0.0758644  -0.0840304   0.0000000), wk =   0.0277778

     Dense  grid:  1096637 G-vectors     FFT dimensions: (  80,  72, 375)

     Smooth grid:   277353 G-vectors     FFT dimensions: (  54,  45, 240)

     Largest allocated arrays     est. size (Mb)     dimensions
        Kohn-Sham Wavefunctions         9.81 Mb     (    2180,  295)
        NL pseudopotentials            18.43 Mb     (    2180,  554)
        Each V/rho on FFT grid          4.22 Mb     (  138240,   2)
        Each G-vector array             0.52 Mb     (   68538)
        G-vector shells                 0.25 Mb     (   33046)
     Largest temporary arrays     est. size (Mb)     dimensions
        Auxiliary wavefunctions        39.25 Mb     (    2180, 1180)
        Each subspace H/S matrix       21.25 Mb     (    1180, 1180)
        Each <psi_i|beta_j> matrix      2.49 Mb     (     554,  295)
        Arrays for rho mixing          21.09 Mb     (  138240,   10)

     Check: negative/imaginary core charge=   -0.000049    0.000000

     The initial density is read from file :
     ./calc.save/charge-density.dat


     negative rho (up, down):  1.350E-02 1.350E-02


     ************************************************************************
     *
     * You are using vdW-DF for exchange-correlation in this calculation.
     * Please cite the following three references that made this development
     * possible:
     *
     *   M. Dion, H. Rydberg, E. Schroder, D. C. Langreth, and
     *   B. I. Lundqvist, Phys. Rev. Lett. 92, 246401 (2004).
     *
     *   T. Thonhauser, V. R. Cooper, S. Li, A. Puzder, P. Hyldgaard, and
     *   D. C. Langreth, Phys. Rev. B 76, 125112 (2007).
     *
     *   G. Roman-Perez and J. M. Soler, Phys. Rev. Lett. 103, 096102 (2009).
     *
     *
     * If you are using vdW-DF2, please also cite:
     *
     *   K. Lee, E. D. Murray, L. Kong, B. I. Lundqvist, and
     *   D. C. Langreth, Phys. Rev. B 82, 081101(R) (2010).
     *
     *
     * If you are calculating the stress with vdW-DF, please also cite:
     *
     *   R. Sabatini, E. Kucukbenli, B. Kolb, T. Thonhauser, and
     *   S. de Gironcoli, J. Phys.: Condens. Matter 24, 424209 (2012).
     *
     ************************************************************************

     Carrying out vdW-DF run using the following parameters:

     Nqs =      20    Nr_points =    1024   r_max =   100.000
     q_mesh =
               0.00001000     0.04494208     0.09755937     0.15916263
               0.23128650     0.31572767     0.41458969     0.53033537
               0.66584808     0.82450364     1.01025438     1.22772762
               1.48234092     1.78043706     2.12944203     2.53805004
               3.01644009     3.57652955     4.23227104     5.00000000

     Gradients computed in reciprocal space

     ************************************************************************


     Starting wfc are  293 randomized atomic wfcs +    2 random wfc

     total cpu time spent up to now is       57.9 secs

     Self-consistent Calculation

     iteration #  1     ecut=    40.42 Ry     beta=0.10
     Davidson diagonalization with overlap
     c_bands:  1 eigenvalues not converged
     c_bands:  1 eigenvalues not converged
     ethr =  1.00E-05,  avg # of iterations = 17.0

     negative rho (up, down):  1.351E-02 1.351E-02
 
     Magnetic moment per site:
     atom:    1    charge:    3.1244    magn:   -0.0002    constr:    0.0000
     atom:    2    charge:    1.8358    magn:    0.0002    constr:    0.0000
     atom:    3    charge:    3.1200    magn:    0.0000    constr:    0.0000
     atom:    4    charge:    1.8361    magn:   -0.0000    constr:    0.0000
     atom:    5    charge:    3.1144    magn:    0.0001    constr:    0.0000
     atom:    6    charge:    1.8295    magn:   -0.0002    constr:    0.0000
     atom:    7    charge:    3.1156    magn:    0.0000    constr:    0.0000
     atom:    8    charge:    1.8333    magn:   -0.0001    constr:    0.0000
     atom:    9    charge:    3.1244    magn:   -0.0002    constr:    0.0000
     atom:   10    charge:    1.8359    magn:    0.0002    constr:    0.0000
     atom:   11    charge:    3.1198    magn:    0.0000    constr:    0.0000
     atom:   12    charge:    1.8361    magn:   -0.0000    constr:    0.0000
     atom:   13    charge:    3.1144    magn:    0.0001    constr:    0.0000
     atom:   14    charge:    1.8423    magn:   -0.0000    constr:    0.0000
     atom:   15    charge:    3.1165    magn:    0.0000    constr:    0.0000
     atom:   16    charge:    1.8333    magn:   -0.0001    constr:    0.0000
     atom:   17    charge:    1.8106    magn:    0.0010    constr:    0.0000
     atom:   18    charge:    3.1239    magn:    0.0000    constr:    0.0000
     atom:   19    charge:    1.8314    magn:    0.0000    constr:    0.0000
     atom:   20    charge:    1.8344    magn:    0.0000    constr:    0.0000
     atom:   21    charge:    1.8344    magn:    0.0000    constr:    0.0000
     atom:   22    charge:    3.1199    magn:    0.0000    constr:    0.0000
     atom:   23    charge:    1.8399    magn:   -0.0001    constr:    0.0000
     atom:   24    charge:    1.8258    magn:   -0.0002    constr:    0.0000
     atom:   25    charge:    1.8361    magn:   -0.0000    constr:    0.0000
     atom:   26    charge:    3.1144    magn:    0.0001    constr:    0.0000
     atom:   27    charge:    1.8290    magn:   -0.0002    constr:    0.0000
     atom:   28    charge:    1.8338    magn:   -0.0002    constr:    0.0000
     atom:   29    charge:    1.8330    magn:   -0.0002    constr:    0.0000
     atom:   30    charge:    3.1193    magn:    0.0000    constr:    0.0000
     atom:   31    charge:    1.8317    magn:   -0.0000    constr:    0.0000
     atom:   32    charge:    1.8337    magn:   -0.0001    constr:    0.0000
     atom:   33    charge:    1.8106    magn:    0.0010    constr:    0.0000
     atom:   34    charge:    3.1239    magn:    0.0000    constr:    0.0000
     atom:   35    charge:    1.8314    magn:    0.0000    constr:    0.0000
     atom:   36    charge:    1.8344    magn:    0.0000    constr:    0.0000
     atom:   37    charge:    1.8344    magn:    0.0000    constr:    0.0000
     atom:   38    charge:    3.1199    magn:    0.0000    constr:    0.0000
     atom:   39    charge:    1.8329    magn:   -0.0001    constr:    0.0000
     atom:   40    charge:    1.8262    magn:   -0.0002    constr:    0.0000
     atom:   41    charge:    1.8361    magn:   -0.0000    constr:    0.0000
     atom:   42    charge:    3.1217    magn:    0.0001    constr:    0.0000
     atom:   43    charge:    1.8288    magn:   -0.0002    constr:    0.0000
     atom:   44    charge:    1.8338    magn:   -0.0002    constr:    0.0000
     atom:   45    charge:    1.8330    magn:   -0.0002    constr:    0.0000
     atom:   46    charge:    3.1193    magn:    0.0000    constr:    0.0000
     atom:   47    charge:    1.8318    magn:   -0.0001    constr:    0.0000
     atom:   48    charge:    1.8337    magn:   -0.0001    constr:    0.0000
     atom:   49    charge:    1.8488    magn:    0.0000    constr:    0.0000
     atom:   50    charge:    0.3915    magn:   -0.0000    constr:    0.0000

     total cpu time spent up to now is      799.7 secs

     total energy              =   -3005.52880001 Ry
     Harris-Foulkes estimate   =   -3005.52959969 Ry
     estimated scf accuracy    <       0.00521320 Ry

     total magnetization       =     0.00 Bohr mag/cell
     absolute magnetization    =     0.01 Bohr mag/cell

     iteration #  2     ecut=    40.42 Ry     beta=0.10
     Davidson diagonalization with overlap
     ethr =  1.33E-06,  avg # of iterations =  2.0

     negative rho (up, down):  1.351E-02 1.351E-02
 
     Magnetic moment per site:
     atom:    1    charge:    3.1244    magn:   -0.0002    constr:    0.0000
     atom:    2    charge:    1.8358    magn:    0.0002    constr:    0.0000
     atom:    3    charge:    3.1200    magn:    0.0000    constr:    0.0000
     atom:    4    charge:    1.8361    magn:   -0.0000    constr:    0.0000
     atom:    5    charge:    3.1144    magn:    0.0001    constr:    0.0000
     atom:    6    charge:    1.8295    magn:   -0.0002    constr:    0.0000
     atom:    7    charge:    3.1156    magn:    0.0000    constr:    0.0000
     atom:    8    charge:    1.8334    magn:   -0.0001    constr:    0.0000
     atom:    9    charge:    3.1244    magn:   -0.0002    constr:    0.0000
     atom:   10    charge:    1.8359    magn:    0.0002    constr:    0.0000
     atom:   11    charge:    3.1198    magn:    0.0000    constr:    0.0000
     atom:   12    charge:    1.8361    magn:   -0.0000    constr:    0.0000
     atom:   13    charge:    3.1144    magn:    0.0001    constr:    0.0000
     atom:   14    charge:    1.8423    magn:   -0.0000    constr:    0.0000
     atom:   15    charge:    3.1165    magn:    0.0000    constr:    0.0000
     atom:   16    charge:    1.8334    magn:   -0.0001    constr:    0.0000
     atom:   17    charge:    1.8102    magn:    0.0010    constr:    0.0000
     atom:   18    charge:    3.1239    magn:    0.0000    constr:    0.0000
     atom:   19    charge:    1.8314    magn:    0.0000    constr:    0.0000
     atom:   20    charge:    1.8344    magn:    0.0000    constr:    0.0000
     atom:   21    charge:    1.8344    magn:    0.0000    constr:    0.0000
     atom:   22    charge:    3.1199    magn:    0.0000    constr:    0.0000
     atom:   23    charge:    1.8399    magn:   -0.0001    constr:    0.0000
     atom:   24    charge:    1.8259    magn:   -0.0002    constr:    0.0000
     atom:   25    charge:    1.8361    magn:   -0.0000    constr:    0.0000
     atom:   26    charge:    3.1144    magn:    0.0001    constr:    0.0000
     atom:   27    charge:    1.8291    magn:   -0.0002    constr:    0.0000
     atom:   28    charge:    1.8339    magn:   -0.0002    constr:    0.0000
     atom:   29    charge:    1.8331    magn:   -0.0002    constr:    0.0000
     atom:   30    charge:    3.1193    magn:    0.0000    constr:    0.0000
     atom:   31    charge:    1.8317    magn:   -0.0000    constr:    0.0000
     atom:   32    charge:    1.8337    magn:   -0.0001    constr:    0.0000
     atom:   33    charge:    1.8102    magn:    0.0010    constr:    0.0000
     atom:   34    charge:    3.1239    magn:    0.0000    constr:    0.0000
     atom:   35    charge:    1.8314    magn:    0.0000    constr:    0.0000
     atom:   36    charge:    1.8344    magn:    0.0000    constr:    0.0000
     atom:   37    charge:    1.8344    magn:    0.0000    constr:    0.0000
     atom:   38    charge:    3.1199    magn:    0.0000    constr:    0.0000
     atom:   39    charge:    1.8329    magn:   -0.0001    constr:    0.0000
     atom:   40    charge:    1.8262    magn:   -0.0002    constr:    0.0000
     atom:   41    charge:    1.8361    magn:   -0.0000    constr:    0.0000
     atom:   42    charge:    3.1217    magn:    0.0001    constr:    0.0000
     atom:   43    charge:    1.8289    magn:   -0.0002    constr:    0.0000
     atom:   44    charge:    1.8339    magn:   -0.0002    constr:    0.0000
     atom:   45    charge:    1.8331    magn:   -0.0002    constr:    0.0000
     atom:   46    charge:    3.1193    magn:    0.0000    constr:    0.0000
     atom:   47    charge:    1.8317    magn:   -0.0001    constr:    0.0000
     atom:   48    charge:    1.8337    magn:   -0.0001    constr:    0.0000
     atom:   49    charge:    1.8501    magn:    0.0000    constr:    0.0000
     atom:   50    charge:    0.3916    magn:   -0.0000    constr:    0.0000

     total cpu time spent up to now is      967.0 secs

     total energy              =   -3005.52863070 Ry
     Harris-Foulkes estimate   =   -3005.52901638 Ry
     estimated scf accuracy    <       0.00319995 Ry

     total magnetization       =     0.00 Bohr mag/cell
     absolute magnetization    =     0.01 Bohr mag/cell

     iteration #  3     ecut=    40.42 Ry     beta=0.10
     Davidson diagonalization with overlap
     ethr =  8.18E-07,  avg # of iterations =  1.8

     negative rho (up, down):  1.351E-02 1.351E-02
 
     Magnetic moment per site:
     atom:    1    charge:    3.1244    magn:   -0.0002    constr:    0.0000
     atom:    2    charge:    1.8358    magn:    0.0002    constr:    0.0000
     atom:    3    charge:    3.1200    magn:    0.0000    constr:    0.0000
     atom:    4    charge:    1.8362    magn:   -0.0000    constr:    0.0000
     atom:    5    charge:    3.1144    magn:    0.0001    constr:    0.0000
     atom:    6    charge:    1.8295    magn:   -0.0001    constr:    0.0000
     atom:    7    charge:    3.1155    magn:    0.0000    constr:    0.0000
     atom:    8    charge:    1.8333    magn:   -0.0001    constr:    0.0000
     atom:    9    charge:    3.1244    magn:   -0.0002    constr:    0.0000
     atom:   10    charge:    1.8359    magn:    0.0002    constr:    0.0000
     atom:   11    charge:    3.1198    magn:    0.0000    constr:    0.0000
     atom:   12    charge:    1.8362    magn:   -0.0000    constr:    0.0000
     atom:   13    charge:    3.1144    magn:    0.0001    constr:    0.0000
     atom:   14    charge:    1.8423    magn:   -0.0000    constr:    0.0000
     atom:   15    charge:    3.1165    magn:    0.0000    constr:    0.0000
     atom:   16    charge:    1.8333    magn:   -0.0001    constr:    0.0000
     atom:   17    charge:    1.8104    magn:    0.0009    constr:    0.0000
     atom:   18    charge:    3.1239    magn:    0.0000    constr:    0.0000
     atom:   19    charge:    1.8314    magn:    0.0000    constr:    0.0000
     atom:   20    charge:    1.8344    magn:    0.0000    constr:    0.0000
     atom:   21    charge:    1.8344    magn:    0.0000    constr:    0.0000
     atom:   22    charge:    3.1199    magn:    0.0000    constr:    0.0000
     atom:   23    charge:    1.8399    magn:   -0.0001    constr:    0.0000
     atom:   24    charge:    1.8258    magn:   -0.0002    constr:    0.0000
     atom:   25    charge:    1.8362    magn:   -0.0000    constr:    0.0000
     atom:   26    charge:    3.1144    magn:    0.0001    constr:    0.0000
     atom:   27    charge:    1.8290    magn:   -0.0002    constr:    0.0000
     atom:   28    charge:    1.8339    magn:   -0.0002    constr:    0.0000
     atom:   29    charge:    1.8331    magn:   -0.0002    constr:    0.0000
     atom:   30    charge:    3.1194    magn:    0.0000    constr:    0.0000
     atom:   31    charge:    1.8315    magn:   -0.0000    constr:    0.0000
     atom:   32    charge:    1.8336    magn:   -0.0001    constr:    0.0000
     atom:   33    charge:    1.8104    magn:    0.0009    constr:    0.0000
     atom:   34    charge:    3.1239    magn:    0.0000    constr:    0.0000
     atom:   35    charge:    1.8314    magn:    0.0000    constr:    0.0000
     atom:   36    charge:    1.8344    magn:    0.0000    constr:    0.0000
     atom:   37    charge:    1.8344    magn:    0.0000    constr:    0.0000
     atom:   38    charge:    3.1199    magn:    0.0000    constr:    0.0000
     atom:   39    charge:    1.8329    magn:   -0.0001    constr:    0.0000
     atom:   40    charge:    1.8262    magn:   -0.0002    constr:    0.0000
     atom:   41    charge:    1.8362    magn:   -0.0000    constr:    0.0000
     atom:   42    charge:    3.1217    magn:    0.0001    constr:    0.0000
     atom:   43    charge:    1.8289    magn:   -0.0002    constr:    0.0000
     atom:   44    charge:    1.8339    magn:   -0.0002    constr:    0.0000
     atom:   45    charge:    1.8331    magn:   -0.0002    constr:    0.0000
     atom:   46    charge:    3.1194    magn:    0.0000    constr:    0.0000
     atom:   47    charge:    1.8316    magn:   -0.0001    constr:    0.0000
     atom:   48    charge:    1.8336    magn:   -0.0001    constr:    0.0000
     atom:   49    charge:    1.8524    magn:    0.0000    constr:    0.0000
     atom:   50    charge:    0.3919    magn:   -0.0000    constr:    0.0000

     total cpu time spent up to now is     1130.2 secs

     total energy              =   -3005.52850638 Ry
     Harris-Foulkes estimate   =   -3005.52893853 Ry
     estimated scf accuracy    <       0.00507773 Ry

     total magnetization       =     0.00 Bohr mag/cell
     absolute magnetization    =     0.01 Bohr mag/cell

     iteration #  4     ecut=    40.42 Ry     beta=0.10
     Davidson diagonalization with overlap
     ethr =  8.18E-07,  avg # of iterations =  2.0

     negative rho (up, down):  1.351E-02 1.351E-02
 
     Magnetic moment per site:
     atom:    1    charge:    3.1244    magn:   -0.0002    constr:    0.0000
     atom:    2    charge:    1.8358    magn:    0.0002    constr:    0.0000
     atom:    3    charge:    3.1200    magn:    0.0000    constr:    0.0000
     atom:    4    charge:    1.8361    magn:   -0.0000    constr:    0.0000
     atom:    5    charge:    3.1144    magn:    0.0001    constr:    0.0000
     atom:    6    charge:    1.8295    magn:   -0.0001    constr:    0.0000
     atom:    7    charge:    3.1158    magn:    0.0000    constr:    0.0000
     atom:    8    charge:    1.8333    magn:   -0.0001    constr:    0.0000
     atom:    9    charge:    3.1244    magn:   -0.0002    constr:    0.0000
     atom:   10    charge:    1.8359    magn:    0.0002    constr:    0.0000
     atom:   11    charge:    3.1198    magn:    0.0000    constr:    0.0000
     atom:   12    charge:    1.8361    magn:   -0.0000    constr:    0.0000
     atom:   13    charge:    3.1144    magn:    0.0001    constr:    0.0000
     atom:   14    charge:    1.8423    magn:   -0.0000    constr:    0.0000
     atom:   15    charge:    3.1165    magn:    0.0000    constr:    0.0000
     atom:   16    charge:    1.8333    magn:   -0.0001    constr:    0.0000
     atom:   17    charge:    1.8105    magn:    0.0009    constr:    0.0000
     atom:   18    charge:    3.1239    magn:    0.0000    constr:    0.0000
     atom:   19    charge:    1.8314    magn:    0.0000    constr:    0.0000
     atom:   20    charge:    1.8344    magn:    0.0000    constr:    0.0000
     atom:   21    charge:    1.8344    magn:    0.0000    constr:    0.0000
     atom:   22    charge:    3.1199    magn:    0.0000    constr:    0.0000
     atom:   23    charge:    1.8399    magn:   -0.0001    constr:    0.0000
     atom:   24    charge:    1.8258    magn:   -0.0001    constr:    0.0000
     atom:   25    charge:    1.8361    magn:   -0.0000    constr:    0.0000
     atom:   26    charge:    3.1144    magn:    0.0001    constr:    0.0000
     atom:   27    charge:    1.8290    magn:   -0.0002    constr:    0.0000
     atom:   28    charge:    1.8338    magn:   -0.0002    constr:    0.0000
     atom:   29    charge:    1.8331    magn:   -0.0002    constr:    0.0000
     atom:   30    charge:    3.1193    magn:    0.0000    constr:    0.0000
     atom:   31    charge:    1.8316    magn:   -0.0000    constr:    0.0000
     atom:   32    charge:    1.8337    magn:   -0.0001    constr:    0.0000
     atom:   33    charge:    1.8105    magn:    0.0009    constr:    0.0000
     atom:   34    charge:    3.1239    magn:    0.0000    constr:    0.0000
     atom:   35    charge:    1.8314    magn:    0.0000    constr:    0.0000
     atom:   36    charge:    1.8344    magn:    0.0000    constr:    0.0000
     atom:   37    charge:    1.8344    magn:    0.0000    constr:    0.0000
     atom:   38    charge:    3.1199    magn:    0.0000    constr:    0.0000
     atom:   39    charge:    1.8329    magn:   -0.0001    constr:    0.0000
     atom:   40    charge:    1.8262    magn:   -0.0002    constr:    0.0000
     atom:   41    charge:    1.8361    magn:   -0.0000    constr:    0.0000
     atom:   42    charge:    3.1217    magn:    0.0001    constr:    0.0000
     atom:   43    charge:    1.8289    magn:   -0.0002    constr:    0.0000
     atom:   44    charge:    1.8338    magn:   -0.0002    constr:    0.0000
     atom:   45    charge:    1.8331    magn:   -0.0002    constr:    0.0000
     atom:   46    charge:    3.1193    magn:    0.0000    constr:    0.0000
     atom:   47    charge:    1.8316    magn:   -0.0001    constr:    0.0000
     atom:   48    charge:    1.8337    magn:   -0.0001    constr:    0.0000
     atom:   49    charge:    1.8525    magn:    0.0000    constr:    0.0000
     atom:   50    charge:    0.3921    magn:   -0.0000    constr:    0.0000

     total cpu time spent up to now is     1297.6 secs

     total energy              =   -3005.52866375 Ry
     Harris-Foulkes estimate   =   -3005.52868848 Ry
     estimated scf accuracy    <       0.00037214 Ry

     total magnetization       =     0.00 Bohr mag/cell
     absolute magnetization    =     0.01 Bohr mag/cell

     iteration #  5     ecut=    40.42 Ry     beta=0.10
     Davidson diagonalization with overlap
     ethr =  9.52E-08,  avg # of iterations =  2.0

     negative rho (up, down):  1.351E-02 1.351E-02
 
     Magnetic moment per site:
     atom:    1    charge:    3.1244    magn:   -0.0002    constr:    0.0000
     atom:    2    charge:    1.8358    magn:    0.0002    constr:    0.0000
     atom:    3    charge:    3.1200    magn:    0.0000    constr:    0.0000
     atom:    4    charge:    1.8361    magn:   -0.0000    constr:    0.0000
     atom:    5    charge:    3.1144    magn:    0.0000    constr:    0.0000
     atom:    6    charge:    1.8295    magn:   -0.0001    constr:    0.0000
     atom:    7    charge:    3.1163    magn:    0.0000    constr:    0.0000
     atom:    8    charge:    1.8333    magn:   -0.0000    constr:    0.0000
     atom:    9    charge:    3.1244    magn:   -0.0002    constr:    0.0000
     atom:   10    charge:    1.8359    magn:    0.0002    constr:    0.0000
     atom:   11    charge:    3.1198    magn:    0.0000    constr:    0.0000
     atom:   12    charge:    1.8361    magn:   -0.0000    constr:    0.0000
     atom:   13    charge:    3.1144    magn:    0.0000    constr:    0.0000
     atom:   14    charge:    1.8423    magn:   -0.0000    constr:    0.0000
     atom:   15    charge:    3.1165    magn:    0.0000    constr:    0.0000
     atom:   16    charge:    1.8333    magn:   -0.0000    constr:    0.0000
     atom:   17    charge:    1.8105    magn:    0.0008    constr:    0.0000
     atom:   18    charge:    3.1239    magn:    0.0000    constr:    0.0000
     atom:   19    charge:    1.8314    magn:    0.0000    constr:    0.0000
     atom:   20    charge:    1.8344    magn:    0.0000    constr:    0.0000
     atom:   21    charge:    1.8344    magn:    0.0000    constr:    0.0000
     atom:   22    charge:    3.1199    magn:    0.0000    constr:    0.0000
     atom:   23    charge:    1.8399    magn:   -0.0001    constr:    0.0000
     atom:   24    charge:    1.8258    magn:   -0.0001    constr:    0.0000
     atom:   25    charge:    1.8361    magn:   -0.0000    constr:    0.0000
     atom:   26    charge:    3.1143    magn:    0.0001    constr:    0.0000
     atom:   27    charge:    1.8290    magn:   -0.0002    constr:    0.0000
     atom:   28    charge:    1.8338    magn:   -0.0002    constr:    0.0000
     atom:   29    charge:    1.8331    magn:   -0.0002    constr:    0.0000
     atom:   30    charge:    3.1193    magn:    0.0000    constr:    0.0000
     atom:   31    charge:    1.8317    magn:   -0.0000    constr:    0.0000
     atom:   32    charge:    1.8338    magn:   -0.0000    constr:    0.0000
     atom:   33    charge:    1.8105    magn:    0.0008    constr:    0.0000
     atom:   34    charge:    3.1239    magn:    0.0000    constr:    0.0000
     atom:   35    charge:    1.8314    magn:    0.0000    constr:    0.0000
     atom:   36    charge:    1.8344    magn:    0.0000    constr:    0.0000
     atom:   37    charge:    1.8344    magn:    0.0000    constr:    0.0000
     atom:   38    charge:    3.1199    magn:    0.0000    constr:    0.0000
     atom:   39    charge:    1.8329    magn:   -0.0001    constr:    0.0000
     atom:   40    charge:    1.8262    magn:   -0.0001    constr:    0.0000
     atom:   41    charge:    1.8361    magn:   -0.0000    constr:    0.0000
     atom:   42    charge:    3.1217    magn:    0.0001    constr:    0.0000
     atom:   43    charge:    1.8289    magn:   -0.0002    constr:    0.0000
     atom:   44    charge:    1.8338    magn:   -0.0002    constr:    0.0000
     atom:   45    charge:    1.8331    magn:   -0.0002    constr:    0.0000
     atom:   46    charge:    3.1193    magn:    0.0000    constr:    0.0000
     atom:   47    charge:    1.8317    magn:   -0.0001    constr:    0.0000
     atom:   48    charge:    1.8338    magn:   -0.0000    constr:    0.0000
     atom:   49    charge:    1.8523    magn:    0.0000    constr:    0.0000
     atom:   50    charge:    0.3926    magn:   -0.0000    constr:    0.0000

     total cpu time spent up to now is     1464.2 secs

     total energy              =   -3005.52865001 Ry
     Harris-Foulkes estimate   =   -3005.52867080 Ry
     estimated scf accuracy    <       0.00023830 Ry

     total magnetization       =     0.00 Bohr mag/cell
     absolute magnetization    =     0.01 Bohr mag/cell

     iteration #  6     ecut=    40.42 Ry     beta=0.10
     Davidson diagonalization with overlap
     ethr =  6.09E-08,  avg # of iterations =  2.0

     negative rho (up, down):  1.352E-02 1.352E-02
 
     Magnetic moment per site:
     atom:    1    charge:    3.1244    magn:   -0.0001    constr:    0.0000
     atom:    2    charge:    1.8358    magn:    0.0001    constr:    0.0000
     atom:    3    charge:    3.1200    magn:   -0.0000    constr:    0.0000
     atom:    4    charge:    1.8362    magn:   -0.0000    constr:    0.0000
     atom:    5    charge:    3.1144    magn:    0.0000    constr:    0.0000
     atom:    6    charge:    1.8294    magn:   -0.0001    constr:    0.0000
     atom:    7    charge:    3.1162    magn:    0.0000    constr:    0.0000
     atom:    8    charge:    1.8334    magn:   -0.0000    constr:    0.0000
     atom:    9    charge:    3.1244    magn:   -0.0001    constr:    0.0000
     atom:   10    charge:    1.8359    magn:    0.0001    constr:    0.0000
     atom:   11    charge:    3.1198    magn:    0.0000    constr:    0.0000
     atom:   12    charge:    1.8362    magn:   -0.0000    constr:    0.0000
     atom:   13    charge:    3.1144    magn:    0.0000    constr:    0.0000
     atom:   14    charge:    1.8423    magn:   -0.0000    constr:    0.0000
     atom:   15    charge:    3.1166    magn:    0.0000    constr:    0.0000
     atom:   16    charge:    1.8334    magn:   -0.0000    constr:    0.0000
     atom:   17    charge:    1.8105    magn:    0.0007    constr:    0.0000
     atom:   18    charge:    3.1239    magn:   -0.0000    constr:    0.0000
     atom:   19    charge:    1.8314    magn:    0.0000    constr:    0.0000
     atom:   20    charge:    1.8344    magn:    0.0000    constr:    0.0000
     atom:   21    charge:    1.8344    magn:    0.0000    constr:    0.0000
     atom:   22    charge:    3.1199    magn:    0.0000    constr:    0.0000
     atom:   23    charge:    1.8399    magn:   -0.0000    constr:    0.0000
     atom:   24    charge:    1.8258    magn:   -0.0001    constr:    0.0000
     atom:   25    charge:    1.8361    magn:   -0.0000    constr:    0.0000
     atom:   26    charge:    3.1143    magn:    0.0001    constr:    0.0000
     atom:   27    charge:    1.8290    magn:   -0.0002    constr:    0.0000
     atom:   28    charge:    1.8338    magn:   -0.0001    constr:    0.0000
     atom:   29    charge:    1.8331    magn:   -0.0001    constr:    0.0000
     atom:   30    charge:    3.1193    magn:    0.0000    constr:    0.0000
     atom:   31    charge:    1.8320    magn:   -0.0000    constr:    0.0000
     atom:   32    charge:    1.8339    magn:   -0.0000    constr:    0.0000
     atom:   33    charge:    1.8105    magn:    0.0007    constr:    0.0000
     atom:   34    charge:    3.1239    magn:   -0.0000    constr:    0.0000
     atom:   35    charge:    1.8314    magn:    0.0000    constr:    0.0000
     atom:   36    charge:    1.8344    magn:    0.0000    constr:    0.0000
     atom:   37    charge:    1.8344    magn:    0.0000    constr:    0.0000
     atom:   38    charge:    3.1199    magn:    0.0000    constr:    0.0000
     atom:   39    charge:    1.8329    magn:   -0.0001    constr:    0.0000
     atom:   40    charge:    1.8262    magn:   -0.0001    constr:    0.0000
     atom:   41    charge:    1.8361    magn:   -0.0000    constr:    0.0000
     atom:   42    charge:    3.1217    magn:    0.0001    constr:    0.0000
     atom:   43    charge:    1.8288    magn:   -0.0001    constr:    0.0000
     atom:   44    charge:    1.8338    magn:   -0.0001    constr:    0.0000
     atom:   45    charge:    1.8331    magn:   -0.0001    constr:    0.0000
     atom:   46    charge:    3.1193    magn:    0.0000    constr:    0.0000
     atom:   47    charge:    1.8319    magn:   -0.0000    constr:    0.0000
     atom:   48    charge:    1.8339    magn:   -0.0000    constr:    0.0000
     atom:   49    charge:    1.8518    magn:    0.0000    constr:    0.0000
     atom:   50    charge:    0.3933    magn:   -0.0000    constr:    0.0000

     total cpu time spent up to now is     1631.7 secs

     total energy              =   -3005.52865577 Ry
     Harris-Foulkes estimate   =   -3005.52865891 Ry
     estimated scf accuracy    <       0.00009529 Ry

     total magnetization       =     0.00 Bohr mag/cell
     absolute magnetization    =     0.01 Bohr mag/cell

     iteration #  7     ecut=    40.42 Ry     beta=0.10
     Davidson diagonalization with overlap
     ethr =  2.44E-08,  avg # of iterations =  2.0

     negative rho (up, down):  1.352E-02 1.352E-02
 
     Magnetic moment per site:
     atom:    1    charge:    3.1244    magn:   -0.0001    constr:    0.0000
     atom:    2    charge:    1.8358    magn:    0.0001    constr:    0.0000
     atom:    3    charge:    3.1200    magn:   -0.0000    constr:    0.0000
     atom:    4    charge:    1.8361    magn:   -0.0000    constr:    0.0000
     atom:    5    charge:    3.1144    magn:    0.0000    constr:    0.0000
     atom:    6    charge:    1.8295    magn:   -0.0001    constr:    0.0000
     atom:    7    charge:    3.1162    magn:    0.0000    constr:    0.0000
     atom:    8    charge:    1.8334    magn:   -0.0000    constr:    0.0000
     atom:    9    charge:    3.1244    magn:   -0.0001    constr:    0.0000
     atom:   10    charge:    1.8359    magn:    0.0001    constr:    0.0000
     atom:   11    charge:    3.1198    magn:    0.0000    constr:    0.0000
     atom:   12    charge:    1.8361    magn:   -0.0000    constr:    0.0000
     atom:   13    charge:    3.1144    magn:    0.0000    constr:    0.0000
     atom:   14    charge:    1.8423    magn:   -0.0000    constr:    0.0000
     atom:   15    charge:    3.1166    magn:    0.0000    constr:    0.0000
     atom:   16    charge:    1.8334    magn:   -0.0000    constr:    0.0000
     atom:   17    charge:    1.8105    magn:    0.0006    constr:    0.0000
     atom:   18    charge:    3.1239    magn:   -0.0000    constr:    0.0000
     atom:   19    charge:    1.8314    magn:    0.0000    constr:    0.0000
     atom:   20    charge:    1.8344    magn:    0.0000    constr:    0.0000
     atom:   21    charge:    1.8344    magn:    0.0000    constr:    0.0000
     atom:   22    charge:    3.1199    magn:    0.0000    constr:    0.0000
     atom:   23    charge:    1.8399    magn:   -0.0000    constr:    0.0000
     atom:   24    charge:    1.8258    magn:   -0.0001    constr:    0.0000
     atom:   25    charge:    1.8361    magn:   -0.0000    constr:    0.0000
     atom:   26    charge:    3.1143    magn:    0.0000    constr:    0.0000
     atom:   27    charge:    1.8290    magn:   -0.0001    constr:    0.0000
     atom:   28    charge:    1.8338    magn:   -0.0001    constr:    0.0000
     atom:   29    charge:    1.8331    magn:   -0.0001    constr:    0.0000
     atom:   30    charge:    3.1193    magn:    0.0000    constr:    0.0000
     atom:   31    charge:    1.8321    magn:   -0.0000    constr:    0.0000
     atom:   32    charge:    1.8339    magn:   -0.0000    constr:    0.0000
     atom:   33    charge:    1.8105    magn:    0.0007    constr:    0.0000
     atom:   34    charge:    3.1239    magn:   -0.0000    constr:    0.0000
     atom:   35    charge:    1.8314    magn:    0.0000    constr:    0.0000
     atom:   36    charge:    1.8344    magn:    0.0000    constr:    0.0000
     atom:   37    charge:    1.8344    magn:    0.0000    constr:    0.0000
     atom:   38    charge:    3.1199    magn:    0.0000    constr:    0.0000
     atom:   39    charge:    1.8329    magn:   -0.0001    constr:    0.0000
     atom:   40    charge:    1.8262    magn:   -0.0001    constr:    0.0000
     atom:   41    charge:    1.8361    magn:   -0.0000    constr:    0.0000
     atom:   42    charge:    3.1217    magn:    0.0000    constr:    0.0000
     atom:   43    charge:    1.8288    magn:   -0.0001    constr:    0.0000
     atom:   44    charge:    1.8338    magn:   -0.0001    constr:    0.0000
     atom:   45    charge:    1.8331    magn:   -0.0001    constr:    0.0000
     atom:   46    charge:    3.1193    magn:    0.0000    constr:    0.0000
     atom:   47    charge:    1.8319    magn:   -0.0000    constr:    0.0000
     atom:   48    charge:    1.8339    magn:   -0.0000    constr:    0.0000
     atom:   49    charge:    1.8510    magn:    0.0000    constr:    0.0000
     atom:   50    charge:    0.3936    magn:   -0.0000    constr:    0.0000

     total cpu time spent up to now is     1799.9 secs

     total energy              =   -3005.52865886 Ry
     Harris-Foulkes estimate   =   -3005.52866229 Ry
     estimated scf accuracy    <       0.00003965 Ry

     total magnetization       =     0.00 Bohr mag/cell
     absolute magnetization    =     0.01 Bohr mag/cell

     iteration #  8     ecut=    40.42 Ry     beta=0.10
     Davidson diagonalization with overlap
     ethr =  1.01E-08,  avg # of iterations =  3.0

     negative rho (up, down):  1.351E-02 1.351E-02
 
     Magnetic moment per site:
     atom:    1    charge:    3.1244    magn:   -0.0001    constr:    0.0000
     atom:    2    charge:    1.8358    magn:    0.0001    constr:    0.0000
     atom:    3    charge:    3.1200    magn:   -0.0000    constr:    0.0000
     atom:    4    charge:    1.8361    magn:   -0.0000    constr:    0.0000
     atom:    5    charge:    3.1144    magn:    0.0000    constr:    0.0000
     atom:    6    charge:    1.8295    magn:   -0.0001    constr:    0.0000
     atom:    7    charge:    3.1161    magn:    0.0000    constr:    0.0000
     atom:    8    charge:    1.8334    magn:   -0.0000    constr:    0.0000
     atom:    9    charge:    3.1244    magn:   -0.0001    constr:    0.0000
     atom:   10    charge:    1.8359    magn:    0.0001    constr:    0.0000
     atom:   11    charge:    3.1198    magn:    0.0000    constr:    0.0000
     atom:   12    charge:    1.8361    magn:   -0.0000    constr:    0.0000
     atom:   13    charge:    3.1144    magn:    0.0000    constr:    0.0000
     atom:   14    charge:    1.8423    magn:   -0.0000    constr:    0.0000
     atom:   15    charge:    3.1165    magn:    0.0000    constr:    0.0000
     atom:   16    charge:    1.8334    magn:   -0.0000    constr:    0.0000
     atom:   17    charge:    1.8105    magn:    0.0006    constr:    0.0000
     atom:   18    charge:    3.1239    magn:   -0.0000    constr:    0.0000
     atom:   19    charge:    1.8314    magn:    0.0000    constr:    0.0000
     atom:   20    charge:    1.8344    magn:    0.0000    constr:    0.0000
     atom:   21    charge:    1.8344    magn:    0.0000    constr:    0.0000
     atom:   22    charge:    3.1199    magn:    0.0000    constr:    0.0000
     atom:   23    charge:    1.8399    magn:   -0.0000    constr:    0.0000
     atom:   24    charge:    1.8258    magn:   -0.0001    constr:    0.0000
     atom:   25    charge:    1.8361    magn:   -0.0000    constr:    0.0000
     atom:   26    charge:    3.1143    magn:    0.0000    constr:    0.0000
     atom:   27    charge:    1.8290    magn:   -0.0001    constr:    0.0000
     atom:   28    charge:    1.8338    magn:   -0.0001    constr:    0.0000
     atom:   29    charge:    1.8331    magn:   -0.0001    constr:    0.0000
     atom:   30    charge:    3.1193    magn:    0.0000    constr:    0.0000
     atom:   31    charge:    1.8320    magn:   -0.0000    constr:    0.0000
     atom:   32    charge:    1.8338    magn:   -0.0000    constr:    0.0000
     atom:   33    charge:    1.8105    magn:    0.0006    constr:    0.0000
     atom:   34    charge:    3.1239    magn:   -0.0000    constr:    0.0000
     atom:   35    charge:    1.8314    magn:    0.0000    constr:    0.0000
     atom:   36    charge:    1.8344    magn:    0.0000    constr:    0.0000
     atom:   37    charge:    1.8344    magn:    0.0000    constr:    0.0000
     atom:   38    charge:    3.1199    magn:    0.0000    constr:    0.0000
     atom:   39    charge:    1.8329    magn:   -0.0001    constr:    0.0000
     atom:   40    charge:    1.8262    magn:   -0.0001    constr:    0.0000
     atom:   41    charge:    1.8361    magn:   -0.0000    constr:    0.0000
     atom:   42    charge:    3.1217    magn:    0.0000    constr:    0.0000
     atom:   43    charge:    1.8288    magn:   -0.0001    constr:    0.0000
     atom:   44    charge:    1.8338    magn:   -0.0001    constr:    0.0000
     atom:   45    charge:    1.8331    magn:   -0.0001    constr:    0.0000
     atom:   46    charge:    3.1193    magn:    0.0000    constr:    0.0000
     atom:   47    charge:    1.8318    magn:   -0.0000    constr:    0.0000
     atom:   48    charge:    1.8338    magn:   -0.0000    constr:    0.0000
     atom:   49    charge:    1.8511    magn:    0.0000    constr:    0.0000
     atom:   50    charge:    0.3936    magn:   -0.0000    constr:    0.0000

     total cpu time spent up to now is     1980.3 secs

     total energy              =   -3005.52866130 Ry
     Harris-Foulkes estimate   =   -3005.52866409 Ry
     estimated scf accuracy    <       0.00002932 Ry

     total magnetization       =     0.00 Bohr mag/cell
     absolute magnetization    =     0.01 Bohr mag/cell

     iteration #  9     ecut=    40.42 Ry     beta=0.10
     Davidson diagonalization with overlap
     ethr =  7.50E-09,  avg # of iterations =  2.0

     negative rho (up, down):  1.351E-02 1.351E-02
 
     Magnetic moment per site:
     atom:    1    charge:    3.1244    magn:   -0.0001    constr:    0.0000
     atom:    2    charge:    1.8358    magn:    0.0001    constr:    0.0000
     atom:    3    charge:    3.1200    magn:   -0.0000    constr:    0.0000
     atom:    4    charge:    1.8361    magn:   -0.0000    constr:    0.0000
     atom:    5    charge:    3.1144    magn:    0.0000    constr:    0.0000
     atom:    6    charge:    1.8295    magn:   -0.0001    constr:    0.0000
     atom:    7    charge:    3.1161    magn:    0.0000    constr:    0.0000
     atom:    8    charge:    1.8333    magn:   -0.0000    constr:    0.0000
     atom:    9    charge:    3.1244    magn:   -0.0001    constr:    0.0000
     atom:   10    charge:    1.8359    magn:    0.0001    constr:    0.0000
     atom:   11    charge:    3.1198    magn:    0.0000    constr:    0.0000
     atom:   12    charge:    1.8361    magn:   -0.0000    constr:    0.0000
     atom:   13    charge:    3.1144    magn:    0.0000    constr:    0.0000
     atom:   14    charge:    1.8423    magn:   -0.0000    constr:    0.0000
     atom:   15    charge:    3.1165    magn:    0.0000    constr:    0.0000
     atom:   16    charge:    1.8333    magn:   -0.0000    constr:    0.0000
     atom:   17    charge:    1.8105    magn:    0.0005    constr:    0.0000
     atom:   18    charge:    3.1239    magn:   -0.0000    constr:    0.0000
     atom:   19    charge:    1.8314    magn:    0.0000    constr:    0.0000
     atom:   20    charge:    1.8344    magn:    0.0000    constr:    0.0000
     atom:   21    charge:    1.8344    magn:    0.0000    constr:    0.0000
     atom:   22    charge:    3.1199    magn:    0.0000    constr:    0.0000
     atom:   23    charge:    1.8399    magn:   -0.0000    constr:    0.0000
     atom:   24    charge:    1.8258    magn:   -0.0001    constr:    0.0000
     atom:   25    charge:    1.8361    magn:   -0.0000    constr:    0.0000
     atom:   26    charge:    3.1143    magn:    0.0000    constr:    0.0000
     atom:   27    charge:    1.8290    magn:   -0.0001    constr:    0.0000
     atom:   28    charge:    1.8338    magn:   -0.0001    constr:    0.0000
     atom:   29    charge:    1.8331    magn:   -0.0001    constr:    0.0000
     atom:   30    charge:    3.1193    magn:    0.0000    constr:    0.0000
     atom:   31    charge:    1.8319    magn:   -0.0000    constr:    0.0000
     atom:   32    charge:    1.8338    magn:   -0.0000    constr:    0.0000
     atom:   33    charge:    1.8105    magn:    0.0006    constr:    0.0000
     atom:   34    charge:    3.1239    magn:   -0.0000    constr:    0.0000
     atom:   35    charge:    1.8314    magn:    0.0000    constr:    0.0000
     atom:   36    charge:    1.8344    magn:    0.0000    constr:    0.0000
     atom:   37    charge:    1.8344    magn:    0.0000    constr:    0.0000
     atom:   38    charge:    3.1199    magn:    0.0000    constr:    0.0000
     atom:   39    charge:    1.8329    magn:   -0.0000    constr:    0.0000
     atom:   40    charge:    1.8262    magn:   -0.0001    constr:    0.0000
     atom:   41    charge:    1.8361    magn:   -0.0000    constr:    0.0000
     atom:   42    charge:    3.1217    magn:    0.0000    constr:    0.0000
     atom:   43    charge:    1.8289    magn:   -0.0001    constr:    0.0000
     atom:   44    charge:    1.8338    magn:   -0.0001    constr:    0.0000
     atom:   45    charge:    1.8331    magn:   -0.0001    constr:    0.0000
     atom:   46    charge:    3.1193    magn:    0.0000    constr:    0.0000
     atom:   47    charge:    1.8318    magn:   -0.0000    constr:    0.0000
     atom:   48    charge:    1.8338    magn:   -0.0000    constr:    0.0000
     atom:   49    charge:    1.8509    magn:    0.0000    constr:    0.0000
     atom:   50    charge:    0.3937    magn:   -0.0000    constr:    0.0000

     total cpu time spent up to now is     2146.4 secs

     total energy              =   -3005.52866269 Ry
     Harris-Foulkes estimate   =   -3005.52866280 Ry
     estimated scf accuracy    <       0.00000220 Ry

     total magnetization       =     0.00 Bohr mag/cell
     absolute magnetization    =     0.01 Bohr mag/cell

     iteration # 10     ecut=    40.42 Ry     beta=0.10
     Davidson diagonalization with overlap
     ethr =  5.62E-10,  avg # of iterations =  2.0

     negative rho (up, down):  1.351E-02 1.351E-02
 
     Magnetic moment per site:
     atom:    1    charge:    3.1244    magn:   -0.0001    constr:    0.0000
     atom:    2    charge:    1.8358    magn:    0.0001    constr:    0.0000
     atom:    3    charge:    3.1200    magn:   -0.0000    constr:    0.0000
     atom:    4    charge:    1.8361    magn:    0.0000    constr:    0.0000
     atom:    5    charge:    3.1144    magn:    0.0000    constr:    0.0000
     atom:    6    charge:    1.8294    magn:   -0.0000    constr:    0.0000
     atom:    7    charge:    3.1161    magn:    0.0000    constr:    0.0000
     atom:    8    charge:    1.8334    magn:   -0.0000    constr:    0.0000
     atom:    9    charge:    3.1244    magn:   -0.0001    constr:    0.0000
     atom:   10    charge:    1.8359    magn:    0.0001    constr:    0.0000
     atom:   11    charge:    3.1198    magn:   -0.0000    constr:    0.0000
     atom:   12    charge:    1.8361    magn:    0.0000    constr:    0.0000
     atom:   13    charge:    3.1144    magn:    0.0000    constr:    0.0000
     atom:   14    charge:    1.8423    magn:   -0.0000    constr:    0.0000
     atom:   15    charge:    3.1165    magn:    0.0000    constr:    0.0000
     atom:   16    charge:    1.8334    magn:   -0.0000    constr:    0.0000
     atom:   17    charge:    1.8106    magn:    0.0004    constr:    0.0000
     atom:   18    charge:    3.1239    magn:   -0.0000    constr:    0.0000
     atom:   19    charge:    1.8314    magn:    0.0000    constr:    0.0000
     atom:   20    charge:    1.8344    magn:    0.0000    constr:    0.0000
     atom:   21    charge:    1.8344    magn:    0.0000    constr:    0.0000
     atom:   22    charge:    3.1199    magn:    0.0000    constr:    0.0000
     atom:   23    charge:    1.8399    magn:   -0.0000    constr:    0.0000
     atom:   24    charge:    1.8258    magn:   -0.0000    constr:    0.0000
     atom:   25    charge:    1.8361    magn:    0.0000    constr:    0.0000
     atom:   26    charge:    3.1143    magn:    0.0000    constr:    0.0000
     atom:   27    charge:    1.8290    magn:   -0.0001    constr:    0.0000
     atom:   28    charge:    1.8338    magn:   -0.0001    constr:    0.0000
     atom:   29    charge:    1.8331    magn:   -0.0001    constr:    0.0000
     atom:   30    charge:    3.1193    magn:    0.0000    constr:    0.0000
     atom:   31    charge:    1.8318    magn:   -0.0000    constr:    0.0000
     atom:   32    charge:    1.8338    magn:   -0.0000    constr:    0.0000
     atom:   33    charge:    1.8105    magn:    0.0004    constr:    0.0000
     atom:   34    charge:    3.1239    magn:   -0.0000    constr:    0.0000
     atom:   35    charge:    1.8314    magn:    0.0000    constr:    0.0000
     atom:   36    charge:    1.8344    magn:    0.0000    constr:    0.0000
     atom:   37    charge:    1.8344    magn:    0.0000    constr:    0.0000
     atom:   38    charge:    3.1199    magn:    0.0000    constr:    0.0000
     atom:   39    charge:    1.8329    magn:   -0.0000    constr:    0.0000
     atom:   40    charge:    1.8262    magn:   -0.0000    constr:    0.0000
     atom:   41    charge:    1.8361    magn:    0.0000    constr:    0.0000
     atom:   42    charge:    3.1217    magn:    0.0000    constr:    0.0000
     atom:   43    charge:    1.8288    magn:   -0.0001    constr:    0.0000
     atom:   44    charge:    1.8338    magn:   -0.0001    constr:    0.0000
     atom:   45    charge:    1.8331    magn:   -0.0001    constr:    0.0000
     atom:   46    charge:    3.1193    magn:    0.0000    constr:    0.0000
     atom:   47    charge:    1.8318    magn:   -0.0000    constr:    0.0000
     atom:   48    charge:    1.8338    magn:   -0.0000    constr:    0.0000
     atom:   49    charge:    1.8509    magn:   -0.0000    constr:    0.0000
     atom:   50    charge:    0.3937    magn:   -0.0000    constr:    0.0000

     total cpu time spent up to now is     2321.3 secs

     End of self-consistent calculation

 ------ SPIN UP ------------


          k = 0.0000 0.0000 0.0000 ( 34665 PWs)   bands (ev):

   -58.5114 -58.4763 -57.6001 -57.5707 -57.5644 -57.4880 -57.4752 -57.4356
   -57.3460 -57.3096 -57.2688 -57.2332 -57.1241 -57.0888 -57.0169 -56.9789
   -34.9562 -34.7803 -34.7515 -34.7177 -34.6227 -34.5658 -34.0993 -34.0552
   -34.0176 -33.8741 -33.8531 -33.7950 -33.7733 -33.7675 -33.7581 -33.7493
   -33.7446 -33.7317 -33.7061 -33.7001 -33.6978 -33.6775 -33.6669 -33.6626
   -33.6554 -33.6551 -33.6403 -33.6055 -33.5565 -33.5502 -33.5428 -33.5093
   -33.5016 -33.4943 -33.4650 -33.4506 -33.4394 -33.4380 -33.4243 -33.3899
   -33.3424 -33.2942 -33.2527 -33.2505 -33.2306 -33.2057 -33.1510 -33.0976
   -18.6750 -18.3974 -18.2486 -18.0170 -17.9169 -17.7492 -17.7349 -17.6368
   -17.5967 -17.5737 -17.4624 -17.2664 -17.2241 -17.2175 -17.1538 -17.0552
   -17.0333 -17.0128 -16.9449 -16.9034 -16.8564 -16.8212 -16.8124 -16.7892
   -16.6954 -16.6334 -16.6185 -16.5178 -16.5025 -16.3489 -16.2857 -15.8044
   -15.7440  -6.2531  -6.0827  -5.6984  -5.5021  -5.4209  -5.3190  -5.1926
    -5.1715  -5.0834  -4.9524  -4.8607  -4.8051  -4.7923  -4.7205  -4.6458
    -4.6176  -4.5492  -4.5359  -4.4224  -4.4198  -4.3620  -4.3483  -4.2535
    -4.2301  -4.1751  -4.1127  -4.1012  -4.0936  -4.0813  -3.9991  -3.9833
    -3.9153  -3.8450  -3.8387  -3.7478  -3.7406  -3.7330  -3.6253  -3.6170
    -3.5890  -3.4760  -3.4528  -3.4146  -3.3025  -3.1358  -3.0953  -3.0427
    -2.9799  -2.9631  -2.9005  -2.8859  -2.8835  -2.7757  -2.7577  -2.7408
    -2.6501  -2.5964  -2.5146  -2.4372  -2.4338  -2.4023  -2.3411  -2.2881
    -2.2377  -2.1822  -2.1755  -2.1268  -2.0853  -2.0795  -1.9326  -1.8510
    -1.8335  -1.8293  -1.8193  -1.7176  -1.6274  -1.5707  -1.5608  -1.5262
    -1.5173  -1.5071  -1.4550  -1.3712  -1.3502  -1.3325  -1.3144  -1.2921
    -1.2801  -1.1638  -1.0729  -0.9959  -0.9570  -0.8870  -0.8762  -0.8235
    -0.7568  -0.7202  -0.6701  -0.3771   0.8202   0.9175   1.2105   1.4933
     1.6008   1.6868   1.7163   1.8088   1.8409   1.9151   1.9511   2.0186
     2.0228   2.1693   2.1840   2.2557   2.2812   2.3100   2.3907   2.4143
     2.4624   2.4709   2.5061   2.5194   2.6019   2.6245   2.6698   2.7157
     2.7385   2.7505   2.7952   2.8271   2.8546   2.8737   2.8784   2.9929
     3.0066   3.0324   3.2090   3.2092   3.2362   3.2457   3.3462   3.4050
     3.4353   3.4978   3.5932   3.7436   3.8765   3.8899   4.0776   4.2684
     4.4012   4.4770   4.5015   4.6446   4.7898   4.9223   4.9607   5.0523
     5.1850   5.1987   5.2289   5.2443   5.3349   5.3392   5.3617   5.4561
     5.4774   5.5249   5.6891   5.7083   5.7899   5.8760   5.9023   5.9076
     5.9981   6.0340   6.2239   6.2872   6.3408   6.4139   6.5839   6.6073
     7.1078   7.8011   7.9884   8.0224   8.2187   8.3010   8.5732   8.7204
     8.8014   9.0632   9.1904   9.2314   9.3702   9.4850   9.6284

          k = 0.0000 0.0280 0.0000 ( 34717 PWs)   bands (ev):

   -58.5091 -58.4787 -57.5977 -57.5698 -57.5667 -57.4890 -57.4731 -57.4378
   -57.3448 -57.3108 -57.2666 -57.2355 -57.1217 -57.0912 -57.0143 -56.9815
   -34.9308 -34.7783 -34.7534 -34.7114 -34.6292 -34.5929 -34.0738 -34.0300
   -33.9944 -33.8680 -33.8469 -33.7913 -33.7760 -33.7673 -33.7466 -33.7458
   -33.7444 -33.7335 -33.7152 -33.7005 -33.6941 -33.6899 -33.6826 -33.6714
   -33.6571 -33.6492 -33.6439 -33.6021 -33.5764 -33.5242 -33.5180 -33.5138
   -33.4977 -33.4917 -33.4633 -33.4513 -33.4434 -33.4426 -33.4412 -33.4162
   -33.3365 -33.2906 -33.2589 -33.2490 -33.2320 -33.2106 -33.1784 -33.1263
   -18.6167 -18.3953 -18.1895 -17.9678 -17.8866 -17.8116 -17.7054 -17.5871
   -17.5837 -17.5423 -17.4930 -17.3185 -17.1954 -17.1950 -17.1444 -17.0863
   -16.9922 -16.9877 -16.9743 -16.9351 -16.8762 -16.8335 -16.8183 -16.7874
   -16.7089 -16.6587 -16.6223 -16.5445 -16.5366 -16.3680 -16.3261 -15.8185
   -15.7696  -6.1677  -6.0821  -5.6140  -5.4221  -5.3493  -5.2488  -5.1421
    -5.1148  -5.0136  -4.9353  -4.8750  -4.8634  -4.7361  -4.7297  -4.6327
    -4.5945  -4.5680  -4.5198  -4.4643  -4.4027  -4.3931  -4.3809  -4.3168
    -4.2724  -4.2171  -4.1943  -4.1807  -4.1709  -4.1263  -4.0477  -4.0059
    -3.9600  -3.9227  -3.9077  -3.7888  -3.6482  -3.6263  -3.5467  -3.5127
    -3.5047  -3.4720  -3.3493  -3.3221  -3.1530  -3.1179  -3.0878  -3.0179
    -2.9488  -2.9444  -2.9250  -2.9079  -2.8653  -2.7550  -2.7239  -2.6771
    -2.6616  -2.6205  -2.4734  -2.4612  -2.4145  -2.3954  -2.3603  -2.3310
    -2.2314  -2.1929  -2.1367  -2.1332  -2.1151  -2.0353  -1.9692  -1.9634
    -1.9181  -1.8340  -1.7751  -1.7687  -1.7145  -1.6777  -1.6370  -1.5856
    -1.5724  -1.5671  -1.5048  -1.4768  -1.4379  -1.3849  -1.3728  -1.2571
    -1.1959  -1.1457  -1.1219  -1.0828  -1.0388  -1.0193  -0.9292  -0.8059
    -0.7768  -0.7521  -0.7346  -0.4185   0.9529   0.9574   1.2120   1.6227
     1.6814   1.6881   1.7205   1.7977   1.8043   1.8813   2.0129   2.0856
     2.0961   2.1958   2.2655   2.2867   2.3133   2.3214   2.3380   2.3572
     2.4500   2.4900   2.5072   2.6126   2.6156   2.6501   2.6733   2.7324
     2.7760   2.7843   2.7880   2.8010   2.8550   2.8744   2.9302   2.9617
     2.9852   3.0480   3.1904   3.2331   3.2576   3.2987   3.3422   3.3522
     3.4194   3.4443   3.5539   3.6929   3.8325   3.9577   4.0357   4.3286
     4.4904   4.5029   4.5130   4.7181   4.8063   4.9628   5.0101   5.0730
     5.0982   5.1944   5.2293   5.2899   5.3190   5.3324   5.4381   5.4629
     5.4873   5.4936   5.6054   5.6688   5.7297   5.8015   5.8208   5.8956
     5.9192   6.0361   6.1929   6.2288   6.2477   6.3813   6.5506   6.6258
     7.2268   7.2698   7.8395   8.1474   8.2066   8.3288   8.5903   8.7326
     8.8451   8.9841   9.1745   9.2563   9.3347   9.3552   9.5155

          k = 0.0000 0.0560 0.0000 ( 34721 PWs)   bands (ev):

   -58.5027 -58.4851 -57.5912 -57.5735 -57.5676 -57.4909 -57.4679 -57.4430
   -57.3421 -57.3135 -57.2606 -57.2415 -57.1153 -57.0976 -57.0074 -56.9884
   -34.8610 -34.7731 -34.7586 -34.6943 -34.6660 -34.6468 -34.0036 -33.9613
   -33.9346 -33.8519 -33.8301 -33.8071 -33.7950 -33.7846 -33.7822 -33.7567
   -33.7482 -33.7429 -33.7110 -33.7017 -33.6863 -33.6841 -33.6782 -33.6732
   -33.6627 -33.6530 -33.6272 -33.6134 -33.5929 -33.5241 -33.4947 -33.4928
   -33.4868 -33.4830 -33.4711 -33.4586 -33.4547 -33.4486 -33.4458 -33.4319
   -33.3203 -33.2875 -33.2755 -33.2523 -33.2451 -33.2356 -33.2231 -33.1968
   -18.4554 -18.3920 -18.0255 -17.9953 -17.8388 -17.8039 -17.6191 -17.5959
   -17.5766 -17.4809 -17.4626 -17.4277 -17.2456 -17.1428 -17.1154 -17.1034
   -17.0455 -16.9981 -16.9313 -16.9176 -16.8979 -16.8628 -16.7841 -16.7718
   -16.7323 -16.7278 -16.6438 -16.6256 -16.6013 -16.4293 -16.4085 -15.8472
   -15.8233  -6.0810  -5.9282  -5.3804  -5.2496  -5.2019  -5.1623  -5.0630
    -5.0516  -5.0183  -4.9636  -4.9396  -4.7538  -4.7160  -4.6829  -4.6013
    -4.5949  -4.5528  -4.5483  -4.5116  -4.4975  -4.4408  -4.4254  -4.4189
    -4.3958  -4.3311  -4.2713  -4.2216  -4.1789  -4.1480  -4.1060  -4.0397
    -4.0238  -3.8678  -3.7568  -3.6142  -3.6075  -3.5859  -3.4868  -3.4685
    -3.3626  -3.2901  -3.2804  -3.2551  -3.2189  -3.1654  -3.1577  -3.0434
    -2.9996  -2.9522  -2.8950  -2.8680  -2.7933  -2.6855  -2.6789  -2.6307
    -2.5131  -2.5032  -2.4972  -2.4274  -2.3755  -2.3588  -2.3371  -2.3274
    -2.2709  -2.2592  -2.2237  -2.1940  -2.1726  -2.1512  -2.0711  -2.0679
    -2.0574  -1.9983  -1.8818  -1.8099  -1.7893  -1.7699  -1.7502  -1.6974
    -1.6575  -1.6540  -1.6310  -1.5827  -1.5612  -1.4788  -1.4392  -1.3766
    -1.2870  -1.1933  -1.1800  -1.1394  -1.0473  -1.0413  -0.9174  -0.9131
    -0.8207  -0.7834  -0.7589  -0.5217   1.0809   1.2233   1.2958   1.5178
     1.5939   1.6872   1.7548   1.8636   1.9464   2.0541   2.0742   2.0952
     2.1569   2.2137   2.2522   2.2965   2.3405   2.4123   2.4234   2.4669
     2.5142   2.5229   2.5643   2.6262   2.6326   2.6644   2.6770   2.7153
     2.7574   2.7621   2.8122   2.8520   2.8880   2.9202   2.9585   3.0167
     3.0646   3.0655   3.1475   3.1748   3.1934   3.2567   3.2783   3.3520
     3.4525   3.4642   3.5055   3.5774   3.7006   3.9245   4.0878   4.4660
     4.5387   4.5466   4.6648   4.8267   4.8748   4.9206   5.0788   5.1038
     5.1456   5.1871   5.2345   5.2908   5.3119   5.3558   5.3795   5.4218
     5.4391   5.5280   5.5830   5.6218   5.6386   5.6597   5.6655   5.7534
     5.8964   5.9769   6.0907   6.2125   6.2447   6.2685   6.5575   6.5657
     6.8549   7.1965   7.5782   7.6191   8.1506   8.3985   8.6519   8.6956
     8.8378   9.0259   9.2047   9.3694   9.5977   9.6795   9.7093

          k = 0.0000-0.0840 0.0000 ( 34678 PWs)   bands (ev):

   -58.4948 -58.4931 -57.5825 -57.5822 -57.5666 -57.4920 -57.4642 -57.4468
   -57.3406 -57.3151 -57.2551 -57.2471 -57.1065 -57.1065 -56.9988 -56.9971
   -34.7669 -34.7654 -34.7645 -34.7635 -34.6714 -34.6698 -33.9070 -33.9060
   -33.8890 -33.8869 -33.8374 -33.8284 -33.8106 -33.8070 -33.8069 -33.7794
   -33.7760 -33.7413 -33.7024 -33.7006 -33.6952 -33.6752 -33.6750 -33.6671
   -33.6615 -33.6278 -33.5962 -33.5861 -33.5818 -33.5646 -33.5565 -33.5303
   -33.4832 -33.4737 -33.4684 -33.4680 -33.4522 -33.4522 -33.3518 -33.3513
   -33.3458 -33.3355 -33.2982 -33.2978 -33.2407 -33.2406 -33.2367 -33.2299
   -18.3906 -18.2305 -18.2294 -17.8074 -17.7917 -17.7146 -17.6905 -17.6905
   -17.6211 -17.4570 -17.4028 -17.2921 -17.2888 -17.2598 -17.2109 -17.0346
   -17.0102 -17.0068 -17.0065 -16.8435 -16.8264 -16.8261 -16.8189 -16.7862
   -16.7416 -16.6949 -16.6890 -16.6794 -16.6784 -16.4672 -16.4544 -15.8568
   -15.8567  -6.0806  -5.5886  -5.5886  -5.0922  -5.0911  -5.0660  -5.0563
    -4.9747  -4.9723  -4.9167  -4.8803  -4.8402  -4.8001  -4.7476  -4.6899
    -4.6828  -4.6512  -4.6106  -4.5918  -4.4741  -4.4712  -4.4123  -4.4088
    -4.3298  -4.2798  -4.2250  -4.1898  -4.1057  -4.0901  -3.9915  -3.9885
    -3.8985  -3.8752  -3.8599  -3.8330  -3.6125  -3.5570  -3.4786  -3.4664
    -3.2827  -3.2755  -3.2510  -3.1465  -3.1287  -3.1219  -3.0420  -3.0389
    -2.9818  -2.9673  -2.9175  -2.8739  -2.8514  -2.7454  -2.6907  -2.6427
    -2.6086  -2.5925  -2.5859  -2.5580  -2.4632  -2.4061  -2.3654  -2.2656
    -2.2654  -2.1985  -2.1856  -2.1843  -2.1839  -2.1800  -2.1339  -1.9980
    -1.9978  -1.9509  -1.9267  -1.9121  -1.8486  -1.7638  -1.7563  -1.7215
    -1.7160  -1.6629  -1.6447  -1.6322  -1.6231  -1.5773  -1.5267  -1.3823
    -1.3544  -1.3216  -1.2967  -1.2718  -1.0472  -0.9952  -0.8179  -0.8082
    -0.7995  -0.7945  -0.7211  -0.6965   1.2790   1.2805   1.4299   1.4304
     1.5100   1.5112   1.8782   1.8802   1.9404   1.9806   2.1344   2.2132
     2.2484   2.2599   2.2778   2.3165   2.3865   2.4411   2.4539   2.4586
     2.4933   2.5172   2.5774   2.5951   2.6141   2.7412   2.7468   2.7604
     2.7940   2.8113   2.8161   2.8208   2.8234   2.9385   3.0093   3.0277
     3.0380   3.0796   3.1263   3.1494   3.1874   3.1956   3.2946   3.3049
     3.4473   3.5103   3.5395   3.5601   3.5784   3.8332   4.1472   4.5702
     4.6021   4.6382   4.6619   4.6628   4.9407   4.9643   5.1003   5.1277
     5.1444   5.1898   5.2422   5.2652   5.3553   5.3736   5.4131   5.4639
     5.4724   5.5018   5.5020   5.5077   5.5678   5.6034   5.6457   5.7246
     5.8324   5.9061   6.1116   6.1893   6.2809   6.3091   6.4977   6.6196
     6.8261   6.8673   7.4004   7.4043   8.1093   8.1721   8.8832   9.0647
     9.1739   9.1760   9.3004   9.4119   9.4680   9.5301   9.7051

          k = 0.0253 0.0000 0.0000 ( 34707 PWs)   bands (ev):

   -58.5114 -58.4763 -57.6000 -57.5707 -57.5644 -57.4880 -57.4752 -57.4356
   -57.3460 -57.3096 -57.2689 -57.2332 -57.1241 -57.0888 -57.0169 -56.9789
   -34.9566 -34.7803 -34.7515 -34.7169 -34.6228 -34.5659 -34.0995 -34.0574
   -34.0178 -33.8657 -33.8530 -33.7951 -33.7774 -33.7652 -33.7585 -33.7558
   -33.7446 -33.7327 -33.7060 -33.7019 -33.6924 -33.6776 -33.6670 -33.6626
   -33.6557 -33.6547 -33.6356 -33.6040 -33.5566 -33.5514 -33.5427 -33.5077
   -33.5076 -33.4940 -33.4661 -33.4506 -33.4388 -33.4379 -33.4243 -33.3900
   -33.3424 -33.2942 -33.2531 -33.2528 -33.2295 -33.2058 -33.1511 -33.0977
   -18.6305 -18.3959 -18.2116 -17.9954 -17.9915 -17.7639 -17.6540 -17.6035
   -17.5961 -17.5729 -17.5265 -17.3059 -17.2627 -17.2000 -17.1608 -17.1128
   -17.0562 -16.9642 -16.9477 -16.9448 -16.8406 -16.8123 -16.8016 -16.7377
   -16.6876 -16.6632 -16.6190 -16.5432 -16.5001 -16.3470 -16.2857 -15.8033
   -15.7439  -6.1282  -6.0810  -5.5948  -5.4324  -5.4110  -5.2792  -5.2523
    -5.1777  -5.0629  -4.9548  -4.9078  -4.7889  -4.7882  -4.7212  -4.6984
    -4.6258  -4.5279  -4.4647  -4.4545  -4.4018  -4.3594  -4.3043  -4.2285
    -4.2234  -4.1799  -4.1356  -4.1152  -4.0571  -4.0446  -4.0029  -3.8610
    -3.8431  -3.8067  -3.7587  -3.7265  -3.7243  -3.6751  -3.6168  -3.5400
    -3.5097  -3.4824  -3.4745  -3.4689  -3.3628  -3.2184  -3.0939  -3.0427
    -3.0285  -2.9674  -2.9633  -2.9149  -2.8456  -2.8208  -2.7677  -2.7623
    -2.7282  -2.6211  -2.5995  -2.5095  -2.4726  -2.4368  -2.4005  -2.2788
    -2.2357  -2.2131  -2.1329  -2.0740  -2.0472  -2.0403  -1.9525  -1.8535
    -1.8235  -1.7648  -1.7644  -1.7143  -1.6921  -1.6641  -1.6332  -1.5595
    -1.5481  -1.5129  -1.4798  -1.4462  -1.4094  -1.3649  -1.3095  -1.2919
    -1.2525  -1.2107  -1.1359  -1.0904  -1.0312  -0.9993  -0.8577  -0.8436
    -0.8101  -0.7912  -0.7569  -0.4383   0.9027   0.9170   1.2096   1.5719
     1.6149   1.7095   1.7253   1.8067   1.8525   1.9285   1.9894   1.9895
     2.1191   2.1263   2.2007   2.2706   2.2765   2.3144   2.3938   2.4238
     2.4719   2.4911   2.5354   2.5895   2.6220   2.6244   2.6439   2.6772
     2.7159   2.7398   2.8105   2.8671   2.8925   2.9213   2.9883   3.0011
     3.0184   3.0965   3.1925   3.2047   3.2263   3.3171   3.3607   3.3820
     3.4789   3.5348   3.5415   3.6963   3.8270   3.9405   4.0196   4.2214
     4.3788   4.4305   4.5175   4.6199   4.7254   4.7687   4.8374   4.8503
     5.0654   5.1122   5.2293   5.3420   5.4521   5.5076   5.5439   5.6850
     5.6918   5.7167   5.7402   5.7870   5.8359   5.8374   5.8478   5.9885
     5.9970   6.0121   6.2399   6.2953   6.3408   6.4649   6.5498   6.5881
     7.1618   7.5721   7.7022   7.9779   8.0385   8.1677   8.2733   8.5780
     8.7205   8.9924   9.0921   9.3772   9.5573   9.5932   9.9263

          k = 0.0253 0.0280 0.0000 ( 34687 PWs)   bands (ev):

   -58.5091 -58.4787 -57.5977 -57.5699 -57.5667 -57.4890 -57.4731 -57.4377
   -57.3448 -57.3108 -57.2666 -57.2355 -57.1217 -57.0912 -57.0143 -56.9815
   -34.9312 -34.7784 -34.7534 -34.7107 -34.6291 -34.5929 -34.0740 -34.0322
   -33.9945 -33.8599 -33.8469 -33.7914 -33.7727 -33.7676 -33.7534 -33.7507
   -33.7447 -33.7332 -33.7160 -33.7032 -33.6899 -33.6890 -33.6822 -33.6714
   -33.6570 -33.6490 -33.6378 -33.6007 -33.5764 -33.5275 -33.5179 -33.5098
   -33.5033 -33.4915 -33.4643 -33.4512 -33.4435 -33.4428 -33.4406 -33.4160
   -33.3365 -33.2907 -33.2589 -33.2513 -33.2310 -33.2106 -33.1784 -33.1263
   -18.5731 -18.3941 -18.1537 -17.9779 -17.9445 -17.7260 -17.7214 -17.5765
   -17.5712 -17.5399 -17.5281 -17.3243 -17.2777 -17.1769 -17.1400 -17.0942
   -17.0327 -16.9917 -16.9525 -16.9341 -16.8798 -16.8671 -16.7746 -16.7623
   -16.7058 -16.6838 -16.6232 -16.5659 -16.5365 -16.3663 -16.3263 -15.8175
   -15.7696  -6.0803  -6.0432  -5.5112  -5.3586  -5.3356  -5.1962  -5.1809
    -5.1201  -5.0110  -4.9013  -4.8847  -4.8436  -4.7441  -4.7048  -4.6491
    -4.6152  -4.5178  -4.4878  -4.4474  -4.3895  -4.3764  -4.3462  -4.3231
    -4.2941  -4.2611  -4.1996  -4.1565  -4.1316  -4.1024  -4.0110  -3.9845
    -3.9293  -3.8769  -3.8269  -3.7583  -3.6169  -3.5630  -3.5352  -3.5213
    -3.4716  -3.4433  -3.4120  -3.3308  -3.3010  -3.1412  -3.0999  -3.0407
    -2.9864  -2.9401  -2.9221  -2.8884  -2.8337  -2.8118  -2.7202  -2.7100
    -2.6933  -2.6607  -2.5624  -2.5130  -2.4935  -2.4283  -2.4093  -2.3210
    -2.2559  -2.2251  -2.1467  -2.1389  -2.0555  -2.0436  -1.9942  -1.9733
    -1.9545  -1.8374  -1.7915  -1.7644  -1.7483  -1.6990  -1.6453  -1.6164
    -1.5811  -1.5625  -1.5557  -1.5387  -1.5010  -1.4366  -1.3543  -1.3105
    -1.2036  -1.1403  -1.1240  -1.1188  -1.0938  -1.0471  -0.9981  -0.8621
    -0.8146  -0.7921  -0.7290  -0.4679   0.9480   1.0421   1.2256   1.6172
     1.6496   1.7224   1.7603   1.8376   1.8474   1.9274   2.0720   2.1075
     2.1559   2.1712   2.2184   2.2794   2.3076   2.3144   2.3523   2.4130
     2.4309   2.4914   2.5153   2.6308   2.6407   2.6610   2.7185   2.7407
     2.7663   2.7802   2.8150   2.8180   2.9072   2.9487   2.9602   2.9753
     3.0147   3.0780   3.1580   3.2337   3.2588   3.3270   3.3550   3.3978
     3.4254   3.4924   3.5119   3.6486   3.7834   3.9588   4.0298   4.2334
     4.4267   4.5256   4.5324   4.6526   4.7587   4.8128   4.8626   4.8779
     5.0151   5.1068   5.2652   5.3356   5.4868   5.4908   5.5510   5.5865
     5.6406   5.6529   5.6911   5.7284   5.7508   5.7527   5.8531   5.9452
     5.9613   6.0604   6.2020   6.2355   6.2651   6.3909   6.5757   6.6102
     7.2783   7.3017   7.6799   7.7698   8.0927   8.2949   8.3693   8.4470
     8.7223   8.9372   9.1457   9.2206   9.3807   9.5493   9.6883

          k = 0.0253 0.0560 0.0000 ( 34699 PWs)   bands (ev):

   -58.5027 -58.4851 -57.5912 -57.5734 -57.5677 -57.4910 -57.4679 -57.4430
   -57.3421 -57.3135 -57.2606 -57.2415 -57.1153 -57.0976 -57.0074 -56.9884
   -34.8613 -34.7731 -34.7586 -34.6937 -34.6661 -34.6466 -34.0037 -33.9640
   -33.9347 -33.8457 -33.8301 -33.8066 -33.7892 -33.7845 -33.7824 -33.7625
   -33.7500 -33.7409 -33.7110 -33.7058 -33.6913 -33.6866 -33.6798 -33.6733
   -33.6628 -33.6395 -33.6273 -33.6134 -33.5919 -33.5235 -33.4951 -33.4949
   -33.4891 -33.4820 -33.4709 -33.4593 -33.4559 -33.4486 -33.4456 -33.4315
   -33.3203 -33.2875 -33.2755 -33.2523 -33.2467 -33.2352 -33.2231 -33.1968
   -18.4153 -18.3913 -18.0055 -17.9933 -17.8230 -17.8035 -17.6600 -17.6019
   -17.5779 -17.4670 -17.4508 -17.3958 -17.2646 -17.1492 -17.1294 -17.0854
   -17.0417 -16.9949 -16.9491 -16.9368 -16.9304 -16.8779 -16.7836 -16.7639
   -16.7564 -16.7250 -16.6460 -16.6267 -16.6124 -16.4294 -16.4060 -15.8466
   -15.8235  -6.0792  -5.8080  -5.2831  -5.2272  -5.1678  -5.1296  -5.0202
    -5.0005  -4.9904  -4.8913  -4.8590  -4.7306  -4.7135  -4.6592  -4.5938
    -4.5835  -4.5788  -4.5356  -4.4755  -4.4679  -4.4552  -4.4015  -4.3768
    -4.3299  -4.3156  -4.2544  -4.2229  -4.1970  -4.1453  -4.0948  -4.0532
    -3.9892  -3.8443  -3.7506  -3.6753  -3.6030  -3.5896  -3.5012  -3.4008
    -3.3782  -3.3583  -3.3220  -3.2763  -3.2316  -3.2053  -3.1389  -3.0656
    -3.0138  -2.9736  -2.9355  -2.8690  -2.8120  -2.7441  -2.7371  -2.6971
    -2.6068  -2.5886  -2.5605  -2.5031  -2.4876  -2.3835  -2.3475  -2.3245
    -2.3100  -2.2926  -2.2400  -2.1928  -2.1736  -2.1457  -2.1264  -2.0986
    -2.0872  -2.0112  -1.9043  -1.8793  -1.8227  -1.7732  -1.7514  -1.7314
    -1.6993  -1.6576  -1.6214  -1.6035  -1.5379  -1.5078  -1.4369  -1.3507
    -1.3224  -1.1993  -1.1499  -1.1345  -1.0569  -1.0116  -0.9334  -0.9071
    -0.8434  -0.8180  -0.7530  -0.5628   1.0826   1.2644   1.3607   1.5546
     1.5703   1.7082   1.7714   1.8601   2.0590   2.0746   2.1122   2.1411
     2.1839   2.2532   2.2874   2.2957   2.3181   2.3681   2.4317   2.4611
     2.5150   2.5459   2.5619   2.5857   2.6624   2.6877   2.7023   2.7655
     2.7964   2.8178   2.8325   2.8748   2.9268   2.9710   2.9912   3.0114
     3.0512   3.0875   3.1112   3.1462   3.2523   3.2722   3.3016   3.3639
     3.4063   3.4966   3.5161   3.5657   3.6661   3.8575   4.1433   4.2979
     4.5259   4.5833   4.6747   4.7090   4.7857   4.8365   4.9096   4.9606
     5.0374   5.1721   5.2342   5.3162   5.3572   5.3636   5.4254   5.4981
     5.5232   5.5953   5.6181   5.6313   5.7053   5.7298   5.8241   5.8591
     5.9113   6.0211   6.1171   6.2510   6.2741   6.3122   6.5475   6.5860
     6.9211   7.2597   7.6233   7.6975   8.0715   8.1677   8.3308   8.5056
     8.7510   8.8649   8.9516   9.2550   9.4011   9.5072   9.5503

          k = 0.0253-0.0840 0.0000 ( 34722 PWs)   bands (ev):

   -58.4948 -58.4931 -57.5824 -57.5822 -57.5667 -57.4920 -57.4642 -57.4468
   -57.3406 -57.3151 -57.2551 -57.2471 -57.1065 -57.1065 -56.9988 -56.9971
   -34.7669 -34.7655 -34.7646 -34.7637 -34.6710 -34.6695 -33.9073 -33.9064
   -33.8923 -33.8870 -33.8423 -33.8194 -33.8070 -33.8069 -33.8021 -33.7795
   -33.7761 -33.7451 -33.7074 -33.7007 -33.6953 -33.6754 -33.6752 -33.6672
   -33.6632 -33.6278 -33.5956 -33.5820 -33.5787 -33.5649 -33.5573 -33.5288
   -33.4833 -33.4765 -33.4709 -33.4680 -33.4524 -33.4524 -33.3518 -33.3513
   -33.3458 -33.3355 -33.2982 -33.2978 -33.2415 -33.2410 -33.2367 -33.2299
   -18.3901 -18.1995 -18.1985 -17.7874 -17.7761 -17.7390 -17.7346 -17.6931
   -17.6143 -17.4457 -17.3789 -17.2815 -17.2782 -17.2305 -17.1864 -17.0815
[...]
    -4.3168  -4.2832  -4.2121  -4.1743  -4.1641  -4.1468  -4.0433  -4.0359
    -3.9719  -3.9356  -3.7064  -3.6921  -3.6408  -3.6064  -3.5590  -3.5474
    -3.4533  -3.4306  -3.3603  -3.3293  -3.3207  -3.3043  -3.2261  -3.1302
    -3.0782  -3.0740  -3.0182  -3.0110  -2.9783  -2.9455  -2.9206  -2.8332
    -2.8019  -2.7450  -2.6445  -2.6140  -2.6097  -2.5388  -2.5108  -2.4901
    -2.4689  -2.4305  -2.3306  -2.3261  -2.2730  -2.2570  -2.2392  -2.1821
    -2.1818  -2.0823  -2.0509  -1.9877  -1.9620  -1.8415  -1.7737  -1.7129
    -1.6898  -1.6742  -1.6547  -1.5789  -1.4102  -1.3948  -1.3249  -1.2981
    -1.2937  -1.2657  -1.1376  -1.1092  -1.0779  -0.9778  -0.9117  -0.8986
    -0.8165  -0.8104  -0.7542  -0.7535   1.3335   1.3348   1.4554   1.4568
     1.7422   1.7423   1.8494   1.8509   2.0258   2.0262   2.1234   2.2204
     2.2760   2.2823   2.3834   2.4365   2.4483   2.4506   2.5129   2.5621
     2.5641   2.5835   2.6401   2.6470   2.7445   2.7480   2.7805   2.7914
     2.8347   2.8691   2.9262   2.9788   2.9977   2.9995   3.0281   3.0537
     3.0630   3.1502   3.1843   3.1932   3.2348   3.2633   3.3296   3.3365
     3.3905   3.3933   3.4827   3.6086   3.6606   3.6723   4.1181   4.1184
     4.2888   4.5613   4.5625   4.6582   4.7109   4.7598   4.8217   4.8261
     4.9274   4.9550   4.9949   4.9979   5.4155   5.4582   5.4718   5.5994
     5.6875   5.7044   5.7524   5.7646   5.7796   5.8337   5.8506   5.9331
     5.9775   6.0715   6.2029   6.2399   6.3329   6.3622   6.6809   6.8849
     7.1426   7.1637   7.6135   7.6176   7.9524   7.9646   8.0440   8.1235
     8.4452   8.4532   8.5578   8.7002   9.1525   9.1825   9.3014

          k =-0.0759 0.0000 0.0000 ( 34758 PWs)   bands (ev):

   -58.5114 -58.4764 -57.5997 -57.5709 -57.5643 -57.4880 -57.4751 -57.4355
   -57.3460 -57.3096 -57.2687 -57.2331 -57.1246 -57.0893 -57.0168 -56.9789
   -34.9578 -34.7803 -34.7516 -34.7145 -34.6230 -34.5660 -34.1001 -34.0637
   -34.0181 -33.8528 -33.8206 -33.7972 -33.7951 -33.7889 -33.7591 -33.7584
   -33.7446 -33.7356 -33.7058 -33.7054 -33.6776 -33.6729 -33.6670 -33.6625
   -33.6563 -33.6536 -33.6227 -33.5994 -33.5564 -33.5544 -33.5430 -33.5277
   -33.5034 -33.4932 -33.4700 -33.4503 -33.4375 -33.4373 -33.4243 -33.3901
   -33.3429 -33.2941 -33.2611 -33.2533 -33.2260 -33.2057 -33.1518 -33.0979
   -18.4465 -18.3920 -18.1240 -18.0652 -17.9608 -17.8608 -17.6767 -17.5941
   -17.5713 -17.5215 -17.4331 -17.3947 -17.2496 -17.2456 -17.2320 -17.2161
   -17.1354 -17.0441 -16.9841 -16.9590 -16.8246 -16.8126 -16.7737 -16.6712
   -16.6615 -16.6378 -16.6220 -16.5942 -16.5010 -16.3447 -16.2859 -15.7980
   -15.7410  -6.0756  -5.6380  -5.5553  -5.4691  -5.3997  -5.1437  -5.1186
    -5.0649  -5.0045  -4.9763  -4.8119  -4.7549  -4.7452  -4.7376  -4.6117
    -4.6003  -4.4633  -4.4285  -4.3727  -4.2868  -4.2803  -4.2026  -4.2015
    -4.1195  -4.1047  -4.0834  -3.9897  -3.9742  -3.9681  -3.9397  -3.8556
    -3.8114  -3.7945  -3.7884  -3.7643  -3.7012  -3.6947  -3.6516  -3.6166
    -3.5235  -3.4931  -3.4737  -3.3183  -3.2308  -3.2212  -3.1827  -3.1401
    -3.0872  -3.0005  -2.9992  -2.9311  -2.9290  -2.8979  -2.8924  -2.8403
    -2.8057  -2.7478  -2.6719  -2.6684  -2.5858  -2.5449  -2.4899  -2.4551
    -2.3532  -2.3274  -2.2567  -2.1655  -2.1413  -1.9892  -1.9695  -1.9404
    -1.9271  -1.9095  -1.8321  -1.8139  -1.6891  -1.6790  -1.6786  -1.6184
    -1.5680  -1.5208  -1.4610  -1.4374  -1.3882  -1.3832  -1.3654  -1.3606
    -1.3410  -1.2782  -1.2561  -1.1166  -1.1058  -1.0709  -0.9179  -0.9107
    -0.8960  -0.8900  -0.8766  -0.7015   0.8635   1.0782   1.2013   1.2076
     1.5829   1.7119   1.7482   1.7986   1.8438   1.8781   1.9775   2.1203
     2.1461   2.2672   2.3319   2.3559   2.3930   2.4275   2.4552   2.4638
     2.5025   2.5059   2.6198   2.6643   2.7142   2.7243   2.7649   2.8113
     2.8289   2.8423   2.9423   2.9613   2.9648   2.9649   2.9840   3.0307
     3.0319   3.0966   3.1439   3.1808   3.2348   3.2993   3.3676   3.4304
     3.5256   3.6115   3.6262   3.6508   3.7528   3.7577   3.7994   4.1528
     4.1737   4.3042   4.3692   4.4980   4.6145   4.8094   4.8820   4.9198
     4.9608   5.2705   5.3483   5.4968   5.5278   5.5912   5.6055   5.6797
     5.7064   5.7604   5.8288   5.9360   5.9988   6.1046   6.1367   6.2848
     6.2990   6.3167   6.3392   6.3403   6.3604   6.4647   6.5017   6.5977
     6.6864   6.8209   7.2454   7.4167   8.0203   8.1289   8.2049   8.5720
     8.7938   8.8992   9.1217   9.2049   9.4328   9.7885   9.9149

          k =-0.0759 0.0280 0.0000 ( 34680 PWs)   bands (ev):

   -58.5091 -58.4787 -57.5974 -57.5700 -57.5667 -57.4890 -57.4730 -57.4376
   -57.3448 -57.3108 -57.2665 -57.2353 -57.1222 -57.0917 -57.0143 -56.9814
   -34.9323 -34.7784 -34.7535 -34.7083 -34.6291 -34.5931 -34.0745 -34.0387
   -33.9948 -33.8467 -33.8158 -33.7968 -33.7915 -33.7705 -33.7612 -33.7601
   -33.7449 -33.7325 -33.7185 -33.7106 -33.6899 -33.6815 -33.6715 -33.6715
   -33.6567 -33.6485 -33.6224 -33.5963 -33.5764 -33.5328 -33.5214 -33.5181
   -33.5028 -33.4906 -33.4677 -33.4509 -33.4440 -33.4432 -33.4395 -33.4156
   -33.3370 -33.2907 -33.2594 -33.2582 -33.2281 -33.2105 -33.1790 -33.1263
   -18.3911 -18.3901 -18.0985 -18.0161 -17.9151 -17.8514 -17.6515 -17.6451
   -17.5313 -17.5233 -17.4072 -17.3708 -17.2854 -17.2046 -17.1994 -17.1840
   -17.1159 -17.0319 -17.0120 -16.9715 -16.8613 -16.8520 -16.7896 -16.6901
   -16.6885 -16.6814 -16.6270 -16.6086 -16.5391 -16.3643 -16.3273 -15.8125
   -15.7673  -6.0747  -5.5416  -5.4114  -5.3963  -5.3284  -5.0422  -5.0227
    -4.9829  -4.8809  -4.8756  -4.8562  -4.8255  -4.7289  -4.6385  -4.5553
    -4.5515  -4.4806  -4.4499  -4.4287  -4.3580  -4.3330  -4.3286  -4.2038
    -4.1657  -4.1537  -4.1365  -4.0354  -4.0074  -3.9702  -3.9271  -3.9172
    -3.8524  -3.8488  -3.7611  -3.7465  -3.7004  -3.6463  -3.6257  -3.5947
    -3.5463  -3.4446  -3.3795  -3.2915  -3.2259  -3.1832  -3.1388  -3.1174
    -3.0709  -3.0464  -3.0170  -2.9764  -2.9297  -2.8983  -2.8784  -2.8124
    -2.7902  -2.7464  -2.7176  -2.6975  -2.5908  -2.5700  -2.4589  -2.4183
    -2.3834  -2.3280  -2.2884  -2.2720  -2.2388  -2.1793  -2.1478  -2.0505
    -2.0142  -1.9268  -1.8868  -1.8379  -1.7999  -1.7848  -1.7247  -1.6915
    -1.6169  -1.5878  -1.5455  -1.5210  -1.4147  -1.3631  -1.3337  -1.2919
    -1.2823  -1.2101  -1.1597  -1.1109  -1.0686  -1.0408  -1.0210  -0.9133
    -0.8909  -0.8497  -0.8410  -0.6597   0.9328   1.1543   1.2487   1.2768
     1.6758   1.7767   1.7812   1.8107   1.8971   1.9395   1.9774   2.1146
     2.1843   2.2957   2.3334   2.3422   2.4424   2.4529   2.4787   2.5134
     2.5266   2.5446   2.6801   2.7195   2.7243   2.7415   2.7636   2.7738
     2.7881   2.8390   2.9278   2.9566   2.9714   2.9722   2.9928   3.0365
     3.0733   3.1029   3.2047   3.2137   3.2266   3.3312   3.3649   3.4223
     3.4906   3.5817   3.6001   3.6248   3.6900   3.7235   3.7755   4.1771
     4.2191   4.2984   4.3664   4.6178   4.6242   4.6344   4.9042   4.9165
     4.9752   5.2907   5.3469   5.3480   5.4038   5.4759   5.5968   5.6160
     5.6536   5.6927   5.7897   5.9816   6.0182   6.0557   6.1501   6.1832
     6.2087   6.2585   6.2610   6.3758   6.4429   6.4520   6.5168   6.5959
     6.8148   6.9514   7.3641   7.3983   7.5430   8.1322   8.2300   8.6158
     9.0247   9.0972   9.1990   9.3341   9.3423   9.3782   9.4795

          k =-0.0759 0.0560 0.0000 ( 34616 PWs)   bands (ev):

   -58.5027 -58.4852 -57.5909 -57.5732 -57.5680 -57.4910 -57.4678 -57.4429
   -57.3421 -57.3134 -57.2605 -57.2413 -57.1158 -57.0981 -57.0074 -56.9884
   -34.8622 -34.7731 -34.7587 -34.6917 -34.6665 -34.6460 -34.0041 -33.9713
   -33.9349 -33.8299 -33.8136 -33.8042 -33.7968 -33.7836 -33.7834 -33.7653
   -33.7510 -33.7390 -33.7225 -33.7111 -33.7097 -33.6878 -33.6736 -33.6686
   -33.6628 -33.6276 -33.6158 -33.6134 -33.5886 -33.5213 -33.5051 -33.4963
   -33.4903 -33.4812 -33.4701 -33.4616 -33.4596 -33.4488 -33.4454 -33.4303
   -33.3208 -33.2875 -33.2760 -33.2528 -33.2510 -33.2343 -33.2230 -33.1966
   -18.3893 -18.2347 -18.0310 -17.9111 -17.8358 -17.8012 -17.7970 -17.5899
   -17.5693 -17.4195 -17.3946 -17.3282 -17.2164 -17.1769 -17.1167 -17.1058
   -17.0734 -17.0581 -17.0397 -17.0249 -16.9485 -16.9179 -16.8424 -16.7975
   -16.7283 -16.7134 -16.6439 -16.6374 -16.6283 -16.4302 -16.4013 -15.8424
   -15.8217  -6.0734  -5.2708  -5.2058  -5.1476  -5.0184  -5.0082  -5.0016
    -4.9211  -4.7720  -4.7114  -4.6384  -4.6200  -4.5986  -4.5793  -4.5393
    -4.5121  -4.5008  -4.4279  -4.4022  -4.3760  -4.3479  -4.3172  -4.2840
    -4.2803  -4.2618  -4.2408  -4.1863  -4.1261  -4.0523  -3.9676  -3.9293
    -3.8401  -3.8134  -3.7990  -3.7680  -3.7338  -3.6808  -3.5623  -3.5085
    -3.4593  -3.4141  -3.3714  -3.3570  -3.3259  -3.2815  -3.2692  -3.2028
    -3.1598  -3.1586  -2.9803  -2.9244  -2.9217  -2.8985  -2.8908  -2.8262
    -2.7948  -2.7777  -2.7458  -2.7063  -2.6491  -2.6264  -2.5929  -2.5505
    -2.4554  -2.4340  -2.4020  -2.3554  -2.3270  -2.3142  -2.2349  -2.1333
    -2.1195  -2.0814  -2.0575  -1.9115  -1.8990  -1.7877  -1.7669  -1.7494
    -1.7342  -1.6649  -1.6196  -1.5284  -1.4822  -1.4018  -1.3232  -1.2608
    -1.2177  -1.2050  -1.1581  -1.0566  -0.9846  -0.9390  -0.9213  -0.9045
    -0.8656  -0.8481  -0.8109  -0.7380   1.1343   1.3030   1.3536   1.4896
     1.6924   1.8491   1.8655   1.8908   1.9162   2.0213   2.1036   2.1354
     2.2073   2.2709   2.3395   2.3953   2.4716   2.4757   2.5206   2.5887
     2.6092   2.6568   2.6644   2.6948   2.7031   2.7398   2.8199   2.8278
     2.8601   2.8847   2.9471   2.9694   3.0199   3.0346   3.0472   3.0708
     3.0956   3.1514   3.1741   3.1999   3.2732   3.2838   3.2906   3.3977
     3.4388   3.4845   3.5829   3.6042   3.6454   3.6799   3.7778   4.2383
     4.2587   4.3042   4.3843   4.4093   4.6889   4.7422   4.8042   4.8645
     4.9770   5.0339   5.0842   5.1549   5.3919   5.4567   5.4859   5.6093
     5.6427   5.7780   5.8158   5.8762   5.9142   5.9397   5.9571   6.1015
     6.1041   6.1562   6.3005   6.3154   6.3957   6.4913   6.6372   6.8515
     6.9268   7.1360   7.3046   7.6339   7.7939   7.9338   8.1982   8.2952
     8.4860   8.5111   8.6222   8.7681   9.0556   9.2719   9.4302

          k =-0.0759-0.0840 0.0000 ( 34556 PWs)   bands (ev):

   -58.4948 -58.4931 -57.5821 -57.5821 -57.5670 -57.4920 -57.4640 -57.4467
   -57.3406 -57.3150 -57.2550 -57.2469 -57.1070 -57.1070 -56.9987 -56.9970
   -34.7669 -34.7661 -34.7647 -34.7644 -34.6697 -34.6681 -33.9072 -33.9067
   -33.9014 -33.8871 -33.8490 -33.8067 -33.8066 -33.7951 -33.7799 -33.7763
   -33.7703 -33.7614 -33.7299 -33.7006 -33.6953 -33.6759 -33.6756 -33.6674
   -33.6673 -33.6277 -33.5934 -33.5689 -33.5679 -33.5655 -33.5589 -33.5245
   -33.4859 -33.4830 -33.4788 -33.4677 -33.4534 -33.4534 -33.3521 -33.3517
   -33.3453 -33.3350 -33.2986 -33.2982 -33.2433 -33.2421 -33.2367 -33.2298
   -18.3885 -18.0195 -18.0192 -17.9493 -17.9473 -17.7069 -17.6632 -17.6619
   -17.6599 -17.3901 -17.2622 -17.2538 -17.2516 -17.1613 -17.1544 -17.1016
   -17.0610 -17.0153 -16.9993 -16.9847 -16.9836 -16.9795 -16.9746 -16.7747
   -16.7523 -16.7394 -16.7364 -16.6469 -16.6444 -16.4632 -16.4433 -15.8539
   -15.8538  -6.0727  -5.0899  -5.0802  -5.0114  -5.0093  -4.8776  -4.8774
    -4.8743  -4.8687  -4.6236  -4.6192  -4.6146  -4.5524  -4.4896  -4.4187
    -4.4163  -4.4149  -4.3816  -4.3676  -4.3533  -4.3418  -4.3238  -4.2744
    -4.2713  -4.2438  -4.2408  -4.2241  -4.1149  -4.0618  -3.9981  -3.9781
    -3.9443  -3.8691  -3.8547  -3.8520  -3.7362  -3.6574  -3.6466  -3.6425
    -3.5187  -3.5160  -3.3621  -3.3610  -3.3497  -3.3141  -3.2452  -3.2103
    -3.1446  -3.1168  -3.0606  -3.0506  -3.0162  -3.0024  -2.9840  -2.9039
    -2.8567  -2.7646  -2.7284  -2.6849  -2.6436  -2.6135  -2.5790  -2.5583
    -2.5323  -2.4571  -2.4302  -2.4251  -2.3932  -2.3407  -2.2859  -2.2528
    -2.1384  -2.0692  -2.0568  -2.0439  -1.9261  -1.8593  -1.8503  -1.6975
    -1.6587  -1.6335  -1.6199  -1.5955  -1.3534  -1.3115  -1.2950  -1.2867
    -1.2567  -1.2067  -1.1290  -1.0441  -0.9830  -0.9509  -0.9376  -0.9012
    -0.8781  -0.8440  -0.7755  -0.7623   1.3972   1.4012   1.4128   1.4186
     1.7605   1.7612   1.8891   1.8909   2.0409   2.0986   2.1013   2.1551
     2.2277   2.2566   2.3519   2.4233   2.4313   2.5000   2.5326   2.5813
     2.5941   2.6290   2.7513   2.7556   2.7672   2.7838   2.8013   2.8300
     2.8793   2.9044   2.9460   3.0350   3.0383   3.0417   3.0638   3.0792
     3.1567   3.1879   3.1900   3.2256   3.2529   3.2777   3.2926   3.2944
     3.3572   3.3845   3.5334   3.6091   3.6831   3.6850   3.9364   3.9368
     4.3328   4.4204   4.4465   4.5057   4.6189   4.6545   4.6971   4.7521
     4.9548   4.9727   4.9807   4.9843   5.4658   5.4707   5.4887   5.7010
     5.7282   5.7305   5.8004   5.8136   5.8907   5.8947   5.9414   6.0360
     6.0797   6.0873   6.1644   6.2315   6.2920   6.3898   6.8324   7.1274
     7.4104   7.4218   7.4720   7.5324   7.7108   7.7132   7.8496   7.9377
     8.2753   8.2760   8.4450   8.5916   9.0568   9.0855   9.1862

     the Fermi energy is    -0.4931 ev

!    total energy              =   -3005.52866264 Ry
     Harris-Foulkes estimate   =   -3005.52866288 Ry
     estimated scf accuracy    <       0.00000062 Ry

     The total energy is the sum of the following terms:

     one-electron contribution =  -41015.48677777 Ry
     hartree contribution      =   20573.43428088 Ry
     xc contribution           =    -546.75458397 Ry
     ewald contribution        =   17983.29806062 Ry
     smearing contrib. (-TS)   =      -0.01964240 Ry

     total magnetization       =     0.00 Bohr mag/cell
     absolute magnetization    =     0.01 Bohr mag/cell

     convergence has been achieved in  10 iterations

     Forces acting on atoms (Ry/au):


     negative rho (up, down):  1.351E-02 1.351E-02
     atom    1 type  1   force =     0.00001940   -0.00109866   -0.10418270
     atom    2 type  2   force =     0.00003993    0.00000000    0.03815842
     atom    3 type  1   force =    -0.00011353    0.00000000   -0.02284957
     atom    4 type  2   force =    -0.00613398    0.00312202   -0.00579920
     atom    5 type  1   force =     0.00029886    0.00034922   -0.00092208
     atom    6 type  2   force =    -0.00037531    0.00000000    0.00006375
     atom    7 type  1   force =     0.00090468    0.00000000   -0.00059335
     atom    8 type  2   force =     0.00036204    0.00031692   -0.00022736
     atom    9 type  1   force =     0.00001940    0.00109866   -0.10418270
     atom   10 type  2   force =     0.00002830    0.00000000    0.03430824
     atom   11 type  1   force =    -0.00011325    0.00000000    0.01129060
     atom   12 type  2   force =    -0.00613398   -0.00312202   -0.00579920
     atom   13 type  1   force =     0.00029886   -0.00034922   -0.00092208
     atom   14 type  2   force =    -0.00072648    0.00000000   -0.00099279
     atom   15 type  1   force =     0.00042480    0.00000000    0.00122883
     atom   16 type  2   force =     0.00036204   -0.00031692   -0.00022736
     atom   17 type  2   force =     0.00004319    0.00000000    0.06633134
     atom   18 type  1   force =     0.00014181    0.00000000    0.13064028
     atom   19 type  2   force =    -0.00015569    0.00000000   -0.08411989
     atom   20 type  2   force =    -0.05788574    0.00015404   -0.03630340
     atom   21 type  2   force =     0.05803496    0.00017050   -0.03620962
     atom   22 type  1   force =    -0.00003489    0.00087315    0.07796544
     atom   23 type  2   force =    -0.00015992    0.00000000    0.00142657
     atom   24 type  2   force =    -0.00017317    0.00000000   -0.03628655
     atom   25 type  2   force =     0.00592143    0.00307934   -0.00548366
     atom   26 type  1   force =    -0.00035762    0.00000000    0.00030441
     atom   27 type  2   force =     0.00033325    0.00000000    0.00136212
     atom   28 type  2   force =    -0.00016110    0.00034215   -0.00038706
     atom   29 type  2   force =    -0.00035652    0.00015683    0.00006115
     atom   30 type  1   force =    -0.00009467    0.00089984    0.00107437
     atom   31 type  2   force =    -0.00017708    0.00000000   -0.00070482
     atom   32 type  2   force =     0.00010330   -0.00021426   -0.00006130
     atom   33 type  2   force =    -0.00000813    0.00000000    0.06635493
     atom   34 type  1   force =     0.00011491    0.00000000    0.13044854
     atom   35 type  2   force =    -0.00013132    0.00000000   -0.08356636
     atom   36 type  2   force =    -0.05788574   -0.00015404   -0.03630340
     atom   37 type  2   force =     0.05803496   -0.00017050   -0.03620962
     atom   38 type  1   force =    -0.00003489   -0.00087315    0.07796544
     atom   39 type  2   force =    -0.00007504    0.00000000   -0.00018580
     atom   40 type  2   force =     0.00008572    0.00000000   -0.03529307
     atom   41 type  2   force =     0.00592143   -0.00307934   -0.00548366
     atom   42 type  1   force =    -0.00054527    0.00000000    0.00098302
     atom   43 type  2   force =     0.00039981    0.00000000    0.00151954
     atom   44 type  2   force =    -0.00016110   -0.00034215   -0.00038706
     atom   45 type  2   force =    -0.00035652   -0.00015683    0.00006115
     atom   46 type  1   force =    -0.00009467   -0.00089984    0.00107437
     atom   47 type  2   force =     0.00164023    0.00000000    0.00042402
     atom   48 type  2   force =     0.00010330    0.00021426   -0.00006130
     atom   49 type  2   force =    -0.04486845    0.00000000   -0.02647206
     atom   50 type  3   force =     0.04367747    0.00000000    0.02717052

     Total force =     0.347924     Total SCF correction =     0.002737
 !ASE

     Writing output data file calc.save
 
     init_run     :     49.08s CPU     57.41s WALL (       1 calls)
     electrons    :   2006.93s CPU   2263.65s WALL (       1 calls)
     forces       :     41.96s CPU     44.08s WALL (       1 calls)

     Called by init_run:
     wfcinit      :     41.92s CPU     49.57s WALL (       1 calls)
     potinit      :      1.29s CPU      1.50s WALL (       1 calls)

     Called by electrons:
     c_bands      :   1743.94s CPU   1956.27s WALL (      10 calls)
     sum_band     :    218.78s CPU    258.15s WALL (      10 calls)
     v_of_rho     :     11.34s CPU     13.63s WALL (      11 calls)
     newd         :     36.20s CPU     39.17s WALL (      11 calls)
     mix_rho      :      0.36s CPU      0.53s WALL (      10 calls)
     vdW_energy   :      2.49s CPU      2.94s WALL (      12 calls)
     vdW_ffts     :      3.00s CPU      3.68s WALL (      24 calls)
     vdW_v        :      1.22s CPU      1.45s WALL (      12 calls)

     Called by c_bands:
     init_us_2    :      4.81s CPU      5.15s WALL (     704 calls)
     cegterg      :   1714.44s CPU   1925.22s WALL (     320 calls)

     Called by *egterg:
     h_psi        :    672.33s CPU    828.34s WALL (    1497 calls)
     s_psi        :    116.25s CPU    120.05s WALL (    1497 calls)
     g_psi        :      3.50s CPU      3.54s WALL (    1145 calls)
     cdiaghg      :    535.74s CPU    546.66s WALL (    1465 calls)

     Called by h_psi:
     add_vuspsi   :    117.34s CPU    121.82s WALL (    1497 calls)

     General routines
     calbec       :    172.79s CPU    177.20s WALL (    1849 calls)
     fft          :      5.98s CPU      7.42s WALL (     948 calls)
     ffts         :      0.04s CPU      0.06s WALL (      42 calls)
     fftw         :    371.18s CPU    551.91s WALL (  564788 calls)
     interpolate  :      0.34s CPU      0.49s WALL (      42 calls)
     davcio       :      0.00s CPU      0.35s WALL (      32 calls)
 
     Parallel routines
     fft_scatter  :    179.15s CPU    288.38s WALL (  565778 calls)
 
     PWSCF        : 35m 1.17s CPU    39m29.22s WALL

 
   This run was terminated on:  23:12: 0  10Feb2018            

=------------------------------------------------------------------------------=
   JOB DONE.
=------------------------------------------------------------------------------=
