  python dir          : /home/vossj/suncat/lib/python2.7/site-packages/espresso
  espresso dir        : /home/vossj/suncat/esdld/espresso-dynpy-beef/bin
  pseudo dir          : /home/alatimer/bin/psp/esp_psp_w_gbrvRu/
  ase-espresso py git : ffa2778-git



     Program PWSCF v.5.1rc2 (svn rev. ) starts on 12Feb2018 at  9:49:45 

     This program is part of the open-source Quantum ESPRESSO suite
     for quantum simulation of materials; please cite
         "P. Giannozzi et al., J. Phys.:Condens. Matter 21 395502 (2009);
          URL http://www.quantum-espresso.org", 
     in publications or presentations arising from this work. More details at
     http://www.quantum-espresso.org/quote

     Parallel version (MPI), running on    16 processors
     R & G space division:  proc/nbgrp/npool/nimage =      16
     Reading input from pw.inp
     Message from routine read_cards :
     DEPRECATED: no units specified in CELL_PARAMETERS card

     Current dimensions of program PWSCF are:
     Max number of different atomic species (ntypx) = 10
     Max number of k-points (npk) =  40000
     Max angular momentum in pseudopotentials (lmaxx) =  3

     **************************************************************************
     Initializing libbeef V0.1.1 with the BEEF-vdW functional.
     Citation: Wellendorff et al., PRB 85, 235149 (2012).
     **************************************************************************


     IMPORTANT: XC functional enforced from input :
     Exchange-correlation      = BEEF ( 1  4 27 13 2)
     Any further DFT definition will be discarded
     Please, verify this is what you really want


     Subspace diagonalization in iterative solution of the eigenvalue problem:
     a serial algorithm will be used

 
     Parallelization info
     --------------------
     sticks:   dense  smooth     PW     G-vecs:    dense   smooth      PW
     Min         281     112     31                68535    17318    2565
     Max         282     113     32                68545    17369    2582
     Sum        4501    1795    503              1096637   277353   41113
 
     Generating pointlists ...
     new r_m :   0.4125 (alat units)  0.7795 (a.u.) for type    1
     new r_m :   0.3995 (alat units)  0.7549 (a.u.) for type    2
     new r_m :   0.4125 (alat units)  0.7795 (a.u.) for type    3
     new r_m :   0.3995 (alat units)  0.7549 (a.u.) for type    4


     bravais-lattice index     =            0
     lattice parameter (alat)  =       1.8897  a.u.
     unit-cell volume          =    7990.9933 (a.u.)^3
     number of atoms/cell      =           54
     number of atomic types    =            4
     number of electrons       =       398.00
     number of Kohn-Sham states=          299
     kinetic-energy cutoff     =      40.4243  Ry
     charge density cutoff     =     404.2426  Ry
     convergence threshold     =      7.3E-07
     mixing beta               =       0.1000
     number of iterations used =           10  plain     mixing
     Exchange-correlation      = BEEF ( 1  4 27 13 2)
     nstep                     =           50


     celldm(1)=   1.889726  celldm(2)=   0.000000  celldm(3)=   0.000000
     celldm(4)=   0.000000  celldm(5)=   0.000000  celldm(6)=   0.000000

     crystal axes: (cart. coord. in units of alat)
               a(1) = (   6.590708   0.000000   0.000000 )  
               a(2) = (   0.000000   5.950229   0.000000 )  
               a(3) = (   0.000000   0.000000  30.195235 )  

     reciprocal axes: (cart. coord. in units 2 pi/alat)
               b(1) = (  0.151729  0.000000  0.000000 )  
               b(2) = (  0.000000  0.168061  0.000000 )  
               b(3) = (  0.000000  0.000000  0.033118 )  


     PseudoPot. # 1 for Ti read from file:
     /home/alatimer/bin/psp/esp_psp_w_gbrvRu/Ti.UPF
     MD5 check sum: 8e4df49b7f0d34bbd5052bf3f5ea0213
     Pseudo is Ultrasoft, Zval = 12.0
     Generated by new atomic code, or converted to UPF format
     Using radial grid of  851 points,  6 beta functions with: 
                l(1) =   0
                l(2) =   0
                l(3) =   1
                l(4) =   1
                l(5) =   2
                l(6) =   2
     Q(r) pseudized with  8 coefficients,  rinner =    1.000   1.000   1.000
                                                       1.000   1.000

     PseudoPot. # 2 for  O read from file:
     /home/alatimer/bin/psp/esp_psp_w_gbrvRu/O.UPF
     MD5 check sum: e057bbcf3229fb5d8c36c0c92f9568b4
     Pseudo is Ultrasoft + core correction, Zval =  6.0
     Generated using "atomic" code by A. Dal Corso  v.5.0.2 svn rev. 9415
     Using radial grid of 1095 points,  4 beta functions with: 
                l(1) =   0
                l(2) =   0
                l(3) =   1
                l(4) =   1
     Q(r) pseudized with 0 coefficients 


     PseudoPot. # 3 for  C read from file:
     /home/alatimer/bin/psp/esp_psp_w_gbrvRu/C.UPF
     MD5 check sum: ab446d787031eba755f1d5ee46644bb0
     Pseudo is Ultrasoft + core correction, Zval =  4.0
     Generated using "atomic" code by A. Dal Corso  v.5.0.2 svn rev. 9415
     Using radial grid of 1073 points,  4 beta functions with: 
                l(1) =   0
                l(2) =   0
                l(3) =   1
                l(4) =   1
     Q(r) pseudized with 0 coefficients 


     PseudoPot. # 4 for  H read from file:
     /home/alatimer/bin/psp/esp_psp_w_gbrvRu/H.UPF
     MD5 check sum: bd57da0722753ddfd9833a65b40bb853
     Pseudo is Ultrasoft, Zval =  1.0
     Generated using "atomic" code by A. Dal Corso  v.5.0.2 svn rev. 9415
     Using radial grid of  929 points,  2 beta functions with: 
                l(1) =   0
                l(2) =   0
     Q(r) pseudized with 0 coefficients 


     vdW kernel table read from file vdW_kernel_table
     MD5 check sum: 095c7af220d748ca6e76c0b4c6cfb241

     atomic species   valence    mass     pseudopotential
        Ti1           12.00    47.88000     Ti( 1.00)
        O1             6.00    15.99940      O( 1.00)
        C1             4.00    12.01100      C( 1.00)
        H1             1.00     1.00794      H( 1.00)

     Starting magnetic structure 
     atomic species   magnetization
        Ti1          0.250
        O1           0.500
        C1           0.750
        H1           0.000

     No symmetry found



   Cartesian axes

     site n.     atom                  positions (alat units)
         1           Ti1 tau(   1) = (   1.6476770   0.7437786   2.6545865  )
         2           O1  tau(   2) = (   1.6476770   2.2313359   3.9361215  )
         3           Ti1 tau(   3) = (   1.6476770   2.2313359   5.9499405  )
         4           O1  tau(   4) = (   0.3661420   0.7437786   5.9499405  )
         5           Ti1 tau(   5) = (   1.7592931   0.7557636   9.1813031  )
         6           O1  tau(   6) = (   1.6162490   2.2572048  10.5951269  )
         7           Ti1 tau(   7) = (   1.5595004   2.2680265  12.4668274  )
         8           O1  tau(   8) = (   0.3709531   0.7738127  12.6996540  )
         9           Ti1 tau(   9) = (   1.6476770   3.7188931   2.6545865  )
        10           O1  tau(  10) = (   1.6476770   5.2064503   3.9361215  )
        11           Ti1 tau(  11) = (   1.6476770   5.2064503   5.9499405  )
        12           O1  tau(  12) = (   0.3661420   3.7188931   5.9499405  )
        13           Ti1 tau(  13) = (   1.7607536   3.7112867   9.1949733  )
        14           O1  tau(  14) = (   1.6133076   5.2250699  10.5465640  )
        15           Ti1 tau(  15) = (   1.6492307   5.2431137  12.3448001  )
        16           O1  tau(  16) = (   0.3719744   3.7598389  12.7007434  )
        17           O1  tau(  17) = (   1.6476770   2.2313359   1.3730516  )
        18           Ti1 tau(  18) = (   4.9430310   2.2313359   2.6545865  )
        19           O1  tau(  19) = (   4.9430310   2.2313359   4.6684056  )
        20           O1  tau(  20) = (   6.2245660   0.7437786   2.6545865  )
        21           O1  tau(  21) = (   3.6614961   0.7437786   2.6545865  )
        22           Ti1 tau(  22) = (   4.9430310   0.7437786   5.9499405  )
        23           O1  tau(  23) = (   1.6387103   2.2391978   8.0037664  )
        24           O1  tau(  24) = (   4.9430310   2.2313359   7.2314755  )
        25           O1  tau(  25) = (   2.9292120   0.7437786   5.9499405  )
        26           Ti1 tau(  26) = (   5.0158092   2.2383949   9.3973727  )
        27           O1  tau(  27) = (   4.9391445   2.2276729  11.2675731  )
        28           O1  tau(  28) = (   6.2094020   0.7514556   9.2742047  )
        29           O1  tau(  29) = (   3.6131301   0.7515640   9.2682932  )
        30           Ti1 tau(  30) = (   4.8940083   0.8207741  12.7348365  )
        31           O1  tau(  31) = (   4.8487174   2.2703822  13.8475395  )
        32           O1  tau(  32) = (   2.8766274   0.7418004  12.6316555  )
        33           O1  tau(  33) = (   1.6476770   5.2064503   1.3730516  )
        34           Ti1 tau(  34) = (   4.9430310   5.2064503   2.6545865  )
        35           O1  tau(  35) = (   4.9430310   5.2064503   4.6684056  )
        36           O1  tau(  36) = (   6.2245660   3.7188931   2.6545865  )
        37           O1  tau(  37) = (   3.6614961   3.7188931   2.6545865  )
        38           Ti1 tau(  38) = (   4.9430310   3.7188931   5.9499405  )
        39           O1  tau(  39) = (   1.6418458   5.2133935   8.0066417  )
        40           O1  tau(  40) = (   4.9430310   5.2064503   7.2314755  )
        41           O1  tau(  41) = (   2.9292120   3.7188931   5.9499405  )
        42           Ti1 tau(  42) = (   5.0218241   5.2139137   9.3870600  )
        43           O1  tau(  43) = (   4.9399496   5.2040061  11.2598200  )
        44           O1  tau(  44) = (   6.2073000   3.7245411   9.2731052  )
        45           O1  tau(  45) = (   3.6137513   3.7232133   9.2682466  )
        46           Ti1 tau(  46) = (   4.8936935   3.8094630  12.7397413  )
        47           O1  tau(  47) = (   4.9051259   5.2510468  13.8339921  )
        48           O1  tau(  48) = (   2.8743370   3.7938830  12.6403791  )
        49           C1  tau(  49) = (   1.0887210   2.2268971  15.9066084  )
        50           O1  tau(  50) = (   1.8917182   2.2355032  14.7378010  )
        51           H1  tau(  51) = (   0.0310076   2.2200215  15.5603933  )
        52           H1  tau(  52) = (   2.8355400   2.2288152  14.9543747  )
        53           H1  tau(  53) = (   1.2478062   1.3326534  16.5039879  )
        54           H1  tau(  54) = (   1.2341453   3.1195140  16.5098874  )

     number of k points=    40  Fermi-Dirac smearing, width (Ry)=  0.0073
                       cart. coord. in units 2pi/alat
        k(    1) = (   0.0000000   0.0000000   0.0000000), wk =   0.0277778
        k(    2) = (   0.0000000   0.0280101   0.0000000), wk =   0.0555556
        k(    3) = (   0.0000000   0.0560203   0.0000000), wk =   0.0555556
        k(    4) = (   0.0000000  -0.0840304   0.0000000), wk =   0.0277778
        k(    5) = (   0.0252881   0.0000000   0.0000000), wk =   0.0555556
        k(    6) = (   0.0252881   0.0280101   0.0000000), wk =   0.0555556
        k(    7) = (   0.0252881   0.0560203   0.0000000), wk =   0.0555556
        k(    8) = (   0.0252881  -0.0840304   0.0000000), wk =   0.0555556
        k(    9) = (   0.0505763   0.0000000   0.0000000), wk =   0.0555556
        k(   10) = (   0.0505763   0.0280101   0.0000000), wk =   0.0555556
        k(   11) = (   0.0505763   0.0560203   0.0000000), wk =   0.0555556
        k(   12) = (   0.0505763  -0.0840304   0.0000000), wk =   0.0555556
        k(   13) = (  -0.0758644   0.0000000   0.0000000), wk =   0.0277778
        k(   14) = (  -0.0758644   0.0280101   0.0000000), wk =   0.0555556
        k(   15) = (  -0.0758644   0.0560203   0.0000000), wk =   0.0555556
        k(   16) = (  -0.0758644  -0.0840304   0.0000000), wk =   0.0277778
        k(   17) = (  -0.0252881   0.0280101   0.0000000), wk =   0.0555556
        k(   18) = (  -0.0252881   0.0560203   0.0000000), wk =   0.0555556
        k(   19) = (  -0.0505763   0.0280101   0.0000000), wk =   0.0555556
        k(   20) = (  -0.0505763   0.0560203   0.0000000), wk =   0.0555556
        k(   21) = (   0.0000000   0.0000000   0.0000000), wk =   0.0277778
        k(   22) = (   0.0000000   0.0280101   0.0000000), wk =   0.0555556
        k(   23) = (   0.0000000   0.0560203   0.0000000), wk =   0.0555556
        k(   24) = (   0.0000000  -0.0840304   0.0000000), wk =   0.0277778
        k(   25) = (   0.0252881   0.0000000   0.0000000), wk =   0.0555556
        k(   26) = (   0.0252881   0.0280101   0.0000000), wk =   0.0555556
        k(   27) = (   0.0252881   0.0560203   0.0000000), wk =   0.0555556
        k(   28) = (   0.0252881  -0.0840304   0.0000000), wk =   0.0555556
        k(   29) = (   0.0505763   0.0000000   0.0000000), wk =   0.0555556
        k(   30) = (   0.0505763   0.0280101   0.0000000), wk =   0.0555556
        k(   31) = (   0.0505763   0.0560203   0.0000000), wk =   0.0555556
        k(   32) = (   0.0505763  -0.0840304   0.0000000), wk =   0.0555556
        k(   33) = (  -0.0758644   0.0000000   0.0000000), wk =   0.0277778
        k(   34) = (  -0.0758644   0.0280101   0.0000000), wk =   0.0555556
        k(   35) = (  -0.0758644   0.0560203   0.0000000), wk =   0.0555556
        k(   36) = (  -0.0758644  -0.0840304   0.0000000), wk =   0.0277778
        k(   37) = (  -0.0252881   0.0280101   0.0000000), wk =   0.0555556
        k(   38) = (  -0.0252881   0.0560203   0.0000000), wk =   0.0555556
        k(   39) = (  -0.0505763   0.0280101   0.0000000), wk =   0.0555556
        k(   40) = (  -0.0505763   0.0560203   0.0000000), wk =   0.0555556

     Dense  grid:  1096637 G-vectors     FFT dimensions: (  80,  72, 375)

     Smooth grid:   277353 G-vectors     FFT dimensions: (  54,  45, 240)

     Largest allocated arrays     est. size (Mb)     dimensions
        Kohn-Sham Wavefunctions         9.95 Mb     (    2180,  299)
        NL pseudopotentials            18.89 Mb     (    2180,  568)
        Each V/rho on FFT grid          4.22 Mb     (  138240,   2)
        Each G-vector array             0.52 Mb     (   68538)
        G-vector shells                 0.25 Mb     (   33046)
     Largest temporary arrays     est. size (Mb)     dimensions
        Auxiliary wavefunctions        39.78 Mb     (    2180, 1196)
        Each subspace H/S matrix       21.83 Mb     (    1196, 1196)
        Each <psi_i|beta_j> matrix      2.59 Mb     (     568,  299)
        Arrays for rho mixing          21.09 Mb     (  138240,   10)

     Check: negative/imaginary core charge=   -0.000049    0.000000

     The initial density is read from file :
     ./calc.save/charge-density.dat


     negative rho (up, down):  1.209E-02 1.209E-02


     ************************************************************************
     *
     * You are using vdW-DF for exchange-correlation in this calculation.
     * Please cite the following three references that made this development
     * possible:
     *
     *   M. Dion, H. Rydberg, E. Schroder, D. C. Langreth, and
     *   B. I. Lundqvist, Phys. Rev. Lett. 92, 246401 (2004).
     *
     *   T. Thonhauser, V. R. Cooper, S. Li, A. Puzder, P. Hyldgaard, and
     *   D. C. Langreth, Phys. Rev. B 76, 125112 (2007).
     *
     *   G. Roman-Perez and J. M. Soler, Phys. Rev. Lett. 103, 096102 (2009).
     *
     *
     * If you are using vdW-DF2, please also cite:
     *
     *   K. Lee, E. D. Murray, L. Kong, B. I. Lundqvist, and
     *   D. C. Langreth, Phys. Rev. B 82, 081101(R) (2010).
     *
     *
     * If you are calculating the stress with vdW-DF, please also cite:
     *
     *   R. Sabatini, E. Kucukbenli, B. Kolb, T. Thonhauser, and
     *   S. de Gironcoli, J. Phys.: Condens. Matter 24, 424209 (2012).
     *
     ************************************************************************

     Carrying out vdW-DF run using the following parameters:

     Nqs =      20    Nr_points =    1024   r_max =   100.000
     q_mesh =
               0.00001000     0.04494208     0.09755937     0.15916263
               0.23128650     0.31572767     0.41458969     0.53033537
               0.66584808     0.82450364     1.01025438     1.22772762
               1.48234092     1.78043706     2.12944203     2.53805004
               3.01644009     3.57652955     4.23227104     5.00000000

     Gradients computed in reciprocal space

     ************************************************************************


     Starting wfc are  300 randomized atomic wfcs

     total cpu time spent up to now is       68.9 secs

     Self-consistent Calculation

     iteration #  1     ecut=    40.42 Ry     beta=0.10
     Davidson diagonalization with overlap
     ethr =  1.00E-05,  avg # of iterations = 14.6

     negative rho (up, down):  1.209E-02 1.209E-02
 
     Magnetic moment per site:
     atom:    1    charge:    3.1250    magn:   -0.0002    constr:    0.0000
     atom:    2    charge:    1.9452    magn:    0.0000    constr:    0.0000
     atom:    3    charge:    3.1198    magn:    0.0000    constr:    0.0000
     atom:    4    charge:    1.9504    magn:   -0.0001    constr:    0.0000
     atom:    5    charge:    3.1166    magn:    0.0000    constr:    0.0000
     atom:    6    charge:    1.9476    magn:   -0.0001    constr:    0.0000
     atom:    7    charge:    3.1157    magn:    0.0001    constr:    0.0000
     atom:    8    charge:    1.9451    magn:   -0.0001    constr:    0.0000
     atom:    9    charge:    3.1250    magn:   -0.0002    constr:    0.0000
     atom:   10    charge:    1.9452    magn:    0.0000    constr:    0.0000
     atom:   11    charge:    3.1197    magn:    0.0000    constr:    0.0000
     atom:   12    charge:    1.9504    magn:   -0.0001    constr:    0.0000
     atom:   13    charge:    3.1158    magn:    0.0000    constr:    0.0000
     atom:   14    charge:    1.9587    magn:   -0.0001    constr:    0.0000
     atom:   15    charge:    3.1189    magn:    0.0001    constr:    0.0000
     atom:   16    charge:    1.9444    magn:   -0.0001    constr:    0.0000
     atom:   17    charge:    1.9184    magn:    0.0004    constr:    0.0000
     atom:   18    charge:    3.1240    magn:   -0.0001    constr:    0.0000
     atom:   19    charge:    1.9408    magn:   -0.0000    constr:    0.0000
     atom:   20    charge:    1.9471    magn:    0.0000    constr:    0.0000
     atom:   21    charge:    1.9471    magn:    0.0000    constr:    0.0000
     atom:   22    charge:    3.1196    magn:    0.0000    constr:    0.0000
     atom:   23    charge:    1.9566    magn:   -0.0001    constr:    0.0000
     atom:   24    charge:    1.9379    magn:   -0.0001    constr:    0.0000
     atom:   25    charge:    1.9505    magn:   -0.0001    constr:    0.0000
     atom:   26    charge:    3.1145    magn:    0.0001    constr:    0.0000
     atom:   27    charge:    1.9398    magn:   -0.0001    constr:    0.0000
     atom:   28    charge:    1.9517    magn:   -0.0001    constr:    0.0000
     atom:   29    charge:    1.9476    magn:   -0.0001    constr:    0.0000
     atom:   30    charge:    3.1167    magn:    0.0000    constr:    0.0000
     atom:   31    charge:    1.9444    magn:   -0.0000    constr:    0.0000
     atom:   32    charge:    1.9441    magn:   -0.0001    constr:    0.0000
     atom:   33    charge:    1.9184    magn:    0.0004    constr:    0.0000
     atom:   34    charge:    3.1239    magn:   -0.0001    constr:    0.0000
     atom:   35    charge:    1.9408    magn:   -0.0000    constr:    0.0000
     atom:   36    charge:    1.9471    magn:    0.0000    constr:    0.0000
     atom:   37    charge:    1.9471    magn:    0.0000    constr:    0.0000
     atom:   38    charge:    3.1196    magn:    0.0000    constr:    0.0000
     atom:   39    charge:    1.9549    magn:   -0.0001    constr:    0.0000
     atom:   40    charge:    1.9383    magn:   -0.0001    constr:    0.0000
     atom:   41    charge:    1.9505    magn:   -0.0001    constr:    0.0000
     atom:   42    charge:    3.1141    magn:    0.0001    constr:    0.0000
     atom:   43    charge:    1.9413    magn:   -0.0001    constr:    0.0000
     atom:   44    charge:    1.9517    magn:   -0.0001    constr:    0.0000
     atom:   45    charge:    1.9468    magn:   -0.0001    constr:    0.0000
     atom:   46    charge:    3.1165    magn:    0.0000    constr:    0.0000
     atom:   47    charge:    1.9430    magn:   -0.0000    constr:    0.0000
     atom:   48    charge:    1.9445    magn:   -0.0001    constr:    0.0000
     atom:   49    charge:    0.6553    magn:   -0.0001    constr:    0.0000
     atom:   50    charge:    1.9595    magn:   -0.0001    constr:    0.0000
     atom:   51    charge:    0.3995    magn:    0.0000    constr:    0.0000
     atom:   52    charge:    0.4007    magn:    0.0000    constr:    0.0000
     atom:   53    charge:    0.4037    magn:    0.0000    constr:    0.0000
     atom:   54    charge:    0.4043    magn:    0.0000    constr:    0.0000

     total cpu time spent up to now is      812.8 secs

     total energy              =   -3021.42337565 Ry
     Harris-Foulkes estimate   =   -3021.42589466 Ry
     estimated scf accuracy    <       0.01718136 Ry

     total magnetization       =     0.00 Bohr mag/cell
     absolute magnetization    =     0.01 Bohr mag/cell

     iteration #  2     ecut=    40.42 Ry     beta=0.10
     Davidson diagonalization with overlap
     ethr =  4.32E-06,  avg # of iterations =  2.0

     negative rho (up, down):  1.209E-02 1.209E-02
 
     Magnetic moment per site:
     atom:    1    charge:    3.1250    magn:   -0.0001    constr:    0.0000
     atom:    2    charge:    1.9452    magn:    0.0000    constr:    0.0000
     atom:    3    charge:    3.1198    magn:    0.0000    constr:    0.0000
     atom:    4    charge:    1.9504    magn:   -0.0000    constr:    0.0000
     atom:    5    charge:    3.1166    magn:    0.0000    constr:    0.0000
     atom:    6    charge:    1.9475    magn:   -0.0001    constr:    0.0000
     atom:    7    charge:    3.1158    magn:    0.0000    constr:    0.0000
     atom:    8    charge:    1.9449    magn:   -0.0001    constr:    0.0000
     atom:    9    charge:    3.1250    magn:   -0.0001    constr:    0.0000
     atom:   10    charge:    1.9452    magn:    0.0000    constr:    0.0000
     atom:   11    charge:    3.1197    magn:    0.0000    constr:    0.0000
     atom:   12    charge:    1.9504    magn:   -0.0000    constr:    0.0000
     atom:   13    charge:    3.1158    magn:    0.0000    constr:    0.0000
     atom:   14    charge:    1.9586    magn:   -0.0001    constr:    0.0000
     atom:   15    charge:    3.1189    magn:    0.0000    constr:    0.0000
     atom:   16    charge:    1.9442    magn:   -0.0001    constr:    0.0000
     atom:   17    charge:    1.9184    magn:    0.0003    constr:    0.0000
     atom:   18    charge:    3.1239    magn:   -0.0001    constr:    0.0000
     atom:   19    charge:    1.9408    magn:   -0.0000    constr:    0.0000
     atom:   20    charge:    1.9471    magn:    0.0000    constr:    0.0000
     atom:   21    charge:    1.9471    magn:    0.0000    constr:    0.0000
     atom:   22    charge:    3.1196    magn:    0.0000    constr:    0.0000
     atom:   23    charge:    1.9566    magn:   -0.0001    constr:    0.0000
     atom:   24    charge:    1.9379    magn:   -0.0000    constr:    0.0000
     atom:   25    charge:    1.9505    magn:   -0.0000    constr:    0.0000
     atom:   26    charge:    3.1145    magn:    0.0000    constr:    0.0000
     atom:   27    charge:    1.9398    magn:   -0.0000    constr:    0.0000
     atom:   28    charge:    1.9517    magn:   -0.0001    constr:    0.0000
     atom:   29    charge:    1.9476    magn:   -0.0001    constr:    0.0000
     atom:   30    charge:    3.1167    magn:    0.0000    constr:    0.0000
     atom:   31    charge:    1.9441    magn:   -0.0000    constr:    0.0000
     atom:   32    charge:    1.9442    magn:   -0.0001    constr:    0.0000
     atom:   33    charge:    1.9184    magn:    0.0003    constr:    0.0000
     atom:   34    charge:    3.1239    magn:   -0.0001    constr:    0.0000
     atom:   35    charge:    1.9408    magn:   -0.0000    constr:    0.0000
     atom:   36    charge:    1.9471    magn:    0.0000    constr:    0.0000
     atom:   37    charge:    1.9471    magn:    0.0000    constr:    0.0000
     atom:   38    charge:    3.1196    magn:    0.0000    constr:    0.0000
     atom:   39    charge:    1.9549    magn:   -0.0001    constr:    0.0000
     atom:   40    charge:    1.9383    magn:   -0.0000    constr:    0.0000
     atom:   41    charge:    1.9505    magn:   -0.0000    constr:    0.0000
     atom:   42    charge:    3.1141    magn:    0.0000    constr:    0.0000
     atom:   43    charge:    1.9414    magn:   -0.0000    constr:    0.0000
     atom:   44    charge:    1.9518    magn:   -0.0001    constr:    0.0000
     atom:   45    charge:    1.9469    magn:   -0.0001    constr:    0.0000
     atom:   46    charge:    3.1165    magn:    0.0000    constr:    0.0000
     atom:   47    charge:    1.9429    magn:   -0.0000    constr:    0.0000
     atom:   48    charge:    1.9447    magn:   -0.0001    constr:    0.0000
     atom:   49    charge:    0.6579    magn:   -0.0000    constr:    0.0000
     atom:   50    charge:    1.9650    magn:   -0.0000    constr:    0.0000
     atom:   51    charge:    0.3877    magn:    0.0000    constr:    0.0000
     atom:   52    charge:    0.4011    magn:    0.0000    constr:    0.0000
     atom:   53    charge:    0.4055    magn:    0.0000    constr:    0.0000
     atom:   54    charge:    0.4059    magn:    0.0000    constr:    0.0000

     total cpu time spent up to now is      994.7 secs

     total energy              =   -3021.41670516 Ry
     Harris-Foulkes estimate   =   -3021.42350705 Ry
     estimated scf accuracy    <       0.01164589 Ry

     total magnetization       =     0.00 Bohr mag/cell
     absolute magnetization    =     0.01 Bohr mag/cell

     iteration #  3     ecut=    40.42 Ry     beta=0.10
     Davidson diagonalization with overlap
     ethr =  2.93E-06,  avg # of iterations =  5.8

     negative rho (up, down):  1.209E-02 1.209E-02
 
     Magnetic moment per site:
     atom:    1    charge:    3.1250    magn:   -0.0001    constr:    0.0000
     atom:    2    charge:    1.9452    magn:    0.0000    constr:    0.0000
     atom:    3    charge:    3.1198    magn:    0.0000    constr:    0.0000
     atom:    4    charge:    1.9504    magn:   -0.0000    constr:    0.0000
     atom:    5    charge:    3.1166    magn:    0.0000    constr:    0.0000
     atom:    6    charge:    1.9477    magn:   -0.0001    constr:    0.0000
     atom:    7    charge:    3.1157    magn:    0.0000    constr:    0.0000
     atom:    8    charge:    1.9455    magn:   -0.0001    constr:    0.0000
     atom:    9    charge:    3.1250    magn:   -0.0001    constr:    0.0000
     atom:   10    charge:    1.9452    magn:    0.0000    constr:    0.0000
     atom:   11    charge:    3.1197    magn:    0.0000    constr:    0.0000
     atom:   12    charge:    1.9504    magn:   -0.0000    constr:    0.0000
     atom:   13    charge:    3.1159    magn:    0.0000    constr:    0.0000
     atom:   14    charge:    1.9587    magn:   -0.0001    constr:    0.0000
     atom:   15    charge:    3.1188    magn:    0.0000    constr:    0.0000
     atom:   16    charge:    1.9448    magn:   -0.0001    constr:    0.0000
     atom:   17    charge:    1.9184    magn:    0.0003    constr:    0.0000
     atom:   18    charge:    3.1239    magn:   -0.0001    constr:    0.0000
     atom:   19    charge:    1.9408    magn:   -0.0000    constr:    0.0000
     atom:   20    charge:    1.9471    magn:    0.0000    constr:    0.0000
     atom:   21    charge:    1.9471    magn:    0.0000    constr:    0.0000
     atom:   22    charge:    3.1196    magn:    0.0000    constr:    0.0000
     atom:   23    charge:    1.9566    magn:   -0.0001    constr:    0.0000
     atom:   24    charge:    1.9379    magn:   -0.0000    constr:    0.0000
     atom:   25    charge:    1.9505    magn:   -0.0000    constr:    0.0000
     atom:   26    charge:    3.1145    magn:    0.0000    constr:    0.0000
     atom:   27    charge:    1.9398    magn:   -0.0000    constr:    0.0000
     atom:   28    charge:    1.9517    magn:   -0.0000    constr:    0.0000
     atom:   29    charge:    1.9476    magn:   -0.0001    constr:    0.0000
     atom:   30    charge:    3.1166    magn:    0.0000    constr:    0.0000
     atom:   31    charge:    1.9448    magn:   -0.0000    constr:    0.0000
     atom:   32    charge:    1.9438    magn:   -0.0001    constr:    0.0000
     atom:   33    charge:    1.9183    magn:    0.0003    constr:    0.0000
     atom:   34    charge:    3.1239    magn:   -0.0001    constr:    0.0000
     atom:   35    charge:    1.9408    magn:   -0.0000    constr:    0.0000
     atom:   36    charge:    1.9471    magn:    0.0000    constr:    0.0000
     atom:   37    charge:    1.9471    magn:    0.0000    constr:    0.0000
     atom:   38    charge:    3.1196    magn:    0.0000    constr:    0.0000
     atom:   39    charge:    1.9549    magn:   -0.0001    constr:    0.0000
     atom:   40    charge:    1.9383    magn:   -0.0000    constr:    0.0000
     atom:   41    charge:    1.9505    magn:   -0.0000    constr:    0.0000
     atom:   42    charge:    3.1141    magn:    0.0000    constr:    0.0000
     atom:   43    charge:    1.9413    magn:   -0.0000    constr:    0.0000
     atom:   44    charge:    1.9518    magn:   -0.0000    constr:    0.0000
     atom:   45    charge:    1.9468    magn:   -0.0001    constr:    0.0000
     atom:   46    charge:    3.1165    magn:    0.0000    constr:    0.0000
     atom:   47    charge:    1.9431    magn:   -0.0000    constr:    0.0000
     atom:   48    charge:    1.9442    magn:   -0.0001    constr:    0.0000
     atom:   49    charge:    0.6578    magn:   -0.0000    constr:    0.0000
     atom:   50    charge:    1.9616    magn:   -0.0000    constr:    0.0000
     atom:   51    charge:    0.3877    magn:    0.0000    constr:    0.0000
     atom:   52    charge:    0.4013    magn:    0.0000    constr:    0.0000
     atom:   53    charge:    0.4058    magn:    0.0000    constr:    0.0000
     atom:   54    charge:    0.4061    magn:    0.0000    constr:    0.0000

     total cpu time spent up to now is     1249.4 secs

     total energy              =   -3021.41839922 Ry
     Harris-Foulkes estimate   =   -3021.41865668 Ry
     estimated scf accuracy    <       0.00079249 Ry

     total magnetization       =     0.00 Bohr mag/cell
     absolute magnetization    =     0.00 Bohr mag/cell

     iteration #  4     ecut=    40.42 Ry     beta=0.10
     Davidson diagonalization with overlap
     ethr =  1.99E-07,  avg # of iterations =  3.0

     negative rho (up, down):  1.209E-02 1.209E-02
 
     Magnetic moment per site:
     atom:    1    charge:    3.1250    magn:   -0.0001    constr:    0.0000
     atom:    2    charge:    1.9452    magn:    0.0000    constr:    0.0000
     atom:    3    charge:    3.1198    magn:    0.0000    constr:    0.0000
     atom:    4    charge:    1.9504    magn:   -0.0000    constr:    0.0000
     atom:    5    charge:    3.1166    magn:    0.0000    constr:    0.0000
     atom:    6    charge:    1.9476    magn:   -0.0000    constr:    0.0000
     atom:    7    charge:    3.1158    magn:    0.0000    constr:    0.0000
     atom:    8    charge:    1.9453    magn:   -0.0000    constr:    0.0000
     atom:    9    charge:    3.1250    magn:   -0.0001    constr:    0.0000
     atom:   10    charge:    1.9452    magn:    0.0000    constr:    0.0000
     atom:   11    charge:    3.1197    magn:    0.0000    constr:    0.0000
     atom:   12    charge:    1.9504    magn:   -0.0000    constr:    0.0000
     atom:   13    charge:    3.1158    magn:    0.0000    constr:    0.0000
     atom:   14    charge:    1.9587    magn:   -0.0000    constr:    0.0000
     atom:   15    charge:    3.1188    magn:    0.0000    constr:    0.0000
     atom:   16    charge:    1.9447    magn:   -0.0000    constr:    0.0000
     atom:   17    charge:    1.9184    magn:    0.0002    constr:    0.0000
     atom:   18    charge:    3.1239    magn:   -0.0000    constr:    0.0000
     atom:   19    charge:    1.9408    magn:   -0.0000    constr:    0.0000
     atom:   20    charge:    1.9471    magn:    0.0000    constr:    0.0000
     atom:   21    charge:    1.9471    magn:    0.0000    constr:    0.0000
     atom:   22    charge:    3.1196    magn:    0.0000    constr:    0.0000
     atom:   23    charge:    1.9566    magn:   -0.0000    constr:    0.0000
     atom:   24    charge:    1.9379    magn:   -0.0000    constr:    0.0000
     atom:   25    charge:    1.9505    magn:   -0.0000    constr:    0.0000
     atom:   26    charge:    3.1145    magn:    0.0000    constr:    0.0000
     atom:   27    charge:    1.9398    magn:   -0.0000    constr:    0.0000
     atom:   28    charge:    1.9517    magn:   -0.0000    constr:    0.0000
     atom:   29    charge:    1.9476    magn:   -0.0000    constr:    0.0000
     atom:   30    charge:    3.1167    magn:    0.0000    constr:    0.0000
     atom:   31    charge:    1.9447    magn:   -0.0000    constr:    0.0000
     atom:   32    charge:    1.9439    magn:   -0.0000    constr:    0.0000
     atom:   33    charge:    1.9184    magn:    0.0002    constr:    0.0000
     atom:   34    charge:    3.1239    magn:   -0.0000    constr:    0.0000
     atom:   35    charge:    1.9408    magn:   -0.0000    constr:    0.0000
     atom:   36    charge:    1.9471    magn:    0.0000    constr:    0.0000
     atom:   37    charge:    1.9471    magn:    0.0000    constr:    0.0000
     atom:   38    charge:    3.1196    magn:    0.0000    constr:    0.0000
     atom:   39    charge:    1.9549    magn:   -0.0000    constr:    0.0000
     atom:   40    charge:    1.9383    magn:   -0.0000    constr:    0.0000
     atom:   41    charge:    1.9505    magn:   -0.0000    constr:    0.0000
     atom:   42    charge:    3.1141    magn:    0.0000    constr:    0.0000
     atom:   43    charge:    1.9413    magn:   -0.0000    constr:    0.0000
     atom:   44    charge:    1.9517    magn:   -0.0000    constr:    0.0000
     atom:   45    charge:    1.9469    magn:   -0.0000    constr:    0.0000
     atom:   46    charge:    3.1165    magn:    0.0000    constr:    0.0000
     atom:   47    charge:    1.9431    magn:   -0.0000    constr:    0.0000
     atom:   48    charge:    1.9443    magn:   -0.0000    constr:    0.0000
     atom:   49    charge:    0.6580    magn:   -0.0000    constr:    0.0000
     atom:   50    charge:    1.9611    magn:   -0.0000    constr:    0.0000
     atom:   51    charge:    0.3865    magn:    0.0000    constr:    0.0000
     atom:   52    charge:    0.4013    magn:    0.0000    constr:    0.0000
     atom:   53    charge:    0.4060    magn:    0.0000    constr:    0.0000
     atom:   54    charge:    0.4064    magn:    0.0000    constr:    0.0000

     total cpu time spent up to now is     1448.6 secs

     total energy              =   -3021.41840712 Ry
     Harris-Foulkes estimate   =   -3021.41847250 Ry
     estimated scf accuracy    <       0.00017669 Ry

     total magnetization       =     0.00 Bohr mag/cell
     absolute magnetization    =     0.00 Bohr mag/cell

     iteration #  5     ecut=    40.42 Ry     beta=0.10
     Davidson diagonalization with overlap
     ethr =  4.44E-08,  avg # of iterations =  3.0

     negative rho (up, down):  1.209E-02 1.209E-02
 
     Magnetic moment per site:
     atom:    1    charge:    3.1250    magn:   -0.0001    constr:    0.0000
     atom:    2    charge:    1.9452    magn:    0.0000    constr:    0.0000
     atom:    3    charge:    3.1198    magn:    0.0000    constr:    0.0000
     atom:    4    charge:    1.9504    magn:   -0.0000    constr:    0.0000
     atom:    5    charge:    3.1166    magn:    0.0000    constr:    0.0000
     atom:    6    charge:    1.9476    magn:   -0.0000    constr:    0.0000
     atom:    7    charge:    3.1158    magn:    0.0000    constr:    0.0000
     atom:    8    charge:    1.9453    magn:   -0.0000    constr:    0.0000
     atom:    9    charge:    3.1250    magn:   -0.0001    constr:    0.0000
     atom:   10    charge:    1.9452    magn:    0.0000    constr:    0.0000
     atom:   11    charge:    3.1197    magn:    0.0000    constr:    0.0000
     atom:   12    charge:    1.9504    magn:   -0.0000    constr:    0.0000
     atom:   13    charge:    3.1158    magn:    0.0000    constr:    0.0000
     atom:   14    charge:    1.9587    magn:   -0.0000    constr:    0.0000
     atom:   15    charge:    3.1188    magn:    0.0000    constr:    0.0000
     atom:   16    charge:    1.9446    magn:   -0.0000    constr:    0.0000
     atom:   17    charge:    1.9184    magn:    0.0002    constr:    0.0000
     atom:   18    charge:    3.1239    magn:   -0.0000    constr:    0.0000
     atom:   19    charge:    1.9408    magn:   -0.0000    constr:    0.0000
     atom:   20    charge:    1.9471    magn:    0.0000    constr:    0.0000
     atom:   21    charge:    1.9471    magn:    0.0000    constr:    0.0000
     atom:   22    charge:    3.1196    magn:    0.0000    constr:    0.0000
     atom:   23    charge:    1.9566    magn:   -0.0000    constr:    0.0000
     atom:   24    charge:    1.9379    magn:   -0.0000    constr:    0.0000
     atom:   25    charge:    1.9505    magn:   -0.0000    constr:    0.0000
     atom:   26    charge:    3.1145    magn:    0.0000    constr:    0.0000
     atom:   27    charge:    1.9398    magn:   -0.0000    constr:    0.0000
     atom:   28    charge:    1.9517    magn:   -0.0000    constr:    0.0000
     atom:   29    charge:    1.9476    magn:   -0.0000    constr:    0.0000
     atom:   30    charge:    3.1167    magn:    0.0000    constr:    0.0000
     atom:   31    charge:    1.9447    magn:   -0.0000    constr:    0.0000
     atom:   32    charge:    1.9440    magn:   -0.0000    constr:    0.0000
     atom:   33    charge:    1.9184    magn:    0.0002    constr:    0.0000
     atom:   34    charge:    3.1239    magn:   -0.0000    constr:    0.0000
     atom:   35    charge:    1.9408    magn:   -0.0000    constr:    0.0000
     atom:   36    charge:    1.9471    magn:    0.0000    constr:    0.0000
     atom:   37    charge:    1.9471    magn:    0.0000    constr:    0.0000
     atom:   38    charge:    3.1196    magn:    0.0000    constr:    0.0000
     atom:   39    charge:    1.9550    magn:   -0.0000    constr:    0.0000
     atom:   40    charge:    1.9383    magn:   -0.0000    constr:    0.0000
     atom:   41    charge:    1.9505    magn:   -0.0000    constr:    0.0000
     atom:   42    charge:    3.1141    magn:    0.0000    constr:    0.0000
     atom:   43    charge:    1.9413    magn:   -0.0000    constr:    0.0000
     atom:   44    charge:    1.9517    magn:   -0.0000    constr:    0.0000
     atom:   45    charge:    1.9469    magn:   -0.0000    constr:    0.0000
     atom:   46    charge:    3.1165    magn:    0.0000    constr:    0.0000
     atom:   47    charge:    1.9431    magn:   -0.0000    constr:    0.0000
     atom:   48    charge:    1.9444    magn:   -0.0000    constr:    0.0000
     atom:   49    charge:    0.6578    magn:   -0.0000    constr:    0.0000
     atom:   50    charge:    1.9599    magn:   -0.0000    constr:    0.0000
     atom:   51    charge:    0.3873    magn:    0.0000    constr:    0.0000
     atom:   52    charge:    0.4013    magn:    0.0000    constr:    0.0000
     atom:   53    charge:    0.4060    magn:    0.0000    constr:    0.0000
     atom:   54    charge:    0.4063    magn:    0.0000    constr:    0.0000

     total cpu time spent up to now is     1651.1 secs

     total energy              =   -3021.41840995 Ry
     Harris-Foulkes estimate   =   -3021.41843507 Ry
     estimated scf accuracy    <       0.00006983 Ry

     total magnetization       =     0.00 Bohr mag/cell
     absolute magnetization    =     0.00 Bohr mag/cell

     iteration #  6     ecut=    40.42 Ry     beta=0.10
     Davidson diagonalization with overlap
     ethr =  1.75E-08,  avg # of iterations =  3.0

     negative rho (up, down):  1.209E-02 1.209E-02
 
     Magnetic moment per site:
     atom:    1    charge:    3.1250    magn:   -0.0001    constr:    0.0000
     atom:    2    charge:    1.9452    magn:    0.0000    constr:    0.0000
     atom:    3    charge:    3.1198    magn:    0.0000    constr:    0.0000
     atom:    4    charge:    1.9504    magn:   -0.0000    constr:    0.0000
     atom:    5    charge:    3.1166    magn:    0.0000    constr:    0.0000
     atom:    6    charge:    1.9476    magn:   -0.0000    constr:    0.0000
     atom:    7    charge:    3.1157    magn:    0.0000    constr:    0.0000
     atom:    8    charge:    1.9452    magn:   -0.0000    constr:    0.0000
     atom:    9    charge:    3.1250    magn:   -0.0001    constr:    0.0000
     atom:   10    charge:    1.9452    magn:    0.0000    constr:    0.0000
     atom:   11    charge:    3.1197    magn:    0.0000    constr:    0.0000
     atom:   12    charge:    1.9504    magn:   -0.0000    constr:    0.0000
     atom:   13    charge:    3.1158    magn:    0.0000    constr:    0.0000
     atom:   14    charge:    1.9587    magn:   -0.0000    constr:    0.0000
     atom:   15    charge:    3.1188    magn:    0.0000    constr:    0.0000
     atom:   16    charge:    1.9445    magn:   -0.0000    constr:    0.0000
     atom:   17    charge:    1.9184    magn:    0.0002    constr:    0.0000
     atom:   18    charge:    3.1239    magn:   -0.0000    constr:    0.0000
     atom:   19    charge:    1.9408    magn:   -0.0000    constr:    0.0000
     atom:   20    charge:    1.9471    magn:    0.0000    constr:    0.0000
     atom:   21    charge:    1.9471    magn:    0.0000    constr:    0.0000
     atom:   22    charge:    3.1196    magn:    0.0000    constr:    0.0000
     atom:   23    charge:    1.9566    magn:   -0.0000    constr:    0.0000
     atom:   24    charge:    1.9379    magn:   -0.0000    constr:    0.0000
     atom:   25    charge:    1.9505    magn:   -0.0000    constr:    0.0000
     atom:   26    charge:    3.1145    magn:    0.0000    constr:    0.0000
     atom:   27    charge:    1.9398    magn:   -0.0000    constr:    0.0000
     atom:   28    charge:    1.9517    magn:   -0.0000    constr:    0.0000
     atom:   29    charge:    1.9476    magn:   -0.0000    constr:    0.0000
     atom:   30    charge:    3.1167    magn:    0.0000    constr:    0.0000
     atom:   31    charge:    1.9447    magn:   -0.0000    constr:    0.0000
     atom:   32    charge:    1.9440    magn:   -0.0000    constr:    0.0000
     atom:   33    charge:    1.9184    magn:    0.0002    constr:    0.0000
     atom:   34    charge:    3.1239    magn:   -0.0000    constr:    0.0000
     atom:   35    charge:    1.9408    magn:   -0.0000    constr:    0.0000
     atom:   36    charge:    1.9471    magn:    0.0000    constr:    0.0000
     atom:   37    charge:    1.9471    magn:    0.0000    constr:    0.0000
     atom:   38    charge:    3.1196    magn:    0.0000    constr:    0.0000
     atom:   39    charge:    1.9549    magn:   -0.0000    constr:    0.0000
     atom:   40    charge:    1.9383    magn:   -0.0000    constr:    0.0000
     atom:   41    charge:    1.9505    magn:   -0.0000    constr:    0.0000
     atom:   42    charge:    3.1141    magn:    0.0000    constr:    0.0000
     atom:   43    charge:    1.9413    magn:   -0.0000    constr:    0.0000
     atom:   44    charge:    1.9518    magn:   -0.0000    constr:    0.0000
     atom:   45    charge:    1.9468    magn:   -0.0000    constr:    0.0000
     atom:   46    charge:    3.1165    magn:    0.0000    constr:    0.0000
     atom:   47    charge:    1.9431    magn:   -0.0000    constr:    0.0000
     atom:   48    charge:    1.9445    magn:   -0.0000    constr:    0.0000
     atom:   49    charge:    0.6579    magn:   -0.0000    constr:    0.0000
     atom:   50    charge:    1.9600    magn:   -0.0000    constr:    0.0000
     atom:   51    charge:    0.3877    magn:    0.0000    constr:    0.0000
     atom:   52    charge:    0.4011    magn:    0.0000    constr:    0.0000
     atom:   53    charge:    0.4059    magn:    0.0000    constr:    0.0000
     atom:   54    charge:    0.4063    magn:    0.0000    constr:    0.0000

     total cpu time spent up to now is     1852.4 secs

     total energy              =   -3021.41841640 Ry
     Harris-Foulkes estimate   =   -3021.41841868 Ry
     estimated scf accuracy    <       0.00001428 Ry

     total magnetization       =     0.00 Bohr mag/cell
     absolute magnetization    =     0.00 Bohr mag/cell

     iteration #  7     ecut=    40.42 Ry     beta=0.10
     Davidson diagonalization with overlap
     ethr =  3.59E-09,  avg # of iterations =  3.0

     negative rho (up, down):  1.209E-02 1.209E-02
 
     Magnetic moment per site:
     atom:    1    charge:    3.1250    magn:   -0.0001    constr:    0.0000
     atom:    2    charge:    1.9451    magn:    0.0000    constr:    0.0000
     atom:    3    charge:    3.1198    magn:    0.0000    constr:    0.0000
     atom:    4    charge:    1.9504    magn:   -0.0000    constr:    0.0000
     atom:    5    charge:    3.1166    magn:    0.0000    constr:    0.0000
     atom:    6    charge:    1.9476    magn:   -0.0000    constr:    0.0000
     atom:    7    charge:    3.1157    magn:    0.0000    constr:    0.0000
     atom:    8    charge:    1.9452    magn:   -0.0000    constr:    0.0000
     atom:    9    charge:    3.1250    magn:   -0.0001    constr:    0.0000
     atom:   10    charge:    1.9452    magn:    0.0000    constr:    0.0000
     atom:   11    charge:    3.1197    magn:    0.0000    constr:    0.0000
     atom:   12    charge:    1.9504    magn:   -0.0000    constr:    0.0000
     atom:   13    charge:    3.1158    magn:    0.0000    constr:    0.0000
     atom:   14    charge:    1.9587    magn:   -0.0000    constr:    0.0000
     atom:   15    charge:    3.1188    magn:    0.0000    constr:    0.0000
     atom:   16    charge:    1.9445    magn:   -0.0000    constr:    0.0000
     atom:   17    charge:    1.9184    magn:    0.0001    constr:    0.0000
     atom:   18    charge:    3.1239    magn:   -0.0000    constr:    0.0000
     atom:   19    charge:    1.9408    magn:   -0.0000    constr:    0.0000
     atom:   20    charge:    1.9471    magn:    0.0000    constr:    0.0000
     atom:   21    charge:    1.9471    magn:    0.0000    constr:    0.0000
     atom:   22    charge:    3.1196    magn:    0.0000    constr:    0.0000
     atom:   23    charge:    1.9566    magn:   -0.0000    constr:    0.0000
     atom:   24    charge:    1.9379    magn:   -0.0000    constr:    0.0000
     atom:   25    charge:    1.9505    magn:   -0.0000    constr:    0.0000
     atom:   26    charge:    3.1145    magn:    0.0000    constr:    0.0000
     atom:   27    charge:    1.9398    magn:   -0.0000    constr:    0.0000
     atom:   28    charge:    1.9517    magn:   -0.0000    constr:    0.0000
     atom:   29    charge:    1.9476    magn:   -0.0000    constr:    0.0000
     atom:   30    charge:    3.1167    magn:    0.0000    constr:    0.0000
     atom:   31    charge:    1.9446    magn:   -0.0000    constr:    0.0000
     atom:   32    charge:    1.9441    magn:   -0.0000    constr:    0.0000
     atom:   33    charge:    1.9184    magn:    0.0001    constr:    0.0000
     atom:   34    charge:    3.1239    magn:   -0.0000    constr:    0.0000
     atom:   35    charge:    1.9408    magn:   -0.0000    constr:    0.0000
     atom:   36    charge:    1.9471    magn:    0.0000    constr:    0.0000
     atom:   37    charge:    1.9471    magn:    0.0000    constr:    0.0000
     atom:   38    charge:    3.1196    magn:    0.0000    constr:    0.0000
     atom:   39    charge:    1.9549    magn:   -0.0000    constr:    0.0000
     atom:   40    charge:    1.9383    magn:   -0.0000    constr:    0.0000
     atom:   41    charge:    1.9505    magn:   -0.0000    constr:    0.0000
     atom:   42    charge:    3.1141    magn:    0.0000    constr:    0.0000
     atom:   43    charge:    1.9413    magn:   -0.0000    constr:    0.0000
     atom:   44    charge:    1.9517    magn:   -0.0000    constr:    0.0000
     atom:   45    charge:    1.9468    magn:   -0.0000    constr:    0.0000
     atom:   46    charge:    3.1165    magn:    0.0000    constr:    0.0000
     atom:   47    charge:    1.9431    magn:   -0.0000    constr:    0.0000
     atom:   48    charge:    1.9445    magn:   -0.0000    constr:    0.0000
     atom:   49    charge:    0.6579    magn:   -0.0000    constr:    0.0000
     atom:   50    charge:    1.9599    magn:   -0.0000    constr:    0.0000
     atom:   51    charge:    0.3881    magn:    0.0000    constr:    0.0000
     atom:   52    charge:    0.4010    magn:    0.0000    constr:    0.0000
     atom:   53    charge:    0.4058    magn:    0.0000    constr:    0.0000
     atom:   54    charge:    0.4063    magn:    0.0000    constr:    0.0000

     total cpu time spent up to now is     2050.5 secs

     total energy              =   -3021.41841664 Ry
     Harris-Foulkes estimate   =   -3021.41841722 Ry
     estimated scf accuracy    <       0.00000407 Ry

     total magnetization       =     0.00 Bohr mag/cell
     absolute magnetization    =     0.00 Bohr mag/cell

     iteration #  8     ecut=    40.42 Ry     beta=0.10
     Davidson diagonalization with overlap
     ethr =  1.02E-09,  avg # of iterations =  3.0

     negative rho (up, down):  1.209E-02 1.209E-02
 
     Magnetic moment per site:
     atom:    1    charge:    3.1250    magn:   -0.0000    constr:    0.0000
     atom:    2    charge:    1.9451    magn:    0.0000    constr:    0.0000
     atom:    3    charge:    3.1198    magn:    0.0000    constr:    0.0000
     atom:    4    charge:    1.9504    magn:   -0.0000    constr:    0.0000
     atom:    5    charge:    3.1166    magn:    0.0000    constr:    0.0000
     atom:    6    charge:    1.9476    magn:   -0.0000    constr:    0.0000
     atom:    7    charge:    3.1157    magn:    0.0000    constr:    0.0000
     atom:    8    charge:    1.9452    magn:   -0.0000    constr:    0.0000
     atom:    9    charge:    3.1250    magn:   -0.0000    constr:    0.0000
     atom:   10    charge:    1.9452    magn:    0.0000    constr:    0.0000
     atom:   11    charge:    3.1197    magn:    0.0000    constr:    0.0000
     atom:   12    charge:    1.9504    magn:   -0.0000    constr:    0.0000
     atom:   13    charge:    3.1158    magn:    0.0000    constr:    0.0000
     atom:   14    charge:    1.9587    magn:   -0.0000    constr:    0.0000
     atom:   15    charge:    3.1188    magn:    0.0000    constr:    0.0000
     atom:   16    charge:    1.9445    magn:   -0.0000    constr:    0.0000
     atom:   17    charge:    1.9184    magn:    0.0001    constr:    0.0000
     atom:   18    charge:    3.1239    magn:   -0.0000    constr:    0.0000
     atom:   19    charge:    1.9408    magn:   -0.0000    constr:    0.0000
     atom:   20    charge:    1.9471    magn:    0.0000    constr:    0.0000
     atom:   21    charge:    1.9471    magn:    0.0000    constr:    0.0000
     atom:   22    charge:    3.1196    magn:    0.0000    constr:    0.0000
     atom:   23    charge:    1.9566    magn:   -0.0000    constr:    0.0000
     atom:   24    charge:    1.9379    magn:   -0.0000    constr:    0.0000
     atom:   25    charge:    1.9505    magn:   -0.0000    constr:    0.0000
     atom:   26    charge:    3.1145    magn:    0.0000    constr:    0.0000
     atom:   27    charge:    1.9398    magn:   -0.0000    constr:    0.0000
     atom:   28    charge:    1.9517    magn:   -0.0000    constr:    0.0000
     atom:   29    charge:    1.9476    magn:   -0.0000    constr:    0.0000
     atom:   30    charge:    3.1167    magn:    0.0000    constr:    0.0000
     atom:   31    charge:    1.9446    magn:   -0.0000    constr:    0.0000
     atom:   32    charge:    1.9440    magn:   -0.0000    constr:    0.0000
     atom:   33    charge:    1.9184    magn:    0.0001    constr:    0.0000
     atom:   34    charge:    3.1239    magn:   -0.0000    constr:    0.0000
     atom:   35    charge:    1.9408    magn:   -0.0000    constr:    0.0000
     atom:   36    charge:    1.9471    magn:    0.0000    constr:    0.0000
     atom:   37    charge:    1.9471    magn:    0.0000    constr:    0.0000
     atom:   38    charge:    3.1196    magn:    0.0000    constr:    0.0000
     atom:   39    charge:    1.9549    magn:   -0.0000    constr:    0.0000
     atom:   40    charge:    1.9383    magn:   -0.0000    constr:    0.0000
     atom:   41    charge:    1.9505    magn:   -0.0000    constr:    0.0000
     atom:   42    charge:    3.1141    magn:    0.0000    constr:    0.0000
     atom:   43    charge:    1.9413    magn:   -0.0000    constr:    0.0000
     atom:   44    charge:    1.9517    magn:   -0.0000    constr:    0.0000
     atom:   45    charge:    1.9468    magn:   -0.0000    constr:    0.0000
     atom:   46    charge:    3.1165    magn:    0.0000    constr:    0.0000
     atom:   47    charge:    1.9431    magn:   -0.0000    constr:    0.0000
     atom:   48    charge:    1.9444    magn:   -0.0000    constr:    0.0000
     atom:   49    charge:    0.6580    magn:   -0.0000    constr:    0.0000
     atom:   50    charge:    1.9599    magn:   -0.0000    constr:    0.0000
     atom:   51    charge:    0.3881    magn:    0.0000    constr:    0.0000
     atom:   52    charge:    0.4011    magn:    0.0000    constr:    0.0000
     atom:   53    charge:    0.4058    magn:    0.0000    constr:    0.0000
     atom:   54    charge:    0.4062    magn:    0.0000    constr:    0.0000

     total cpu time spent up to now is     2252.1 secs

     total energy              =   -3021.41841702 Ry
     Harris-Foulkes estimate   =   -3021.41841710 Ry
     estimated scf accuracy    <       0.00000086 Ry

     total magnetization       =     0.00 Bohr mag/cell
     absolute magnetization    =     0.00 Bohr mag/cell

     iteration #  9     ecut=    40.42 Ry     beta=0.10
     Davidson diagonalization with overlap
     ethr =  2.16E-10,  avg # of iterations =  2.1

     negative rho (up, down):  1.209E-02 1.209E-02
 
     Magnetic moment per site:
     atom:    1    charge:    3.1250    magn:   -0.0000    constr:    0.0000
     atom:    2    charge:    1.9452    magn:    0.0000    constr:    0.0000
     atom:    3    charge:    3.1198    magn:    0.0000    constr:    0.0000
     atom:    4    charge:    1.9504    magn:   -0.0000    constr:    0.0000
     atom:    5    charge:    3.1166    magn:    0.0000    constr:    0.0000
     atom:    6    charge:    1.9476    magn:   -0.0000    constr:    0.0000
     atom:    7    charge:    3.1157    magn:    0.0000    constr:    0.0000
     atom:    8    charge:    1.9452    magn:   -0.0000    constr:    0.0000
     atom:    9    charge:    3.1250    magn:   -0.0000    constr:    0.0000
     atom:   10    charge:    1.9452    magn:    0.0000    constr:    0.0000
     atom:   11    charge:    3.1197    magn:    0.0000    constr:    0.0000
     atom:   12    charge:    1.9504    magn:   -0.0000    constr:    0.0000
     atom:   13    charge:    3.1158    magn:    0.0000    constr:    0.0000
     atom:   14    charge:    1.9587    magn:   -0.0000    constr:    0.0000
     atom:   15    charge:    3.1188    magn:    0.0000    constr:    0.0000
     atom:   16    charge:    1.9445    magn:   -0.0000    constr:    0.0000
     atom:   17    charge:    1.9184    magn:    0.0001    constr:    0.0000
     atom:   18    charge:    3.1239    magn:   -0.0000    constr:    0.0000
     atom:   19    charge:    1.9408    magn:   -0.0000    constr:    0.0000
     atom:   20    charge:    1.9471    magn:    0.0000    constr:    0.0000
     atom:   21    charge:    1.9471    magn:    0.0000    constr:    0.0000
     atom:   22    charge:    3.1196    magn:    0.0000    constr:    0.0000
     atom:   23    charge:    1.9566    magn:   -0.0000    constr:    0.0000
     atom:   24    charge:    1.9379    magn:   -0.0000    constr:    0.0000
     atom:   25    charge:    1.9505    magn:   -0.0000    constr:    0.0000
     atom:   26    charge:    3.1145    magn:    0.0000    constr:    0.0000
     atom:   27    charge:    1.9398    magn:   -0.0000    constr:    0.0000
     atom:   28    charge:    1.9517    magn:   -0.0000    constr:    0.0000
     atom:   29    charge:    1.9476    magn:   -0.0000    constr:    0.0000
     atom:   30    charge:    3.1167    magn:    0.0000    constr:    0.0000
     atom:   31    charge:    1.9446    magn:   -0.0000    constr:    0.0000
     atom:   32    charge:    1.9440    magn:   -0.0000    constr:    0.0000
     atom:   33    charge:    1.9184    magn:    0.0001    constr:    0.0000
     atom:   34    charge:    3.1239    magn:   -0.0000    constr:    0.0000
     atom:   35    charge:    1.9408    magn:   -0.0000    constr:    0.0000
     atom:   36    charge:    1.9471    magn:    0.0000    constr:    0.0000
     atom:   37    charge:    1.9471    magn:    0.0000    constr:    0.0000
     atom:   38    charge:    3.1196    magn:    0.0000    constr:    0.0000
     atom:   39    charge:    1.9549    magn:   -0.0000    constr:    0.0000
     atom:   40    charge:    1.9383    magn:   -0.0000    constr:    0.0000
     atom:   41    charge:    1.9505    magn:   -0.0000    constr:    0.0000
     atom:   42    charge:    3.1141    magn:    0.0000    constr:    0.0000
     atom:   43    charge:    1.9413    magn:   -0.0000    constr:    0.0000
     atom:   44    charge:    1.9517    magn:   -0.0000    constr:    0.0000
     atom:   45    charge:    1.9468    magn:   -0.0000    constr:    0.0000
     atom:   46    charge:    3.1165    magn:    0.0000    constr:    0.0000
     atom:   47    charge:    1.9431    magn:   -0.0000    constr:    0.0000
     atom:   48    charge:    1.9444    magn:   -0.0000    constr:    0.0000
     atom:   49    charge:    0.6581    magn:   -0.0000    constr:    0.0000
     atom:   50    charge:    1.9599    magn:   -0.0000    constr:    0.0000
     atom:   51    charge:    0.3883    magn:    0.0000    constr:    0.0000
     atom:   52    charge:    0.4011    magn:    0.0000    constr:    0.0000
     atom:   53    charge:    0.4058    magn:    0.0000    constr:    0.0000
     atom:   54    charge:    0.4062    magn:    0.0000    constr:    0.0000

     total cpu time spent up to now is     2435.7 secs

     End of self-consistent calculation

 ------ SPIN UP ------------


          k = 0.0000 0.0000 0.0000 ( 34665 PWs)   bands (ev):

   -57.7067 -57.6718 -57.3278 -57.2915 -57.2460 -57.1184 -57.0820 -57.0811
   -57.0621 -57.0463 -56.9993 -56.9639 -56.7382 -56.7007 -56.1571 -56.1219
   -34.1428 -33.9889 -33.9604 -33.9077 -33.8801 -33.8134 -33.7529 -33.6658
   -33.6288 -33.6139 -33.5763 -33.5507 -33.5281 -33.5177 -33.4998 -33.4996
   -33.4774 -33.4645 -33.4424 -33.4075 -33.3328 -33.3007 -33.2805 -33.2712
   -33.2660 -33.2636 -33.2518 -33.2506 -33.2457 -33.2411 -33.2382 -33.2212
   -33.1896 -33.1892 -33.1833 -33.1500 -33.1276 -33.0043 -32.9866 -32.9656
   -32.9157 -32.8127 -32.5749 -32.5095 -32.4834 -32.3791 -32.2875 -32.1791
   -20.4527 -18.0225 -17.8497 -17.5666 -17.4721 -17.3825 -17.2620 -17.0868
   -17.0742 -16.9843 -16.9472 -16.8921 -16.7938 -16.7881 -16.7402 -16.7163
   -16.7121 -16.6723 -16.6190 -16.6159 -16.5447 -16.4252 -16.4113 -16.4064
   -16.3326 -16.2765 -16.2031 -16.1758 -16.1582 -15.9867 -15.9372 -14.7414
   -14.6577 -11.4133  -7.3179  -5.4909  -5.4039  -5.3223  -5.2740  -5.2143
    -5.1552  -5.1348  -4.8479  -4.8289  -4.4805  -4.4526  -4.3689  -4.3646
    -4.3297  -4.2403  -4.0987  -4.0693  -4.0640  -4.0264  -4.0095  -4.0002
    -3.9685  -3.9603  -3.9594  -3.8488  -3.7990  -3.7752  -3.7429  -3.7209
    -3.6415  -3.6265  -3.5976  -3.5873  -3.5284  -3.5154  -3.4175  -3.3998
    -3.3688  -3.2600  -3.2247  -3.1329  -3.0226  -2.9434  -2.8867  -2.8288
    -2.7004  -2.6176  -2.5986  -2.5881  -2.5812  -2.5784  -2.4396  -2.4234
    -2.3447  -2.2780  -2.2561  -2.2134  -2.2092  -2.1763  -2.1483  -2.1021
    -2.0570  -2.0428  -2.0300  -1.8913  -1.8751  -1.7731  -1.7459  -1.6325
    -1.5534  -1.5501  -1.5002  -1.4904  -1.4715  -1.4323  -1.3250  -1.3182
    -1.3119  -1.2893  -1.2518  -1.1454  -1.0987  -1.0951  -1.0769  -1.0277
    -0.9636  -0.9242  -0.8344  -0.7760  -0.6191  -0.5961  -0.5775  -0.4884
    -0.3857  -0.2496  -0.0926  -0.0356   0.1235   0.2405   0.2542   1.6348
     1.6670   1.9769   1.9942   2.0555   2.0842   2.1964   2.2337   2.2775
     2.4198   2.4880   2.5172   2.5229   2.5334   2.6219   2.6398   2.6486
     2.7062   2.7907   2.8181   2.8294   2.9017   2.9892   3.0239   3.0877
     3.0974   3.1035   3.1524   3.1935   3.1988   3.2188   3.2308   3.2426
     3.2528   3.2792   3.3896   3.4239   3.4475   3.4573   3.5206   3.5759
     3.6444   3.6856   3.7983   3.9715   4.0076   4.0835   4.1722   4.3107
     4.3297   4.3840   4.5877   4.5955   4.8043   4.8303   5.0779   5.1573
     5.2381   5.3228   5.4758   5.5089   5.5339   5.5838   5.6707   5.7011
     5.7912   5.8562   5.8679   5.8777   5.9447   6.0402   6.0472   6.0676
     6.1368   6.2206   6.2322   6.2878   6.3696   6.5781   6.6282   6.7593
     6.8354   6.9997   7.0310   7.1594   7.2946   7.6168   7.9213   8.2498
     8.3741   8.6896   8.7883   8.8800   8.9378   9.0068   9.1929   9.2709
     9.3472   9.3857   9.5312

          k = 0.0000 0.0280 0.0000 ( 34717 PWs)   bands (ev):

   -57.7044 -57.6741 -57.3254 -57.2939 -57.2456 -57.1162 -57.0841 -57.0790
   -57.0625 -57.0487 -56.9970 -56.9663 -56.7357 -56.7032 -56.1548 -56.1242
   -34.1174 -33.9869 -33.9623 -33.9015 -33.8542 -33.8199 -33.7799 -33.6431
   -33.6220 -33.5889 -33.5510 -33.5477 -33.5307 -33.5106 -33.5054 -33.4938
   -33.4831 -33.4746 -33.4404 -33.4006 -33.3267 -33.2989 -33.2942 -33.2727
   -33.2705 -33.2641 -33.2597 -33.2483 -33.2466 -33.2448 -33.2445 -33.2251
   -33.2112 -33.1945 -33.1863 -33.1542 -33.1506 -33.0004 -32.9852 -32.9669
   -32.9208 -32.8407 -32.5493 -32.5077 -32.4852 -32.3730 -32.2938 -32.2066
   -20.4526 -17.9607 -17.7920 -17.5136 -17.4199 -17.3389 -17.2352 -17.1012
   -17.0439 -17.0066 -17.0021 -16.8941 -16.8300 -16.7713 -16.7178 -16.6991
   -16.6849 -16.6754 -16.6665 -16.6497 -16.6038 -16.4491 -16.3929 -16.3765
   -16.3592 -16.3061 -16.2201 -16.1823 -16.1619 -16.0173 -15.9743 -14.7515
   -14.6811 -11.4129  -7.3175  -5.4568  -5.3222  -5.2790  -5.2598  -5.1397
    -5.0777  -5.0561  -4.7723  -4.7137  -4.4450  -4.4095  -4.4025  -4.3212
    -4.3095  -4.1679  -4.1335  -4.1227  -4.1004  -4.0795  -4.0415  -4.0381
    -3.9739  -3.9701  -3.9588  -3.9017  -3.8620  -3.8549  -3.8458  -3.7729
    -3.7284  -3.7173  -3.6743  -3.6245  -3.5844  -3.5629  -3.4360  -3.3585
    -3.2917  -3.2431  -3.1516  -3.0920  -2.9435  -2.8780  -2.7457  -2.7329
    -2.6220  -2.6068  -2.5328  -2.5182  -2.4873  -2.4481  -2.4208  -2.4174
    -2.3960  -2.3718  -2.2964  -2.2859  -2.1771  -2.1509  -2.1449  -2.1040
    -2.0310  -2.0084  -1.9634  -1.8838  -1.8190  -1.7777  -1.7166  -1.6918
    -1.6524  -1.6361  -1.5736  -1.5347  -1.4880  -1.4479  -1.4441  -1.4055
    -1.3594  -1.2798  -1.2276  -1.2234  -1.1703  -1.1013  -1.0834  -1.0311
    -1.0190  -0.9130  -0.8809  -0.7998  -0.7712  -0.7153  -0.6170  -0.6002
    -0.4040  -0.2781  -0.0992  -0.0899   0.1384   0.1941   0.2207   1.7209
     1.7670   1.9779   2.0547   2.1195   2.1429   2.2086   2.2654   2.3035
     2.4150   2.4524   2.4912   2.5260   2.5768   2.5949   2.6205   2.6819
     2.7236   2.7608   2.7880   2.9025   2.9133   2.9412   2.9671   3.0016
     3.1005   3.1070   3.1261   3.1660   3.1838   3.1966   3.2486   3.2949
     3.3272   3.3626   3.3974   3.4638   3.4978   3.5439   3.5533   3.6409
     3.6558   3.6771   3.7621   3.9509   4.0254   4.1048   4.1833   4.2771
     4.3153   4.3858   4.5330   4.6938   4.8597   4.9167   5.0815   5.2496
     5.2953   5.3273   5.5287   5.5633   5.5940   5.6290   5.6765   5.7140
     5.7756   5.7834   5.8427   5.8692   5.8904   5.9399   6.0641   6.1187
     6.1417   6.1465   6.1754   6.2010   6.2666   6.5523   6.5949   6.6933
     6.8445   6.9408   6.9725   7.0882   7.2263   7.6192   7.9392   8.0306
     8.0553   8.4518   8.5805   8.8709   8.9484   8.9958   9.0877   9.1340
     9.2780   9.4398   9.5257

          k = 0.0000 0.0560 0.0000 ( 34721 PWs)   bands (ev):

   -57.6980 -57.6805 -57.3189 -57.3005 -57.2448 -57.1101 -57.0902 -57.0726
   -57.0634 -57.0551 -56.9905 -56.9728 -56.7291 -56.7099 -56.1483 -56.1307
   -34.0476 -33.9816 -33.9673 -33.8845 -33.8529 -33.8373 -33.7832 -33.6063
   -33.5855 -33.5822 -33.5455 -33.5374 -33.5153 -33.5141 -33.4903 -33.4809
   -33.4690 -33.4374 -33.4281 -33.3811 -33.3277 -33.3216 -33.3215 -33.3102
   -33.2947 -33.2848 -33.2764 -33.2750 -33.2620 -33.2557 -33.2428 -33.2407
   -33.2195 -33.2076 -33.1798 -33.1738 -33.1342 -32.9953 -32.9816 -32.9703
   -32.9337 -32.9104 -32.5030 -32.4900 -32.4785 -32.3565 -32.3106 -32.2808
   -20.4523 -17.7896 -17.6333 -17.3823 -17.2859 -17.2704 -17.2288 -17.1752
   -17.1460 -16.9726 -16.9611 -16.9270 -16.8830 -16.8304 -16.7989 -16.7334
   -16.7247 -16.6938 -16.6363 -16.6057 -16.5484 -16.5145 -16.4341 -16.3868
   -16.3714 -16.3102 -16.2491 -16.2036 -16.1655 -16.1174 -16.0471 -14.7697
   -14.7317 -11.4121  -7.3166  -5.4225  -5.2898  -5.0843  -5.0459  -4.9338
    -4.8673  -4.8341  -4.5704  -4.5130  -4.4822  -4.4276  -4.4177  -4.3758
    -4.3407  -4.2683  -4.2445  -4.2209  -4.2047  -4.1958  -4.1642  -4.0837
    -4.0673  -4.0145  -3.9970  -3.9778  -3.9390  -3.9010  -3.8651  -3.8237
    -3.8055  -3.7386  -3.6434  -3.5941  -3.4418  -3.4355  -3.2859  -3.2634
    -3.2456  -3.2168  -3.1895  -3.0869  -2.8770  -2.8512  -2.8351  -2.8073
    -2.7306  -2.6775  -2.5547  -2.4820  -2.4525  -2.3308  -2.3224  -2.3199
    -2.3113  -2.2570  -2.2158  -2.1883  -2.1558  -2.1264  -2.0408  -2.0197
    -1.9705  -1.9569  -1.9265  -1.9134  -1.8924  -1.8588  -1.8263  -1.7907
    -1.7546  -1.7044  -1.6346  -1.5512  -1.5368  -1.5193  -1.4650  -1.4292
    -1.3887  -1.3729  -1.3576  -1.3003  -1.2488  -1.2260  -1.1654  -1.1163
    -1.0965  -1.0325  -0.9356  -0.9034  -0.8593  -0.7940  -0.7727  -0.6681
    -0.5961  -0.4725  -0.2515   0.0835   0.1356   0.1708   0.1774   1.8566
     2.0166   2.0870   2.1010   2.1987   2.2247   2.2608   2.3565   2.3799
     2.3878   2.4018   2.4243   2.4675   2.4951   2.5266   2.6646   2.6855
     2.7232   2.7666   2.8213   2.8942   2.9058   2.9287   2.9630   2.9640
     3.0062   3.0897   3.1269   3.1479   3.2409   3.2516   3.2765   3.3211
     3.3582   3.3757   3.4321   3.5282   3.5345   3.6269   3.6681   3.7190
     3.7520   3.8150   3.8491   3.8818   3.9228   4.1217   4.1331   4.1500
     4.3167   4.3675   4.5514   4.8987   5.0066   5.0684   5.1659   5.3703
     5.3736   5.4685   5.5082   5.5401   5.6368   5.7138   5.7160   5.7246
     5.7703   5.7788   5.7923   5.8482   5.8773   5.9450   5.9680   5.9881
     5.9946   6.0458   6.1475   6.1637   6.3062   6.3709   6.4114   6.6173
     6.6581   6.7733   6.8672   7.0402   7.2308   7.3313   7.4486   7.7545
     8.1006   8.2335   8.3607   8.6328   8.9172   8.9860   9.3143   9.3393
     9.4225   9.4538   9.5484

          k = 0.0000-0.0840 0.0000 ( 34678 PWs)   bands (ev):

   -57.6894 -57.6892 -57.3114 -57.3080 -57.2444 -57.1046 -57.0957 -57.0639
   -57.0638 -57.0638 -56.9822 -56.9811 -56.7220 -56.7170 -56.1395 -56.1395
   -33.9746 -33.9744 -33.9511 -33.9510 -33.8610 -33.8609 -33.6963 -33.6723
   -33.5762 -33.5736 -33.5416 -33.5281 -33.5237 -33.4909 -33.4661 -33.4351
   -33.4228 -33.4162 -33.3838 -33.3835 -33.3739 -33.3558 -33.3499 -33.3335
   -33.3321 -33.2935 -33.2867 -33.2846 -33.2784 -33.2778 -33.2413 -33.2395
   -33.2250 -33.2230 -33.1729 -33.1720 -33.0565 -33.0356 -32.9784 -32.9731
   -32.9476 -32.9446 -32.4964 -32.4964 -32.3806 -32.3806 -32.3336 -32.3335
   -20.4522 -17.5792 -17.5151 -17.4185 -17.3984 -17.2389 -17.1861 -17.0749
   -17.0718 -17.0256 -17.0136 -16.9993 -16.8830 -16.8475 -16.8475 -16.8096
   -16.8030 -16.6061 -16.6041 -16.5370 -16.5346 -16.4973 -16.4959 -16.4138
   -16.4113 -16.2713 -16.2691 -16.2093 -16.2055 -16.1390 -16.1093 -14.7684
   -14.7683 -11.4118  -7.3161  -5.4133  -5.2956  -4.8100  -4.7412  -4.7402
    -4.6643  -4.6520  -4.6465  -4.6110  -4.5799  -4.5209  -4.5097  -4.4102
    -4.3829  -4.3482  -4.3464  -4.3172  -4.3040  -4.2886  -4.2839  -4.0648
    -4.0413  -4.0322  -4.0203  -4.0018  -3.9518  -3.8191  -3.8017  -3.7856
    -3.7259  -3.7039  -3.6498  -3.5069  -3.4822  -3.3480  -3.3349  -3.1709
    -3.1472  -3.1246  -3.0522  -3.0261  -2.9710  -2.9177  -2.8090  -2.7977
    -2.7064  -2.7010  -2.5853  -2.5480  -2.5213  -2.5039  -2.4753  -2.4563
    -2.4476  -2.4213  -2.3395  -2.2563  -2.0380  -2.0157  -1.9778  -1.9508
    -1.9365  -1.8360  -1.8309  -1.8180  -1.7899  -1.7536  -1.7398  -1.7101
    -1.6749  -1.6501  -1.6251  -1.5686  -1.5261  -1.4964  -1.4900  -1.4628
    -1.4338  -1.4260  -1.4184  -1.3907  -1.3692  -1.3357  -1.2323  -1.1964
    -1.1120  -1.0804  -1.0278  -0.9871  -0.9794  -0.9682  -0.9564  -0.5334
    -0.5285  -0.4664  -0.4522   0.1357   0.1358   0.1785   0.1802   2.0309
     2.0341   2.2084   2.2118   2.2124   2.2260   2.2740   2.3296   2.3391
     2.3392   2.3623   2.3728   2.5170   2.5456   2.5465   2.5910   2.6546
     2.7057   2.7284   2.7410   2.8816   2.9134   2.9807   2.9883   3.0482
     3.0495   3.0931   3.1039   3.1696   3.2070   3.2236   3.2362   3.3940
     3.4174   3.4283   3.4311   3.4640   3.4745   3.7166   3.7572   3.7960
     3.7993   3.8232   3.9005   3.9227   3.9595   4.0654   4.0678   4.1178
     4.1184   4.4072   4.6584   4.9511   4.9914   5.2528   5.3219   5.4483
     5.4800   5.5004   5.5004   5.5763   5.6072   5.6375   5.6554   5.6603
     5.7905   5.7953   5.8177   5.8439   5.8532   5.8580   5.8722   5.9656
     6.0131   6.0538   6.0675   6.1513   6.1902   6.4096   6.4642   6.5615
     6.6000   6.7481   6.7730   6.9868   7.0255   7.1145   7.3305   7.7279
     7.9055   8.1851   8.4499   8.7900   8.8468   8.8729   9.1595   9.6573
     9.7004   9.7414   9.8015

          k = 0.0253 0.0000 0.0000 ( 34707 PWs)   bands (ev):

   -57.7067 -57.6718 -57.3278 -57.2915 -57.2460 -57.1184 -57.0820 -57.0812
   -57.0621 -57.0463 -56.9994 -56.9639 -56.7382 -56.7007 -56.1571 -56.1219
   -34.1431 -33.9889 -33.9605 -33.9070 -33.8802 -33.8135 -33.7530 -33.6665
   -33.6288 -33.6155 -33.5766 -33.5473 -33.5419 -33.5186 -33.4998 -33.4847
   -33.4762 -33.4645 -33.4425 -33.4006 -33.3327 -33.3008 -33.2802 -33.2712
   -33.2681 -33.2676 -33.2530 -33.2499 -33.2476 -33.2412 -33.2383 -33.2210
   -33.1895 -33.1892 -33.1837 -33.1500 -33.1277 -33.0043 -32.9890 -32.9647
   -32.9158 -32.8128 -32.5749 -32.5105 -32.4829 -32.3791 -32.2875 -32.1793
   -20.4525 -17.9927 -17.8097 -17.5243 -17.4431 -17.3659 -17.2685 -17.1523
   -17.1013 -16.9852 -16.9468 -16.8809 -16.8271 -16.8170 -16.7991 -16.7887
   -16.7394 -16.7007 -16.5663 -16.5453 -16.4627 -16.4620 -16.4122 -16.3783
   -16.3499 -16.3212 -16.1916 -16.1736 -16.1595 -15.9864 -15.9369 -14.7403
   -14.6576 -11.4121  -7.3154  -5.4862  -5.3117  -5.2734  -5.2712  -5.1069
    -5.0533  -5.0259  -4.8425  -4.8242  -4.6272  -4.4776  -4.4436  -4.3402
    -4.3205  -4.3107  -4.2580  -4.1019  -4.0467  -4.0425  -4.0065  -3.9527
    -3.9460  -3.9182  -3.8394  -3.8072  -3.7619  -3.7248  -3.7032  -3.7012
    -3.6284  -3.6076  -3.5804  -3.5723  -3.5251  -3.4541  -3.3222  -3.3009
    -3.2565  -3.2203  -3.1337  -3.1154  -3.0417  -2.9853  -2.9258  -2.9038
    -2.7475  -2.6845  -2.6421  -2.6091  -2.5873  -2.5376  -2.5285  -2.5119
    -2.4400  -2.3440  -2.3309  -2.2457  -2.2298  -2.1903  -2.1687  -2.0802
    -2.0191  -2.0103  -1.9716  -1.8903  -1.8607  -1.7622  -1.7476  -1.6590
    -1.5957  -1.5916  -1.5477  -1.4733  -1.4678  -1.3765  -1.3668  -1.3493
    -1.3461  -1.2991  -1.2827  -1.1992  -1.1350  -1.1259  -1.0910  -1.0591
    -0.9827  -0.9236  -0.8395  -0.7995  -0.7832  -0.6596  -0.6512  -0.5589
    -0.4303  -0.2440  -0.1243  -0.0622   0.1094   0.1978   0.1986   1.6540
     1.7172   1.9934   2.0619   2.1399   2.2127   2.2278   2.2606   2.3694
     2.3761   2.4486   2.4949   2.5125   2.5334   2.5697   2.5884   2.6271
     2.6470   2.7250   2.7483   2.8578   2.8747   2.9597   3.0213   3.0922
     3.1133   3.1335   3.1539   3.1949   3.1990   3.2449   3.2617   3.3319
     3.3692   3.3949   3.4420   3.4643   3.5278   3.5507   3.5822   3.5919
     3.6548   3.7204   3.7380   3.9048   3.9925   4.0882   4.1664   4.2672
     4.3666   4.3865   4.5458   4.6811   4.8550   4.9049   4.9166   5.0618
     5.1121   5.1374   5.1787   5.3441   5.5674   5.6242   5.6878   5.8588
     5.8748   5.9148   5.9514   6.0276   6.0718   6.1189   6.1509   6.2005
     6.2102   6.2431   6.2486   6.2994   6.4408   6.5221   6.6374   6.6661
     6.8154   6.8640   7.0264   7.1509   7.2945   7.7563   7.8669   8.0937
     8.3349   8.3968   8.4269   8.6918   8.8392   9.0107   9.1459   9.3516
     9.3578   9.4809   9.5027

          k = 0.0253 0.0280 0.0000 ( 34687 PWs)   bands (ev):

   -57.7044 -57.6741 -57.3254 -57.2939 -57.2456 -57.1161 -57.0841 -57.0791
   -57.0625 -57.0487 -56.9970 -56.9663 -56.7357 -56.7032 -56.1548 -56.1242
   -34.1177 -33.9870 -33.9623 -33.9008 -33.8543 -33.8198 -33.7800 -33.6438
   -33.6221 -33.5906 -33.5512 -33.5445 -33.5319 -33.5259 -33.5057 -33.4838
   -33.4757 -33.4734 -33.4404 -33.3938 -33.3266 -33.2991 -33.2920 -33.2727
   -33.2705 -33.2643 -33.2634 -33.2562 -33.2462 -33.2448 -33.2436 -33.2240
   -33.2114 -33.1945 -33.1863 -33.1541 -33.1506 -33.0004 -32.9873 -32.9662
   -32.9208 -32.8407 -32.5492 -32.5087 -32.4847 -32.3731 -32.2937 -32.2066
   -20.4524 -17.9325 -17.7529 -17.4731 -17.3933 -17.3188 -17.2420 -17.1360
   -17.1074 -17.0155 -16.9713 -16.8682 -16.8381 -16.8161 -16.7944 -16.7791
   -16.7206 -16.7086 -16.6096 -16.5911 -16.5150 -16.4845 -16.3900 -16.3748
   -16.3655 -16.3378 -16.2087 -16.1819 -16.1617 -16.0177 -15.9741 -14.7505
   -14.6811 -11.4117  -7.3149  -5.4595  -5.2780  -5.2472  -5.1891  -5.0306
    -4.9749  -4.9458  -4.7673  -4.7108  -4.5713  -4.4114  -4.3803  -4.3536
    -4.2688  -4.2621  -4.1955  -4.1276  -4.0935  -4.0733  -4.0418  -4.0292
    -3.9843  -3.9513  -3.9216  -3.8767  -3.8308  -3.8188  -3.7930  -3.7269
    -3.7045  -3.6722  -3.6237  -3.6136  -3.5495  -3.5303  -3.3527  -3.2702
    -3.2570  -3.1937  -3.1309  -3.0692  -2.9908  -2.9577  -2.7860  -2.7119
    -2.6870  -2.6443  -2.6172  -2.5432  -2.5126  -2.4628  -2.4561  -2.4295
    -2.4138  -2.3942  -2.3497  -2.3111  -2.2243  -2.1867  -2.1244  -2.1087
    -2.0754  -2.0043  -1.9588  -1.9002  -1.8739  -1.8357  -1.7707  -1.6844
    -1.6543  -1.6256  -1.5976  -1.5715  -1.5184  -1.4689  -1.4493  -1.4092
    -1.3530  -1.3353  -1.2780  -1.2648  -1.2184  -1.1206  -1.1069  -1.0688
    -1.0231  -0.8976  -0.8505  -0.8440  -0.7732  -0.7480  -0.7050  -0.6675
    -0.4413  -0.2891  -0.1431  -0.0932   0.1416   0.1710   0.1812   1.7131
     1.8372   2.0086   2.0887   2.1861   2.2341   2.2733   2.3075   2.3876
     2.4095   2.4577   2.4799   2.5156   2.5250   2.5432   2.5804   2.6652
     2.6962   2.7186   2.7783   2.7970   2.9214   2.9778   3.0009   3.0248
     3.0968   3.1244   3.1375   3.1635   3.1999   3.2329   3.3360   3.3653
     3.3981   3.4276   3.4540   3.5019   3.5426   3.5602   3.6274   3.6532
     3.6652   3.6989   3.7412   3.8861   3.9853   4.1292   4.1777   4.2434
     4.2989   4.4429   4.5015   4.7755   4.9205   4.9472   4.9841   5.0701
     5.1508   5.1668   5.2135   5.3793   5.6378   5.6800   5.7288   5.7723
     5.8477   5.8578   5.8642   5.9971   6.0630   6.0792   6.1109   6.1362
     6.1884   6.2007   6.2168   6.2347   6.4209   6.5240   6.6068   6.6594
     6.7849   6.8601   6.9555   7.1521   7.2238   7.5210   7.9495   8.0423
     8.0883   8.2718   8.4522   8.5806   8.6748   8.7847   8.9531   9.2735
     9.3489   9.4675   9.5147

          k = 0.0253 0.0560 0.0000 ( 34699 PWs)   bands (ev):

   -57.6980 -57.6805 -57.3189 -57.3005 -57.2448 -57.1100 -57.0902 -57.0727
   -57.0634 -57.0551 -56.9905 -56.9728 -56.7291 -56.7099 -56.1483 -56.1307
   -34.0479 -33.9816 -33.9674 -33.8839 -33.8530 -33.8371 -33.7832 -33.6063
   -33.5860 -33.5823 -33.5456 -33.5353 -33.5184 -33.5168 -33.4904 -33.4813
   -33.4681 -33.4375 -33.4228 -33.3757 -33.3282 -33.3223 -33.3171 -33.3100
   -33.2948 -33.2852 -33.2764 -33.2738 -33.2621 -33.2579 -33.2469 -33.2430
   -33.2196 -33.2083 -33.1798 -33.1736 -33.1340 -32.9953 -32.9830 -32.9702
   -32.9338 -32.9103 -32.5036 -32.4897 -32.4784 -32.3565 -32.3107 -32.2807
   -20.4522 -17.7662 -17.5976 -17.3530 -17.2737 -17.2552 -17.2031 -17.1760
   -17.1491 -17.0038 -16.9801 -16.8892 -16.8847 -16.8400 -16.8068 -16.7804
   -16.7566 -16.6800 -16.6341 -16.6140 -16.5880 -16.5397 -16.4357 -16.4223
   -16.3647 -16.2931 -16.2422 -16.2029 -16.1652 -16.1182 -16.0466 -14.7690
   -14.7319 -11.4109  -7.3139  -5.4292  -5.2891  -5.0393  -4.9565  -4.8223
    -4.7656  -4.7244  -4.5667  -4.5068  -4.4984  -4.4236  -4.4021  -4.3481
    -4.2801  -4.2400  -4.2241  -4.2014  -4.1567  -4.1499  -4.1146  -4.0699
    -4.0419  -4.0215  -4.0027  -3.9445  -3.9328  -3.8838  -3.8684  -3.8296
    -3.7814  -3.7226  -3.6619  -3.5800  -3.4806  -3.3906  -3.3054  -3.2759
    -3.2425  -3.2325  -3.1600  -3.0194  -2.9171  -2.8705  -2.8380  -2.7883
    -2.7603  -2.6542  -2.5998  -2.5180  -2.4970  -2.4473  -2.4007  -2.3716
    -2.3508  -2.3323  -2.2960  -2.2721  -2.1988  -2.1494  -2.1365  -2.0492
    -2.0207  -2.0182  -1.9557  -1.9467  -1.9121  -1.8705  -1.8433  -1.8210
    -1.7546  -1.7132  -1.6877  -1.6466  -1.5826  -1.5473  -1.5038  -1.4838
    -1.4394  -1.3805  -1.3466  -1.3127  -1.2321  -1.2144  -1.1436  -1.1140
    -1.0739  -1.0231  -0.9205  -0.8879  -0.8296  -0.8086  -0.7536  -0.6886
    -0.6156  -0.4745  -0.2652   0.0844   0.1209   0.1481   0.1806   1.8539
     2.0403   2.1215   2.1710   2.2217   2.2617   2.2976   2.3377   2.3768
     2.4163   2.4537   2.4710   2.4975   2.5125   2.5749   2.6841   2.7116
     2.7297   2.7682   2.8145   2.8311   2.8950   2.9435   2.9653   2.9762
     3.0181   3.0250   3.1464   3.1980   3.2775   3.3213   3.3307   3.3738
     3.3981   3.4305   3.4513   3.5315   3.5514   3.6223   3.6467   3.7265
     3.7847   3.8111   3.8535   3.8923   3.8966   4.0628   4.1089   4.1574
     4.3352   4.3744   4.6036   4.9578   5.0032   5.1261   5.1409   5.1503
     5.2534   5.2805   5.3036   5.4283   5.5004   5.5535   5.6282   5.7491
     5.8152   5.8418   5.8825   5.9272   5.9541   5.9978   6.0428   6.0610
     6.1281   6.1493   6.2166   6.3280   6.3721   6.4012   6.4802   6.6432
     6.6899   6.7890   6.8489   7.0319   7.1645   7.3590   7.4962   7.6035
     7.9996   8.1941   8.3634   8.5365   8.6677   8.8586   9.0426   9.1076
     9.1900   9.4987   9.6150

          k = 0.0253-0.0840 0.0000 ( 34722 PWs)   bands (ev):

   -57.6894 -57.6892 -57.3114 -57.3080 -57.2444 -57.1046 -57.0957 -57.0639
   -57.0639 -57.0638 -56.9822 -56.9811 -56.7220 -56.7170 -56.1396 -56.1395
   -33.9746 -33.9744 -33.9513 -33.9512 -33.8607 -33.8606 -33.6964 -33.6724
   -33.5762 -33.5736 -33.5422 -33.5279 -33.5236 -33.4909 -33.4653 -33.4352
   -33.4250 -33.4187 -33.3847 -33.3846 -33.3746 -33.3489 -33.3430 -33.3321
   -33.3306 -33.2933 -33.2865 -33.2848 -33.2780 -33.2770 -33.2448 -33.2434
   -33.2267 -33.2247 -33.1729 -33.1720 -33.0565 -33.0356 -32.9790 -32.9740
   -32.9476 -32.9446 -32.4967 -32.4967 -32.3806 -32.3806 -32.3336 -32.3335
   -20.4520 -17.5658 -17.4971 -17.3903 -17.3719 -17.2229 -17.1651 -17.0679
   -17.0591 -17.0140 -16.9900 -16.9853 -16.8979 -16.8873 -16.8789 -16.7943
[...]
    -1.3074  -1.2759  -1.2676  -1.1978  -1.1654  -1.0400  -1.0281  -1.0201
    -0.9980  -0.9575  -0.9111  -0.8475  -0.7665  -0.7089  -0.6585  -0.6023
    -0.5982  -0.5436  -0.5285   0.0586   0.0587   0.2033   0.2050   2.1453
     2.1462   2.1928   2.1947   2.2282   2.2289   2.2558   2.2877   2.4795
     2.4854   2.5162   2.5459   2.5998   2.6072   2.6713   2.6734   2.6822
     2.6834   2.8338   2.9000   2.9742   2.9889   3.0253   3.0329   3.0865
     3.2104   3.2405   3.2634   3.3233   3.3648   3.3821   3.4356   3.4834
     3.4911   3.5139   3.5400   3.5717   3.5947   3.6707   3.6918   3.7369
     3.8253   3.8826   3.8989   3.9452   3.9455   4.0883   4.0951   4.1039
     4.1044   4.6036   4.7748   4.7793   4.7922   4.8606   4.9115   4.9169
     4.9323   4.9740   5.0172   5.2397   5.3314   5.3504   5.3622   5.7402
     5.7916   5.9045   5.9165   5.9731   6.0437   6.1552   6.3059   6.3407
     6.3572   6.3652   6.4036   6.5701   6.6365   6.6575   6.6576   6.6961
     6.7651   6.8388   6.8398   6.8446   6.8455   7.3665   7.4212   7.5341
     7.6696   7.8326   8.0219   8.1794   8.2183   8.3228   8.4009   8.8204
     8.9251   9.0721   9.0855

          k =-0.0253 0.0280 0.0000 ( 34687 PWs)   bands (ev):

   -57.7045 -57.6742 -57.3254 -57.2939 -57.2455 -57.1161 -57.0841 -57.0790
   -57.0625 -57.0486 -56.9969 -56.9662 -56.7357 -56.7032 -56.1550 -56.1245
   -34.1178 -33.9871 -33.9624 -33.9009 -33.8543 -33.8199 -33.7800 -33.6437
   -33.6220 -33.5906 -33.5512 -33.5445 -33.5319 -33.5259 -33.5056 -33.4837
   -33.4756 -33.4733 -33.4403 -33.3938 -33.3265 -33.2991 -33.2919 -33.2727
   -33.2702 -33.2645 -33.2634 -33.2562 -33.2462 -33.2448 -33.2436 -33.2240
   -33.2113 -33.1945 -33.1862 -33.1540 -33.1505 -33.0004 -32.9872 -32.9661
   -32.9208 -32.8406 -32.5494 -32.5089 -32.4849 -32.3733 -32.2940 -32.2068
   -20.4524 -17.9325 -17.7529 -17.4731 -17.3934 -17.3189 -17.2421 -17.1360
   -17.1076 -17.0152 -16.9713 -16.8687 -16.8381 -16.8171 -16.7939 -16.7790
   -16.7206 -16.7088 -16.6094 -16.5907 -16.5150 -16.4846 -16.3901 -16.3750
   -16.3655 -16.3378 -16.2088 -16.1819 -16.1616 -16.0177 -15.9741 -14.7501
   -14.6807 -11.4117  -7.3148  -5.4595  -5.2780  -5.2470  -5.1891  -5.0309
    -4.9750  -4.9460  -4.7674  -4.7115  -4.5712  -4.4112  -4.3803  -4.3539
    -4.2702  -4.2588  -4.1968  -4.1260  -4.0980  -4.0727  -4.0445  -4.0291
    -3.9830  -3.9496  -3.9230  -3.8779  -3.8309  -3.8203  -3.7931  -3.7268
    -3.7076  -3.6713  -3.6234  -3.6127  -3.5480  -3.5292  -3.3519  -3.2743
    -3.2540  -3.1896  -3.1332  -3.0660  -2.9920  -2.9539  -2.7848  -2.7111
    -2.6865  -2.6449  -2.6170  -2.5407  -2.5138  -2.4603  -2.4556  -2.4316
    -2.4146  -2.3923  -2.3491  -2.3101  -2.2263  -2.1840  -2.1302  -2.1122
    -2.0710  -2.0006  -1.9603  -1.9033  -1.8723  -1.8362  -1.7508  -1.7180
    -1.6621  -1.6078  -1.6019  -1.5696  -1.5249  -1.4778  -1.4449  -1.4015
    -1.3531  -1.3398  -1.2892  -1.2519  -1.2070  -1.1233  -1.1081  -1.0672
    -1.0221  -0.9024  -0.8495  -0.8422  -0.7640  -0.7479  -0.7170  -0.6683
    -0.4423  -0.2890  -0.1436  -0.0930   0.1418   0.1713   0.1816   1.7129
     1.8372   2.0085   2.0902   2.1859   2.2356   2.2764   2.3103   2.3946
     2.4072   2.4409   2.4770   2.5212   2.5246   2.5379   2.5982   2.6597
     2.6964   2.7302   2.7669   2.8025   2.9301   2.9772   2.9944   3.0178
     3.0980   3.1258   3.1379   3.1652   3.2000   3.2302   3.3395   3.3642
     3.3957   3.4112   3.4558   3.4985   3.5518   3.5620   3.6282   3.6531
     3.6649   3.6999   3.7406   3.8849   3.9840   4.1311   4.1777   4.2439
     4.2989   4.4432   4.5017   4.7765   4.9288   4.9462   4.9747   5.0700
     5.1497   5.1665   5.2134   5.3781   5.6387   5.6741   5.7266   5.7814
     5.8459   5.8577   5.8652   5.9956   6.0664   6.0717   6.1158   6.1368
     6.1885   6.2002   6.2132   6.2417   6.4208   6.5221   6.6065   6.6648
     6.7890   6.8536   6.9554   7.1522   7.2241   7.5205   7.9491   8.0415
     8.0883   8.2702   8.4479   8.5824   8.6700   8.7863   8.9587   9.2793
     9.3449   9.4674   9.5122

          k =-0.0253 0.0560 0.0000 ( 34699 PWs)   bands (ev):

   -57.6981 -57.6806 -57.3188 -57.3005 -57.2447 -57.1100 -57.0902 -57.0726
   -57.0633 -57.0551 -56.9905 -56.9727 -56.7291 -56.7098 -56.1486 -56.1309
   -34.0480 -33.9817 -33.9675 -33.8840 -33.8531 -33.8372 -33.7832 -33.6063
   -33.5860 -33.5822 -33.5456 -33.5352 -33.5184 -33.5168 -33.4904 -33.4812
   -33.4680 -33.4374 -33.4227 -33.3757 -33.3281 -33.3223 -33.3171 -33.3100
   -33.2948 -33.2852 -33.2764 -33.2738 -33.2621 -33.2580 -33.2468 -33.2430
   -33.2194 -33.2082 -33.1797 -33.1736 -33.1340 -32.9953 -32.9829 -32.9702
   -32.9337 -32.9103 -32.5038 -32.4900 -32.4787 -32.3567 -32.3109 -32.2810
   -20.4522 -17.7662 -17.5975 -17.3530 -17.2737 -17.2554 -17.2033 -17.1760
   -17.1489 -17.0038 -16.9800 -16.8893 -16.8849 -16.8405 -16.8072 -16.7803
   -16.7564 -16.6797 -16.6339 -16.6137 -16.5880 -16.5399 -16.4357 -16.4224
   -16.3648 -16.2931 -16.2423 -16.2029 -16.1651 -16.1182 -16.0466 -14.7686
   -14.7314 -11.4109  -7.3139  -5.4291  -5.2891  -5.0389  -4.9565  -4.8229
    -4.7656  -4.7245  -4.5667  -4.5053  -4.4986  -4.4234  -4.4023  -4.3529
    -4.2803  -4.2411  -4.2236  -4.2013  -4.1565  -4.1493  -4.1163  -4.0699
    -4.0408  -4.0189  -4.0039  -3.9456  -3.9325  -3.8822  -3.8720  -3.8300
    -3.7812  -3.7211  -3.6626  -3.5802  -3.4800  -3.3897  -3.3126  -3.2725
    -3.2455  -3.2256  -3.1540  -3.0203  -2.9167  -2.8701  -2.8342  -2.7911
    -2.7591  -2.6536  -2.5991  -2.5186  -2.4955  -2.4487  -2.4018  -2.3688
    -2.3510  -2.3315  -2.2986  -2.2746  -2.1985  -2.1493  -2.1356  -2.0461
    -2.0287  -2.0119  -1.9544  -1.9510  -1.9136  -1.8705  -1.8388  -1.8157
    -1.7527  -1.7196  -1.6816  -1.6514  -1.5892  -1.5486  -1.5140  -1.4690
    -1.4392  -1.3796  -1.3555  -1.3110  -1.2331  -1.2142  -1.1423  -1.1122
    -1.0743  -1.0240  -0.9328  -0.8890  -0.8219  -0.8087  -0.7476  -0.6882
    -0.6156  -0.4761  -0.2666   0.0847   0.1213   0.1484   0.1809   1.8537
     2.0401   2.1243   2.1710   2.2185   2.2599   2.2983   2.3236   2.3759
     2.4349   2.4503   2.4761   2.5029   2.5127   2.5749   2.6833   2.7149
     2.7353   2.7677   2.8186   2.8321   2.8844   2.9408   2.9614   2.9774
     3.0151   3.0262   3.1605   3.1985   3.2815   3.3077   3.3255   3.3616
     3.4022   3.4282   3.4510   3.5340   3.5511   3.6264   3.6479   3.7271
     3.7849   3.8086   3.8544   3.8906   3.8987   4.0636   4.1089   4.1575
     4.3349   4.3744   4.6044   4.9586   5.0102   5.1210   5.1399   5.1483
     5.2508   5.2784   5.3056   5.4197   5.5023   5.5533   5.6311   5.7537
     5.8164   5.8399   5.8862   5.9298   5.9494   5.9920   6.0473   6.0621
     6.1280   6.1478   6.2229   6.3215   6.3722   6.4069   6.4774   6.6464
     6.6930   6.7889   6.8427   7.0323   7.1625   7.3590   7.4967   7.6020
     7.9983   8.1931   8.3639   8.5385   8.6684   8.8619   9.0487   9.1092
     9.1864   9.5029   9.6126

          k =-0.0506 0.0280 0.0000 ( 34685 PWs)   bands (ev):

   -57.7045 -57.6742 -57.3253 -57.2939 -57.2455 -57.1159 -57.0841 -57.0792
   -57.0625 -57.0487 -56.9970 -56.9662 -56.7357 -56.7032 -56.1550 -56.1245
   -34.1185 -33.9870 -33.9624 -33.8995 -33.8545 -33.8199 -33.7801 -33.6452
   -33.6220 -33.5939 -33.5518 -33.5451 -33.5374 -33.5297 -33.5055 -33.4835
   -33.4710 -33.4582 -33.4403 -33.3776 -33.3263 -33.2993 -33.2876 -33.2739
   -33.2727 -33.2705 -33.2698 -33.2650 -33.2462 -33.2448 -33.2425 -33.2218
   -33.2118 -33.1947 -33.1862 -33.1538 -33.1505 -33.0004 -32.9915 -32.9648
   -32.9208 -32.8407 -32.5493 -32.5107 -32.4840 -32.3732 -32.2940 -32.2068
   -20.4521 -17.8705 -17.6592 -17.3779 -17.3514 -17.2597 -17.2342 -17.2223
   -17.1316 -17.0529 -16.9717 -16.9302 -16.8817 -16.8662 -16.8630 -16.8417
   -16.7737 -16.7526 -16.5688 -16.5373 -16.5152 -16.4465 -16.4239 -16.3863
   -16.3774 -16.3197 -16.1995 -16.1805 -16.1605 -16.0189 -15.9739 -14.7481
   -14.6807 -11.4093  -7.3095  -5.4715  -5.2765  -5.2314  -4.9001  -4.8425
    -4.7303  -4.7144  -4.6846  -4.6650  -4.6395  -4.5173  -4.4361  -4.3545
    -4.3293  -4.3107  -4.1685  -4.1336  -4.0698  -4.0349  -4.0171  -4.0018
    -3.9903  -3.9180  -3.8683  -3.8246  -3.7827  -3.7701  -3.7266  -3.6982
    -3.6626  -3.6421  -3.5903  -3.5602  -3.4442  -3.3158  -3.2743  -3.2530
    -3.1882  -3.1662  -3.1049  -3.0635  -2.9599  -2.9435  -2.8740  -2.8476
    -2.7514  -2.6974  -2.6680  -2.6541  -2.6131  -2.5990  -2.5435  -2.5041
    -2.4458  -2.3959  -2.3894  -2.3437  -2.3176  -2.2635  -2.1883  -2.1457
    -2.1224  -2.0703  -2.0360  -1.9826  -1.9485  -1.9143  -1.8690  -1.8406
    -1.7634  -1.7484  -1.7203  -1.6499  -1.5492  -1.5147  -1.4926  -1.4260
    -1.3756  -1.3563  -1.2862  -1.2703  -1.2460  -1.1551  -1.1292  -1.0215
    -0.9891  -0.8892  -0.8642  -0.8231  -0.7881  -0.7725  -0.7139  -0.6977
    -0.5219  -0.3200  -0.2679  -0.0803   0.1026   0.1320   0.1551   1.6964
     1.8973   2.0527   2.1128   2.1184   2.1644   2.2318   2.3519   2.3637
     2.3973   2.4278   2.5092   2.5585   2.5669   2.5943   2.6745   2.6873
     2.7344   2.7931   2.8240   2.8943   2.9464   2.9726   3.0334   3.0513
     3.0806   3.1512   3.1628   3.1927   3.2934   3.3469   3.3683   3.4020
     3.4380   3.4499   3.5377   3.5784   3.5963   3.6445   3.6680   3.6759
     3.7081   3.7623   3.8108   3.8607   3.9244   4.0504   4.1611   4.2740
     4.2835   4.4151   4.6156   4.6804   4.7567   4.8027   4.8459   4.9927
     5.0045   5.1223   5.2152   5.4634   5.5871   5.6349   5.7173   5.8030
     5.8548   5.8665   5.9171   5.9409   5.9761   6.0883   6.1119   6.1324
     6.2296   6.4237   6.4766   6.5312   6.5696   6.6058   6.6775   6.7427
     6.7925   6.8098   6.9663   7.1219   7.1623   7.4056   7.5779   7.7195
     8.1407   8.1577   8.2591   8.4136   8.7436   8.9684   9.0012   9.0587
     9.3749   9.4706   9.6231

          k =-0.0506 0.0560 0.0000 ( 34596 PWs)   bands (ev):

   -57.6981 -57.6806 -57.3188 -57.3005 -57.2447 -57.1099 -57.0901 -57.0727
   -57.0633 -57.0551 -56.9905 -56.9727 -56.7291 -56.7098 -56.1486 -56.1309
   -34.0485 -33.9817 -33.9674 -33.8828 -33.8533 -33.8368 -33.7833 -33.6062
   -33.5872 -33.5823 -33.5459 -33.5313 -33.5250 -33.5199 -33.4904 -33.4820
   -33.4660 -33.4374 -33.4132 -33.3621 -33.3290 -33.3265 -33.3096 -33.3074
   -33.2951 -33.2851 -33.2763 -33.2715 -33.2626 -33.2622 -33.2562 -33.2481
   -33.2196 -33.2098 -33.1797 -33.1733 -33.1335 -32.9953 -32.9857 -32.9699
   -32.9337 -32.9102 -32.5049 -32.4895 -32.4785 -32.3567 -32.3108 -32.2809
   -20.4518 -17.7160 -17.5085 -17.3009 -17.2489 -17.2074 -17.1819 -17.1714
   -17.0996 -17.0450 -17.0151 -16.9224 -16.8657 -16.8578 -16.8539 -16.8161
   -16.7847 -16.7317 -16.6719 -16.6328 -16.6230 -16.5593 -16.5211 -16.4086
   -16.3521 -16.2716 -16.2345 -16.2015 -16.1645 -16.1198 -16.0457 -14.7674
   -14.7318 -11.4084  -7.3083  -5.4431  -5.2879  -5.0293  -4.6670  -4.6255
    -4.5245  -4.5081  -4.4925  -4.4640  -4.4425  -4.3770  -4.3331  -4.3101
    -4.2349  -4.2146  -4.1543  -4.1407  -4.0916  -4.0760  -4.0550  -4.0457
    -4.0238  -4.0060  -3.9778  -3.9240  -3.9030  -3.8969  -3.8308  -3.7963
    -3.7390  -3.6668  -3.6362  -3.5305  -3.4879  -3.3506  -3.3315  -3.2709
    -3.2616  -3.2490  -3.1067  -2.9963  -2.9352  -2.9095  -2.8581  -2.8357
    -2.7649  -2.7345  -2.6925  -2.6183  -2.6005  -2.5763  -2.5328  -2.4981
    -2.4365  -2.4128  -2.3746  -2.3379  -2.3251  -2.3084  -2.2645  -2.1879
    -2.1619  -2.1300  -2.1231  -2.0859  -2.0569  -2.0123  -1.9946  -1.9105
    -1.8999  -1.8609  -1.8410  -1.7335  -1.6471  -1.6151  -1.5811  -1.4871
    -1.4175  -1.3827  -1.3154  -1.2642  -1.2149  -1.1202  -1.0852  -1.0274
    -1.0115  -0.9451  -0.8632  -0.8275  -0.7794  -0.7646  -0.7029  -0.6656
    -0.6597  -0.5273  -0.3334   0.0706   0.1048   0.1228   0.1863   1.8590
     2.0689   2.1548   2.1898   2.2126   2.2358   2.2894   2.3383   2.3838
     2.3956   2.5292   2.5610   2.5703   2.5993   2.6190   2.6739   2.7461
     2.7739   2.7956   2.8302   2.8716   2.9546   2.9945   3.0197   3.0527
     3.0881   3.1274   3.1588   3.2475   3.3272   3.3590   3.3885   3.4320
     3.4697   3.4908   3.5132   3.5334   3.6066   3.6390   3.7024   3.7366
     3.7718   3.8435   3.8719   3.9116   3.9176   3.9456   4.1041   4.1671
     4.2818   4.4629   4.7154   4.7990   4.8074   4.8879   4.9323   5.0840
     5.1570   5.2256   5.2645   5.3357   5.3645   5.4256   5.4871   5.6173
     5.7728   5.8253   5.8737   5.9453   6.0432   6.1169   6.2117   6.2530
     6.2804   6.3481   6.4077   6.4429   6.5037   6.5724   6.6455   6.7098
     6.7242   6.8184   6.8605   6.9776   7.0637   7.4055   7.4498   7.5891
     7.7531   7.9453   8.0786   8.3954   8.5685   8.6241   8.7635   9.0155
     9.2240   9.3253   9.4490

     the Fermi energy is     0.9894 ev

!    total energy              =   -3021.41841712 Ry
     Harris-Foulkes estimate   =   -3021.41841707 Ry
     estimated scf accuracy    <       0.00000034 Ry

     The total energy is the sum of the following terms:

     one-electron contribution =  -41241.38583273 Ry
     hartree contribution      =   20694.79999546 Ry
     xc contribution           =    -553.69284756 Ry
     ewald contribution        =   18078.86047927 Ry
     smearing contrib. (-TS)   =      -0.00021157 Ry

     total magnetization       =     0.00 Bohr mag/cell
     absolute magnetization    =     0.00 Bohr mag/cell

     convergence has been achieved in   9 iterations

     Forces acting on atoms (Ry/au):


     negative rho (up, down):  1.209E-02 1.209E-02
     atom    1 type  1   force =     0.00001612   -0.00035658   -0.13385769
     atom    2 type  2   force =     0.00000311    0.00002858    0.07217856
     atom    3 type  1   force =    -0.00135416    0.00031063   -0.06105678
     atom    4 type  2   force =     0.00290538    0.00048939    0.00639543
     atom    5 type  1   force =     0.00027882    0.00180194    0.00341961
     atom    6 type  2   force =     0.00001512    0.00001007   -0.00253750
     atom    7 type  1   force =    -0.00075329   -0.00074948    0.00326242
     atom    8 type  2   force =     0.00118316   -0.00010412   -0.00067439
     atom    9 type  1   force =    -0.00002750    0.00002007   -0.13361293
     atom   10 type  2   force =    -0.00006883    0.00006424    0.07136179
     atom   11 type  1   force =    -0.00131673   -0.00024049   -0.05597191
     atom   12 type  2   force =     0.00299680   -0.00006856    0.00611275
     atom   13 type  1   force =     0.00030276   -0.00142225    0.00334972
     atom   14 type  2   force =    -0.00120088   -0.00038574   -0.00282498
     atom   15 type  1   force =    -0.00071014    0.00020464    0.00439346
     atom   16 type  2   force =     0.00079385   -0.00028018   -0.00006640
     atom   17 type  2   force =    -0.00007029   -0.00007073    0.07943371
     atom   18 type  1   force =     0.00013031   -0.00017274    0.11906569
     atom   19 type  2   force =    -0.00011134   -0.00017305   -0.06665093
     atom   20 type  2   force =    -0.06323051    0.00014766   -0.03223514
     atom   21 type  2   force =     0.06320297    0.00001244   -0.03244547
     atom   22 type  1   force =     0.00072222    0.00108333    0.05970105
     atom   23 type  2   force =    -0.00017233    0.00005838   -0.00167405
     atom   24 type  2   force =    -0.00143498   -0.00000279   -0.02323679
     atom   25 type  2   force =    -0.00313820    0.00059179    0.00788344
     atom   26 type  1   force =     0.00063889    0.00028949    0.00461992
     atom   27 type  2   force =     0.00052801    0.00060430   -0.00389891
     atom   28 type  2   force =     0.00015847   -0.00009073   -0.00119383
     atom   29 type  2   force =     0.00017457   -0.00034238   -0.00057951
     atom   30 type  1   force =     0.00048623   -0.00057848    0.00417822
     atom   31 type  2   force =    -0.00008964    0.00008527   -0.00299343
     atom   32 type  2   force =    -0.00016542    0.00009989   -0.00104045
     atom   33 type  2   force =    -0.00011826    0.00003752    0.07903434
     atom   34 type  1   force =     0.00006689   -0.00021915    0.11897916
     atom   35 type  2   force =    -0.00030570   -0.00005394   -0.06634917
     atom   36 type  2   force =    -0.06319098   -0.00005272   -0.03232391
     atom   37 type  2   force =     0.06333196   -0.00020131   -0.03247931
     atom   38 type  1   force =     0.00065966   -0.00098235    0.05991964
     atom   39 type  2   force =    -0.00045496    0.00010286   -0.00242589
     atom   40 type  2   force =    -0.00119595    0.00030608   -0.02214652
     atom   41 type  2   force =    -0.00317654   -0.00014956    0.00790904
     atom   42 type  1   force =     0.00052561    0.00006670    0.00372301
     atom   43 type  2   force =     0.00068939    0.00024056   -0.00306568
     atom   44 type  2   force =     0.00024434    0.00009849   -0.00114920
     atom   45 type  2   force =     0.00014892    0.00030738   -0.00061101
     atom   46 type  1   force =     0.00073520    0.00021224    0.00424416
     atom   47 type  2   force =     0.00001816   -0.00033145   -0.00150654
     atom   48 type  2   force =    -0.00007706   -0.00005639   -0.00078514
     atom   49 type  3   force =    -0.06007905   -0.00058949   -0.00426716
     atom   50 type  2   force =     0.01586529   -0.00024639   -0.00692993
     atom   51 type  4   force =     0.02963097    0.00019959    0.01024123
     atom   52 type  4   force =     0.00234393    0.00038823   -0.00332321
     atom   53 type  4   force =     0.00677275   -0.00365175    0.00225526
     atom   54 type  4   force =     0.00687287    0.00371104    0.00225217

     Total force =     0.369530     Total SCF correction =     0.001655
 !ASE

     Writing output data file calc.save
 
     init_run     :     55.17s CPU     68.41s WALL (       1 calls)
     electrons    :   1966.92s CPU   2367.07s WALL (       1 calls)
     forces       :     40.79s CPU     41.76s WALL (       1 calls)

     Called by init_run:
     wfcinit      :     46.83s CPU     59.44s WALL (       1 calls)
     potinit      :      1.41s CPU      1.67s WALL (       1 calls)

     Called by electrons:
     c_bands      :   1718.10s CPU   2056.04s WALL (       9 calls)
     sum_band     :    208.86s CPU    265.45s WALL (       9 calls)
     v_of_rho     :      9.90s CPU     12.39s WALL (      10 calls)
     newd         :     33.87s CPU     37.16s WALL (      10 calls)
     mix_rho      :      0.33s CPU      0.48s WALL (       9 calls)
     vdW_energy   :      1.79s CPU      2.17s WALL (      11 calls)
     vdW_ffts     :      2.60s CPU      3.41s WALL (      22 calls)
     vdW_v        :      1.07s CPU      1.23s WALL (      11 calls)

     Called by c_bands:
     init_us_2    :      5.41s CPU      5.99s WALL (     800 calls)
     cegterg      :   1686.69s CPU   2022.33s WALL (     360 calls)

     Called by *egterg:
     h_psi        :    688.32s CPU    950.70s WALL (    1982 calls)
     s_psi        :     84.44s CPU     88.69s WALL (    1982 calls)
     g_psi        :      4.62s CPU      4.75s WALL (    1582 calls)
     cdiaghg      :    596.40s CPU    612.30s WALL (    1942 calls)

     Called by h_psi:
     add_vuspsi   :     84.94s CPU     89.14s WALL (    1982 calls)

     General routines
     calbec       :    128.87s CPU    132.47s WALL (    2382 calls)
     fft          :      5.70s CPU      7.46s WALL (     867 calls)
     ffts         :      0.05s CPU      0.08s WALL (      38 calls)
     fftw         :    444.81s CPU    748.39s WALL (  669252 calls)
     interpolate  :      0.31s CPU      0.50s WALL (      38 calls)
     davcio       :      0.14s CPU      3.32s WALL (      40 calls)
 
     Parallel routines
     fft_scatter  :    232.06s CPU    411.01s WALL (  670157 calls)
 
     PWSCF        : 34m23.97s CPU    41m22.45s WALL

 
   This run was terminated on:  10:31: 7  12Feb2018            

=------------------------------------------------------------------------------=
   JOB DONE.
=------------------------------------------------------------------------------=
