  python dir          : /home/vossj/suncat/lib/python2.7/site-packages/espresso
  espresso dir        : /home/vossj/suncat/esdld/espresso-dynpy-beef/bin
  pseudo dir          : /home/alatimer/bin/psp/esp_psp_w_gbrvRu/
  ase-espresso py git : ffa2778-git



     Program PWSCF v.5.1rc2 (svn rev. ) starts on 13Feb2018 at  0:11:39 

     This program is part of the open-source Quantum ESPRESSO suite
     for quantum simulation of materials; please cite
         "P. Giannozzi et al., J. Phys.:Condens. Matter 21 395502 (2009);
          URL http://www.quantum-espresso.org", 
     in publications or presentations arising from this work. More details at
     http://www.quantum-espresso.org/quote

     Parallel version (MPI), running on    16 processors
     R & G space division:  proc/nbgrp/npool/nimage =      16
     Reading input from pw.inp
     Message from routine read_cards :
     DEPRECATED: no units specified in CELL_PARAMETERS card

     Current dimensions of program PWSCF are:
     Max number of different atomic species (ntypx) = 10
     Max number of k-points (npk) =  40000
     Max angular momentum in pseudopotentials (lmaxx) =  3

     **************************************************************************
     Initializing libbeef V0.1.1 with the BEEF-vdW functional.
     Citation: Wellendorff et al., PRB 85, 235149 (2012).
     **************************************************************************


     IMPORTANT: XC functional enforced from input :
     Exchange-correlation      = BEEF ( 1  4 27 13 2)
     Any further DFT definition will be discarded
     Please, verify this is what you really want


     Subspace diagonalization in iterative solution of the eigenvalue problem:
     a serial algorithm will be used

 
     Parallelization info
     --------------------
     sticks:   dense  smooth     PW     G-vecs:    dense   smooth      PW
     Min         281     112     31                68535    17318    2565
     Max         282     113     32                68545    17369    2582
     Sum        4501    1795    503              1096637   277353   41113
 
     Generating pointlists ...
     new r_m :   0.4125 (alat units)  0.7795 (a.u.) for type    1
     new r_m :   0.3996 (alat units)  0.7551 (a.u.) for type    2
     new r_m :   0.4125 (alat units)  0.7795 (a.u.) for type    3
     new r_m :   0.3996 (alat units)  0.7551 (a.u.) for type    4


     bravais-lattice index     =            0
     lattice parameter (alat)  =       1.8897  a.u.
     unit-cell volume          =    7990.9933 (a.u.)^3
     number of atoms/cell      =           54
     number of atomic types    =            4
     number of electrons       =       398.00
     number of Kohn-Sham states=          299
     kinetic-energy cutoff     =      40.4243  Ry
     charge density cutoff     =     404.2426  Ry
     convergence threshold     =      7.3E-07
     mixing beta               =       0.1000
     number of iterations used =           10  plain     mixing
     Exchange-correlation      = BEEF ( 1  4 27 13 2)
     nstep                     =           50


     celldm(1)=   1.889726  celldm(2)=   0.000000  celldm(3)=   0.000000
     celldm(4)=   0.000000  celldm(5)=   0.000000  celldm(6)=   0.000000

     crystal axes: (cart. coord. in units of alat)
               a(1) = (   6.590708   0.000000   0.000000 )  
               a(2) = (   0.000000   5.950229   0.000000 )  
               a(3) = (   0.000000   0.000000  30.195235 )  

     reciprocal axes: (cart. coord. in units 2 pi/alat)
               b(1) = (  0.151729  0.000000  0.000000 )  
               b(2) = (  0.000000  0.168061  0.000000 )  
               b(3) = (  0.000000  0.000000  0.033118 )  


     PseudoPot. # 1 for Ti read from file:
     /home/alatimer/bin/psp/esp_psp_w_gbrvRu/Ti.UPF
     MD5 check sum: 8e4df49b7f0d34bbd5052bf3f5ea0213
     Pseudo is Ultrasoft, Zval = 12.0
     Generated by new atomic code, or converted to UPF format
     Using radial grid of  851 points,  6 beta functions with: 
                l(1) =   0
                l(2) =   0
                l(3) =   1
                l(4) =   1
                l(5) =   2
                l(6) =   2
     Q(r) pseudized with  8 coefficients,  rinner =    1.000   1.000   1.000
                                                       1.000   1.000

     PseudoPot. # 2 for  O read from file:
     /home/alatimer/bin/psp/esp_psp_w_gbrvRu/O.UPF
     MD5 check sum: e057bbcf3229fb5d8c36c0c92f9568b4
     Pseudo is Ultrasoft + core correction, Zval =  6.0
     Generated using "atomic" code by A. Dal Corso  v.5.0.2 svn rev. 9415
     Using radial grid of 1095 points,  4 beta functions with: 
                l(1) =   0
                l(2) =   0
                l(3) =   1
                l(4) =   1
     Q(r) pseudized with 0 coefficients 


     PseudoPot. # 3 for  C read from file:
     /home/alatimer/bin/psp/esp_psp_w_gbrvRu/C.UPF
     MD5 check sum: ab446d787031eba755f1d5ee46644bb0
     Pseudo is Ultrasoft + core correction, Zval =  4.0
     Generated using "atomic" code by A. Dal Corso  v.5.0.2 svn rev. 9415
     Using radial grid of 1073 points,  4 beta functions with: 
                l(1) =   0
                l(2) =   0
                l(3) =   1
                l(4) =   1
     Q(r) pseudized with 0 coefficients 


     PseudoPot. # 4 for  H read from file:
     /home/alatimer/bin/psp/esp_psp_w_gbrvRu/H.UPF
     MD5 check sum: bd57da0722753ddfd9833a65b40bb853
     Pseudo is Ultrasoft, Zval =  1.0
     Generated using "atomic" code by A. Dal Corso  v.5.0.2 svn rev. 9415
     Using radial grid of  929 points,  2 beta functions with: 
                l(1) =   0
                l(2) =   0
     Q(r) pseudized with 0 coefficients 


     vdW kernel table read from file vdW_kernel_table
     MD5 check sum: 095c7af220d748ca6e76c0b4c6cfb241

     atomic species   valence    mass     pseudopotential
        Ti1           12.00    47.88000     Ti( 1.00)
        O1             6.00    15.99940      O( 1.00)
        C1             4.00    12.01100      C( 1.00)
        H1             1.00     1.00794      H( 1.00)

     Starting magnetic structure 
     atomic species   magnetization
        Ti1          0.250
        O1           0.500
        C1           0.750
        H1           0.000

     No symmetry found



   Cartesian axes

     site n.     atom                  positions (alat units)
         1           Ti1 tau(   1) = (   1.6476770   0.7437786   2.6545865  )
         2           O1  tau(   2) = (   1.6476770   2.2313359   3.9361215  )
         3           Ti1 tau(   3) = (   1.6476770   2.2313359   5.9499405  )
         4           O1  tau(   4) = (   0.3661420   0.7437786   5.9499405  )
         5           Ti1 tau(   5) = (   1.7592931   0.7557636   9.1813031  )
         6           O1  tau(   6) = (   1.6162490   2.2572048  10.5951269  )
         7           Ti1 tau(   7) = (   1.5595004   2.2680265  12.4668274  )
         8           O1  tau(   8) = (   0.3709531   0.7738127  12.6996540  )
         9           Ti1 tau(   9) = (   1.6476770   3.7188931   2.6545865  )
        10           O1  tau(  10) = (   1.6476770   5.2064503   3.9361215  )
        11           Ti1 tau(  11) = (   1.6476770   5.2064503   5.9499405  )
        12           O1  tau(  12) = (   0.3661420   3.7188931   5.9499405  )
        13           Ti1 tau(  13) = (   1.7607536   3.7112867   9.1949733  )
        14           O1  tau(  14) = (   1.6133076   5.2250699  10.5465640  )
        15           Ti1 tau(  15) = (   1.6492307   5.2431137  12.3448001  )
        16           O1  tau(  16) = (   0.3719744   3.7598389  12.7007434  )
        17           O1  tau(  17) = (   1.6476770   2.2313359   1.3730516  )
        18           Ti1 tau(  18) = (   4.9430310   2.2313359   2.6545865  )
        19           O1  tau(  19) = (   4.9430310   2.2313359   4.6684056  )
        20           O1  tau(  20) = (   6.2245660   0.7437786   2.6545865  )
        21           O1  tau(  21) = (   3.6614961   0.7437786   2.6545865  )
        22           Ti1 tau(  22) = (   4.9430310   0.7437786   5.9499405  )
        23           O1  tau(  23) = (   1.6387103   2.2391978   8.0037664  )
        24           O1  tau(  24) = (   4.9430310   2.2313359   7.2314755  )
        25           O1  tau(  25) = (   2.9292120   0.7437786   5.9499405  )
        26           Ti1 tau(  26) = (   5.0158092   2.2383949   9.3973727  )
        27           O1  tau(  27) = (   4.9391445   2.2276729  11.2675731  )
        28           O1  tau(  28) = (   6.2094020   0.7514556   9.2742047  )
        29           O1  tau(  29) = (   3.6131301   0.7515640   9.2682932  )
        30           Ti1 tau(  30) = (   4.8940083   0.8207741  12.7348365  )
        31           O1  tau(  31) = (   4.8487174   2.2703822  13.8475395  )
        32           O1  tau(  32) = (   2.8766274   0.7418004  12.6316555  )
        33           O1  tau(  33) = (   1.6476770   5.2064503   1.3730516  )
        34           Ti1 tau(  34) = (   4.9430310   5.2064503   2.6545865  )
        35           O1  tau(  35) = (   4.9430310   5.2064503   4.6684056  )
        36           O1  tau(  36) = (   6.2245660   3.7188931   2.6545865  )
        37           O1  tau(  37) = (   3.6614961   3.7188931   2.6545865  )
        38           Ti1 tau(  38) = (   4.9430310   3.7188931   5.9499405  )
        39           O1  tau(  39) = (   1.6418458   5.2133935   8.0066417  )
        40           O1  tau(  40) = (   4.9430310   5.2064503   7.2314755  )
        41           O1  tau(  41) = (   2.9292120   3.7188931   5.9499405  )
        42           Ti1 tau(  42) = (   5.0218241   5.2139137   9.3870600  )
        43           O1  tau(  43) = (   4.9399496   5.2040061  11.2598200  )
        44           O1  tau(  44) = (   6.2073000   3.7245411   9.2731052  )
        45           O1  tau(  45) = (   3.6137513   3.7232133   9.2682466  )
        46           Ti1 tau(  46) = (   4.8936935   3.8094630  12.7397413  )
        47           O1  tau(  47) = (   4.9051259   5.2510468  13.8339921  )
        48           O1  tau(  48) = (   2.8743370   3.7938830  12.6403791  )
        49           C1  tau(  49) = (   1.0587210   2.2268971  15.9066084  )
        50           O1  tau(  50) = (   1.8917182   2.2355032  14.7378010  )
        51           H1  tau(  51) = (   0.0310076   2.2200215  15.5603933  )
        52           H1  tau(  52) = (   2.8355400   2.2588152  14.9543747  )
        53           H1  tau(  53) = (   1.2478062   1.3326534  16.5039879  )
        54           H1  tau(  54) = (   1.2341453   3.1195140  16.5098874  )

     number of k points=    40  Fermi-Dirac smearing, width (Ry)=  0.0073
                       cart. coord. in units 2pi/alat
        k(    1) = (   0.0000000   0.0000000   0.0000000), wk =   0.0277778
        k(    2) = (   0.0000000   0.0280101   0.0000000), wk =   0.0555556
        k(    3) = (   0.0000000   0.0560203   0.0000000), wk =   0.0555556
        k(    4) = (   0.0000000  -0.0840304   0.0000000), wk =   0.0277778
        k(    5) = (   0.0252881   0.0000000   0.0000000), wk =   0.0555556
        k(    6) = (   0.0252881   0.0280101   0.0000000), wk =   0.0555556
        k(    7) = (   0.0252881   0.0560203   0.0000000), wk =   0.0555556
        k(    8) = (   0.0252881  -0.0840304   0.0000000), wk =   0.0555556
        k(    9) = (   0.0505763   0.0000000   0.0000000), wk =   0.0555556
        k(   10) = (   0.0505763   0.0280101   0.0000000), wk =   0.0555556
        k(   11) = (   0.0505763   0.0560203   0.0000000), wk =   0.0555556
        k(   12) = (   0.0505763  -0.0840304   0.0000000), wk =   0.0555556
        k(   13) = (  -0.0758644   0.0000000   0.0000000), wk =   0.0277778
        k(   14) = (  -0.0758644   0.0280101   0.0000000), wk =   0.0555556
        k(   15) = (  -0.0758644   0.0560203   0.0000000), wk =   0.0555556
        k(   16) = (  -0.0758644  -0.0840304   0.0000000), wk =   0.0277778
        k(   17) = (  -0.0252881   0.0280101   0.0000000), wk =   0.0555556
        k(   18) = (  -0.0252881   0.0560203   0.0000000), wk =   0.0555556
        k(   19) = (  -0.0505763   0.0280101   0.0000000), wk =   0.0555556
        k(   20) = (  -0.0505763   0.0560203   0.0000000), wk =   0.0555556
        k(   21) = (   0.0000000   0.0000000   0.0000000), wk =   0.0277778
        k(   22) = (   0.0000000   0.0280101   0.0000000), wk =   0.0555556
        k(   23) = (   0.0000000   0.0560203   0.0000000), wk =   0.0555556
        k(   24) = (   0.0000000  -0.0840304   0.0000000), wk =   0.0277778
        k(   25) = (   0.0252881   0.0000000   0.0000000), wk =   0.0555556
        k(   26) = (   0.0252881   0.0280101   0.0000000), wk =   0.0555556
        k(   27) = (   0.0252881   0.0560203   0.0000000), wk =   0.0555556
        k(   28) = (   0.0252881  -0.0840304   0.0000000), wk =   0.0555556
        k(   29) = (   0.0505763   0.0000000   0.0000000), wk =   0.0555556
        k(   30) = (   0.0505763   0.0280101   0.0000000), wk =   0.0555556
        k(   31) = (   0.0505763   0.0560203   0.0000000), wk =   0.0555556
        k(   32) = (   0.0505763  -0.0840304   0.0000000), wk =   0.0555556
        k(   33) = (  -0.0758644   0.0000000   0.0000000), wk =   0.0277778
        k(   34) = (  -0.0758644   0.0280101   0.0000000), wk =   0.0555556
        k(   35) = (  -0.0758644   0.0560203   0.0000000), wk =   0.0555556
        k(   36) = (  -0.0758644  -0.0840304   0.0000000), wk =   0.0277778
        k(   37) = (  -0.0252881   0.0280101   0.0000000), wk =   0.0555556
        k(   38) = (  -0.0252881   0.0560203   0.0000000), wk =   0.0555556
        k(   39) = (  -0.0505763   0.0280101   0.0000000), wk =   0.0555556
        k(   40) = (  -0.0505763   0.0560203   0.0000000), wk =   0.0555556

     Dense  grid:  1096637 G-vectors     FFT dimensions: (  80,  72, 375)

     Smooth grid:   277353 G-vectors     FFT dimensions: (  54,  45, 240)

     Largest allocated arrays     est. size (Mb)     dimensions
        Kohn-Sham Wavefunctions         9.95 Mb     (    2180,  299)
        NL pseudopotentials            18.89 Mb     (    2180,  568)
        Each V/rho on FFT grid          4.22 Mb     (  138240,   2)
        Each G-vector array             0.52 Mb     (   68538)
        G-vector shells                 0.25 Mb     (   33046)
     Largest temporary arrays     est. size (Mb)     dimensions
        Auxiliary wavefunctions        39.78 Mb     (    2180, 1196)
        Each subspace H/S matrix       21.83 Mb     (    1196, 1196)
        Each <psi_i|beta_j> matrix      2.59 Mb     (     568,  299)
        Arrays for rho mixing          21.09 Mb     (  138240,   10)

     Check: negative/imaginary core charge=   -0.000049    0.000000

     The initial density is read from file :
     ./calc.save/charge-density.dat


     negative rho (up, down):  1.209E-02 1.209E-02


     ************************************************************************
     *
     * You are using vdW-DF for exchange-correlation in this calculation.
     * Please cite the following three references that made this development
     * possible:
     *
     *   M. Dion, H. Rydberg, E. Schroder, D. C. Langreth, and
     *   B. I. Lundqvist, Phys. Rev. Lett. 92, 246401 (2004).
     *
     *   T. Thonhauser, V. R. Cooper, S. Li, A. Puzder, P. Hyldgaard, and
     *   D. C. Langreth, Phys. Rev. B 76, 125112 (2007).
     *
     *   G. Roman-Perez and J. M. Soler, Phys. Rev. Lett. 103, 096102 (2009).
     *
     *
     * If you are using vdW-DF2, please also cite:
     *
     *   K. Lee, E. D. Murray, L. Kong, B. I. Lundqvist, and
     *   D. C. Langreth, Phys. Rev. B 82, 081101(R) (2010).
     *
     *
     * If you are calculating the stress with vdW-DF, please also cite:
     *
     *   R. Sabatini, E. Kucukbenli, B. Kolb, T. Thonhauser, and
     *   S. de Gironcoli, J. Phys.: Condens. Matter 24, 424209 (2012).
     *
     ************************************************************************

     Carrying out vdW-DF run using the following parameters:

     Nqs =      20    Nr_points =    1024   r_max =   100.000
     q_mesh =
               0.00001000     0.04494208     0.09755937     0.15916263
               0.23128650     0.31572767     0.41458969     0.53033537
               0.66584808     0.82450364     1.01025438     1.22772762
               1.48234092     1.78043706     2.12944203     2.53805004
               3.01644009     3.57652955     4.23227104     5.00000000

     Gradients computed in reciprocal space

     ************************************************************************


     Starting wfc are  300 randomized atomic wfcs

     total cpu time spent up to now is       72.0 secs

     Self-consistent Calculation

     iteration #  1     ecut=    40.42 Ry     beta=0.10
     Davidson diagonalization with overlap
     ethr =  1.00E-05,  avg # of iterations = 14.7

     Threshold (ethr) on eigenvalues was too large:
     Diagonalizing with lowered threshold

     Davidson diagonalization with overlap
     ethr =  1.69E-07,  avg # of iterations =  1.0

     negative rho (up, down):  1.209E-02 1.209E-02
 
     Magnetic moment per site:
     atom:    1    charge:    3.1250    magn:   -0.0002    constr:    0.0000
     atom:    2    charge:    1.9463    magn:    0.0000    constr:    0.0000
     atom:    3    charge:    3.1198    magn:    0.0000    constr:    0.0000
     atom:    4    charge:    1.9515    magn:   -0.0001    constr:    0.0000
     atom:    5    charge:    3.1166    magn:    0.0000    constr:    0.0000
     atom:    6    charge:    1.9488    magn:   -0.0001    constr:    0.0000
     atom:    7    charge:    3.1157    magn:    0.0001    constr:    0.0000
     atom:    8    charge:    1.9463    magn:   -0.0001    constr:    0.0000
     atom:    9    charge:    3.1250    magn:   -0.0002    constr:    0.0000
     atom:   10    charge:    1.9463    magn:    0.0000    constr:    0.0000
     atom:   11    charge:    3.1197    magn:    0.0000    constr:    0.0000
     atom:   12    charge:    1.9515    magn:   -0.0001    constr:    0.0000
     atom:   13    charge:    3.1158    magn:    0.0000    constr:    0.0000
     atom:   14    charge:    1.9598    magn:   -0.0001    constr:    0.0000
     atom:   15    charge:    3.1188    magn:    0.0001    constr:    0.0000
     atom:   16    charge:    1.9457    magn:   -0.0001    constr:    0.0000
     atom:   17    charge:    1.9195    magn:    0.0004    constr:    0.0000
     atom:   18    charge:    3.1239    magn:   -0.0001    constr:    0.0000
     atom:   19    charge:    1.9420    magn:   -0.0000    constr:    0.0000
     atom:   20    charge:    1.9482    magn:    0.0000    constr:    0.0000
     atom:   21    charge:    1.9482    magn:    0.0000    constr:    0.0000
     atom:   22    charge:    3.1196    magn:    0.0000    constr:    0.0000
     atom:   23    charge:    1.9577    magn:   -0.0001    constr:    0.0000
     atom:   24    charge:    1.9390    magn:   -0.0001    constr:    0.0000
     atom:   25    charge:    1.9516    magn:   -0.0001    constr:    0.0000
     atom:   26    charge:    3.1145    magn:    0.0001    constr:    0.0000
     atom:   27    charge:    1.9409    magn:   -0.0001    constr:    0.0000
     atom:   28    charge:    1.9528    magn:   -0.0001    constr:    0.0000
     atom:   29    charge:    1.9487    magn:   -0.0001    constr:    0.0000
     atom:   30    charge:    3.1166    magn:    0.0000    constr:    0.0000
     atom:   31    charge:    1.9458    magn:   -0.0000    constr:    0.0000
     atom:   32    charge:    1.9450    magn:   -0.0001    constr:    0.0000
     atom:   33    charge:    1.9195    magn:    0.0004    constr:    0.0000
     atom:   34    charge:    3.1239    magn:   -0.0001    constr:    0.0000
     atom:   35    charge:    1.9420    magn:   -0.0000    constr:    0.0000
     atom:   36    charge:    1.9482    magn:    0.0000    constr:    0.0000
     atom:   37    charge:    1.9482    magn:    0.0000    constr:    0.0000
     atom:   38    charge:    3.1196    magn:    0.0000    constr:    0.0000
     atom:   39    charge:    1.9561    magn:   -0.0001    constr:    0.0000
     atom:   40    charge:    1.9394    magn:   -0.0001    constr:    0.0000
     atom:   41    charge:    1.9516    magn:   -0.0001    constr:    0.0000
     atom:   42    charge:    3.1141    magn:    0.0001    constr:    0.0000
     atom:   43    charge:    1.9424    magn:   -0.0001    constr:    0.0000
     atom:   44    charge:    1.9529    magn:   -0.0001    constr:    0.0000
     atom:   45    charge:    1.9480    magn:   -0.0001    constr:    0.0000
     atom:   46    charge:    3.1166    magn:    0.0000    constr:    0.0000
     atom:   47    charge:    1.9441    magn:   -0.0000    constr:    0.0000
     atom:   48    charge:    1.9457    magn:   -0.0001    constr:    0.0000
     atom:   49    charge:    0.6581    magn:   -0.0001    constr:    0.0000
     atom:   50    charge:    1.9589    magn:   -0.0001    constr:    0.0000
     atom:   51    charge:    0.4025    magn:    0.0000    constr:    0.0000
     atom:   52    charge:    0.3995    magn:    0.0000    constr:    0.0000
     atom:   53    charge:    0.4035    magn:    0.0000    constr:    0.0000
     atom:   54    charge:    0.4042    magn:    0.0000    constr:    0.0000

     total cpu time spent up to now is     1007.8 secs

     total energy              =   -3021.42018980 Ry
     Harris-Foulkes estimate   =   -3021.42021859 Ry
     estimated scf accuracy    <       0.00067321 Ry

     total magnetization       =     0.00 Bohr mag/cell
     absolute magnetization    =     0.01 Bohr mag/cell

     iteration #  2     ecut=    40.42 Ry     beta=0.10
     Davidson diagonalization with overlap
     ethr =  1.69E-07,  avg # of iterations =  1.0

     negative rho (up, down):  1.209E-02 1.209E-02
 
     Magnetic moment per site:
     atom:    1    charge:    3.1250    magn:   -0.0001    constr:    0.0000
     atom:    2    charge:    1.9463    magn:    0.0000    constr:    0.0000
     atom:    3    charge:    3.1198    magn:    0.0000    constr:    0.0000
     atom:    4    charge:    1.9515    magn:   -0.0000    constr:    0.0000
     atom:    5    charge:    3.1166    magn:    0.0000    constr:    0.0000
     atom:    6    charge:    1.9488    magn:   -0.0001    constr:    0.0000
     atom:    7    charge:    3.1157    magn:    0.0000    constr:    0.0000
     atom:    8    charge:    1.9463    magn:   -0.0001    constr:    0.0000
     atom:    9    charge:    3.1250    magn:   -0.0001    constr:    0.0000
     atom:   10    charge:    1.9463    magn:    0.0000    constr:    0.0000
     atom:   11    charge:    3.1197    magn:    0.0000    constr:    0.0000
     atom:   12    charge:    1.9515    magn:   -0.0000    constr:    0.0000
     atom:   13    charge:    3.1158    magn:    0.0000    constr:    0.0000
     atom:   14    charge:    1.9598    magn:   -0.0001    constr:    0.0000
     atom:   15    charge:    3.1188    magn:    0.0001    constr:    0.0000
     atom:   16    charge:    1.9458    magn:   -0.0001    constr:    0.0000
     atom:   17    charge:    1.9195    magn:    0.0004    constr:    0.0000
     atom:   18    charge:    3.1239    magn:   -0.0001    constr:    0.0000
     atom:   19    charge:    1.9420    magn:   -0.0000    constr:    0.0000
     atom:   20    charge:    1.9482    magn:    0.0000    constr:    0.0000
     atom:   21    charge:    1.9482    magn:    0.0000    constr:    0.0000
     atom:   22    charge:    3.1196    magn:    0.0000    constr:    0.0000
     atom:   23    charge:    1.9577    magn:   -0.0001    constr:    0.0000
     atom:   24    charge:    1.9390    magn:   -0.0000    constr:    0.0000
     atom:   25    charge:    1.9516    magn:   -0.0000    constr:    0.0000
     atom:   26    charge:    3.1145    magn:    0.0000    constr:    0.0000
     atom:   27    charge:    1.9410    magn:   -0.0001    constr:    0.0000
     atom:   28    charge:    1.9528    magn:   -0.0001    constr:    0.0000
     atom:   29    charge:    1.9487    magn:   -0.0001    constr:    0.0000
     atom:   30    charge:    3.1165    magn:    0.0000    constr:    0.0000
     atom:   31    charge:    1.9458    magn:   -0.0000    constr:    0.0000
     atom:   32    charge:    1.9449    magn:   -0.0001    constr:    0.0000
     atom:   33    charge:    1.9195    magn:    0.0004    constr:    0.0000
     atom:   34    charge:    3.1239    magn:   -0.0001    constr:    0.0000
     atom:   35    charge:    1.9420    magn:   -0.0000    constr:    0.0000
     atom:   36    charge:    1.9482    magn:    0.0000    constr:    0.0000
     atom:   37    charge:    1.9482    magn:    0.0000    constr:    0.0000
     atom:   38    charge:    3.1196    magn:    0.0000    constr:    0.0000
     atom:   39    charge:    1.9561    magn:   -0.0001    constr:    0.0000
     atom:   40    charge:    1.9394    magn:   -0.0000    constr:    0.0000
     atom:   41    charge:    1.9516    magn:   -0.0000    constr:    0.0000
     atom:   42    charge:    3.1141    magn:    0.0000    constr:    0.0000
     atom:   43    charge:    1.9424    magn:   -0.0000    constr:    0.0000
     atom:   44    charge:    1.9529    magn:   -0.0001    constr:    0.0000
     atom:   45    charge:    1.9480    magn:   -0.0001    constr:    0.0000
     atom:   46    charge:    3.1166    magn:    0.0000    constr:    0.0000
     atom:   47    charge:    1.9441    magn:   -0.0000    constr:    0.0000
     atom:   48    charge:    1.9459    magn:   -0.0001    constr:    0.0000
     atom:   49    charge:    0.6581    magn:   -0.0000    constr:    0.0000
     atom:   50    charge:    1.9589    magn:   -0.0001    constr:    0.0000
     atom:   51    charge:    0.4025    magn:    0.0000    constr:    0.0000
     atom:   52    charge:    0.3998    magn:    0.0000    constr:    0.0000
     atom:   53    charge:    0.4035    magn:    0.0000    constr:    0.0000
     atom:   54    charge:    0.4042    magn:    0.0000    constr:    0.0000

     total cpu time spent up to now is     1182.6 secs

     total energy              =   -3021.42014761 Ry
     Harris-Foulkes estimate   =   -3021.42019489 Ry
     estimated scf accuracy    <       0.00049055 Ry

     total magnetization       =     0.00 Bohr mag/cell
     absolute magnetization    =     0.01 Bohr mag/cell

     iteration #  3     ecut=    40.42 Ry     beta=0.10
     Davidson diagonalization with overlap
     ethr =  1.23E-07,  avg # of iterations =  2.0

     negative rho (up, down):  1.209E-02 1.209E-02
 
     Magnetic moment per site:
     atom:    1    charge:    3.1250    magn:   -0.0001    constr:    0.0000
     atom:    2    charge:    1.9463    magn:    0.0000    constr:    0.0000
     atom:    3    charge:    3.1198    magn:    0.0000    constr:    0.0000
     atom:    4    charge:    1.9515    magn:   -0.0000    constr:    0.0000
     atom:    5    charge:    3.1166    magn:    0.0000    constr:    0.0000
     atom:    6    charge:    1.9488    magn:   -0.0000    constr:    0.0000
     atom:    7    charge:    3.1157    magn:    0.0000    constr:    0.0000
     atom:    8    charge:    1.9464    magn:   -0.0000    constr:    0.0000
     atom:    9    charge:    3.1250    magn:   -0.0001    constr:    0.0000
     atom:   10    charge:    1.9463    magn:    0.0000    constr:    0.0000
     atom:   11    charge:    3.1197    magn:    0.0000    constr:    0.0000
     atom:   12    charge:    1.9515    magn:   -0.0000    constr:    0.0000
     atom:   13    charge:    3.1158    magn:    0.0000    constr:    0.0000
     atom:   14    charge:    1.9598    magn:   -0.0001    constr:    0.0000
     atom:   15    charge:    3.1188    magn:    0.0000    constr:    0.0000
     atom:   16    charge:    1.9456    magn:   -0.0000    constr:    0.0000
     atom:   17    charge:    1.9195    magn:    0.0003    constr:    0.0000
     atom:   18    charge:    3.1239    magn:   -0.0000    constr:    0.0000
     atom:   19    charge:    1.9420    magn:   -0.0000    constr:    0.0000
     atom:   20    charge:    1.9482    magn:    0.0000    constr:    0.0000
     atom:   21    charge:    1.9482    magn:    0.0000    constr:    0.0000
     atom:   22    charge:    3.1196    magn:    0.0000    constr:    0.0000
     atom:   23    charge:    1.9577    magn:   -0.0000    constr:    0.0000
     atom:   24    charge:    1.9390    magn:   -0.0000    constr:    0.0000
     atom:   25    charge:    1.9516    magn:   -0.0000    constr:    0.0000
     atom:   26    charge:    3.1145    magn:    0.0000    constr:    0.0000
     atom:   27    charge:    1.9409    magn:   -0.0000    constr:    0.0000
     atom:   28    charge:    1.9528    magn:   -0.0000    constr:    0.0000
     atom:   29    charge:    1.9487    magn:   -0.0001    constr:    0.0000
     atom:   30    charge:    3.1168    magn:    0.0000    constr:    0.0000
     atom:   31    charge:    1.9458    magn:   -0.0000    constr:    0.0000
     atom:   32    charge:    1.9452    magn:   -0.0000    constr:    0.0000
     atom:   33    charge:    1.9195    magn:    0.0003    constr:    0.0000
     atom:   34    charge:    3.1239    magn:   -0.0000    constr:    0.0000
     atom:   35    charge:    1.9420    magn:   -0.0000    constr:    0.0000
     atom:   36    charge:    1.9482    magn:    0.0000    constr:    0.0000
     atom:   37    charge:    1.9482    magn:    0.0000    constr:    0.0000
     atom:   38    charge:    3.1196    magn:    0.0000    constr:    0.0000
     atom:   39    charge:    1.9561    magn:   -0.0000    constr:    0.0000
     atom:   40    charge:    1.9394    magn:   -0.0000    constr:    0.0000
     atom:   41    charge:    1.9516    magn:   -0.0000    constr:    0.0000
     atom:   42    charge:    3.1141    magn:    0.0000    constr:    0.0000
     atom:   43    charge:    1.9424    magn:   -0.0000    constr:    0.0000
     atom:   44    charge:    1.9529    magn:   -0.0000    constr:    0.0000
     atom:   45    charge:    1.9480    magn:   -0.0000    constr:    0.0000
     atom:   46    charge:    3.1164    magn:    0.0000    constr:    0.0000
     atom:   47    charge:    1.9442    magn:   -0.0000    constr:    0.0000
     atom:   48    charge:    1.9456    magn:   -0.0000    constr:    0.0000
     atom:   49    charge:    0.6580    magn:   -0.0000    constr:    0.0000
     atom:   50    charge:    1.9589    magn:   -0.0000    constr:    0.0000
     atom:   51    charge:    0.4025    magn:    0.0000    constr:    0.0000
     atom:   52    charge:    0.4000    magn:    0.0000    constr:    0.0000
     atom:   53    charge:    0.4035    magn:    0.0000    constr:    0.0000
     atom:   54    charge:    0.4042    magn:    0.0000    constr:    0.0000

     total cpu time spent up to now is     1373.0 secs

     total energy              =   -3021.42017116 Ry
     Harris-Foulkes estimate   =   -3021.42016961 Ry
     estimated scf accuracy    <       0.00015090 Ry

     total magnetization       =     0.00 Bohr mag/cell
     absolute magnetization    =     0.00 Bohr mag/cell

     iteration #  4     ecut=    40.42 Ry     beta=0.10
     Davidson diagonalization with overlap
     ethr =  3.79E-08,  avg # of iterations =  2.5

     negative rho (up, down):  1.209E-02 1.209E-02
 
     Magnetic moment per site:
     atom:    1    charge:    3.1250    magn:   -0.0001    constr:    0.0000
     atom:    2    charge:    1.9463    magn:    0.0000    constr:    0.0000
     atom:    3    charge:    3.1198    magn:    0.0000    constr:    0.0000
     atom:    4    charge:    1.9515    magn:   -0.0000    constr:    0.0000
     atom:    5    charge:    3.1166    magn:    0.0000    constr:    0.0000
     atom:    6    charge:    1.9488    magn:   -0.0000    constr:    0.0000
     atom:    7    charge:    3.1157    magn:    0.0000    constr:    0.0000
     atom:    8    charge:    1.9464    magn:   -0.0000    constr:    0.0000
     atom:    9    charge:    3.1250    magn:   -0.0001    constr:    0.0000
     atom:   10    charge:    1.9463    magn:    0.0000    constr:    0.0000
     atom:   11    charge:    3.1197    magn:    0.0000    constr:    0.0000
     atom:   12    charge:    1.9515    magn:   -0.0000    constr:    0.0000
     atom:   13    charge:    3.1158    magn:    0.0000    constr:    0.0000
     atom:   14    charge:    1.9598    magn:   -0.0000    constr:    0.0000
     atom:   15    charge:    3.1188    magn:    0.0000    constr:    0.0000
     atom:   16    charge:    1.9456    magn:   -0.0000    constr:    0.0000
     atom:   17    charge:    1.9195    magn:    0.0002    constr:    0.0000
     atom:   18    charge:    3.1239    magn:   -0.0000    constr:    0.0000
     atom:   19    charge:    1.9420    magn:   -0.0000    constr:    0.0000
     atom:   20    charge:    1.9482    magn:    0.0000    constr:    0.0000
     atom:   21    charge:    1.9482    magn:    0.0000    constr:    0.0000
     atom:   22    charge:    3.1196    magn:    0.0000    constr:    0.0000
     atom:   23    charge:    1.9577    magn:   -0.0000    constr:    0.0000
     atom:   24    charge:    1.9390    magn:   -0.0000    constr:    0.0000
     atom:   25    charge:    1.9516    magn:   -0.0000    constr:    0.0000
     atom:   26    charge:    3.1145    magn:    0.0000    constr:    0.0000
     atom:   27    charge:    1.9409    magn:   -0.0000    constr:    0.0000
     atom:   28    charge:    1.9528    magn:   -0.0000    constr:    0.0000
     atom:   29    charge:    1.9487    magn:   -0.0000    constr:    0.0000
     atom:   30    charge:    3.1167    magn:    0.0000    constr:    0.0000
     atom:   31    charge:    1.9458    magn:   -0.0000    constr:    0.0000
     atom:   32    charge:    1.9452    magn:   -0.0000    constr:    0.0000
     atom:   33    charge:    1.9195    magn:    0.0002    constr:    0.0000
     atom:   34    charge:    3.1239    magn:   -0.0000    constr:    0.0000
     atom:   35    charge:    1.9420    magn:   -0.0000    constr:    0.0000
     atom:   36    charge:    1.9482    magn:    0.0000    constr:    0.0000
     atom:   37    charge:    1.9482    magn:    0.0000    constr:    0.0000
     atom:   38    charge:    3.1196    magn:    0.0000    constr:    0.0000
     atom:   39    charge:    1.9561    magn:   -0.0000    constr:    0.0000
     atom:   40    charge:    1.9394    magn:   -0.0000    constr:    0.0000
     atom:   41    charge:    1.9516    magn:   -0.0000    constr:    0.0000
     atom:   42    charge:    3.1141    magn:    0.0000    constr:    0.0000
     atom:   43    charge:    1.9424    magn:   -0.0000    constr:    0.0000
     atom:   44    charge:    1.9529    magn:   -0.0000    constr:    0.0000
     atom:   45    charge:    1.9480    magn:   -0.0000    constr:    0.0000
     atom:   46    charge:    3.1165    magn:    0.0000    constr:    0.0000
     atom:   47    charge:    1.9442    magn:   -0.0000    constr:    0.0000
     atom:   48    charge:    1.9455    magn:   -0.0000    constr:    0.0000
     atom:   49    charge:    0.6580    magn:   -0.0000    constr:    0.0000
     atom:   50    charge:    1.9589    magn:   -0.0000    constr:    0.0000
     atom:   51    charge:    0.4025    magn:    0.0000    constr:    0.0000
     atom:   52    charge:    0.4001    magn:    0.0000    constr:    0.0000
     atom:   53    charge:    0.4035    magn:    0.0000    constr:    0.0000
     atom:   54    charge:    0.4042    magn:    0.0000    constr:    0.0000

     total cpu time spent up to now is     1571.9 secs

     total energy              =   -3021.42018505 Ry
     Harris-Foulkes estimate   =   -3021.42018223 Ry
     estimated scf accuracy    <       0.00001823 Ry

     total magnetization       =     0.00 Bohr mag/cell
     absolute magnetization    =     0.00 Bohr mag/cell

     iteration #  5     ecut=    40.42 Ry     beta=0.10
     Davidson diagonalization with overlap
     ethr =  4.58E-09,  avg # of iterations =  2.0

     negative rho (up, down):  1.209E-02 1.209E-02
 
     Magnetic moment per site:
     atom:    1    charge:    3.1250    magn:   -0.0001    constr:    0.0000
     atom:    2    charge:    1.9463    magn:    0.0000    constr:    0.0000
     atom:    3    charge:    3.1198    magn:    0.0000    constr:    0.0000
     atom:    4    charge:    1.9515    magn:   -0.0000    constr:    0.0000
     atom:    5    charge:    3.1166    magn:    0.0000    constr:    0.0000
     atom:    6    charge:    1.9488    magn:   -0.0000    constr:    0.0000
     atom:    7    charge:    3.1157    magn:    0.0000    constr:    0.0000
     atom:    8    charge:    1.9463    magn:   -0.0000    constr:    0.0000
     atom:    9    charge:    3.1250    magn:   -0.0001    constr:    0.0000
     atom:   10    charge:    1.9463    magn:    0.0000    constr:    0.0000
     atom:   11    charge:    3.1197    magn:    0.0000    constr:    0.0000
     atom:   12    charge:    1.9515    magn:   -0.0000    constr:    0.0000
     atom:   13    charge:    3.1158    magn:    0.0000    constr:    0.0000
     atom:   14    charge:    1.9598    magn:   -0.0000    constr:    0.0000
     atom:   15    charge:    3.1188    magn:    0.0000    constr:    0.0000
     atom:   16    charge:    1.9456    magn:   -0.0000    constr:    0.0000
     atom:   17    charge:    1.9195    magn:    0.0002    constr:    0.0000
     atom:   18    charge:    3.1239    magn:   -0.0000    constr:    0.0000
     atom:   19    charge:    1.9420    magn:   -0.0000    constr:    0.0000
     atom:   20    charge:    1.9482    magn:    0.0000    constr:    0.0000
     atom:   21    charge:    1.9482    magn:    0.0000    constr:    0.0000
     atom:   22    charge:    3.1196    magn:    0.0000    constr:    0.0000
     atom:   23    charge:    1.9577    magn:   -0.0000    constr:    0.0000
     atom:   24    charge:    1.9390    magn:   -0.0000    constr:    0.0000
     atom:   25    charge:    1.9516    magn:   -0.0000    constr:    0.0000
     atom:   26    charge:    3.1145    magn:    0.0000    constr:    0.0000
     atom:   27    charge:    1.9409    magn:   -0.0000    constr:    0.0000
     atom:   28    charge:    1.9528    magn:   -0.0000    constr:    0.0000
     atom:   29    charge:    1.9487    magn:   -0.0000    constr:    0.0000
     atom:   30    charge:    3.1167    magn:    0.0000    constr:    0.0000
     atom:   31    charge:    1.9458    magn:   -0.0000    constr:    0.0000
     atom:   32    charge:    1.9452    magn:   -0.0000    constr:    0.0000
     atom:   33    charge:    1.9195    magn:    0.0002    constr:    0.0000
     atom:   34    charge:    3.1239    magn:   -0.0000    constr:    0.0000
     atom:   35    charge:    1.9420    magn:   -0.0000    constr:    0.0000
     atom:   36    charge:    1.9482    magn:    0.0000    constr:    0.0000
     atom:   37    charge:    1.9482    magn:    0.0000    constr:    0.0000
     atom:   38    charge:    3.1196    magn:    0.0000    constr:    0.0000
     atom:   39    charge:    1.9561    magn:   -0.0000    constr:    0.0000
     atom:   40    charge:    1.9394    magn:   -0.0000    constr:    0.0000
     atom:   41    charge:    1.9516    magn:   -0.0000    constr:    0.0000
     atom:   42    charge:    3.1141    magn:    0.0000    constr:    0.0000
     atom:   43    charge:    1.9424    magn:   -0.0000    constr:    0.0000
     atom:   44    charge:    1.9529    magn:   -0.0000    constr:    0.0000
     atom:   45    charge:    1.9480    magn:   -0.0000    constr:    0.0000
     atom:   46    charge:    3.1165    magn:    0.0000    constr:    0.0000
     atom:   47    charge:    1.9441    magn:   -0.0000    constr:    0.0000
     atom:   48    charge:    1.9455    magn:   -0.0000    constr:    0.0000
     atom:   49    charge:    0.6581    magn:   -0.0000    constr:    0.0000
     atom:   50    charge:    1.9589    magn:   -0.0000    constr:    0.0000
     atom:   51    charge:    0.4025    magn:    0.0000    constr:    0.0000
     atom:   52    charge:    0.4001    magn:    0.0000    constr:    0.0000
     atom:   53    charge:    0.4036    magn:    0.0000    constr:    0.0000
     atom:   54    charge:    0.4041    magn:    0.0000    constr:    0.0000

     total cpu time spent up to now is     1760.7 secs

     total energy              =   -3021.42018409 Ry
     Harris-Foulkes estimate   =   -3021.42018554 Ry
     estimated scf accuracy    <       0.00000775 Ry

     total magnetization       =     0.00 Bohr mag/cell
     absolute magnetization    =     0.00 Bohr mag/cell

     iteration #  6     ecut=    40.42 Ry     beta=0.10
     Davidson diagonalization with overlap
     ethr =  1.95E-09,  avg # of iterations =  2.1

     negative rho (up, down):  1.209E-02 1.209E-02
 
     Magnetic moment per site:
     atom:    1    charge:    3.1250    magn:   -0.0001    constr:    0.0000
     atom:    2    charge:    1.9463    magn:    0.0000    constr:    0.0000
     atom:    3    charge:    3.1198    magn:    0.0000    constr:    0.0000
     atom:    4    charge:    1.9515    magn:   -0.0000    constr:    0.0000
     atom:    5    charge:    3.1166    magn:    0.0000    constr:    0.0000
     atom:    6    charge:    1.9488    magn:   -0.0000    constr:    0.0000
     atom:    7    charge:    3.1157    magn:    0.0000    constr:    0.0000
     atom:    8    charge:    1.9463    magn:   -0.0000    constr:    0.0000
     atom:    9    charge:    3.1250    magn:   -0.0001    constr:    0.0000
     atom:   10    charge:    1.9463    magn:    0.0000    constr:    0.0000
     atom:   11    charge:    3.1197    magn:    0.0000    constr:    0.0000
     atom:   12    charge:    1.9515    magn:   -0.0000    constr:    0.0000
     atom:   13    charge:    3.1158    magn:    0.0000    constr:    0.0000
     atom:   14    charge:    1.9598    magn:   -0.0000    constr:    0.0000
     atom:   15    charge:    3.1188    magn:    0.0000    constr:    0.0000
     atom:   16    charge:    1.9457    magn:   -0.0000    constr:    0.0000
     atom:   17    charge:    1.9195    magn:    0.0001    constr:    0.0000
     atom:   18    charge:    3.1239    magn:   -0.0000    constr:    0.0000
     atom:   19    charge:    1.9420    magn:   -0.0000    constr:    0.0000
     atom:   20    charge:    1.9482    magn:    0.0000    constr:    0.0000
     atom:   21    charge:    1.9482    magn:    0.0000    constr:    0.0000
     atom:   22    charge:    3.1196    magn:    0.0000    constr:    0.0000
     atom:   23    charge:    1.9577    magn:   -0.0000    constr:    0.0000
     atom:   24    charge:    1.9390    magn:   -0.0000    constr:    0.0000
     atom:   25    charge:    1.9516    magn:   -0.0000    constr:    0.0000
     atom:   26    charge:    3.1145    magn:    0.0000    constr:    0.0000
     atom:   27    charge:    1.9409    magn:   -0.0000    constr:    0.0000
     atom:   28    charge:    1.9528    magn:   -0.0000    constr:    0.0000
     atom:   29    charge:    1.9487    magn:   -0.0000    constr:    0.0000
     atom:   30    charge:    3.1167    magn:    0.0000    constr:    0.0000
     atom:   31    charge:    1.9458    magn:   -0.0000    constr:    0.0000
     atom:   32    charge:    1.9451    magn:   -0.0000    constr:    0.0000
     atom:   33    charge:    1.9195    magn:    0.0001    constr:    0.0000
     atom:   34    charge:    3.1239    magn:   -0.0000    constr:    0.0000
     atom:   35    charge:    1.9420    magn:   -0.0000    constr:    0.0000
     atom:   36    charge:    1.9482    magn:    0.0000    constr:    0.0000
     atom:   37    charge:    1.9482    magn:    0.0000    constr:    0.0000
     atom:   38    charge:    3.1196    magn:    0.0000    constr:    0.0000
     atom:   39    charge:    1.9561    magn:   -0.0000    constr:    0.0000
     atom:   40    charge:    1.9394    magn:   -0.0000    constr:    0.0000
     atom:   41    charge:    1.9516    magn:   -0.0000    constr:    0.0000
     atom:   42    charge:    3.1141    magn:    0.0000    constr:    0.0000
     atom:   43    charge:    1.9424    magn:   -0.0000    constr:    0.0000
     atom:   44    charge:    1.9529    magn:   -0.0000    constr:    0.0000
     atom:   45    charge:    1.9480    magn:   -0.0000    constr:    0.0000
     atom:   46    charge:    3.1165    magn:    0.0000    constr:    0.0000
     atom:   47    charge:    1.9442    magn:   -0.0000    constr:    0.0000
     atom:   48    charge:    1.9456    magn:   -0.0000    constr:    0.0000
     atom:   49    charge:    0.6581    magn:   -0.0000    constr:    0.0000
     atom:   50    charge:    1.9589    magn:   -0.0000    constr:    0.0000
     atom:   51    charge:    0.4025    magn:    0.0000    constr:    0.0000
     atom:   52    charge:    0.4001    magn:    0.0000    constr:    0.0000
     atom:   53    charge:    0.4036    magn:    0.0000    constr:    0.0000
     atom:   54    charge:    0.4041    magn:    0.0000    constr:    0.0000

     total cpu time spent up to now is     1954.7 secs

     total energy              =   -3021.42018461 Ry
     Harris-Foulkes estimate   =   -3021.42018470 Ry
     estimated scf accuracy    <       0.00000206 Ry

     total magnetization       =     0.00 Bohr mag/cell
     absolute magnetization    =     0.00 Bohr mag/cell

     iteration #  7     ecut=    40.42 Ry     beta=0.10
     Davidson diagonalization with overlap
     ethr =  5.18E-10,  avg # of iterations =  3.0

     negative rho (up, down):  1.209E-02 1.209E-02
 
     Magnetic moment per site:
     atom:    1    charge:    3.1250    magn:   -0.0000    constr:    0.0000
     atom:    2    charge:    1.9463    magn:    0.0000    constr:    0.0000
     atom:    3    charge:    3.1198    magn:    0.0000    constr:    0.0000
     atom:    4    charge:    1.9515    magn:   -0.0000    constr:    0.0000
     atom:    5    charge:    3.1166    magn:    0.0000    constr:    0.0000
     atom:    6    charge:    1.9488    magn:   -0.0000    constr:    0.0000
     atom:    7    charge:    3.1157    magn:    0.0000    constr:    0.0000
     atom:    8    charge:    1.9464    magn:   -0.0000    constr:    0.0000
     atom:    9    charge:    3.1250    magn:   -0.0000    constr:    0.0000
     atom:   10    charge:    1.9463    magn:    0.0000    constr:    0.0000
     atom:   11    charge:    3.1197    magn:    0.0000    constr:    0.0000
     atom:   12    charge:    1.9515    magn:   -0.0000    constr:    0.0000
     atom:   13    charge:    3.1158    magn:    0.0000    constr:    0.0000
     atom:   14    charge:    1.9598    magn:   -0.0000    constr:    0.0000
     atom:   15    charge:    3.1188    magn:    0.0000    constr:    0.0000
     atom:   16    charge:    1.9456    magn:   -0.0000    constr:    0.0000
     atom:   17    charge:    1.9196    magn:    0.0001    constr:    0.0000
     atom:   18    charge:    3.1239    magn:   -0.0000    constr:    0.0000
     atom:   19    charge:    1.9420    magn:   -0.0000    constr:    0.0000
     atom:   20    charge:    1.9482    magn:    0.0000    constr:    0.0000
     atom:   21    charge:    1.9482    magn:    0.0000    constr:    0.0000
     atom:   22    charge:    3.1196    magn:    0.0000    constr:    0.0000
     atom:   23    charge:    1.9577    magn:   -0.0000    constr:    0.0000
     atom:   24    charge:    1.9390    magn:   -0.0000    constr:    0.0000
     atom:   25    charge:    1.9516    magn:   -0.0000    constr:    0.0000
     atom:   26    charge:    3.1145    magn:    0.0000    constr:    0.0000
     atom:   27    charge:    1.9409    magn:   -0.0000    constr:    0.0000
     atom:   28    charge:    1.9528    magn:   -0.0000    constr:    0.0000
     atom:   29    charge:    1.9487    magn:   -0.0000    constr:    0.0000
     atom:   30    charge:    3.1167    magn:    0.0000    constr:    0.0000
     atom:   31    charge:    1.9458    magn:   -0.0000    constr:    0.0000
     atom:   32    charge:    1.9451    magn:   -0.0000    constr:    0.0000
     atom:   33    charge:    1.9195    magn:    0.0001    constr:    0.0000
     atom:   34    charge:    3.1239    magn:   -0.0000    constr:    0.0000
     atom:   35    charge:    1.9420    magn:   -0.0000    constr:    0.0000
     atom:   36    charge:    1.9482    magn:    0.0000    constr:    0.0000
     atom:   37    charge:    1.9482    magn:    0.0000    constr:    0.0000
     atom:   38    charge:    3.1196    magn:    0.0000    constr:    0.0000
     atom:   39    charge:    1.9561    magn:   -0.0000    constr:    0.0000
     atom:   40    charge:    1.9394    magn:   -0.0000    constr:    0.0000
     atom:   41    charge:    1.9516    magn:   -0.0000    constr:    0.0000
     atom:   42    charge:    3.1141    magn:    0.0000    constr:    0.0000
     atom:   43    charge:    1.9424    magn:   -0.0000    constr:    0.0000
     atom:   44    charge:    1.9529    magn:   -0.0000    constr:    0.0000
     atom:   45    charge:    1.9480    magn:   -0.0000    constr:    0.0000
     atom:   46    charge:    3.1165    magn:    0.0000    constr:    0.0000
     atom:   47    charge:    1.9441    magn:   -0.0000    constr:    0.0000
     atom:   48    charge:    1.9456    magn:   -0.0000    constr:    0.0000
     atom:   49    charge:    0.6581    magn:   -0.0000    constr:    0.0000
     atom:   50    charge:    1.9589    magn:   -0.0000    constr:    0.0000
     atom:   51    charge:    0.4025    magn:    0.0000    constr:    0.0000
     atom:   52    charge:    0.4001    magn:    0.0000    constr:    0.0000
     atom:   53    charge:    0.4036    magn:    0.0000    constr:    0.0000
     atom:   54    charge:    0.4041    magn:    0.0000    constr:    0.0000

     total cpu time spent up to now is     2163.6 secs

     End of self-consistent calculation

 ------ SPIN UP ------------


          k = 0.0000 0.0000 0.0000 ( 34665 PWs)   bands (ev):

   -57.6988 -57.6638 -57.3177 -57.2814 -57.2325 -57.1097 -57.0733 -57.0724
   -57.0507 -57.0376 -56.9899 -56.9544 -56.7304 -56.6930 -56.1493 -56.1140
   -34.1349 -33.9810 -33.9525 -33.8998 -33.8699 -33.8055 -33.7450 -33.6533
   -33.6183 -33.6052 -33.5677 -33.5406 -33.5185 -33.5076 -33.4896 -33.4855
   -33.4647 -33.4543 -33.4310 -33.3988 -33.3241 -33.2920 -33.2718 -33.2625
   -33.2548 -33.2541 -33.2431 -33.2430 -33.2371 -33.2295 -33.2292 -33.2125
   -33.1802 -33.1799 -33.1747 -33.1407 -33.1181 -32.9965 -32.9783 -32.9574
   -32.9080 -32.8052 -32.5671 -32.5016 -32.4756 -32.3713 -32.2797 -32.1713
   -20.2979 -18.0125 -17.8414 -17.5570 -17.4618 -17.3726 -17.2518 -17.0776
   -17.0664 -16.9744 -16.9387 -16.8842 -16.7839 -16.7776 -16.7292 -16.7074
   -16.7033 -16.6625 -16.6112 -16.6046 -16.5360 -16.4155 -16.4027 -16.3981
   -16.3214 -16.2677 -16.1946 -16.1674 -16.1499 -15.9794 -15.9296 -14.7339
   -14.6502 -11.4638  -7.2387  -5.4721  -5.3953  -5.3137  -5.2051  -5.2029
    -5.1456  -5.1265  -4.8391  -4.8171  -4.4720  -4.4428  -4.3593  -4.3554
    -4.3217  -4.2326  -4.0899  -4.0607  -4.0555  -4.0178  -3.9993  -3.9911
    -3.9607  -3.9520  -3.9510  -3.8400  -3.7884  -3.7655  -3.7366  -3.7188
    -3.6324  -3.6169  -3.5871  -3.5777  -3.5198  -3.5078  -3.4086  -3.3938
    -3.3733  -3.2725  -3.2366  -3.1897  -3.0135  -2.9356  -2.8788  -2.8336
    -2.6949  -2.6072  -2.5899  -2.5801  -2.5751  -2.5686  -2.4318  -2.4143
    -2.3360  -2.2691  -2.2472  -2.2047  -2.2003  -2.1662  -2.1385  -2.0929
    -2.0480  -2.0285  -2.0201  -1.8875  -1.8656  -1.7613  -1.7359  -1.6242
    -1.5430  -1.5412  -1.4901  -1.4809  -1.4627  -1.4234  -1.3230  -1.3094
    -1.3024  -1.2798  -1.2427  -1.1355  -1.0866  -1.0814  -1.0674  -1.0197
    -0.9543  -0.9155  -0.8204  -0.7645  -0.6104  -0.5874  -0.5693  -0.4791
    -0.3763  -0.2422  -0.0848  -0.0264   0.1313   0.2481   0.2618   1.6427
     1.6751   1.9857   2.0021   2.0655   2.0954   2.2050   2.2440   2.2872
     2.4301   2.4973   2.5260   2.5308   2.5421   2.6312   2.6491   2.6573
     2.7154   2.7997   2.8272   2.8391   2.9111   3.0000   3.0334   3.0994
     3.1053   3.1142   3.1612   3.2022   3.2083   3.2267   3.2400   3.2516
     3.2607   3.2890   3.3971   3.4317   3.4568   3.4665   3.5285   3.5858
     3.6534   3.6950   3.8080   3.9813   4.0164   4.0920   4.1801   4.3206
     4.3388   4.3919   4.5862   4.5995   4.8106   4.8389   5.0872   5.1670
     5.2459   5.3307   5.4789   5.5176   5.5278   5.5933   5.6781   5.7120
     5.8000   5.8653   5.8767   5.8866   5.9548   6.0391   6.0481   6.0724
     6.1446   6.2293   6.2435   6.2973   6.3783   6.5821   6.6364   6.7561
     6.8410   7.0093   7.0395   7.1619   7.3025   7.5787   7.9093   8.2532
     8.3334   8.6771   8.7946   8.8723   8.9390   9.0081   9.1763   9.2568
     9.3522   9.3812   9.5306

          k = 0.0000 0.0280 0.0000 ( 34717 PWs)   bands (ev):

   -57.6964 -57.6662 -57.3153 -57.2838 -57.2321 -57.1075 -57.0754 -57.0703
   -57.0512 -57.0400 -56.9876 -56.9568 -56.7280 -56.6954 -56.1470 -56.1164
   -34.1095 -33.9790 -33.9543 -33.8936 -33.8440 -33.8120 -33.7720 -33.6306
   -33.6115 -33.5802 -33.5423 -33.5376 -33.5205 -33.5006 -33.4925 -33.4841
   -33.4715 -33.4618 -33.4290 -33.3919 -33.3180 -33.2902 -33.2855 -33.2640
   -33.2591 -33.2524 -33.2502 -33.2396 -33.2379 -33.2361 -33.2358 -33.2175
   -33.2025 -33.1850 -33.1770 -33.1447 -33.1414 -32.9926 -32.9770 -32.9588
   -32.9131 -32.8332 -32.5415 -32.4999 -32.4774 -32.3652 -32.2859 -32.1988
   -20.2978 -17.9507 -17.7837 -17.5040 -17.4096 -17.3290 -17.2251 -17.0914
   -17.0361 -16.9983 -16.9929 -16.8859 -16.8195 -16.7614 -16.7071 -16.6894
   -16.6758 -16.6651 -16.6565 -16.6419 -16.5950 -16.4393 -16.3841 -16.3682
   -16.3480 -16.2973 -16.2116 -16.1739 -16.1537 -16.0102 -15.9666 -14.7439
   -14.6736 -11.4634  -7.2383  -5.4366  -5.3143  -5.2525  -5.2073  -5.1304
    -5.0684  -5.0472  -4.7636  -4.7030  -4.4355  -4.4003  -4.3940  -4.3119
    -4.3012  -4.1600  -4.1239  -4.1139  -4.0916  -4.0706  -4.0324  -4.0304
    -3.9658  -3.9613  -3.9499  -3.8914  -3.8531  -3.8466  -3.8378  -3.7663
    -3.7216  -3.7064  -3.6658  -3.6159  -3.5754  -3.5569  -3.4303  -3.3580
    -3.3137  -3.2354  -3.2044  -3.1040  -2.9344  -2.8711  -2.7462  -2.7247
    -2.6138  -2.6006  -2.5252  -2.5098  -2.4780  -2.4403  -2.4121  -2.4079
    -2.3866  -2.3618  -2.2882  -2.2767  -2.1680  -2.1424  -2.1363  -2.0943
    -2.0220  -1.9977  -1.9538  -1.8773  -1.8108  -1.7666  -1.7070  -1.6821
    -1.6428  -1.6255  -1.5638  -1.5257  -1.4817  -1.4379  -1.4355  -1.3961
    -1.3545  -1.2713  -1.2182  -1.2138  -1.1589  -1.0898  -1.0704  -1.0221
    -1.0089  -0.9044  -0.8676  -0.7907  -0.7612  -0.7065  -0.6081  -0.5910
    -0.3946  -0.2703  -0.0916  -0.0806   0.1462   0.2017   0.2284   1.7290
     1.7749   1.9859   2.0651   2.1306   2.1516   2.2186   2.2742   2.3130
     2.4245   2.4613   2.4991   2.5355   2.5860   2.6031   2.6304   2.6917
     2.7328   2.7706   2.7971   2.9124   2.9227   2.9514   2.9762   3.0101
     3.1112   3.1168   3.1347   3.1750   3.1925   3.2055   3.2583   3.3043
     3.3355   3.3709   3.4071   3.4735   3.5068   3.5519   3.5619   3.6490
     3.6649   3.6858   3.7716   3.9598   4.0343   4.1144   4.1912   4.2864
     4.3233   4.3968   4.5410   4.6893   4.8643   4.9254   5.0910   5.2586
     5.3041   5.3352   5.5374   5.5675   5.6038   5.6248   5.6859   5.7205
     5.7844   5.7926   5.8517   5.8780   5.8991   5.9478   6.0693   6.1228
     6.1495   6.1573   6.1758   6.2071   6.2753   6.5587   6.6030   6.6951
     6.8463   6.9491   6.9813   7.0831   7.2312   7.5830   7.9194   8.0126
     8.0603   8.4561   8.5648   8.8406   8.9094   8.9978   9.0885   9.1340
     9.2723   9.4351   9.4966

          k = 0.0000 0.0560 0.0000 ( 34721 PWs)   bands (ev):

   -57.6901 -57.6726 -57.3087 -57.2904 -57.2313 -57.1014 -57.0815 -57.0639
   -57.0520 -57.0464 -56.9811 -56.9633 -56.7214 -56.7021 -56.1405 -56.1229
   -34.0397 -33.9737 -33.9594 -33.8765 -33.8450 -33.8294 -33.7730 -33.5959
   -33.5728 -33.5718 -33.5348 -33.5273 -33.5063 -33.5040 -33.4767 -33.4722
   -33.4562 -33.4261 -33.4187 -33.3724 -33.3160 -33.3129 -33.3128 -33.3015
   -33.2859 -33.2762 -33.2677 -33.2637 -33.2533 -33.2462 -33.2341 -33.2320
   -33.2100 -33.1981 -33.1705 -33.1649 -33.1262 -32.9876 -32.9733 -32.9621
   -32.9260 -32.9029 -32.4951 -32.4822 -32.4707 -32.3487 -32.3028 -32.2729
   -20.2975 -17.7796 -17.6251 -17.3726 -17.2759 -17.2601 -17.2189 -17.1669
   -17.1362 -16.9625 -16.9532 -16.9187 -16.8737 -16.8196 -16.7883 -16.7256
   -16.7160 -16.6839 -16.6251 -16.5969 -16.5398 -16.5047 -16.4228 -16.3780
   -16.3624 -16.3019 -16.2407 -16.1950 -16.1572 -16.1107 -16.0395 -14.7621
   -14.7242 -11.4626  -7.2374  -5.4029  -5.2182  -5.0764  -5.0379  -4.9242
    -4.8584  -4.8243  -4.5618  -4.5056  -4.4730  -4.4176  -4.4095  -4.3665
    -4.3314  -4.2599  -4.2349  -4.2119  -4.1962  -4.1866  -4.1561  -4.0754
    -4.0576  -4.0058  -3.9873  -3.9687  -3.9306  -3.8912  -3.8565  -3.8178
    -3.7971  -3.7312  -3.6357  -3.5858  -3.4336  -3.4271  -3.3378  -3.2681
    -3.2388  -3.2127  -3.1927  -3.0825  -2.8937  -2.8436  -2.8374  -2.7986
    -2.7219  -2.6684  -2.5479  -2.4733  -2.4439  -2.3223  -2.3160  -2.3112
    -2.3035  -2.2492  -2.2071  -2.1793  -2.1480  -2.1175  -2.0318  -2.0102
    -1.9610  -1.9475  -1.9173  -1.9051  -1.8836  -1.8493  -1.8166  -1.7829
    -1.7450  -1.6941  -1.6252  -1.5421  -1.5273  -1.5098  -1.4559  -1.4200
    -1.3803  -1.3646  -1.3504  -1.2904  -1.2389  -1.2172  -1.1561  -1.1030
    -1.0829  -1.0238  -0.9236  -0.8911  -0.8507  -0.7851  -0.7632  -0.6602
    -0.5870  -0.4633  -0.2421   0.0910   0.1433   0.1784   0.1851   1.8646
     2.0246   2.0976   2.1091   2.2096   2.2344   2.2693   2.3664   2.3891
     2.3958   2.4112   2.4342   2.4760   2.5031   2.5378   2.6742   2.6952
     2.7338   2.7751   2.8301   2.9036   2.9153   2.9381   2.9716   2.9732
     3.0151   3.0985   3.1374   3.1569   3.2501   3.2615   3.2861   3.3292
     3.3680   3.3861   3.4405   3.5371   3.5433   3.6363   3.6769   3.7271
     3.7602   3.8230   3.8579   3.8899   3.9316   4.1303   4.1416   4.1583
     4.3271   4.3754   4.5641   4.9063   5.0156   5.0619   5.1742   5.3782
     5.3819   5.4781   5.5179   5.5494   5.6480   5.7228   5.7239   5.7332
     5.7791   5.7874   5.7991   5.8561   5.8853   5.9466   5.9777   5.9909
     6.0012   6.0545   6.1551   6.1708   6.3070   6.3746   6.4099   6.6154
     6.6608   6.7808   6.8700   7.0422   7.2143   7.3344   7.4442   7.7289
     8.0827   8.2058   8.3413   8.6168   8.8880   8.9910   9.3111   9.3319
     9.4285   9.4415   9.5615

          k = 0.0000-0.0840 0.0000 ( 34678 PWs)   bands (ev):

   -57.6814 -57.6812 -57.3012 -57.2979 -57.2308 -57.0959 -57.0870 -57.0552
   -57.0552 -57.0525 -56.9728 -56.9717 -56.7143 -56.7092 -56.1317 -56.1317
   -33.9666 -33.9664 -33.9432 -33.9430 -33.8531 -33.8530 -33.6861 -33.6621
   -33.5660 -33.5626 -33.5286 -33.5180 -33.5137 -33.4770 -33.4533 -33.4239
   -33.4140 -33.4075 -33.3751 -33.3749 -33.3625 -33.3471 -33.3412 -33.3240
   -33.3226 -33.2848 -33.2780 -33.2759 -33.2691 -33.2671 -33.2326 -33.2308
   -33.2155 -33.2136 -33.1636 -33.1627 -33.0490 -33.0281 -32.9702 -32.9650
   -32.9399 -32.9369 -32.4886 -32.4886 -32.3728 -32.3727 -32.3257 -32.3257
   -20.2974 -17.5690 -17.5054 -17.4104 -17.3901 -17.2293 -17.1754 -17.0660
   -17.0619 -17.0159 -17.0031 -16.9894 -16.8720 -16.8397 -16.8396 -16.8009
   -16.7943 -16.5963 -16.5943 -16.5268 -16.5223 -16.4885 -16.4871 -16.4047
   -16.4025 -16.2629 -16.2608 -16.2012 -16.1972 -16.1320 -16.1017 -14.7609
   -14.7608 -11.4622  -7.2369  -5.3942  -5.2241  -4.7997  -4.7333  -4.7323
    -4.6559  -4.6422  -4.6376  -4.6019  -4.5734  -4.5103  -4.5016  -4.4007
    -4.3733  -4.3393  -4.3375  -4.3086  -4.2955  -4.2803  -4.2750  -4.0548
    -4.0330  -4.0235  -4.0107  -3.9925  -3.9427  -3.8098  -3.7935  -3.7878
    -3.7157  -3.6946  -3.6400  -3.5072  -3.4736  -3.3398  -3.3265  -3.2507
    -3.1386  -3.1165  -3.0441  -3.0194  -2.9630  -2.9263  -2.8044  -2.7884
    -2.6978  -2.6937  -2.5767  -2.5395  -2.5128  -2.4952  -2.4784  -2.4475
    -2.4386  -2.4183  -2.3303  -2.2454  -2.0283  -2.0074  -1.9677  -1.9415
    -1.9273  -1.8290  -1.8224  -1.8091  -1.7820  -1.7450  -1.7311  -1.7000
    -1.6651  -1.6405  -1.6144  -1.5585  -1.5156  -1.4877  -1.4813  -1.4533
    -1.4252  -1.4176  -1.4099  -1.3820  -1.3593  -1.3260  -1.2212  -1.1881
    -1.1003  -1.0731  -1.0106  -0.9779  -0.9705  -0.9601  -0.9444  -0.5240
    -0.5193  -0.4569  -0.4428   0.1434   0.1435   0.1861   0.1878   2.0391
     2.0423   2.2184   2.2198   2.2207   2.2367   2.2848   2.3398   2.3471
     2.3471   2.3724   2.3831   2.5276   2.5539   2.5549   2.6011   2.6643
     2.7151   2.7370   2.7500   2.8914   2.9226   2.9898   2.9974   3.0573
     3.0584   3.1020   3.1128   3.1801   3.2180   3.2332   3.2460   3.4037
     3.4261   3.4372   3.4398   3.4729   3.4837   3.7251   3.7658   3.8043
     3.8077   3.8320   3.9089   3.9313   3.9687   4.0735   4.0758   4.1258
     4.1264   4.4182   4.6722   4.9604   5.0006   5.2607   5.3302   5.4572
     5.4892   5.5083   5.5083   5.5703   5.6054   5.6467   5.6653   5.6712
     5.7992   5.8041   5.8263   5.8518   5.8619   5.8667   5.8831   5.9738
     6.0200   6.0593   6.0715   6.1589   6.1963   6.4055   6.4665   6.5646
     6.6043   6.7465   6.7737   6.9803   7.0314   7.1016   7.3275   7.7013
     7.8846   8.1679   8.4115   8.7810   8.8395   8.8602   9.1451   9.6939
     9.7021   9.7482   9.7939

          k = 0.0253 0.0000 0.0000 ( 34707 PWs)   bands (ev):

   -57.6988 -57.6638 -57.3177 -57.2814 -57.2325 -57.1097 -57.0733 -57.0725
   -57.0507 -57.0376 -56.9899 -56.9544 -56.7304 -56.6930 -56.1493 -56.1140
   -34.1352 -33.9810 -33.9525 -33.8991 -33.8700 -33.8055 -33.7451 -33.6540
   -33.6183 -33.6068 -33.5679 -33.5372 -33.5322 -33.5085 -33.4855 -33.4748
   -33.4634 -33.4543 -33.4310 -33.3919 -33.3240 -33.2921 -33.2715 -33.2625
   -33.2582 -33.2573 -33.2443 -33.2412 -33.2393 -33.2296 -33.2292 -33.2123
   -33.1801 -33.1798 -33.1750 -33.1407 -33.1182 -32.9965 -32.9808 -32.9566
   -32.9081 -32.8053 -32.5670 -32.5027 -32.4750 -32.3713 -32.2797 -32.1714
   -20.2977 -17.9827 -17.8014 -17.5146 -17.4329 -17.3560 -17.2584 -17.1444
   -17.0922 -16.9753 -16.9383 -16.8712 -16.8189 -16.8057 -16.7893 -16.7803
   -16.7297 -16.6928 -16.5564 -16.5340 -16.4539 -16.4524 -16.4036 -16.3701
   -16.3389 -16.3123 -16.1831 -16.1652 -16.1512 -15.9792 -15.9293 -14.7327
   -14.6500 -11.4625  -7.2360  -5.4667  -5.3045  -5.2639  -5.2020  -5.0974
    -5.0443  -5.0162  -4.8338  -4.8125  -4.6177  -4.4690  -4.4356  -4.3307
    -4.3112  -4.3013  -4.2476  -4.0988  -4.0366  -4.0325  -3.9964  -3.9448
    -3.9377  -3.9097  -3.8305  -3.8008  -3.7513  -3.7199  -3.6947  -3.6920
    -3.6204  -3.5979  -3.5700  -3.5625  -3.5165  -3.4473  -3.3340  -3.3098
    -3.2513  -3.2345  -3.1824  -3.1064  -3.0336  -2.9764  -2.9237  -2.8959
    -2.7509  -2.6740  -2.6325  -2.6000  -2.5793  -2.5298  -2.5196  -2.5035
    -2.4317  -2.3354  -2.3223  -2.2365  -2.2207  -2.1818  -2.1582  -2.0705
    -2.0096  -1.9997  -1.9630  -1.8833  -1.8491  -1.7531  -1.7393  -1.6508
    -1.5856  -1.5817  -1.5378  -1.4631  -1.4581  -1.3668  -1.3576  -1.3442
    -1.3369  -1.2901  -1.2734  -1.1896  -1.1271  -1.1171  -1.0776  -1.0480
    -0.9726  -0.9150  -0.8298  -0.7852  -0.7743  -0.6510  -0.6425  -0.5508
    -0.4209  -0.2366  -0.1157  -0.0538   0.1172   0.2054   0.2062   1.6620
     1.7251   2.0013   2.0717   2.1488   2.2234   2.2381   2.2699   2.3783
     2.3855   2.4579   2.5047   2.5223   2.5413   2.5784   2.5976   2.6364
     2.6559   2.7346   2.7577   2.8673   2.8842   2.9700   3.0309   3.1041
     3.1212   3.1441   3.1627   3.2035   3.2087   3.2540   3.2696   3.3398
     3.3776   3.4026   3.4511   3.4732   3.5358   3.5605   3.5920   3.6000
     3.6643   3.7301   3.7474   3.9140   4.0021   4.0966   4.1743   4.2765
     4.3745   4.3951   4.5533   4.6751   4.8637   4.9115   4.9264   5.0698
     5.1216   5.1461   5.1888   5.3510   5.5683   5.6218   5.6937   5.8663
     5.8831   5.9250   5.9593   6.0303   6.0802   6.1150   6.1607   6.2097
     6.2191   6.2521   6.2589   6.3081   6.4487   6.5236   6.6419   6.6664
     6.8207   6.8688   7.0343   7.1470   7.3023   7.7522   7.8537   8.0875
     8.3351   8.3522   8.4307   8.6837   8.8456   8.9687   9.1495   9.3452
     9.3630   9.4663   9.4921

          k = 0.0253 0.0280 0.0000 ( 34687 PWs)   bands (ev):

   -57.6964 -57.6662 -57.3153 -57.2838 -57.2321 -57.1074 -57.0754 -57.0704
   -57.0511 -57.0400 -56.9876 -56.9568 -56.7280 -56.6954 -56.1470 -56.1164
   -34.1098 -33.9790 -33.9543 -33.8929 -33.8441 -33.8119 -33.7720 -33.6312
   -33.6115 -33.5818 -33.5426 -33.5344 -33.5218 -33.5160 -33.4928 -33.4722
   -33.4658 -33.4606 -33.4290 -33.3851 -33.3179 -33.2903 -33.2833 -33.2640
   -33.2591 -33.2540 -33.2524 -33.2475 -33.2375 -33.2361 -33.2350 -33.2162
   -33.2027 -33.1851 -33.1770 -33.1446 -33.1414 -32.9927 -32.9791 -32.9580
   -32.9131 -32.8332 -32.5414 -32.5008 -32.4769 -32.3652 -32.2859 -32.1988
   -20.2976 -17.9224 -17.7447 -17.4634 -17.3832 -17.3089 -17.2319 -17.1282
   -17.0977 -17.0060 -16.9630 -16.8584 -16.8301 -16.8054 -16.7839 -16.7700
   -16.7127 -16.6996 -16.5999 -16.5796 -16.5062 -16.4749 -16.3811 -16.3649
   -16.3560 -16.3293 -16.2002 -16.1734 -16.1534 -16.0106 -15.9663 -14.7429
   -14.6736 -11.4621  -7.2355  -5.4397  -5.2407  -5.2063  -5.1814  -5.0210
    -4.9660  -4.9360  -4.7586  -4.6999  -4.5619  -4.4030  -4.3710  -4.3455
    -4.2594  -4.2528  -4.1864  -4.1183  -4.0865  -4.0643  -4.0334  -4.0202
    -3.9760  -3.9423  -3.9127  -3.8675  -3.8219  -3.8097  -3.7839  -3.7195
    -3.6970  -3.6642  -3.6150  -3.6050  -3.5407  -3.5258  -3.3533  -3.2974
    -3.2515  -3.2179  -3.1502  -3.0737  -2.9817  -2.9494  -2.7846  -2.7058
    -2.6809  -2.6361  -2.6105  -2.5344  -2.5036  -2.4539  -2.4478  -2.4205
    -2.4047  -2.3860  -2.3398  -2.3021  -2.2156  -2.1778  -2.1158  -2.0999
    -2.0664  -1.9944  -1.9487  -1.8917  -1.8648  -1.8258  -1.7621  -1.6745
    -1.6445  -1.6160  -1.5885  -1.5618  -1.5084  -1.4617  -1.4398  -1.4020
    -1.3445  -1.3276  -1.2693  -1.2553  -1.2075  -1.1069  -1.0967  -1.0604
    -1.0113  -0.8871  -0.8393  -0.8346  -0.7643  -0.7390  -0.6962  -0.6584
    -0.4318  -0.2812  -0.1339  -0.0857   0.1493   0.1786   0.1888   1.7211
     1.8452   2.0166   2.0991   2.1959   2.2449   2.2822   2.3166   2.3972
     2.4178   2.4673   2.4892   2.5247   2.5330   2.5527   2.5906   2.6744
     2.7054   2.7277   2.7875   2.8070   2.9307   2.9871   3.0101   3.0351
     3.1066   3.1346   3.1461   3.1729   3.2087   3.2424   3.3445   3.3738
     3.4063   3.4366   3.4630   3.5103   3.5528   3.5692   3.6366   3.6613
     3.6736   3.7084   3.7501   3.8948   3.9940   4.1385   4.1857   4.2530
     4.3068   4.4525   4.5097   4.7698   4.9294   4.9521   4.9937   5.0782
     5.1603   5.1756   5.2236   5.3871   5.6432   5.6825   5.7319   5.7776
     5.8545   5.8654   5.8720   6.0076   6.0713   6.0856   6.1199   6.1451
     6.1971   6.2090   6.2195   6.2356   6.4288   6.5290   6.6124   6.6613
     6.7865   6.8662   6.9634   7.1500   7.2258   7.5014   7.9298   8.0300
     8.0938   8.2548   8.4443   8.5783   8.6491   8.7776   8.9448   9.2651
     9.3613   9.4651   9.5092

          k = 0.0253 0.0560 0.0000 ( 34699 PWs)   bands (ev):

   -57.6901 -57.6726 -57.3087 -57.2904 -57.2313 -57.1013 -57.0815 -57.0640
   -57.0520 -57.0464 -56.9811 -56.9633 -56.7214 -56.7021 -56.1405 -56.1229
   -34.0400 -33.9737 -33.9594 -33.8760 -33.8451 -33.8292 -33.7730 -33.5959
   -33.5734 -33.5719 -33.5349 -33.5253 -33.5086 -33.5075 -33.4767 -33.4726
   -33.4552 -33.4262 -33.4133 -33.3670 -33.3165 -33.3136 -33.3084 -33.3013
   -33.2861 -33.2765 -33.2677 -33.2625 -33.2534 -33.2484 -33.2382 -33.2344
   -33.2102 -33.1988 -33.1705 -33.1648 -33.1260 -32.9876 -32.9748 -32.9620
   -32.9261 -32.9028 -32.4958 -32.4819 -32.4706 -32.3487 -32.3028 -32.2729
   -20.2973 -17.7561 -17.5893 -17.3433 -17.2641 -17.2446 -17.1934 -17.1678
   -17.1393 -16.9957 -16.9701 -16.8804 -16.8760 -16.8291 -16.7964 -16.7724
   -16.7477 -16.6703 -16.6229 -16.6044 -16.5792 -16.5301 -16.4267 -16.4120
   -16.3557 -16.2848 -16.2338 -16.1943 -16.1569 -16.1115 -16.0389 -14.7615
   -14.7244 -11.4613  -7.2345  -5.4103  -5.2174  -5.0315  -4.9486  -4.8127
    -4.7567  -4.7145  -4.5581  -4.4980  -4.4904  -4.4135  -4.3940  -4.3393
    -4.2706  -4.2312  -4.2155  -4.1918  -4.1476  -4.1410  -4.1060  -4.0615
    -4.0324  -4.0124  -3.9932  -3.9352  -3.9243  -3.8750  -3.8592  -3.8213
    -3.7742  -3.7155  -3.6545  -3.5716  -3.4732  -3.3971  -3.3255  -3.2821
    -3.2372  -3.2231  -3.1850  -3.0123  -2.9388  -2.8631  -2.8293  -2.7794
    -2.7579  -2.6456  -2.5930  -2.5094  -2.4887  -2.4376  -2.3927  -2.3655
    -2.3426  -2.3242  -2.2882  -2.2628  -2.1899  -2.1410  -2.1277  -2.0389
    -2.0112  -2.0094  -1.9467  -1.9381  -1.9027  -1.8611  -1.8339  -1.8119
    -1.7452  -1.7032  -1.6782  -1.6375  -1.5724  -1.5378  -1.4943  -1.4757
    -1.4309  -1.3733  -1.3386  -1.3016  -1.2238  -1.2052  -1.1308  -1.1054
    -1.0601  -1.0125  -0.9119  -0.8749  -0.8211  -0.7997  -0.7440  -0.6807
    -0.6067  -0.4649  -0.2558   0.0920   0.1286   0.1557   0.1882   1.8620
     2.0482   2.1324   2.1791   2.2316   2.2720   2.3060   2.3477   2.3849
     2.4263   2.4622   2.4810   2.5081   2.5205   2.5838   2.6939   2.7216
     2.7391   2.7765   2.8239   2.8400   2.9041   2.9527   2.9748   2.9862
     3.0276   3.0339   3.1564   3.2077   3.2867   3.3297   3.3405   3.3833
     3.4076   3.4392   3.4609   3.5408   3.5598   3.6309   3.6562   3.7346
     3.7931   3.8198   3.8616   3.9007   3.9048   4.0720   4.1169   4.1655
     4.3432   4.3848   4.6156   4.9650   5.0125   5.1261   5.1418   5.1582
     5.2623   5.2896   5.3136   5.4369   5.5101   5.5614   5.6373   5.7586
     5.8242   5.8504   5.8916   5.9341   5.9608   6.0029   6.0500   6.0614
     6.1366   6.1569   6.2229   6.3314   6.3794   6.4037   6.4795   6.6425
     6.6915   6.7966   6.8461   7.0355   7.1509   7.3638   7.4834   7.5874
     7.9787   8.1780   8.3520   8.5205   8.6485   8.8550   9.0491   9.1142
     9.1795   9.4933   9.6283

          k = 0.0253-0.0840 0.0000 ( 34722 PWs)   bands (ev):

   -57.6814 -57.6812 -57.3012 -57.2979 -57.2308 -57.0959 -57.0870 -57.0552
   -57.0552 -57.0524 -56.9728 -56.9717 -56.7143 -56.7092 -56.1317 -56.1317
   -33.9666 -33.9664 -33.9434 -33.9433 -33.8528 -33.8526 -33.6862 -33.6622
   -33.5660 -33.5626 -33.5292 -33.5178 -33.5135 -33.4770 -33.4525 -33.4241
   -33.4161 -33.4099 -33.3760 -33.3759 -33.3632 -33.3402 -33.3343 -33.3226
   -33.3212 -33.2846 -33.2778 -33.2761 -33.2693 -33.2657 -33.2361 -33.2347
   -33.2171 -33.2153 -33.1636 -33.1627 -33.0489 -33.0281 -32.9708 -32.9658
   -32.9399 -32.9369 -32.4889 -32.4888 -32.3728 -32.3728 -32.3257 -32.3257
   -20.2972 -17.5556 -17.4873 -17.3821 -17.3636 -17.2132 -17.1543 -17.0592
   -17.0497 -17.0040 -16.9797 -16.9752 -16.8889 -16.8793 -16.8690 -16.7857
   -16.7803 -16.6346 -16.6288 -16.5691 -16.5639 -16.5222 -16.5209 -16.3884
   -16.3869 -16.2544 -16.2520 -16.1994 -16.1957 -16.1325 -16.1010 -14.7608
   -14.7607 -11.4610  -7.2341  -5.4017  -5.2235  -4.7998  -4.6454  -4.6355
    -4.6241  -4.5482  -4.5473  -4.5316  -4.5244  -4.4185  -4.4087  -4.3697
    -4.3466  -4.3162  -4.2980  -4.2847  -4.2631  -4.2314  -4.2277  -4.0425
    -4.0384  -4.0144  -3.9833  -3.9645  -3.9202  -3.8477  -3.8423  -3.8158
    -3.7383  -3.6612  -3.6422  -3.4144  -3.4006  -3.3478  -3.3190  -3.2424
    -3.1194  -3.0950  -3.0602  -3.0509  -3.0092  -2.9635  -2.9186  -2.8952
    -2.8089  -2.8049  -2.6223  -2.6020  -2.5768  -2.5592  -2.5300  -2.4663
    -2.4346  -2.3423  -2.3150  -2.2751  -2.1217  -2.0734  -2.0552  -2.0091
    -1.9230  -1.9205  -1.8785  -1.8669  -1.8565  -1.8160  -1.8056  -1.7952
    -1.7669  -1.7292  -1.6857  -1.6571  -1.6206  -1.6075  -1.5944  -1.4756
    -1.4016  -1.3885  -1.2787  -1.2619  -1.2416  -1.2260  -1.1864  -1.1296
    -1.0828  -1.0516  -1.0436  -1.0125  -0.9593  -0.8905  -0.8789  -0.5373
    -0.5293  -0.4574  -0.4449   0.1172   0.1173   0.1966   0.1983   2.0507
     2.0530   2.2179   2.2334   2.2365   2.2400   2.2783   2.3164   2.4238
     2.4258   2.4405   2.4426   2.5580   2.5594   2.5781   2.6556   2.7219
     2.7561   2.8204   2.8292   2.8803   2.9000   2.9384   2.9484   3.0260
     3.0399   3.0855   3.1149   3.2215   3.2694   3.2902   3.3070   3.4227
     3.4281   3.4523   3.4695   3.4943   3.5227   3.7147   3.7403   3.8084
     3.8264   3.8379   3.8862   3.9136   3.9206   4.0811   4.0836   4.1173
     4.1177   4.4737   4.7138   4.9849   5.0240   5.2702   5.3021   5.3102
     5.3280   5.3603   5.3852   5.4267   5.4791   5.5097   5.5536   5.6367
     5.6505   5.7632   5.8336   5.8766   5.8916   6.0161   6.0772   6.0887
     6.1314   6.1857   6.2182   6.2811   6.3017   6.4674   6.5204   6.5950
     6.6379   6.7889   6.7946   6.9902   7.0344   7.1217   7.3845   7.5834
     7.7444   8.0038   8.2780   8.7237   8.7412   8.9677   9.0035   9.2950
     9.3477   9.4509   9.5429

          k = 0.0506 0.0000 0.0000 ( 34729 PWs)   bands (ev):

   -57.6988 -57.6638 -57.3176 -57.2814 -57.2325 -57.1095 -57.0732 -57.0728
   -57.0507 -57.0376 -56.9899 -56.9544 -56.7305 -56.6930 -56.1493 -56.1140
   -34.1359 -33.9810 -33.9526 -33.8977 -33.8703 -33.8056 -33.7451 -33.6554
   -33.6182 -33.6101 -33.5685 -33.5491 -33.5293 -33.5087 -33.4854 -33.4609
   -33.4584 -33.4535 -33.4311 -33.3752 -33.3237 -33.2923 -33.2709 -33.2667
   -33.2626 -33.2615 -33.2604 -33.2374 -33.2341 -33.2296 -33.2293 -33.2118
   -33.1799 -33.1796 -33.1757 -33.1407 -33.1183 -32.9965 -32.9858 -32.9547
   -32.9081 -32.8054 -32.5669 -32.5048 -32.4739 -32.3713 -32.2797 -32.1715
   -20.2974 -17.9167 -17.7065 -17.4160 -17.3902 -17.2828 -17.2658 -17.2373
   -17.1397 -16.9783 -16.9675 -16.9375 -16.8951 -16.8858 -16.8680 -16.8457
   -16.7510 -16.7010 -16.5365 -16.4555 -16.4492 -16.4105 -16.4049 -16.3588
   -16.3541 -16.3276 -16.1753 -16.1603 -16.1537 -15.9793 -15.9289 -14.7305
   -14.6497 -11.4601  -7.2304  -5.4746  -5.2910  -5.2001  -4.9799  -4.9136
    -4.8028  -4.7978  -4.7712  -4.7482  -4.7139  -4.6331  -4.5250  -4.4648
    -4.4184  -4.2480  -4.1320  -4.0403  -4.0249  -4.0193  -3.9739  -3.9299
    -3.9119  -3.8287  -3.7884  -3.7618  -3.7530  -3.6589  -3.6368  -3.6149
    -3.5556  -3.5536  -3.5411  -3.5259  -3.4999  -3.2916  -3.2818  -3.2664
    -3.2435  -3.2024  -3.1560  -3.1106  -2.9949  -2.9424  -2.8850  -2.8515
    -2.8267  -2.7801  -2.7575  -2.6787  -2.6228  -2.6110  -2.5771  -2.5470
    -2.4627  -2.4595  -2.4271  -2.3656  -2.3137  -2.2062  -2.1983  -2.1213
    -2.0863  -1.9914  -1.9393  -1.9317  -1.8433  -1.8175  -1.8007  -1.7144
    -1.6360  -1.5745  -1.5580  -1.5551  -1.4861  -1.4779  -1.4426  -1.4004
    -1.3521  -1.3330  -1.3035  -1.2104  -1.1190  -1.1058  -1.0888  -1.0721
    -0.9898  -0.9546  -0.8883  -0.8157  -0.8088  -0.7936  -0.7572  -0.5323
    -0.5239  -0.2678  -0.2238  -0.0472   0.0929   0.1189   0.1372   1.6420
     1.8184   2.0003   2.0968   2.1008   2.1793   2.1969   2.2810   2.2936
     2.4542   2.4576   2.4707   2.5588   2.5638   2.5853   2.6262   2.6786
     2.7070   2.8225   2.8702   2.8735   2.8993   2.9236   3.0837   3.1081
     3.1475   3.1637   3.2009   3.2017   3.2867   3.2890   3.3314   3.4090
     3.4390   3.4482   3.5004   3.5527   3.5769   3.5857   3.7000   3.7110
     3.7594   3.7629   3.7986   3.8938   3.9251   4.0823   4.1573   4.2111
     4.3473   4.4655   4.5751   4.6514   4.7679   4.7976   4.8610   4.8942
     4.9110   5.1002   5.2087   5.4394   5.6434   5.7588   5.7608   5.8792
     5.8874   5.9184   5.9316   5.9649   6.0273   6.0953   6.1373   6.1579
     6.2405   6.4201   6.5136   6.5973   6.6056   6.6315   6.6847   6.7227
     6.8521   6.8533   7.0306   7.0443   7.2931   7.3024   7.4986   8.0107
     8.1404   8.3862   8.4732   8.7442   8.8120   8.9558   9.0421   9.2718
     9.3384   9.3741   9.6228

          k = 0.0506 0.0280 0.0000 ( 34685 PWs)   bands (ev):

   -57.6964 -57.6662 -57.3152 -57.2838 -57.2321 -57.1073 -57.0754 -57.0705
   -57.0511 -57.0400 -56.9876 -56.9568 -56.7280 -56.6954 -56.1470 -56.1164
   -34.1105 -33.9790 -33.9543 -33.8915 -33.8443 -33.8119 -33.7721 -33.6327
   -33.6115 -33.5852 -33.5432 -33.5353 -33.5274 -33.5196 -33.4927 -33.4719
   -33.4583 -33.4486 -33.4291 -33.3689 -33.3176 -33.2906 -33.2789 -33.2652
   -33.2640 -33.2611 -33.2588 -33.2531 -33.2376 -33.2361 -33.2338 -33.2139
   -33.2032 -33.1853 -33.1769 -33.1445 -33.1414 -32.9927 -32.9834 -32.9566
   -32.9131 -32.8332 -32.5412 -32.5026 -32.4759 -32.3652 -32.2859 -32.1988
   -20.2972 -17.8602 -17.6511 -17.3686 -17.3412 -17.2495 -17.2242 -17.2144
   -17.1218 -17.0437 -16.9633 -16.9198 -16.8702 -16.8575 -16.8547 -16.8327
   -16.7629 -16.7448 -16.5588 -16.5281 -16.5039 -16.4378 -16.4152 -16.3759
   -16.3682 -16.3115 -16.1910 -16.1719 -16.1522 -16.0119 -15.9661 -14.7410
   -14.6737 -11.4596  -7.2298  -5.4530  -5.2254  -5.2047  -4.8921  -4.8339
    -4.7185  -4.7035  -4.6751  -4.6557  -4.6300  -4.5092  -4.4273  -4.3458
    -4.3180  -4.3015  -4.1560  -4.1339  -4.0551  -4.0261  -4.0095  -3.9916
    -3.9829  -3.9094  -3.8601  -3.8150  -3.7735  -3.7607  -3.7177  -3.6899
    -3.6544  -3.6315  -3.5824  -3.5513  -3.4459  -3.3110  -3.2762  -3.2627
    -3.2292  -3.1729  -3.1051  -3.0632  -2.9541  -2.9385  -2.8768  -2.8421
    -2.7429  -2.6930  -2.6587  -2.6492  -2.5999  -2.5912  -2.5366  -2.4983
    -2.4362  -2.3860  -2.3806  -2.3406  -2.3092  -2.2522  -2.1773  -2.1374
    -2.1086  -2.0649  -2.0256  -1.9769  -1.9433  -1.9001  -1.8630  -1.8218
    -1.7527  -1.7372  -1.7110  -1.6304  -1.5367  -1.5055  -1.4794  -1.4317
    -1.3786  -1.3383  -1.2793  -1.2568  -1.2379  -1.1418  -1.1157  -1.0134
    -0.9748  -0.8844  -0.8580  -0.8048  -0.7851  -0.7651  -0.7028  -0.6882
    -0.5114  -0.3112  -0.2590  -0.0730   0.1098   0.1392   0.1627   1.7046
     1.9054   2.0607   2.1225   2.1275   2.1742   2.2513   2.3584   2.3727
     2.4084   2.4371   2.5141   2.5574   2.5749   2.6037   2.6725   2.6940
     2.7452   2.8039   2.8537   2.8977   2.9563   2.9741   3.0420   3.0592
     3.0987   3.1620   3.1716   3.1998   3.3004   3.3610   3.3759   3.4077
     3.4462   3.4782   3.5454   3.5808   3.6037   3.6473   3.6773   3.6867
     3.7190   3.7704   3.8191   3.8708   3.9348   4.0584   4.1692   4.2823
     4.2931   4.4233   4.6208   4.6898   4.7648   4.8122   4.8580   4.9836
     5.0134   5.1278   5.2247   5.4715   5.5957   5.6395   5.7333   5.8069
     5.8627   5.8713   5.9179   5.9478   5.9817   6.0892   6.1184   6.1397
     6.2300   6.4356   6.4736   6.5373   6.5776   6.6141   6.6869   6.7390
     6.7996   6.8178   6.9742   7.1161   7.1677   7.3950   7.5693   7.7025
     8.1332   8.1636   8.2443   8.3916   8.7607   8.9675   9.0145   9.0490
     9.3742   9.4448   9.6067

          k = 0.0506 0.0560 0.0000 ( 34596 PWs)   bands (ev):

   -57.6901 -57.6726 -57.3087 -57.2904 -57.2313 -57.1012 -57.0814 -57.0641
   -57.0520 -57.0465 -56.9811 -56.9633 -56.7214 -56.7021 -56.1405 -56.1229
   -34.0405 -33.9737 -33.9594 -33.8748 -33.8453 -33.8288 -33.7732 -33.5959
   -33.5746 -33.5719 -33.5353 -33.5212 -33.5152 -33.5108 -33.4768 -33.4733
   -33.4532 -33.4262 -33.4038 -33.3534 -33.3179 -33.3173 -33.3009 -33.2987
   -33.2863 -33.2765 -33.2675 -33.2602 -33.2535 -33.2530 -33.2475 -33.2394
   -33.2103 -33.2003 -33.1704 -33.1645 -33.1256 -32.9876 -32.9776 -32.9618
   -32.9260 -32.9026 -32.4969 -32.4815 -32.4705 -32.3487 -32.3028 -32.2728
   -20.2970 -17.7057 -17.5004 -17.2910 -17.2391 -17.1975 -17.1736 -17.1615
   -17.0897 -17.0368 -17.0060 -16.9131 -16.8559 -16.8484 -16.8440 -16.8061
   -16.7762 -16.7214 -16.6625 -16.6228 -16.6121 -16.5505 -16.5123 -16.3985
   -16.3430 -16.2634 -16.2259 -16.1928 -16.1563 -16.1132 -16.0381 -14.7603
   -14.7247 -11.4587  -7.2286  -5.4256  -5.2162  -5.0218  -4.6590  -4.6170
    -4.5140  -4.4989  -4.4853  -4.4558  -4.4314  -4.3677  -4.3235  -4.2994
    -4.2233  -4.2052  -4.1461  -4.1332  -4.0802  -4.0655  -4.0468  -4.0391
    -4.0140  -3.9979  -3.9655  -3.9174  -3.8952  -3.8880  -3.8210  -3.7831
    -3.7304  -3.6601  -3.6284  -3.5254  -3.4894  -3.3683  -3.3290  -3.2668
    -3.2572  -3.2422  -3.1413  -3.0206  -2.9315  -2.9063  -2.8486  -2.8326
    -2.7577  -2.7271  -2.6867  -2.6095  -2.5895  -2.5731  -2.5263  -2.4880
[...]
    -1.2972  -1.2666  -1.2509  -1.1898  -1.1520  -1.0309  -1.0198  -1.0115
    -0.9886  -0.9479  -0.9055  -0.8378  -0.7563  -0.7010  -0.6468  -0.5938
    -0.5897  -0.5345  -0.5179   0.0662   0.0663   0.2109   0.2126   2.1537
     2.1545   2.2011   2.2029   2.2387   2.2392   2.2665   2.2981   2.4881
     2.4936   2.5256   2.5555   2.6092   2.6169   2.6796   2.6815   2.6910
     2.6922   2.8443   2.9100   2.9830   2.9981   3.0344   3.0419   3.0985
     3.2200   3.2494   3.2725   3.3330   3.3738   3.3905   3.4449   3.4928
     3.5004   3.5227   3.5493   3.5811   3.6038   3.6801   3.7003   3.7455
     3.8348   3.8912   3.9075   3.9530   3.9533   4.0963   4.1032   4.1119
     4.1124   4.6145   4.7833   4.7872   4.8023   4.8708   4.9206   4.9257
     4.9421   4.9846   5.0272   5.2491   5.3400   5.3592   5.3693   5.7295
     5.8003   5.9106   5.9269   5.9799   6.0429   6.1497   6.3035   6.3495
     6.3651   6.3747   6.4103   6.5751   6.6177   6.6652   6.6653   6.7035
     6.7628   6.8446   6.8455   6.8525   6.8534   7.3599   7.4079   7.5240
     7.6624   7.8259   8.0128   8.1708   8.2234   8.3188   8.3895   8.8251
     8.9135   9.0449   9.0814

          k =-0.0253 0.0280 0.0000 ( 34687 PWs)   bands (ev):

   -57.6965 -57.6663 -57.3152 -57.2837 -57.2320 -57.1074 -57.0754 -57.0703
   -57.0511 -57.0400 -56.9875 -56.9568 -56.7280 -56.6954 -56.1472 -56.1166
   -34.1099 -33.9791 -33.9544 -33.8930 -33.8441 -33.8120 -33.7721 -33.6312
   -33.6115 -33.5818 -33.5425 -33.5344 -33.5218 -33.5160 -33.4927 -33.4722
   -33.4657 -33.4606 -33.4290 -33.3851 -33.3178 -33.2903 -33.2832 -33.2640
   -33.2587 -33.2540 -33.2527 -33.2475 -33.2375 -33.2361 -33.2349 -33.2162
   -33.2027 -33.1850 -33.1769 -33.1445 -33.1413 -32.9926 -32.9790 -32.9580
   -32.9131 -32.8331 -32.5416 -32.5010 -32.4771 -32.3654 -32.2861 -32.1990
   -20.2976 -17.9225 -17.7447 -17.4634 -17.3832 -17.3090 -17.2319 -17.1281
   -17.0979 -17.0057 -16.9630 -16.8588 -16.8301 -16.8065 -16.7835 -16.7699
   -16.7127 -16.6998 -16.5998 -16.5792 -16.5063 -16.4749 -16.3812 -16.3651
   -16.3561 -16.3293 -16.2003 -16.1735 -16.1534 -16.0107 -15.9663 -14.7425
   -14.6731 -11.4622  -7.2355  -5.4396  -5.2405  -5.2063  -5.1814  -5.0214
    -4.9660  -4.9363  -4.7587  -4.7007  -4.5618  -4.4027  -4.3709  -4.3457
    -4.2608  -4.2495  -4.1878  -4.1166  -4.0908  -4.0640  -4.0360  -4.0202
    -3.9748  -3.9406  -3.9140  -3.8686  -3.8220  -3.8112  -3.7841  -3.7197
    -3.7004  -3.6624  -3.6148  -3.6041  -3.5392  -3.5249  -3.3581  -3.2906
    -3.2526  -3.2183  -3.1483  -3.0716  -2.9827  -2.9458  -2.7835  -2.7058
    -2.6795  -2.6362  -2.6103  -2.5319  -2.5039  -2.4514  -2.4472  -2.4224
    -2.4057  -2.3847  -2.3394  -2.3013  -2.2176  -2.1751  -2.1213  -2.1036
    -2.0625  -1.9911  -1.9507  -1.8953  -1.8630  -1.8267  -1.7426  -1.7067
    -1.6523  -1.5989  -1.5928  -1.5600  -1.5158  -1.4701  -1.4363  -1.3909
    -1.3444  -1.3322  -1.2806  -1.2418  -1.1958  -1.1109  -1.0986  -1.0588
    -1.0099  -0.8921  -0.8403  -0.8309  -0.7551  -0.7386  -0.7081  -0.6592
    -0.4331  -0.2812  -0.1345  -0.0854   0.1496   0.1790   0.1892   1.7209
     1.8451   2.0165   2.1006   2.1957   2.2462   2.2854   2.3193   2.4043
     2.4157   2.4504   2.4861   2.5301   2.5328   2.5476   2.6082   2.6689
     2.7057   2.7393   2.7760   2.8125   2.9392   2.9864   3.0044   3.0274
     3.1076   3.1361   3.1465   3.1744   3.2090   3.2397   3.3480   3.3728
     3.4040   3.4202   3.4645   3.5070   3.5617   3.5711   3.6373   3.6611
     3.6733   3.7095   3.7495   3.8938   3.9928   4.1404   4.1858   4.2535
     4.3068   4.4528   4.5099   4.7710   4.9375   4.9514   4.9843   5.0781
     5.1590   5.1752   5.2235   5.3859   5.6446   5.6754   5.7286   5.7876
     5.8526   5.8653   5.8727   6.0065   6.0738   6.0786   6.1240   6.1458
     6.1971   6.2076   6.2157   6.2432   6.4287   6.5266   6.6122   6.6663
     6.7899   6.8597   6.9633   7.1513   7.2267   7.5073   7.9325   8.0288
     8.0939   8.2467   8.4458   8.5795   8.6488   8.7745   8.9460   9.2710
     9.3530   9.4637   9.5080

          k =-0.0253 0.0560 0.0000 ( 34699 PWs)   bands (ev):

   -57.6902 -57.6727 -57.3087 -57.2903 -57.2312 -57.1013 -57.0815 -57.0640
   -57.0519 -57.0464 -56.9810 -56.9633 -56.7213 -56.7021 -56.1408 -56.1231
   -34.0401 -33.9738 -33.9595 -33.8761 -33.8452 -33.8293 -33.7730 -33.5959
   -33.5734 -33.5719 -33.5349 -33.5252 -33.5086 -33.5074 -33.4767 -33.4726
   -33.4552 -33.4261 -33.4132 -33.3670 -33.3164 -33.3136 -33.3084 -33.3013
   -33.2860 -33.2765 -33.2677 -33.2625 -33.2534 -33.2485 -33.2381 -33.2343
   -33.2100 -33.1987 -33.1704 -33.1647 -33.1260 -32.9876 -32.9747 -32.9620
   -32.9260 -32.9028 -32.4960 -32.4821 -32.4709 -32.3489 -32.3031 -32.2731
   -20.2974 -17.7562 -17.5893 -17.3433 -17.2641 -17.2447 -17.1936 -17.1677
   -17.1390 -16.9957 -16.9701 -16.8805 -16.8763 -16.8298 -16.7967 -16.7724
   -16.7475 -16.6700 -16.6230 -16.6039 -16.5792 -16.5304 -16.4267 -16.4121
   -16.3558 -16.2848 -16.2338 -16.1943 -16.1569 -16.1116 -16.0389 -14.7611
   -14.7239 -11.4614  -7.2345  -5.4102  -5.2174  -5.0311  -4.9486  -4.8133
    -4.7568  -4.7145  -4.5581  -4.4963  -4.4909  -4.4132  -4.3942  -4.3441
    -4.2709  -4.2323  -4.2151  -4.1919  -4.1474  -4.1404  -4.1076  -4.0616
    -4.0313  -4.0098  -3.9942  -3.9365  -3.9240  -3.8730  -3.8628  -3.8220
    -3.7738  -3.7137  -3.6555  -3.5716  -3.4727  -3.3974  -3.3311  -3.2818
    -3.2378  -3.2164  -3.1796  -3.0129  -2.9352  -2.8646  -2.8260  -2.7830
    -2.7554  -2.6452  -2.5917  -2.5099  -2.4873  -2.4388  -2.3937  -2.3626
    -2.3430  -2.3239  -2.2906  -2.2658  -2.1892  -2.1407  -2.1263  -2.0370
    -2.0199  -2.0027  -1.9449  -1.9425  -1.9042  -1.8617  -1.8298  -1.8067
    -1.7425  -1.7106  -1.6725  -1.6417  -1.5797  -1.5391  -1.5041  -1.4594
    -1.4307  -1.3723  -1.3470  -1.3010  -1.2226  -1.2059  -1.1294  -1.1038
    -1.0612  -1.0139  -0.9235  -0.8763  -0.8135  -0.7996  -0.7373  -0.6803
    -0.6065  -0.4670  -0.2574   0.0923   0.1289   0.1561   0.1885   1.8618
     2.0481   2.1353   2.1790   2.2285   2.2701   2.3067   2.3336   2.3840
     2.4447   2.4593   2.4859   2.5134   2.5209   2.5838   2.6931   2.7247
     2.7450   2.7760   2.8280   2.8412   2.8934   2.9500   2.9712   2.9870
     3.0242   3.0350   3.1706   3.2083   3.2906   3.3170   3.3343   3.3710
     3.4118   3.4369   3.4603   3.5433   3.5596   3.6351   3.6576   3.7352
     3.7934   3.8173   3.8625   3.8989   3.9070   4.0729   4.1169   4.1656
     4.3429   4.3849   4.6165   4.9663   5.0196   5.1251   5.1378   5.1564
     5.2597   5.2870   5.3155   5.4283   5.5119   5.5612   5.6402   5.7628
     5.8243   5.8484   5.8953   5.9364   5.9559   5.9960   6.0516   6.0639
     6.1360   6.1557   6.2296   6.3205   6.3797   6.4101   6.4800   6.6460
     6.6948   6.7964   6.8437   7.0362   7.1502   7.3640   7.4842   7.5892
     7.9777   8.1754   8.3500   8.5214   8.6463   8.8603   9.0505   9.1156
     9.1824   9.4958   9.6202

          k =-0.0506 0.0280 0.0000 ( 34685 PWs)   bands (ev):

   -57.6965 -57.6663 -57.3152 -57.2837 -57.2320 -57.1072 -57.0754 -57.0705
   -57.0511 -57.0400 -56.9875 -56.9568 -56.7280 -56.6954 -56.1472 -56.1166
   -34.1106 -33.9791 -33.9544 -33.8916 -33.8443 -33.8119 -33.7722 -33.6326
   -33.6115 -33.5852 -33.5431 -33.5353 -33.5273 -33.5195 -33.4926 -33.4718
   -33.4582 -33.4485 -33.4290 -33.3689 -33.3176 -33.2906 -33.2789 -33.2652
   -33.2640 -33.2611 -33.2585 -33.2533 -33.2375 -33.2361 -33.2338 -33.2139
   -33.2031 -33.1852 -33.1769 -33.1444 -33.1413 -32.9927 -32.9833 -32.9566
   -32.9131 -32.8331 -32.5415 -32.5029 -32.4762 -32.3654 -32.2861 -32.1990
   -20.2972 -17.8603 -17.6510 -17.3686 -17.3412 -17.2495 -17.2242 -17.2144
   -17.1222 -17.0430 -16.9633 -16.9204 -16.8706 -16.8574 -16.8547 -16.8326
   -16.7631 -16.7448 -16.5590 -16.5278 -16.5037 -16.4378 -16.4152 -16.3759
   -16.3685 -16.3115 -16.1911 -16.1719 -16.1522 -16.0119 -15.9661 -14.7405
   -14.6732 -11.4597  -7.2298  -5.4529  -5.2253  -5.2047  -4.8921  -4.8338
    -4.7202  -4.7044  -4.6750  -4.6549  -4.6300  -4.5092  -4.4276  -4.3452
    -4.3182  -4.3016  -4.1592  -4.1265  -4.0605  -4.0264  -4.0084  -3.9929
    -3.9825  -3.9094  -3.8595  -3.8155  -3.7732  -3.7608  -3.7187  -3.6906
    -3.6555  -3.6331  -3.5827  -3.5508  -3.4457  -3.3172  -3.2831  -3.2614
    -3.2230  -3.1703  -3.1005  -3.0579  -2.9528  -2.9370  -2.8736  -2.8400
    -2.7429  -2.6932  -2.6594  -2.6501  -2.6043  -2.5903  -2.5355  -2.4948
    -2.4366  -2.3871  -2.3808  -2.3354  -2.3085  -2.2538  -2.1789  -2.1352
    -2.1134  -2.0621  -2.0259  -1.9741  -1.9397  -1.9050  -1.8592  -1.8307
    -1.7541  -1.7396  -1.7113  -1.6405  -1.5398  -1.5064  -1.4846  -1.4171
    -1.3668  -1.3474  -1.2788  -1.2595  -1.2369  -1.1474  -1.1120  -1.0127
    -0.9760  -0.8802  -0.8554  -0.8133  -0.7778  -0.7638  -0.7048  -0.6895
    -0.5128  -0.3116  -0.2593  -0.0728   0.1102   0.1396   0.1629   1.7044
     1.9053   2.0606   2.1231   2.1279   2.1729   2.2415   2.3618   2.3726
     2.4066   2.4385   2.5183   2.5680   2.5748   2.6032   2.6843   2.6971
     2.7436   2.8032   2.8337   2.9032   2.9563   2.9820   3.0420   3.0609
     3.0915   3.1610   3.1716   3.2009   3.3029   3.3569   3.3766   3.4108
     3.4464   3.4586   3.5474   3.5867   3.6046   3.6539   3.6765   3.6852
     3.7175   3.7715   3.8188   3.8699   3.9328   4.0594   4.1690   4.2824
     4.2936   4.4231   4.6226   4.6901   4.7647   4.8115   4.8559   4.9862
     5.0129   5.1271   5.2241   5.4701   5.5949   5.6410   5.7214   5.8051
     5.8618   5.8730   5.9257   5.9472   5.9809   6.0934   6.1174   6.1394
     6.2310   6.4325   6.4827   6.5408   6.5782   6.6078   6.6859   6.7416
     6.7977   6.8177   6.9742   7.1150   7.1675   7.3955   7.5706   7.7072
     8.1330   8.1637   8.2457   8.3903   8.7597   8.9671   9.0121   9.0435
     9.3745   9.4404   9.6064

          k =-0.0506 0.0560 0.0000 ( 34596 PWs)   bands (ev):

   -57.6902 -57.6727 -57.3087 -57.2903 -57.2312 -57.1012 -57.0814 -57.0641
   -57.0519 -57.0464 -56.9811 -56.9633 -56.7213 -56.7021 -56.1408 -56.1231
   -34.0406 -33.9738 -33.9595 -33.8749 -33.8453 -33.8289 -33.7731 -33.5958
   -33.5745 -33.5719 -33.5352 -33.5212 -33.5151 -33.5108 -33.4767 -33.4733
   -33.4531 -33.4261 -33.4036 -33.3534 -33.3178 -33.3172 -33.3009 -33.2987
   -33.2863 -33.2764 -33.2675 -33.2602 -33.2535 -33.2531 -33.2475 -33.2394
   -33.2101 -33.2003 -33.1704 -33.1644 -33.1255 -32.9876 -32.9775 -32.9618
   -32.9260 -32.9026 -32.4971 -32.4817 -32.4707 -32.3489 -32.3030 -32.2730
   -20.2970 -17.7057 -17.5004 -17.2910 -17.2394 -17.1975 -17.1735 -17.1616
   -17.0895 -17.0368 -17.0057 -16.9133 -16.8564 -16.8488 -16.8443 -16.8060
   -16.7761 -16.7217 -16.6623 -16.6218 -16.6127 -16.5506 -16.5123 -16.3987
   -16.3431 -16.2634 -16.2260 -16.1928 -16.1562 -16.1132 -16.0381 -14.7598
   -14.7243 -11.4588  -7.2286  -5.4256  -5.2162  -5.0216  -4.6590  -4.6169
    -4.5152  -4.4990  -4.4836  -4.4562  -4.4320  -4.3672  -4.3246  -4.3015
    -4.2257  -4.2056  -4.1462  -4.1318  -4.0823  -4.0669  -4.0459  -4.0362
    -4.0142  -3.9962  -3.9685  -3.9146  -3.8939  -3.8881  -3.8221  -3.7870
    -3.7305  -3.6599  -3.6299  -3.5226  -3.4876  -3.3751  -3.3280  -3.2615
    -3.2559  -3.2448  -3.1396  -3.0130  -2.9330  -2.9040  -2.8506  -2.8306
    -2.7563  -2.7264  -2.6846  -2.6094  -2.5915  -2.5674  -2.5287  -2.4897
    -2.4281  -2.4056  -2.3660  -2.3293  -2.3163  -2.3000  -2.2552  -2.1783
    -2.1522  -2.1210  -2.1140  -2.0771  -2.0472  -2.0016  -1.9841  -1.9016
    -1.8909  -1.8514  -1.8326  -1.7243  -1.6381  -1.6059  -1.5726  -1.4781
    -1.4078  -1.3747  -1.3072  -1.2490  -1.2061  -1.1124  -1.0718  -1.0164
    -1.0020  -0.9366  -0.8526  -0.8197  -0.7698  -0.7559  -0.6919  -0.6568
    -0.6514  -0.5180  -0.3244   0.0783   0.1124   0.1304   0.1940   1.8671
     2.0769   2.1658   2.1999   2.2214   2.2439   2.2987   2.3484   2.3935
     2.4039   2.5378   2.5707   2.5797   2.6078   2.6288   2.6839   2.7551
     2.7824   2.8047   2.8393   2.8815   2.9639   3.0048   3.0288   3.0626
     3.0977   3.1367   3.1681   3.2572   3.3360   3.3677   3.3974   3.4414
     3.4793   3.5003   3.5223   3.5431   3.6154   3.6479   3.7119   3.7446
     3.7805   3.8518   3.8807   3.9197   3.9256   3.9547   4.1120   4.1752
     4.2897   4.4739   4.7256   4.8071   4.8170   4.8967   4.9427   5.0924
     5.1658   5.2332   5.2722   5.3281   5.3726   5.4353   5.4961   5.6265
     5.7810   5.8292   5.8817   5.9522   6.0385   6.1242   6.2165   6.2594
     6.2870   6.3468   6.4167   6.4511   6.5054   6.5785   6.6499   6.7167
     6.7311   6.8250   6.8524   6.9847   7.0532   7.4110   7.4339   7.5713
     7.7469   7.9415   8.0713   8.3871   8.5737   8.6119   8.7408   9.0091
     9.2249   9.3213   9.4538

     the Fermi energy is     0.9973 ev

!    total energy              =   -3021.42018492 Ry
     Harris-Foulkes estimate   =   -3021.42018483 Ry
     estimated scf accuracy    <       0.00000017 Ry

     The total energy is the sum of the following terms:

     one-electron contribution =  -41241.38746903 Ry
     hartree contribution      =   20694.94019128 Ry
     xc contribution           =    -553.69079075 Ry
     ewald contribution        =   18078.71809469 Ry
     smearing contrib. (-TS)   =      -0.00021111 Ry

     total magnetization       =     0.00 Bohr mag/cell
     absolute magnetization    =     0.00 Bohr mag/cell

     convergence has been achieved in   7 iterations

     Forces acting on atoms (Ry/au):


     negative rho (up, down):  1.209E-02 1.209E-02
     atom    1 type  1   force =     0.00001637   -0.00035645   -0.13378568
     atom    2 type  2   force =     0.00000505    0.00002931    0.07212450
     atom    3 type  1   force =    -0.00135448    0.00030488   -0.06096313
     atom    4 type  2   force =     0.00290269    0.00048607    0.00638493
     atom    5 type  1   force =     0.00027566    0.00184605    0.00352531
     atom    6 type  2   force =     0.00006192    0.00005081   -0.00288650
     atom    7 type  1   force =    -0.00035046   -0.00104389    0.00452184
     atom    8 type  2   force =     0.00099548   -0.00012542   -0.00056989
     atom    9 type  1   force =    -0.00002758    0.00001985   -0.13354418
     atom   10 type  2   force =    -0.00006646    0.00006675    0.07130460
     atom   11 type  1   force =    -0.00131746   -0.00023812   -0.05587850
     atom   12 type  2   force =     0.00299321   -0.00006939    0.00609803
     atom   13 type  1   force =     0.00029084   -0.00148067    0.00346864
     atom   14 type  2   force =    -0.00119767   -0.00040758   -0.00290402
     atom   15 type  1   force =    -0.00054142    0.00049113    0.00449275
     atom   16 type  2   force =     0.00052201   -0.00010761   -0.00016126
     atom   17 type  2   force =    -0.00006959   -0.00007123    0.07938279
     atom   18 type  1   force =     0.00013613   -0.00017337    0.11912837
     atom   19 type  2   force =    -0.00010770   -0.00017540   -0.06668666
     atom   20 type  2   force =    -0.06322317    0.00014744   -0.03224341
     atom   21 type  2   force =     0.06320000    0.00001484   -0.03244606
     atom   22 type  1   force =     0.00072334    0.00108260    0.05974980
     atom   23 type  2   force =    -0.00017388    0.00004993   -0.00175744
     atom   24 type  2   force =    -0.00143448   -0.00000631   -0.02326696
     atom   25 type  2   force =    -0.00313397    0.00058893    0.00787045
     atom   26 type  1   force =     0.00063785    0.00030084    0.00461345
     atom   27 type  2   force =     0.00052581    0.00060958   -0.00381952
     atom   28 type  2   force =     0.00014442   -0.00009055   -0.00120248
     atom   29 type  2   force =     0.00021339   -0.00034914   -0.00059417
     atom   30 type  1   force =     0.00004237   -0.00069589    0.00405922
     atom   31 type  2   force =     0.00002455    0.00040256   -0.00260046
     atom   32 type  2   force =     0.00001553   -0.00017194   -0.00141894
     atom   33 type  2   force =    -0.00011801    0.00003697    0.07898509
     atom   34 type  1   force =     0.00006966   -0.00021961    0.11904066
     atom   35 type  2   force =    -0.00030458   -0.00005440   -0.06638658
     atom   36 type  2   force =    -0.06318195   -0.00005284   -0.03233024
     atom   37 type  2   force =     0.06332942   -0.00020357   -0.03248741
     atom   38 type  1   force =     0.00066160   -0.00098237    0.05996823
     atom   39 type  2   force =    -0.00045402    0.00011289   -0.00250308
     atom   40 type  2   force =    -0.00118949    0.00030747   -0.02217820
     atom   41 type  2   force =    -0.00316990   -0.00015172    0.00789619
     atom   42 type  1   force =     0.00051791    0.00005282    0.00373132
     atom   43 type  2   force =     0.00069105    0.00022071   -0.00298469
     atom   44 type  2   force =     0.00021796    0.00010606   -0.00115815
     atom   45 type  2   force =     0.00019287    0.00031099   -0.00061225
     atom   46 type  1   force =     0.00082416    0.00034925    0.00375546
     atom   47 type  2   force =     0.00007527   -0.00042700   -0.00134531
     atom   48 type  2   force =     0.00012448   -0.00001560   -0.00071200
     atom   49 type  3   force =    -0.00119579   -0.00038896    0.00287178
     atom   50 type  2   force =     0.00172807    0.00011199   -0.00308161
     atom   51 type  4   force =     0.00008252    0.00004004   -0.00007579
     atom   52 type  4   force =    -0.00008439   -0.00035761    0.00070004
     atom   53 type  4   force =     0.00024158    0.00095631   -0.00056382
     atom   54 type  4   force =     0.00021328   -0.00068044   -0.00052506

     Total force =     0.362612     Total SCF correction =     0.001408
 !ASE

     Writing output data file calc.save
 
     init_run     :     57.77s CPU     71.53s WALL (       1 calls)
     electrons    :   1675.62s CPU   2091.96s WALL (       1 calls)
     forces       :     40.53s CPU     41.76s WALL (       1 calls)

     Called by init_run:
     wfcinit      :     49.42s CPU     62.45s WALL (       1 calls)
     potinit      :      1.42s CPU      1.73s WALL (       1 calls)

     Called by electrons:
     c_bands      :   1457.30s CPU   1818.49s WALL (       8 calls)
     sum_band     :    186.86s CPU    237.51s WALL (       8 calls)
     v_of_rho     :      7.97s CPU     10.07s WALL (       8 calls)
     newd         :     27.32s CPU     29.91s WALL (       8 calls)
     mix_rho      :      0.30s CPU      0.45s WALL (       8 calls)
     vdW_energy   :      1.47s CPU      1.80s WALL (       9 calls)
     vdW_ffts     :      2.13s CPU      2.93s WALL (      18 calls)
     vdW_v        :      0.89s CPU      1.06s WALL (       9 calls)

     Called by c_bands:
     init_us_2    :      4.90s CPU      5.40s WALL (     720 calls)
     cegterg      :   1428.71s CPU   1787.84s WALL (     320 calls)

     Called by *egterg:
     h_psi        :    622.24s CPU    921.23s WALL (    1493 calls)
     s_psi        :     74.51s CPU     77.68s WALL (    1493 calls)
     g_psi        :      4.15s CPU      4.19s WALL (    1133 calls)
     cdiaghg      :    456.63s CPU    466.98s WALL (    1413 calls)

     Called by h_psi:
     add_vuspsi   :     75.04s CPU     78.69s WALL (    1493 calls)

     General routines
     calbec       :    114.47s CPU    117.14s WALL (    1853 calls)
     fft          :      4.82s CPU      6.41s WALL (     713 calls)
     ffts         :      0.05s CPU      0.07s WALL (      32 calls)
     fftw         :    414.69s CPU    744.50s WALL (  601012 calls)
     interpolate  :      0.26s CPU      0.44s WALL (      32 calls)
     davcio       :      0.07s CPU      2.15s WALL (      40 calls)
 
     Parallel routines
     fft_scatter  :    224.70s CPU    395.29s WALL (  601757 calls)
 
     PWSCF        : 29m34.97s CPU    36m49.29s WALL

 
   This run was terminated on:   0:48:28  13Feb2018            

=------------------------------------------------------------------------------=
   JOB DONE.
=------------------------------------------------------------------------------=
