  python dir          : /home/vossj/suncat/lib/python2.7/site-packages/espresso
  espresso dir        : /home/vossj/suncat/esdld/espresso-dynpy-beef/bin
  pseudo dir          : /home/alatimer/bin/psp/esp_psp_w_gbrvRu/
  ase-espresso py git : ffa2778-git



     Program PWSCF v.5.1rc2 (svn rev. ) starts on 13Feb2018 at  6:17:56 

     This program is part of the open-source Quantum ESPRESSO suite
     for quantum simulation of materials; please cite
         "P. Giannozzi et al., J. Phys.:Condens. Matter 21 395502 (2009);
          URL http://www.quantum-espresso.org", 
     in publications or presentations arising from this work. More details at
     http://www.quantum-espresso.org/quote

     Parallel version (MPI), running on    16 processors
     R & G space division:  proc/nbgrp/npool/nimage =      16
     Reading input from pw.inp
     Message from routine read_cards :
     DEPRECATED: no units specified in CELL_PARAMETERS card

     Current dimensions of program PWSCF are:
     Max number of different atomic species (ntypx) = 10
     Max number of k-points (npk) =  40000
     Max angular momentum in pseudopotentials (lmaxx) =  3

     **************************************************************************
     Initializing libbeef V0.1.1 with the BEEF-vdW functional.
     Citation: Wellendorff et al., PRB 85, 235149 (2012).
     **************************************************************************


     IMPORTANT: XC functional enforced from input :
     Exchange-correlation      = BEEF ( 1  4 27 13 2)
     Any further DFT definition will be discarded
     Please, verify this is what you really want


     Subspace diagonalization in iterative solution of the eigenvalue problem:
     a serial algorithm will be used

 
     Parallelization info
     --------------------
     sticks:   dense  smooth     PW     G-vecs:    dense   smooth      PW
     Min         281     112     31                68535    17318    2565
     Max         282     113     32                68545    17369    2582
     Sum        4501    1795    503              1096637   277353   41113
 
     Generating pointlists ...
     new r_m :   0.4125 (alat units)  0.7795 (a.u.) for type    1
     new r_m :   0.3995 (alat units)  0.7549 (a.u.) for type    2
     new r_m :   0.4125 (alat units)  0.7795 (a.u.) for type    3
     new r_m :   0.3995 (alat units)  0.7549 (a.u.) for type    4


     bravais-lattice index     =            0
     lattice parameter (alat)  =       1.8897  a.u.
     unit-cell volume          =    7990.9933 (a.u.)^3
     number of atoms/cell      =           54
     number of atomic types    =            4
     number of electrons       =       398.00
     number of Kohn-Sham states=          299
     kinetic-energy cutoff     =      40.4243  Ry
     charge density cutoff     =     404.2426  Ry
     convergence threshold     =      7.3E-07
     mixing beta               =       0.1000
     number of iterations used =           10  plain     mixing
     Exchange-correlation      = BEEF ( 1  4 27 13 2)
     nstep                     =           50


     celldm(1)=   1.889726  celldm(2)=   0.000000  celldm(3)=   0.000000
     celldm(4)=   0.000000  celldm(5)=   0.000000  celldm(6)=   0.000000

     crystal axes: (cart. coord. in units of alat)
               a(1) = (   6.590708   0.000000   0.000000 )  
               a(2) = (   0.000000   5.950229   0.000000 )  
               a(3) = (   0.000000   0.000000  30.195235 )  

     reciprocal axes: (cart. coord. in units 2 pi/alat)
               b(1) = (  0.151729  0.000000  0.000000 )  
               b(2) = (  0.000000  0.168061  0.000000 )  
               b(3) = (  0.000000  0.000000  0.033118 )  


     PseudoPot. # 1 for Ti read from file:
     /home/alatimer/bin/psp/esp_psp_w_gbrvRu/Ti.UPF
     MD5 check sum: 8e4df49b7f0d34bbd5052bf3f5ea0213
     Pseudo is Ultrasoft, Zval = 12.0
     Generated by new atomic code, or converted to UPF format
     Using radial grid of  851 points,  6 beta functions with: 
                l(1) =   0
                l(2) =   0
                l(3) =   1
                l(4) =   1
                l(5) =   2
                l(6) =   2
     Q(r) pseudized with  8 coefficients,  rinner =    1.000   1.000   1.000
                                                       1.000   1.000

     PseudoPot. # 2 for  O read from file:
     /home/alatimer/bin/psp/esp_psp_w_gbrvRu/O.UPF
     MD5 check sum: e057bbcf3229fb5d8c36c0c92f9568b4
     Pseudo is Ultrasoft + core correction, Zval =  6.0
     Generated using "atomic" code by A. Dal Corso  v.5.0.2 svn rev. 9415
     Using radial grid of 1095 points,  4 beta functions with: 
                l(1) =   0
                l(2) =   0
                l(3) =   1
                l(4) =   1
     Q(r) pseudized with 0 coefficients 


     PseudoPot. # 3 for  C read from file:
     /home/alatimer/bin/psp/esp_psp_w_gbrvRu/C.UPF
     MD5 check sum: ab446d787031eba755f1d5ee46644bb0
     Pseudo is Ultrasoft + core correction, Zval =  4.0
     Generated using "atomic" code by A. Dal Corso  v.5.0.2 svn rev. 9415
     Using radial grid of 1073 points,  4 beta functions with: 
                l(1) =   0
                l(2) =   0
                l(3) =   1
                l(4) =   1
     Q(r) pseudized with 0 coefficients 


     PseudoPot. # 4 for  H read from file:
     /home/alatimer/bin/psp/esp_psp_w_gbrvRu/H.UPF
     MD5 check sum: bd57da0722753ddfd9833a65b40bb853
     Pseudo is Ultrasoft, Zval =  1.0
     Generated using "atomic" code by A. Dal Corso  v.5.0.2 svn rev. 9415
     Using radial grid of  929 points,  2 beta functions with: 
                l(1) =   0
                l(2) =   0
     Q(r) pseudized with 0 coefficients 


     vdW kernel table read from file vdW_kernel_table
     MD5 check sum: 095c7af220d748ca6e76c0b4c6cfb241

     atomic species   valence    mass     pseudopotential
        Ti1           12.00    47.88000     Ti( 1.00)
        O1             6.00    15.99940      O( 1.00)
        C1             4.00    12.01100      C( 1.00)
        H1             1.00     1.00794      H( 1.00)

     Starting magnetic structure 
     atomic species   magnetization
        Ti1          0.250
        O1           0.500
        C1           0.750
        H1           0.000

     No symmetry found



   Cartesian axes

     site n.     atom                  positions (alat units)
         1           Ti1 tau(   1) = (   1.6476770   0.7437786   2.6545865  )
         2           O1  tau(   2) = (   1.6476770   2.2313359   3.9361215  )
         3           Ti1 tau(   3) = (   1.6476770   2.2313359   5.9499405  )
         4           O1  tau(   4) = (   0.3661420   0.7437786   5.9499405  )
         5           Ti1 tau(   5) = (   1.7592931   0.7557636   9.1813031  )
         6           O1  tau(   6) = (   1.6162490   2.2572048  10.5951269  )
         7           Ti1 tau(   7) = (   1.5595004   2.2680265  12.4668274  )
         8           O1  tau(   8) = (   0.3709531   0.7738127  12.6996540  )
         9           Ti1 tau(   9) = (   1.6476770   3.7188931   2.6545865  )
        10           O1  tau(  10) = (   1.6476770   5.2064503   3.9361215  )
        11           Ti1 tau(  11) = (   1.6476770   5.2064503   5.9499405  )
        12           O1  tau(  12) = (   0.3661420   3.7188931   5.9499405  )
        13           Ti1 tau(  13) = (   1.7607536   3.7112867   9.1949733  )
        14           O1  tau(  14) = (   1.6133076   5.2250699  10.5465640  )
        15           Ti1 tau(  15) = (   1.6492307   5.2431137  12.3448001  )
        16           O1  tau(  16) = (   0.3719744   3.7598389  12.7007434  )
        17           O1  tau(  17) = (   1.6476770   2.2313359   1.3730516  )
        18           Ti1 tau(  18) = (   4.9430310   2.2313359   2.6545865  )
        19           O1  tau(  19) = (   4.9430310   2.2313359   4.6684056  )
        20           O1  tau(  20) = (   6.2245660   0.7437786   2.6545865  )
        21           O1  tau(  21) = (   3.6614961   0.7437786   2.6545865  )
        22           Ti1 tau(  22) = (   4.9430310   0.7437786   5.9499405  )
        23           O1  tau(  23) = (   1.6387103   2.2391978   8.0037664  )
        24           O1  tau(  24) = (   4.9430310   2.2313359   7.2314755  )
        25           O1  tau(  25) = (   2.9292120   0.7437786   5.9499405  )
        26           Ti1 tau(  26) = (   5.0158092   2.2383949   9.3973727  )
        27           O1  tau(  27) = (   4.9391445   2.2276729  11.2675731  )
        28           O1  tau(  28) = (   6.2094020   0.7514556   9.2742047  )
        29           O1  tau(  29) = (   3.6131301   0.7515640   9.2682932  )
        30           Ti1 tau(  30) = (   4.8940083   0.8207741  12.7348365  )
        31           O1  tau(  31) = (   4.8487174   2.2703822  13.8475395  )
        32           O1  tau(  32) = (   2.8766274   0.7418004  12.6316555  )
        33           O1  tau(  33) = (   1.6476770   5.2064503   1.3730516  )
        34           Ti1 tau(  34) = (   4.9430310   5.2064503   2.6545865  )
        35           O1  tau(  35) = (   4.9430310   5.2064503   4.6684056  )
        36           O1  tau(  36) = (   6.2245660   3.7188931   2.6545865  )
        37           O1  tau(  37) = (   3.6614961   3.7188931   2.6545865  )
        38           Ti1 tau(  38) = (   4.9430310   3.7188931   5.9499405  )
        39           O1  tau(  39) = (   1.6418458   5.2133935   8.0066417  )
        40           O1  tau(  40) = (   4.9430310   5.2064503   7.2314755  )
        41           O1  tau(  41) = (   2.9292120   3.7188931   5.9499405  )
        42           Ti1 tau(  42) = (   5.0218241   5.2139137   9.3870600  )
        43           O1  tau(  43) = (   4.9399496   5.2040061  11.2598200  )
        44           O1  tau(  44) = (   6.2073000   3.7245411   9.2731052  )
        45           O1  tau(  45) = (   3.6137513   3.7232133   9.2682466  )
        46           Ti1 tau(  46) = (   4.8936935   3.8094630  12.7397413  )
        47           O1  tau(  47) = (   4.9051259   5.2510468  13.8339921  )
        48           O1  tau(  48) = (   2.8743370   3.7938830  12.6403791  )
        49           C1  tau(  49) = (   1.0587210   2.2268971  15.9066084  )
        50           O1  tau(  50) = (   1.8917182   2.2355032  14.7378010  )
        51           H1  tau(  51) = (   0.0310076   2.2200215  15.5603933  )
        52           H1  tau(  52) = (   2.8355400   2.2288152  14.9543747  )
        53           H1  tau(  53) = (   1.2478062   1.3326534  16.5039879  )
        54           H1  tau(  54) = (   1.2041453   3.1195140  16.5098874  )

     number of k points=    40  Fermi-Dirac smearing, width (Ry)=  0.0073
                       cart. coord. in units 2pi/alat
        k(    1) = (   0.0000000   0.0000000   0.0000000), wk =   0.0277778
        k(    2) = (   0.0000000   0.0280101   0.0000000), wk =   0.0555556
        k(    3) = (   0.0000000   0.0560203   0.0000000), wk =   0.0555556
        k(    4) = (   0.0000000  -0.0840304   0.0000000), wk =   0.0277778
        k(    5) = (   0.0252881   0.0000000   0.0000000), wk =   0.0555556
        k(    6) = (   0.0252881   0.0280101   0.0000000), wk =   0.0555556
        k(    7) = (   0.0252881   0.0560203   0.0000000), wk =   0.0555556
        k(    8) = (   0.0252881  -0.0840304   0.0000000), wk =   0.0555556
        k(    9) = (   0.0505763   0.0000000   0.0000000), wk =   0.0555556
        k(   10) = (   0.0505763   0.0280101   0.0000000), wk =   0.0555556
        k(   11) = (   0.0505763   0.0560203   0.0000000), wk =   0.0555556
        k(   12) = (   0.0505763  -0.0840304   0.0000000), wk =   0.0555556
        k(   13) = (  -0.0758644   0.0000000   0.0000000), wk =   0.0277778
        k(   14) = (  -0.0758644   0.0280101   0.0000000), wk =   0.0555556
        k(   15) = (  -0.0758644   0.0560203   0.0000000), wk =   0.0555556
        k(   16) = (  -0.0758644  -0.0840304   0.0000000), wk =   0.0277778
        k(   17) = (  -0.0252881   0.0280101   0.0000000), wk =   0.0555556
        k(   18) = (  -0.0252881   0.0560203   0.0000000), wk =   0.0555556
        k(   19) = (  -0.0505763   0.0280101   0.0000000), wk =   0.0555556
        k(   20) = (  -0.0505763   0.0560203   0.0000000), wk =   0.0555556
        k(   21) = (   0.0000000   0.0000000   0.0000000), wk =   0.0277778
        k(   22) = (   0.0000000   0.0280101   0.0000000), wk =   0.0555556
        k(   23) = (   0.0000000   0.0560203   0.0000000), wk =   0.0555556
        k(   24) = (   0.0000000  -0.0840304   0.0000000), wk =   0.0277778
        k(   25) = (   0.0252881   0.0000000   0.0000000), wk =   0.0555556
        k(   26) = (   0.0252881   0.0280101   0.0000000), wk =   0.0555556
        k(   27) = (   0.0252881   0.0560203   0.0000000), wk =   0.0555556
        k(   28) = (   0.0252881  -0.0840304   0.0000000), wk =   0.0555556
        k(   29) = (   0.0505763   0.0000000   0.0000000), wk =   0.0555556
        k(   30) = (   0.0505763   0.0280101   0.0000000), wk =   0.0555556
        k(   31) = (   0.0505763   0.0560203   0.0000000), wk =   0.0555556
        k(   32) = (   0.0505763  -0.0840304   0.0000000), wk =   0.0555556
        k(   33) = (  -0.0758644   0.0000000   0.0000000), wk =   0.0277778
        k(   34) = (  -0.0758644   0.0280101   0.0000000), wk =   0.0555556
        k(   35) = (  -0.0758644   0.0560203   0.0000000), wk =   0.0555556
        k(   36) = (  -0.0758644  -0.0840304   0.0000000), wk =   0.0277778
        k(   37) = (  -0.0252881   0.0280101   0.0000000), wk =   0.0555556
        k(   38) = (  -0.0252881   0.0560203   0.0000000), wk =   0.0555556
        k(   39) = (  -0.0505763   0.0280101   0.0000000), wk =   0.0555556
        k(   40) = (  -0.0505763   0.0560203   0.0000000), wk =   0.0555556

     Dense  grid:  1096637 G-vectors     FFT dimensions: (  80,  72, 375)

     Smooth grid:   277353 G-vectors     FFT dimensions: (  54,  45, 240)

     Largest allocated arrays     est. size (Mb)     dimensions
        Kohn-Sham Wavefunctions         9.95 Mb     (    2180,  299)
        NL pseudopotentials            18.89 Mb     (    2180,  568)
        Each V/rho on FFT grid          4.22 Mb     (  138240,   2)
        Each G-vector array             0.52 Mb     (   68538)
        G-vector shells                 0.25 Mb     (   33046)
     Largest temporary arrays     est. size (Mb)     dimensions
        Auxiliary wavefunctions        39.78 Mb     (    2180, 1196)
        Each subspace H/S matrix       21.83 Mb     (    1196, 1196)
        Each <psi_i|beta_j> matrix      2.59 Mb     (     568,  299)
        Arrays for rho mixing          21.09 Mb     (  138240,   10)

     Check: negative/imaginary core charge=   -0.000049    0.000000

     The initial density is read from file :
     ./calc.save/charge-density.dat


     negative rho (up, down):  1.209E-02 1.209E-02


     ************************************************************************
     *
     * You are using vdW-DF for exchange-correlation in this calculation.
     * Please cite the following three references that made this development
     * possible:
     *
     *   M. Dion, H. Rydberg, E. Schroder, D. C. Langreth, and
     *   B. I. Lundqvist, Phys. Rev. Lett. 92, 246401 (2004).
     *
     *   T. Thonhauser, V. R. Cooper, S. Li, A. Puzder, P. Hyldgaard, and
     *   D. C. Langreth, Phys. Rev. B 76, 125112 (2007).
     *
     *   G. Roman-Perez and J. M. Soler, Phys. Rev. Lett. 103, 096102 (2009).
     *
     *
     * If you are using vdW-DF2, please also cite:
     *
     *   K. Lee, E. D. Murray, L. Kong, B. I. Lundqvist, and
     *   D. C. Langreth, Phys. Rev. B 82, 081101(R) (2010).
     *
     *
     * If you are calculating the stress with vdW-DF, please also cite:
     *
     *   R. Sabatini, E. Kucukbenli, B. Kolb, T. Thonhauser, and
     *   S. de Gironcoli, J. Phys.: Condens. Matter 24, 424209 (2012).
     *
     ************************************************************************

     Carrying out vdW-DF run using the following parameters:

     Nqs =      20    Nr_points =    1024   r_max =   100.000
     q_mesh =
               0.00001000     0.04494208     0.09755937     0.15916263
               0.23128650     0.31572767     0.41458969     0.53033537
               0.66584808     0.82450364     1.01025438     1.22772762
               1.48234092     1.78043706     2.12944203     2.53805004
               3.01644009     3.57652955     4.23227104     5.00000000

     Gradients computed in reciprocal space

     ************************************************************************


     Starting wfc are  300 randomized atomic wfcs

     total cpu time spent up to now is       69.3 secs

     Self-consistent Calculation

     iteration #  1     ecut=    40.42 Ry     beta=0.10
     Davidson diagonalization with overlap
     ethr =  1.00E-05,  avg # of iterations = 14.7

     Threshold (ethr) on eigenvalues was too large:
     Diagonalizing with lowered threshold

     Davidson diagonalization with overlap
     ethr =  3.16E-07,  avg # of iterations =  1.0

     negative rho (up, down):  1.209E-02 1.209E-02
 
     Magnetic moment per site:
     atom:    1    charge:    3.1250    magn:   -0.0002    constr:    0.0000
     atom:    2    charge:    1.9452    magn:    0.0000    constr:    0.0000
     atom:    3    charge:    3.1198    magn:    0.0000    constr:    0.0000
     atom:    4    charge:    1.9504    magn:   -0.0001    constr:    0.0000
     atom:    5    charge:    3.1166    magn:    0.0000    constr:    0.0000
     atom:    6    charge:    1.9477    magn:   -0.0001    constr:    0.0000
     atom:    7    charge:    3.1157    magn:    0.0001    constr:    0.0000
     atom:    8    charge:    1.9452    magn:   -0.0001    constr:    0.0000
     atom:    9    charge:    3.1250    magn:   -0.0002    constr:    0.0000
     atom:   10    charge:    1.9452    magn:    0.0000    constr:    0.0000
     atom:   11    charge:    3.1197    magn:    0.0000    constr:    0.0000
     atom:   12    charge:    1.9504    magn:   -0.0001    constr:    0.0000
     atom:   13    charge:    3.1158    magn:    0.0000    constr:    0.0000
     atom:   14    charge:    1.9587    magn:   -0.0001    constr:    0.0000
     atom:   15    charge:    3.1188    magn:    0.0001    constr:    0.0000
     atom:   16    charge:    1.9446    magn:   -0.0001    constr:    0.0000
     atom:   17    charge:    1.9184    magn:    0.0004    constr:    0.0000
     atom:   18    charge:    3.1239    magn:   -0.0001    constr:    0.0000
     atom:   19    charge:    1.9408    magn:   -0.0000    constr:    0.0000
     atom:   20    charge:    1.9471    magn:    0.0000    constr:    0.0000
     atom:   21    charge:    1.9471    magn:    0.0000    constr:    0.0000
     atom:   22    charge:    3.1196    magn:    0.0000    constr:    0.0000
     atom:   23    charge:    1.9566    magn:   -0.0001    constr:    0.0000
     atom:   24    charge:    1.9379    magn:   -0.0001    constr:    0.0000
     atom:   25    charge:    1.9505    magn:   -0.0001    constr:    0.0000
     atom:   26    charge:    3.1145    magn:    0.0001    constr:    0.0000
     atom:   27    charge:    1.9398    magn:   -0.0001    constr:    0.0000
     atom:   28    charge:    1.9517    magn:   -0.0001    constr:    0.0000
     atom:   29    charge:    1.9476    magn:   -0.0001    constr:    0.0000
     atom:   30    charge:    3.1167    magn:    0.0000    constr:    0.0000
     atom:   31    charge:    1.9447    magn:   -0.0000    constr:    0.0000
     atom:   32    charge:    1.9440    magn:   -0.0001    constr:    0.0000
     atom:   33    charge:    1.9184    magn:    0.0004    constr:    0.0000
     atom:   34    charge:    3.1239    magn:   -0.0001    constr:    0.0000
     atom:   35    charge:    1.9408    magn:   -0.0000    constr:    0.0000
     atom:   36    charge:    1.9471    magn:    0.0000    constr:    0.0000
     atom:   37    charge:    1.9471    magn:    0.0000    constr:    0.0000
     atom:   38    charge:    3.1196    magn:    0.0000    constr:    0.0000
     atom:   39    charge:    1.9549    magn:   -0.0001    constr:    0.0000
     atom:   40    charge:    1.9383    magn:   -0.0001    constr:    0.0000
     atom:   41    charge:    1.9505    magn:   -0.0001    constr:    0.0000
     atom:   42    charge:    3.1141    magn:    0.0001    constr:    0.0000
     atom:   43    charge:    1.9413    magn:   -0.0001    constr:    0.0000
     atom:   44    charge:    1.9517    magn:   -0.0001    constr:    0.0000
     atom:   45    charge:    1.9468    magn:   -0.0001    constr:    0.0000
     atom:   46    charge:    3.1165    magn:    0.0000    constr:    0.0000
     atom:   47    charge:    1.9431    magn:   -0.0000    constr:    0.0000
     atom:   48    charge:    1.9444    magn:   -0.0001    constr:    0.0000
     atom:   49    charge:    0.6583    magn:   -0.0001    constr:    0.0000
     atom:   50    charge:    1.9576    magn:   -0.0001    constr:    0.0000
     atom:   51    charge:    0.4024    magn:    0.0000    constr:    0.0000
     atom:   52    charge:    0.4006    magn:    0.0000    constr:    0.0000
     atom:   53    charge:    0.4033    magn:    0.0000    constr:    0.0000
     atom:   54    charge:    0.4055    magn:    0.0000    constr:    0.0000

     total cpu time spent up to now is      967.9 secs

     total energy              =   -3021.42015323 Ry
     Harris-Foulkes estimate   =   -3021.42024074 Ry
     estimated scf accuracy    <       0.00125457 Ry

     total magnetization       =     0.00 Bohr mag/cell
     absolute magnetization    =     0.01 Bohr mag/cell

     iteration #  2     ecut=    40.42 Ry     beta=0.10
     Davidson diagonalization with overlap
     ethr =  3.15E-07,  avg # of iterations =  1.0

     negative rho (up, down):  1.209E-02 1.209E-02
 
     Magnetic moment per site:
     atom:    1    charge:    3.1250    magn:   -0.0001    constr:    0.0000
     atom:    2    charge:    1.9452    magn:    0.0000    constr:    0.0000
     atom:    3    charge:    3.1198    magn:    0.0000    constr:    0.0000
     atom:    4    charge:    1.9504    magn:   -0.0000    constr:    0.0000
     atom:    5    charge:    3.1166    magn:    0.0000    constr:    0.0000
     atom:    6    charge:    1.9477    magn:   -0.0001    constr:    0.0000
     atom:    7    charge:    3.1157    magn:    0.0000    constr:    0.0000
     atom:    8    charge:    1.9453    magn:   -0.0001    constr:    0.0000
     atom:    9    charge:    3.1250    magn:   -0.0001    constr:    0.0000
     atom:   10    charge:    1.9452    magn:    0.0000    constr:    0.0000
     atom:   11    charge:    3.1197    magn:    0.0000    constr:    0.0000
     atom:   12    charge:    1.9504    magn:   -0.0000    constr:    0.0000
     atom:   13    charge:    3.1158    magn:    0.0000    constr:    0.0000
     atom:   14    charge:    1.9587    magn:   -0.0001    constr:    0.0000
     atom:   15    charge:    3.1188    magn:    0.0000    constr:    0.0000
     atom:   16    charge:    1.9446    magn:   -0.0001    constr:    0.0000
     atom:   17    charge:    1.9184    magn:    0.0003    constr:    0.0000
     atom:   18    charge:    3.1239    magn:   -0.0001    constr:    0.0000
     atom:   19    charge:    1.9408    magn:   -0.0000    constr:    0.0000
     atom:   20    charge:    1.9471    magn:    0.0000    constr:    0.0000
     atom:   21    charge:    1.9471    magn:    0.0000    constr:    0.0000
     atom:   22    charge:    3.1196    magn:    0.0000    constr:    0.0000
     atom:   23    charge:    1.9566    magn:   -0.0001    constr:    0.0000
     atom:   24    charge:    1.9379    magn:   -0.0000    constr:    0.0000
     atom:   25    charge:    1.9505    magn:   -0.0000    constr:    0.0000
     atom:   26    charge:    3.1145    magn:    0.0000    constr:    0.0000
     atom:   27    charge:    1.9398    magn:   -0.0000    constr:    0.0000
     atom:   28    charge:    1.9517    magn:   -0.0001    constr:    0.0000
     atom:   29    charge:    1.9476    magn:   -0.0001    constr:    0.0000
     atom:   30    charge:    3.1167    magn:    0.0000    constr:    0.0000
     atom:   31    charge:    1.9447    magn:   -0.0000    constr:    0.0000
     atom:   32    charge:    1.9440    magn:   -0.0001    constr:    0.0000
     atom:   33    charge:    1.9184    magn:    0.0003    constr:    0.0000
     atom:   34    charge:    3.1239    magn:   -0.0001    constr:    0.0000
     atom:   35    charge:    1.9408    magn:   -0.0000    constr:    0.0000
     atom:   36    charge:    1.9471    magn:    0.0000    constr:    0.0000
     atom:   37    charge:    1.9471    magn:    0.0000    constr:    0.0000
     atom:   38    charge:    3.1196    magn:    0.0000    constr:    0.0000
     atom:   39    charge:    1.9550    magn:   -0.0001    constr:    0.0000
     atom:   40    charge:    1.9383    magn:   -0.0000    constr:    0.0000
     atom:   41    charge:    1.9505    magn:   -0.0000    constr:    0.0000
     atom:   42    charge:    3.1141    magn:    0.0000    constr:    0.0000
     atom:   43    charge:    1.9413    magn:   -0.0000    constr:    0.0000
     atom:   44    charge:    1.9517    magn:   -0.0001    constr:    0.0000
     atom:   45    charge:    1.9469    magn:   -0.0001    constr:    0.0000
     atom:   46    charge:    3.1165    magn:    0.0000    constr:    0.0000
     atom:   47    charge:    1.9431    magn:   -0.0000    constr:    0.0000
     atom:   48    charge:    1.9444    magn:   -0.0001    constr:    0.0000
     atom:   49    charge:    0.6594    magn:   -0.0000    constr:    0.0000
     atom:   50    charge:    1.9569    magn:   -0.0000    constr:    0.0000
     atom:   51    charge:    0.4030    magn:    0.0000    constr:    0.0000
     atom:   52    charge:    0.4004    magn:    0.0000    constr:    0.0000
     atom:   53    charge:    0.4029    magn:    0.0000    constr:    0.0000
     atom:   54    charge:    0.4060    magn:    0.0000    constr:    0.0000

     total cpu time spent up to now is     1136.6 secs

     total energy              =   -3021.41987683 Ry
     Harris-Foulkes estimate   =   -3021.42015820 Ry
     estimated scf accuracy    <       0.00093939 Ry

     total magnetization       =     0.00 Bohr mag/cell
     absolute magnetization    =     0.01 Bohr mag/cell

     iteration #  3     ecut=    40.42 Ry     beta=0.10
     Davidson diagonalization with overlap
     ethr =  2.36E-07,  avg # of iterations =  3.0

     negative rho (up, down):  1.209E-02 1.209E-02
 
     Magnetic moment per site:
     atom:    1    charge:    3.1250    magn:   -0.0001    constr:    0.0000
     atom:    2    charge:    1.9452    magn:    0.0000    constr:    0.0000
     atom:    3    charge:    3.1198    magn:    0.0000    constr:    0.0000
     atom:    4    charge:    1.9504    magn:   -0.0000    constr:    0.0000
     atom:    5    charge:    3.1166    magn:    0.0000    constr:    0.0000
     atom:    6    charge:    1.9476    magn:   -0.0001    constr:    0.0000
     atom:    7    charge:    3.1157    magn:    0.0000    constr:    0.0000
     atom:    8    charge:    1.9452    magn:   -0.0001    constr:    0.0000
     atom:    9    charge:    3.1250    magn:   -0.0001    constr:    0.0000
     atom:   10    charge:    1.9452    magn:    0.0000    constr:    0.0000
     atom:   11    charge:    3.1197    magn:    0.0000    constr:    0.0000
     atom:   12    charge:    1.9504    magn:   -0.0000    constr:    0.0000
     atom:   13    charge:    3.1158    magn:    0.0000    constr:    0.0000
     atom:   14    charge:    1.9587    magn:   -0.0001    constr:    0.0000
     atom:   15    charge:    3.1189    magn:    0.0000    constr:    0.0000
     atom:   16    charge:    1.9445    magn:   -0.0000    constr:    0.0000
     atom:   17    charge:    1.9184    magn:    0.0003    constr:    0.0000
     atom:   18    charge:    3.1239    magn:   -0.0001    constr:    0.0000
     atom:   19    charge:    1.9408    magn:   -0.0000    constr:    0.0000
     atom:   20    charge:    1.9471    magn:    0.0000    constr:    0.0000
     atom:   21    charge:    1.9471    magn:    0.0000    constr:    0.0000
     atom:   22    charge:    3.1196    magn:    0.0000    constr:    0.0000
     atom:   23    charge:    1.9566    magn:   -0.0001    constr:    0.0000
     atom:   24    charge:    1.9379    magn:   -0.0000    constr:    0.0000
     atom:   25    charge:    1.9505    magn:   -0.0000    constr:    0.0000
     atom:   26    charge:    3.1145    magn:    0.0000    constr:    0.0000
     atom:   27    charge:    1.9398    magn:   -0.0000    constr:    0.0000
     atom:   28    charge:    1.9517    magn:   -0.0000    constr:    0.0000
     atom:   29    charge:    1.9476    magn:   -0.0001    constr:    0.0000
     atom:   30    charge:    3.1167    magn:    0.0000    constr:    0.0000
     atom:   31    charge:    1.9446    magn:   -0.0000    constr:    0.0000
     atom:   32    charge:    1.9441    magn:   -0.0001    constr:    0.0000
     atom:   33    charge:    1.9184    magn:    0.0003    constr:    0.0000
     atom:   34    charge:    3.1239    magn:   -0.0000    constr:    0.0000
     atom:   35    charge:    1.9408    magn:   -0.0000    constr:    0.0000
     atom:   36    charge:    1.9471    magn:    0.0000    constr:    0.0000
     atom:   37    charge:    1.9471    magn:    0.0000    constr:    0.0000
     atom:   38    charge:    3.1196    magn:    0.0000    constr:    0.0000
     atom:   39    charge:    1.9549    magn:   -0.0001    constr:    0.0000
     atom:   40    charge:    1.9383    magn:   -0.0000    constr:    0.0000
     atom:   41    charge:    1.9505    magn:   -0.0000    constr:    0.0000
     atom:   42    charge:    3.1141    magn:    0.0000    constr:    0.0000
     atom:   43    charge:    1.9413    magn:   -0.0000    constr:    0.0000
     atom:   44    charge:    1.9517    magn:   -0.0000    constr:    0.0000
     atom:   45    charge:    1.9468    magn:   -0.0001    constr:    0.0000
     atom:   46    charge:    3.1165    magn:    0.0000    constr:    0.0000
     atom:   47    charge:    1.9431    magn:   -0.0000    constr:    0.0000
     atom:   48    charge:    1.9445    magn:   -0.0001    constr:    0.0000
     atom:   49    charge:    0.6591    magn:   -0.0000    constr:    0.0000
     atom:   50    charge:    1.9575    magn:   -0.0000    constr:    0.0000
     atom:   51    charge:    0.4029    magn:    0.0000    constr:    0.0000
     atom:   52    charge:    0.4004    magn:    0.0000    constr:    0.0000
     atom:   53    charge:    0.4030    magn:    0.0000    constr:    0.0000
     atom:   54    charge:    0.4061    magn:    0.0000    constr:    0.0000

     total cpu time spent up to now is     1335.8 secs

     total energy              =   -3021.41996794 Ry
     Harris-Foulkes estimate   =   -3021.41997817 Ry
     estimated scf accuracy    <       0.00007974 Ry

     total magnetization       =     0.00 Bohr mag/cell
     absolute magnetization    =     0.00 Bohr mag/cell

     iteration #  4     ecut=    40.42 Ry     beta=0.10
     Davidson diagonalization with overlap
     ethr =  2.00E-08,  avg # of iterations =  3.0

     negative rho (up, down):  1.209E-02 1.209E-02
 
     Magnetic moment per site:
     atom:    1    charge:    3.1250    magn:   -0.0001    constr:    0.0000
     atom:    2    charge:    1.9452    magn:    0.0000    constr:    0.0000
     atom:    3    charge:    3.1198    magn:    0.0000    constr:    0.0000
     atom:    4    charge:    1.9504    magn:   -0.0000    constr:    0.0000
     atom:    5    charge:    3.1166    magn:    0.0000    constr:    0.0000
     atom:    6    charge:    1.9476    magn:   -0.0000    constr:    0.0000
     atom:    7    charge:    3.1157    magn:    0.0000    constr:    0.0000
     atom:    8    charge:    1.9452    magn:   -0.0000    constr:    0.0000
     atom:    9    charge:    3.1250    magn:   -0.0001    constr:    0.0000
     atom:   10    charge:    1.9452    magn:    0.0000    constr:    0.0000
     atom:   11    charge:    3.1197    magn:    0.0000    constr:    0.0000
     atom:   12    charge:    1.9504    magn:   -0.0000    constr:    0.0000
     atom:   13    charge:    3.1158    magn:    0.0000    constr:    0.0000
     atom:   14    charge:    1.9587    magn:   -0.0000    constr:    0.0000
     atom:   15    charge:    3.1189    magn:    0.0000    constr:    0.0000
     atom:   16    charge:    1.9445    magn:   -0.0000    constr:    0.0000
     atom:   17    charge:    1.9184    magn:    0.0002    constr:    0.0000
     atom:   18    charge:    3.1239    magn:   -0.0000    constr:    0.0000
     atom:   19    charge:    1.9408    magn:   -0.0000    constr:    0.0000
     atom:   20    charge:    1.9471    magn:    0.0000    constr:    0.0000
     atom:   21    charge:    1.9471    magn:    0.0000    constr:    0.0000
     atom:   22    charge:    3.1196    magn:    0.0000    constr:    0.0000
     atom:   23    charge:    1.9566    magn:   -0.0000    constr:    0.0000
     atom:   24    charge:    1.9379    magn:   -0.0000    constr:    0.0000
     atom:   25    charge:    1.9505    magn:   -0.0000    constr:    0.0000
     atom:   26    charge:    3.1145    magn:    0.0000    constr:    0.0000
     atom:   27    charge:    1.9398    magn:   -0.0000    constr:    0.0000
     atom:   28    charge:    1.9517    magn:   -0.0000    constr:    0.0000
     atom:   29    charge:    1.9476    magn:   -0.0000    constr:    0.0000
     atom:   30    charge:    3.1167    magn:    0.0000    constr:    0.0000
     atom:   31    charge:    1.9446    magn:   -0.0000    constr:    0.0000
     atom:   32    charge:    1.9440    magn:   -0.0000    constr:    0.0000
     atom:   33    charge:    1.9184    magn:    0.0002    constr:    0.0000
     atom:   34    charge:    3.1239    magn:   -0.0000    constr:    0.0000
     atom:   35    charge:    1.9408    magn:   -0.0000    constr:    0.0000
     atom:   36    charge:    1.9471    magn:    0.0000    constr:    0.0000
     atom:   37    charge:    1.9471    magn:    0.0000    constr:    0.0000
     atom:   38    charge:    3.1196    magn:    0.0000    constr:    0.0000
     atom:   39    charge:    1.9549    magn:   -0.0000    constr:    0.0000
     atom:   40    charge:    1.9383    magn:   -0.0000    constr:    0.0000
     atom:   41    charge:    1.9505    magn:   -0.0000    constr:    0.0000
     atom:   42    charge:    3.1141    magn:    0.0000    constr:    0.0000
     atom:   43    charge:    1.9413    magn:   -0.0000    constr:    0.0000
     atom:   44    charge:    1.9518    magn:   -0.0000    constr:    0.0000
     atom:   45    charge:    1.9468    magn:   -0.0000    constr:    0.0000
     atom:   46    charge:    3.1165    magn:    0.0000    constr:    0.0000
     atom:   47    charge:    1.9431    magn:   -0.0000    constr:    0.0000
     atom:   48    charge:    1.9445    magn:   -0.0000    constr:    0.0000
     atom:   49    charge:    0.6590    magn:   -0.0000    constr:    0.0000
     atom:   50    charge:    1.9577    magn:   -0.0000    constr:    0.0000
     atom:   51    charge:    0.4028    magn:    0.0000    constr:    0.0000
     atom:   52    charge:    0.4005    magn:    0.0000    constr:    0.0000
     atom:   53    charge:    0.4030    magn:    0.0000    constr:    0.0000
     atom:   54    charge:    0.4062    magn:    0.0000    constr:    0.0000

     total cpu time spent up to now is     1532.7 secs

     total energy              =   -3021.41997323 Ry
     Harris-Foulkes estimate   =   -3021.41997151 Ry
     estimated scf accuracy    <       0.00002937 Ry

     total magnetization       =     0.00 Bohr mag/cell
     absolute magnetization    =     0.00 Bohr mag/cell

     iteration #  5     ecut=    40.42 Ry     beta=0.10
     Davidson diagonalization with overlap
     ethr =  7.38E-09,  avg # of iterations =  3.0

     negative rho (up, down):  1.209E-02 1.209E-02
 
     Magnetic moment per site:
     atom:    1    charge:    3.1250    magn:   -0.0001    constr:    0.0000
     atom:    2    charge:    1.9452    magn:    0.0000    constr:    0.0000
     atom:    3    charge:    3.1198    magn:    0.0000    constr:    0.0000
     atom:    4    charge:    1.9504    magn:   -0.0000    constr:    0.0000
     atom:    5    charge:    3.1166    magn:    0.0000    constr:    0.0000
     atom:    6    charge:    1.9476    magn:   -0.0000    constr:    0.0000
     atom:    7    charge:    3.1157    magn:    0.0000    constr:    0.0000
     atom:    8    charge:    1.9453    magn:   -0.0000    constr:    0.0000
     atom:    9    charge:    3.1250    magn:   -0.0001    constr:    0.0000
     atom:   10    charge:    1.9452    magn:    0.0000    constr:    0.0000
     atom:   11    charge:    3.1197    magn:    0.0000    constr:    0.0000
     atom:   12    charge:    1.9504    magn:   -0.0000    constr:    0.0000
     atom:   13    charge:    3.1158    magn:    0.0000    constr:    0.0000
     atom:   14    charge:    1.9587    magn:   -0.0000    constr:    0.0000
     atom:   15    charge:    3.1188    magn:    0.0000    constr:    0.0000
     atom:   16    charge:    1.9446    magn:   -0.0000    constr:    0.0000
     atom:   17    charge:    1.9184    magn:    0.0002    constr:    0.0000
     atom:   18    charge:    3.1239    magn:   -0.0000    constr:    0.0000
     atom:   19    charge:    1.9408    magn:   -0.0000    constr:    0.0000
     atom:   20    charge:    1.9471    magn:    0.0000    constr:    0.0000
     atom:   21    charge:    1.9471    magn:    0.0000    constr:    0.0000
     atom:   22    charge:    3.1196    magn:    0.0000    constr:    0.0000
     atom:   23    charge:    1.9566    magn:   -0.0000    constr:    0.0000
     atom:   24    charge:    1.9379    magn:   -0.0000    constr:    0.0000
     atom:   25    charge:    1.9505    magn:   -0.0000    constr:    0.0000
     atom:   26    charge:    3.1145    magn:    0.0000    constr:    0.0000
     atom:   27    charge:    1.9398    magn:   -0.0000    constr:    0.0000
     atom:   28    charge:    1.9517    magn:   -0.0000    constr:    0.0000
     atom:   29    charge:    1.9476    magn:   -0.0000    constr:    0.0000
     atom:   30    charge:    3.1167    magn:    0.0000    constr:    0.0000
     atom:   31    charge:    1.9447    magn:   -0.0000    constr:    0.0000
     atom:   32    charge:    1.9440    magn:   -0.0000    constr:    0.0000
     atom:   33    charge:    1.9184    magn:    0.0002    constr:    0.0000
     atom:   34    charge:    3.1239    magn:   -0.0000    constr:    0.0000
     atom:   35    charge:    1.9408    magn:   -0.0000    constr:    0.0000
     atom:   36    charge:    1.9471    magn:    0.0000    constr:    0.0000
     atom:   37    charge:    1.9471    magn:    0.0000    constr:    0.0000
     atom:   38    charge:    3.1196    magn:    0.0000    constr:    0.0000
     atom:   39    charge:    1.9549    magn:   -0.0000    constr:    0.0000
     atom:   40    charge:    1.9383    magn:   -0.0000    constr:    0.0000
     atom:   41    charge:    1.9505    magn:   -0.0000    constr:    0.0000
     atom:   42    charge:    3.1141    magn:    0.0000    constr:    0.0000
     atom:   43    charge:    1.9413    magn:   -0.0000    constr:    0.0000
     atom:   44    charge:    1.9518    magn:   -0.0000    constr:    0.0000
     atom:   45    charge:    1.9468    magn:   -0.0000    constr:    0.0000
     atom:   46    charge:    3.1165    magn:    0.0000    constr:    0.0000
     atom:   47    charge:    1.9431    magn:   -0.0000    constr:    0.0000
     atom:   48    charge:    1.9444    magn:   -0.0000    constr:    0.0000
     atom:   49    charge:    0.6586    magn:   -0.0000    constr:    0.0000
     atom:   50    charge:    1.9579    magn:   -0.0000    constr:    0.0000
     atom:   51    charge:    0.4026    magn:    0.0000    constr:    0.0000
     atom:   52    charge:    0.4006    magn:    0.0000    constr:    0.0000
     atom:   53    charge:    0.4032    magn:    0.0000    constr:    0.0000
     atom:   54    charge:    0.4063    magn:    0.0000    constr:    0.0000

     total cpu time spent up to now is     1730.3 secs

     total energy              =   -3021.41997125 Ry
     Harris-Foulkes estimate   =   -3021.41997412 Ry
     estimated scf accuracy    <       0.00001010 Ry

     total magnetization       =     0.00 Bohr mag/cell
     absolute magnetization    =     0.00 Bohr mag/cell

     iteration #  6     ecut=    40.42 Ry     beta=0.10
     Davidson diagonalization with overlap
     ethr =  2.54E-09,  avg # of iterations =  3.8

     negative rho (up, down):  1.209E-02 1.209E-02
 
     Magnetic moment per site:
     atom:    1    charge:    3.1250    magn:   -0.0001    constr:    0.0000
     atom:    2    charge:    1.9452    magn:    0.0000    constr:    0.0000
     atom:    3    charge:    3.1198    magn:    0.0000    constr:    0.0000
     atom:    4    charge:    1.9504    magn:   -0.0000    constr:    0.0000
     atom:    5    charge:    3.1166    magn:    0.0000    constr:    0.0000
     atom:    6    charge:    1.9476    magn:   -0.0000    constr:    0.0000
     atom:    7    charge:    3.1157    magn:    0.0000    constr:    0.0000
     atom:    8    charge:    1.9452    magn:   -0.0000    constr:    0.0000
     atom:    9    charge:    3.1250    magn:   -0.0001    constr:    0.0000
     atom:   10    charge:    1.9452    magn:    0.0000    constr:    0.0000
     atom:   11    charge:    3.1197    magn:    0.0000    constr:    0.0000
     atom:   12    charge:    1.9504    magn:   -0.0000    constr:    0.0000
     atom:   13    charge:    3.1158    magn:    0.0000    constr:    0.0000
     atom:   14    charge:    1.9587    magn:   -0.0000    constr:    0.0000
     atom:   15    charge:    3.1188    magn:    0.0000    constr:    0.0000
     atom:   16    charge:    1.9446    magn:   -0.0000    constr:    0.0000
     atom:   17    charge:    1.9184    magn:    0.0001    constr:    0.0000
     atom:   18    charge:    3.1239    magn:   -0.0000    constr:    0.0000
     atom:   19    charge:    1.9408    magn:   -0.0000    constr:    0.0000
     atom:   20    charge:    1.9471    magn:    0.0000    constr:    0.0000
     atom:   21    charge:    1.9471    magn:    0.0000    constr:    0.0000
     atom:   22    charge:    3.1196    magn:    0.0000    constr:    0.0000
     atom:   23    charge:    1.9566    magn:   -0.0000    constr:    0.0000
     atom:   24    charge:    1.9379    magn:   -0.0000    constr:    0.0000
     atom:   25    charge:    1.9505    magn:   -0.0000    constr:    0.0000
     atom:   26    charge:    3.1145    magn:    0.0000    constr:    0.0000
     atom:   27    charge:    1.9398    magn:   -0.0000    constr:    0.0000
     atom:   28    charge:    1.9517    magn:   -0.0000    constr:    0.0000
     atom:   29    charge:    1.9476    magn:   -0.0000    constr:    0.0000
     atom:   30    charge:    3.1167    magn:    0.0000    constr:    0.0000
     atom:   31    charge:    1.9447    magn:   -0.0000    constr:    0.0000
     atom:   32    charge:    1.9440    magn:   -0.0000    constr:    0.0000
     atom:   33    charge:    1.9184    magn:    0.0001    constr:    0.0000
     atom:   34    charge:    3.1239    magn:   -0.0000    constr:    0.0000
     atom:   35    charge:    1.9408    magn:   -0.0000    constr:    0.0000
     atom:   36    charge:    1.9471    magn:    0.0000    constr:    0.0000
     atom:   37    charge:    1.9471    magn:    0.0000    constr:    0.0000
     atom:   38    charge:    3.1196    magn:    0.0000    constr:    0.0000
     atom:   39    charge:    1.9549    magn:   -0.0000    constr:    0.0000
     atom:   40    charge:    1.9383    magn:   -0.0000    constr:    0.0000
     atom:   41    charge:    1.9505    magn:   -0.0000    constr:    0.0000
     atom:   42    charge:    3.1141    magn:    0.0000    constr:    0.0000
     atom:   43    charge:    1.9413    magn:   -0.0000    constr:    0.0000
     atom:   44    charge:    1.9517    magn:   -0.0000    constr:    0.0000
     atom:   45    charge:    1.9468    magn:   -0.0000    constr:    0.0000
     atom:   46    charge:    3.1165    magn:    0.0000    constr:    0.0000
     atom:   47    charge:    1.9431    magn:   -0.0000    constr:    0.0000
     atom:   48    charge:    1.9444    magn:   -0.0000    constr:    0.0000
     atom:   49    charge:    0.6587    magn:   -0.0000    constr:    0.0000
     atom:   50    charge:    1.9577    magn:   -0.0000    constr:    0.0000
     atom:   51    charge:    0.4025    magn:    0.0000    constr:    0.0000
     atom:   52    charge:    0.4006    magn:    0.0000    constr:    0.0000
     atom:   53    charge:    0.4031    magn:    0.0000    constr:    0.0000
     atom:   54    charge:    0.4063    magn:    0.0000    constr:    0.0000

     total cpu time spent up to now is     1944.4 secs

     total energy              =   -3021.41997264 Ry
     Harris-Foulkes estimate   =   -3021.41997307 Ry
     estimated scf accuracy    <       0.00000277 Ry

     total magnetization       =     0.00 Bohr mag/cell
     absolute magnetization    =     0.00 Bohr mag/cell

     iteration #  7     ecut=    40.42 Ry     beta=0.10
     Davidson diagonalization with overlap
     ethr =  6.95E-10,  avg # of iterations =  3.1

     negative rho (up, down):  1.209E-02 1.209E-02
 
     Magnetic moment per site:
     atom:    1    charge:    3.1250    magn:   -0.0000    constr:    0.0000
     atom:    2    charge:    1.9452    magn:    0.0000    constr:    0.0000
     atom:    3    charge:    3.1198    magn:    0.0000    constr:    0.0000
     atom:    4    charge:    1.9504    magn:   -0.0000    constr:    0.0000
     atom:    5    charge:    3.1166    magn:    0.0000    constr:    0.0000
     atom:    6    charge:    1.9476    magn:   -0.0000    constr:    0.0000
     atom:    7    charge:    3.1157    magn:    0.0000    constr:    0.0000
     atom:    8    charge:    1.9452    magn:   -0.0000    constr:    0.0000
     atom:    9    charge:    3.1250    magn:   -0.0000    constr:    0.0000
     atom:   10    charge:    1.9452    magn:    0.0000    constr:    0.0000
     atom:   11    charge:    3.1197    magn:    0.0000    constr:    0.0000
     atom:   12    charge:    1.9504    magn:   -0.0000    constr:    0.0000
     atom:   13    charge:    3.1158    magn:    0.0000    constr:    0.0000
     atom:   14    charge:    1.9587    magn:   -0.0000    constr:    0.0000
     atom:   15    charge:    3.1189    magn:    0.0000    constr:    0.0000
     atom:   16    charge:    1.9445    magn:   -0.0000    constr:    0.0000
     atom:   17    charge:    1.9184    magn:    0.0001    constr:    0.0000
     atom:   18    charge:    3.1239    magn:   -0.0000    constr:    0.0000
     atom:   19    charge:    1.9408    magn:   -0.0000    constr:    0.0000
     atom:   20    charge:    1.9471    magn:    0.0000    constr:    0.0000
     atom:   21    charge:    1.9471    magn:    0.0000    constr:    0.0000
     atom:   22    charge:    3.1196    magn:    0.0000    constr:    0.0000
     atom:   23    charge:    1.9566    magn:   -0.0000    constr:    0.0000
     atom:   24    charge:    1.9379    magn:   -0.0000    constr:    0.0000
     atom:   25    charge:    1.9505    magn:   -0.0000    constr:    0.0000
     atom:   26    charge:    3.1145    magn:    0.0000    constr:    0.0000
     atom:   27    charge:    1.9398    magn:   -0.0000    constr:    0.0000
     atom:   28    charge:    1.9517    magn:   -0.0000    constr:    0.0000
     atom:   29    charge:    1.9476    magn:   -0.0000    constr:    0.0000
     atom:   30    charge:    3.1167    magn:    0.0000    constr:    0.0000
     atom:   31    charge:    1.9447    magn:   -0.0000    constr:    0.0000
     atom:   32    charge:    1.9440    magn:   -0.0000    constr:    0.0000
     atom:   33    charge:    1.9184    magn:    0.0001    constr:    0.0000
     atom:   34    charge:    3.1239    magn:   -0.0000    constr:    0.0000
     atom:   35    charge:    1.9408    magn:   -0.0000    constr:    0.0000
     atom:   36    charge:    1.9471    magn:    0.0000    constr:    0.0000
     atom:   37    charge:    1.9471    magn:    0.0000    constr:    0.0000
     atom:   38    charge:    3.1196    magn:    0.0000    constr:    0.0000
     atom:   39    charge:    1.9549    magn:   -0.0000    constr:    0.0000
     atom:   40    charge:    1.9383    magn:   -0.0000    constr:    0.0000
     atom:   41    charge:    1.9505    magn:   -0.0000    constr:    0.0000
     atom:   42    charge:    3.1141    magn:    0.0000    constr:    0.0000
     atom:   43    charge:    1.9413    magn:   -0.0000    constr:    0.0000
     atom:   44    charge:    1.9517    magn:   -0.0000    constr:    0.0000
     atom:   45    charge:    1.9468    magn:   -0.0000    constr:    0.0000
     atom:   46    charge:    3.1165    magn:    0.0000    constr:    0.0000
     atom:   47    charge:    1.9431    magn:   -0.0000    constr:    0.0000
     atom:   48    charge:    1.9445    magn:   -0.0000    constr:    0.0000
     atom:   49    charge:    0.6588    magn:   -0.0000    constr:    0.0000
     atom:   50    charge:    1.9575    magn:   -0.0000    constr:    0.0000
     atom:   51    charge:    0.4026    magn:    0.0000    constr:    0.0000
     atom:   52    charge:    0.4006    magn:    0.0000    constr:    0.0000
     atom:   53    charge:    0.4031    magn:    0.0000    constr:    0.0000
     atom:   54    charge:    0.4063    magn:    0.0000    constr:    0.0000

     total cpu time spent up to now is     2145.1 secs

     End of self-consistent calculation

 ------ SPIN UP ------------


          k = 0.0000 0.0000 0.0000 ( 34665 PWs)   bands (ev):

   -57.6991 -57.6642 -57.3180 -57.2817 -57.2332 -57.1100 -57.0736 -57.0727
   -57.0514 -57.0380 -56.9901 -56.9546 -56.7302 -56.6928 -56.1496 -56.1144
   -34.1352 -33.9814 -33.9528 -33.9001 -33.8703 -33.8058 -33.7454 -33.6539
   -33.6187 -33.6054 -33.5680 -33.5410 -33.5187 -33.5079 -33.4900 -33.4863
   -33.4653 -33.4546 -33.4317 -33.3991 -33.3244 -33.2923 -33.2720 -33.2628
   -33.2553 -33.2543 -33.2434 -33.2428 -33.2374 -33.2299 -33.2298 -33.2128
   -33.1804 -33.1801 -33.1750 -33.1409 -33.1184 -32.9963 -32.9783 -32.9573
   -32.9078 -32.8049 -32.5674 -32.5019 -32.4759 -32.3716 -32.2800 -32.1716
   -20.3012 -18.0128 -17.8417 -17.5573 -17.4622 -17.3729 -17.2521 -17.0779
   -17.0667 -16.9748 -16.9390 -16.8846 -16.7842 -16.7780 -16.7296 -16.7077
   -16.7033 -16.6628 -16.6115 -16.6051 -16.5363 -16.4158 -16.4027 -16.3985
   -16.3218 -16.2680 -16.1947 -16.1676 -16.1502 -15.9790 -15.9296 -14.7343
   -14.6506 -11.4768  -7.2453  -5.4762  -5.3962  -5.3182  -5.2119  -5.2030
    -5.1459  -5.1257  -4.8394  -4.8178  -4.4723  -4.4431  -4.3597  -4.3556
    -4.3217  -4.2328  -4.0901  -4.0609  -4.0555  -4.0181  -3.9996  -3.9915
    -3.9610  -3.9522  -3.9514  -3.8403  -3.7889  -3.7658  -3.7364  -3.7180
    -3.6327  -3.6172  -3.5875  -3.5781  -3.5201  -3.5079  -3.4088  -3.3929
    -3.3708  -3.2654  -3.2337  -3.1858  -3.0139  -2.9356  -2.8792  -2.8325
    -2.6948  -2.6075  -2.5902  -2.5804  -2.5748  -2.5688  -2.4319  -2.4146
    -2.3364  -2.2694  -2.2475  -2.2050  -2.2005  -2.1677  -2.1389  -2.0932
    -2.0482  -2.0296  -2.0205  -1.8861  -1.8668  -1.7646  -1.7363  -1.6246
    -1.5434  -1.5418  -1.4908  -1.4811  -1.4635  -1.4237  -1.3223  -1.3097
    -1.3029  -1.2801  -1.2430  -1.1361  -1.0874  -1.0868  -1.0676  -1.0200
    -0.9545  -0.9156  -0.8232  -0.7665  -0.6107  -0.5876  -0.5697  -0.4793
    -0.3766  -0.2426  -0.0852  -0.0267   0.1309   0.2478   0.2614   1.6423
     1.6748   1.9854   2.0018   2.0652   2.0949   2.2047   2.2435   2.2869
     2.4297   2.4970   2.5257   2.5304   2.5418   2.6308   2.6487   2.6570
     2.7151   2.7994   2.8272   2.8389   2.9109   2.9993   3.0333   3.0988
     3.1050   3.1139   3.1609   3.2019   3.2080   3.2263   3.2397   3.2514
     3.2604   3.2886   3.3972   3.4314   3.4566   3.4663   3.5281   3.5854
     3.6533   3.6947   3.8077   3.9811   4.0162   4.0920   4.1797   4.3201
     4.3387   4.3916   4.5879   4.5994   4.8104   4.8388   5.0869   5.1667
     5.2455   5.3304   5.4789   5.5173   5.5289   5.5933   5.6780   5.7116
     5.7997   5.8651   5.8765   5.8863   5.9544   6.0387   6.0477   6.0722
     6.1443   6.2290   6.2430   6.2970   6.3780   6.5819   6.6363   6.7544
     6.8411   7.0060   7.0379   7.1615   7.3021   7.5816   7.9140   8.2534
     8.3468   8.6770   8.7943   8.8722   8.9392   9.0082   9.1769   9.2602
     9.3519   9.3813   9.5317

          k = 0.0000 0.0280 0.0000 ( 34717 PWs)   bands (ev):

   -57.6968 -57.6665 -57.3156 -57.2841 -57.2328 -57.1077 -57.0757 -57.0706
   -57.0518 -57.0403 -56.9878 -56.9570 -56.7278 -56.6952 -56.1473 -56.1167
   -34.1099 -33.9793 -33.9547 -33.8940 -33.8444 -33.8123 -33.7724 -33.6312
   -33.6119 -33.5805 -33.5426 -33.5380 -33.5209 -33.5009 -33.4932 -33.4844
   -33.4720 -33.4624 -33.4297 -33.3922 -33.3183 -33.2905 -33.2858 -33.2643
   -33.2597 -33.2530 -33.2505 -33.2399 -33.2382 -33.2364 -33.2361 -33.2173
   -33.2028 -33.1853 -33.1772 -33.1449 -33.1416 -32.9925 -32.9769 -32.9586
   -32.9129 -32.8329 -32.5418 -32.5002 -32.4777 -32.3655 -32.2862 -32.1991
   -20.3010 -17.9511 -17.7841 -17.5043 -17.4100 -17.3293 -17.2255 -17.0917
   -17.0364 -16.9986 -16.9932 -16.8862 -16.8199 -16.7617 -16.7074 -16.6897
   -16.6761 -16.6652 -16.6570 -16.6422 -16.5952 -16.4396 -16.3842 -16.3686
   -16.3485 -16.2976 -16.2118 -16.1740 -16.1540 -16.0098 -15.9667 -14.7443
   -14.6740 -11.4765  -7.2449  -5.4426  -5.3151  -5.2581  -5.2106  -5.1305
    -5.0687  -5.0470  -4.7639  -4.7035  -4.4358  -4.4005  -4.3943  -4.3122
    -4.3013  -4.1603  -4.1242  -4.1141  -4.0919  -4.0709  -4.0328  -4.0303
    -3.9661  -3.9616  -3.9501  -3.8922  -3.8534  -3.8466  -3.8378  -3.7660
    -3.7217  -3.7068  -3.6661  -3.6162  -3.5757  -3.5566  -3.4298  -3.3559
    -3.3071  -3.2351  -3.1977  -3.1032  -2.9347  -2.8710  -2.7454  -2.7250
    -2.6141  -2.6007  -2.5254  -2.5100  -2.4783  -2.4405  -2.4124  -2.4084
    -2.3870  -2.3622  -2.2885  -2.2770  -2.1684  -2.1427  -2.1365  -2.0946
    -2.0223  -1.9985  -1.9545  -1.8771  -1.8110  -1.7692  -1.7076  -1.6825
    -1.6432  -1.6262  -1.5641  -1.5260  -1.4814  -1.4385  -1.4360  -1.3965
    -1.3542  -1.2716  -1.2185  -1.2143  -1.1605  -1.0920  -1.0731  -1.0225
    -1.0102  -0.9047  -0.8705  -0.7912  -0.7623  -0.7068  -0.6084  -0.5911
    -0.3949  -0.2707  -0.0920  -0.0809   0.1458   0.2014   0.2280   1.7287
     1.7746   1.9856   2.0647   2.1301   2.1513   2.2182   2.2739   2.3127
     2.4242   2.4610   2.4987   2.5352   2.5857   2.6028   2.6301   2.6913
     2.7325   2.7703   2.7969   2.9122   2.9224   2.9511   2.9761   3.0098
     3.1106   3.1165   3.1344   3.1747   3.1922   3.2053   3.2580   3.3040
     3.3352   3.3706   3.4068   3.4732   3.5066   3.5517   3.5618   3.6487
     3.6647   3.6858   3.7714   3.9597   4.0342   4.1141   4.1909   4.2862
     4.3229   4.3962   4.5406   4.6910   4.8642   4.9253   5.0907   5.2583
     5.3037   5.3349   5.5371   5.5674   5.6035   5.6259   5.6856   5.7205
     5.7841   5.7922   5.8514   5.8779   5.8987   5.9475   6.0692   6.1221
     6.1492   6.1568   6.1759   6.2069   6.2750   6.5586   6.6030   6.6948
     6.8450   6.9484   6.9795   7.0832   7.2308   7.5855   7.9230   8.0184
     8.0601   8.4566   8.5685   8.8460   8.9095   8.9980   9.0890   9.1364
     9.2755   9.4339   9.5084

          k = 0.0000 0.0560 0.0000 ( 34721 PWs)   bands (ev):

   -57.6904 -57.6730 -57.3091 -57.2907 -57.2320 -57.1017 -57.0818 -57.0642
   -57.0527 -57.0467 -56.9813 -56.9635 -56.7212 -56.7019 -56.1408 -56.1232
   -34.0401 -33.9741 -33.9597 -33.8769 -33.8454 -33.8298 -33.7733 -33.5963
   -33.5734 -33.5722 -33.5352 -33.5276 -33.5066 -33.5044 -33.4775 -33.4725
   -33.4568 -33.4268 -33.4189 -33.3727 -33.3167 -33.3132 -33.3130 -33.3018
   -33.2862 -33.2765 -33.2680 -33.2643 -33.2536 -33.2464 -33.2344 -33.2323
   -33.2102 -33.1983 -33.1707 -33.1650 -33.1261 -32.9874 -32.9733 -32.9619
   -32.9258 -32.9026 -32.4955 -32.4825 -32.4710 -32.3490 -32.3031 -32.2733
   -20.3007 -17.7799 -17.6254 -17.3729 -17.2762 -17.2605 -17.2192 -17.1673
   -17.1365 -16.9629 -16.9536 -16.9190 -16.8740 -16.8200 -16.7887 -16.7260
   -16.7162 -16.6842 -16.6256 -16.5971 -16.5398 -16.5050 -16.4233 -16.3782
   -16.3625 -16.3022 -16.2409 -16.1951 -16.1575 -16.1103 -16.0395 -14.7625
   -14.7246 -11.4757  -7.2440  -5.4113  -5.2254  -5.0766  -5.0376  -4.9245
    -4.8587  -4.8244  -4.5621  -4.5055  -4.4732  -4.4179  -4.4098  -4.3668
    -4.3316  -4.2603  -4.2352  -4.2122  -4.1965  -4.1869  -4.1562  -4.0756
    -4.0580  -4.0060  -3.9875  -3.9689  -3.9309  -3.8916  -3.8567  -3.8175
    -3.7973  -3.7313  -3.6358  -3.5861  -3.4338  -3.4273  -3.3247  -3.2681
    -3.2390  -3.2124  -3.1925  -3.0824  -2.8902  -2.8435  -2.8371  -2.7990
    -2.7222  -2.6689  -2.5480  -2.4739  -2.4442  -2.3228  -2.3160  -2.3115
    -2.3035  -2.2493  -2.2073  -2.1796  -2.1483  -2.1180  -2.0322  -2.0106
    -1.9617  -1.9481  -1.9176  -1.9054  -1.8839  -1.8498  -1.8170  -1.7831
    -1.7457  -1.6951  -1.6256  -1.5424  -1.5276  -1.5102  -1.4559  -1.4203
    -1.3806  -1.3649  -1.3500  -1.2909  -1.2399  -1.2174  -1.1575  -1.1064
    -1.0866  -1.0240  -0.9255  -0.8931  -0.8509  -0.7856  -0.7635  -0.6605
    -0.5873  -0.4636  -0.2424   0.0907   0.1430   0.1780   0.1847   1.8643
     2.0242   2.0972   2.1087   2.2091   2.2341   2.2690   2.3661   2.3888
     2.3954   2.4109   2.4339   2.4757   2.5028   2.5373   2.6738   2.6949
     2.7334   2.7748   2.8298   2.9033   2.9150   2.9379   2.9713   2.9731
     3.0150   3.0983   3.1369   3.1567   3.2498   3.2612   3.2857   3.3289
     3.3677   3.3857   3.4402   3.5368   3.5430   3.6361   3.6767   3.7271
     3.7602   3.8228   3.8577   3.8896   3.9315   4.1301   4.1413   4.1579
     4.3267   4.3751   4.5631   4.9062   5.0153   5.0636   5.1743   5.3778
     5.3815   5.4778   5.5176   5.5491   5.6476   5.7227   5.7236   5.7330
     5.7789   5.7872   5.7989   5.8561   5.8851   5.9470   5.9772   5.9911
     6.0010   6.0542   6.1548   6.1706   6.3082   6.3742   6.4106   6.6150
     6.6612   6.7805   6.8709   7.0414   7.2124   7.3340   7.4446   7.7330
     8.0848   8.2148   8.3442   8.6163   8.8944   8.9907   9.3118   9.3319
     9.4282   9.4427   9.5604

          k = 0.0000-0.0840 0.0000 ( 34678 PWs)   bands (ev):

   -57.6818 -57.6816 -57.3016 -57.2983 -57.2315 -57.0962 -57.0873 -57.0555
   -57.0555 -57.0531 -56.9730 -56.9719 -56.7142 -56.7089 -56.1320 -56.1320
   -33.9670 -33.9668 -33.9435 -33.9434 -33.8535 -33.8533 -33.6865 -33.6625
   -33.5664 -33.5631 -33.5292 -33.5183 -33.5140 -33.4778 -33.4539 -33.4245
   -33.4143 -33.4078 -33.3754 -33.3752 -33.3631 -33.3473 -33.3415 -33.3243
   -33.3229 -33.2851 -33.2783 -33.2762 -33.2694 -33.2678 -33.2329 -33.2311
   -33.2157 -33.2138 -33.1638 -33.1629 -33.0488 -33.0279 -32.9702 -32.9647
   -32.9397 -32.9367 -32.4889 -32.4889 -32.3731 -32.3731 -32.3260 -32.3260
   -20.3006 -17.5693 -17.5057 -17.4107 -17.3904 -17.2296 -17.1757 -17.0663
   -17.0622 -17.0162 -17.0035 -16.9898 -16.8724 -16.8400 -16.8400 -16.8012
   -16.7946 -16.5966 -16.5946 -16.5262 -16.5239 -16.4888 -16.4874 -16.4049
   -16.4025 -16.2630 -16.2609 -16.2014 -16.1975 -16.1316 -16.1018 -14.7613
   -14.7612 -11.4753  -7.2435  -5.4033  -5.2301  -4.8001  -4.7337  -4.7326
    -4.6559  -4.6425  -4.6377  -4.6022  -4.5731  -4.5105  -4.5017  -4.4010
    -4.3736  -4.3397  -4.3377  -4.3089  -4.2958  -4.2806  -4.2753  -4.0551
    -4.0331  -4.0238  -4.0110  -3.9928  -3.9430  -3.8101  -3.7932  -3.7863
    -3.7163  -3.6949  -3.6403  -3.5059  -3.4737  -3.3399  -3.3268  -3.2384
    -3.1389  -3.1167  -3.0442  -3.0195  -2.9630  -2.9242  -2.8044  -2.7887
    -2.6982  -2.6938  -2.5771  -2.5396  -2.5130  -2.4954  -2.4771  -2.4478
    -2.4390  -2.4178  -2.3307  -2.2459  -2.0296  -2.0076  -1.9690  -1.9422
    -1.9277  -1.8288  -1.8228  -1.8095  -1.7820  -1.7453  -1.7314  -1.7004
    -1.6656  -1.6408  -1.6149  -1.5588  -1.5160  -1.4879  -1.4815  -1.4533
    -1.4256  -1.4178  -1.4104  -1.3820  -1.3596  -1.3265  -1.2237  -1.1875
    -1.1035  -1.0733  -1.0160  -0.9786  -0.9712  -0.9602  -0.9462  -0.5244
    -0.5195  -0.4573  -0.4431   0.1430   0.1431   0.1857   0.1874   2.0387
     2.0419   2.2181   2.2195   2.2203   2.2362   2.2844   2.3394   2.3467
     2.3468   2.3720   2.3827   2.5272   2.5535   2.5546   2.6007   2.6640
     2.7147   2.7367   2.7497   2.8911   2.9223   2.9895   2.9971   3.0571
     3.0583   3.1018   3.1125   3.1796   3.2176   3.2329   3.2456   3.4034
     3.4258   3.4368   3.4395   3.4726   3.4835   3.7251   3.7656   3.8042
     3.8078   3.8318   3.9087   3.9310   3.9685   4.0731   4.0755   4.1255
     4.1261   4.4178   4.6709   4.9601   5.0003   5.2602   5.3307   5.4571
     5.4888   5.5079   5.5080   5.5729   5.6062   5.6464   5.6651   5.6707
     5.7990   5.8041   5.8261   5.8515   5.8616   5.8664   5.8825   5.9735
     6.0199   6.0594   6.0715   6.1586   6.1959   6.4064   6.4665   6.5647
     6.6042   6.7464   6.7751   6.9804   7.0311   7.1008   7.3279   7.6992
     7.8934   8.1773   8.4146   8.7787   8.8393   8.8622   9.1449   9.6943
     9.7026   9.7495   9.7951

          k = 0.0253 0.0000 0.0000 ( 34707 PWs)   bands (ev):

   -57.6991 -57.6642 -57.3180 -57.2817 -57.2332 -57.1099 -57.0736 -57.0728
   -57.0514 -57.0380 -56.9901 -56.9546 -56.7303 -56.6928 -56.1496 -56.1144
   -34.1356 -33.9814 -33.9529 -33.8994 -33.8704 -33.8059 -33.7454 -33.6546
   -33.6187 -33.6071 -33.5682 -33.5375 -33.5325 -33.5088 -33.4863 -33.4751
   -33.4640 -33.4546 -33.4317 -33.3922 -33.3243 -33.2924 -33.2718 -33.2628
   -33.2584 -33.2578 -33.2446 -33.2415 -33.2393 -33.2299 -33.2299 -33.2126
   -33.1803 -33.1800 -33.1753 -33.1409 -33.1185 -32.9963 -32.9807 -32.9564
   -32.9079 -32.8051 -32.5674 -32.5030 -32.4754 -32.3716 -32.2800 -32.1718
   -20.3010 -17.9830 -17.8017 -17.5150 -17.4333 -17.3563 -17.2587 -17.1448
   -17.0925 -16.9756 -16.9386 -16.8714 -16.8192 -16.8061 -16.7896 -16.7806
   -16.7299 -16.6931 -16.5567 -16.5345 -16.4542 -16.4526 -16.4036 -16.3704
   -16.3393 -16.3126 -16.1832 -16.1654 -16.1514 -15.9788 -15.9294 -14.7331
   -14.6504 -11.4756  -7.2426  -5.4715  -5.3084  -5.2650  -5.2073  -5.0976
    -5.0446  -5.0163  -4.8341  -4.8132  -4.6180  -4.4693  -4.4359  -4.3310
    -4.3115  -4.3016  -4.2480  -4.0980  -4.0368  -4.0329  -3.9968  -3.9452
    -3.9380  -3.9099  -3.8309  -3.8006  -3.7518  -3.7197  -3.6949  -3.6924
    -3.6203  -3.5982  -3.5704  -3.5629  -3.5168  -3.4473  -3.3258  -3.3092
    -3.2503  -3.2308  -3.1789  -3.1067  -3.0337  -2.9766  -2.9232  -2.8963
    -2.7498  -2.6746  -2.6328  -2.6002  -2.5796  -2.5299  -2.5199  -2.5037
    -2.4319  -2.3357  -2.3226  -2.2368  -2.2209  -2.1822  -2.1598  -2.0708
    -2.0097  -2.0002  -1.9635  -1.8826  -1.8518  -1.7534  -1.7397  -1.6511
    -1.5864  -1.5825  -1.5384  -1.4638  -1.4584  -1.3672  -1.3581  -1.3437
    -1.3373  -1.2904  -1.2744  -1.1900  -1.1272  -1.1177  -1.0816  -1.0498
    -0.9736  -0.9151  -0.8302  -0.7887  -0.7746  -0.6511  -0.6425  -0.5511
    -0.4213  -0.2370  -0.1160  -0.0541   0.1168   0.2050   0.2059   1.6617
     1.7248   2.0010   2.0713   2.1485   2.2229   2.2377   2.2696   2.3780
     2.3852   2.4575   2.5043   2.5221   2.5410   2.5781   2.5973   2.6360
     2.6556   2.7343   2.7574   2.8671   2.8840   2.9696   3.0307   3.1035
     3.1209   3.1437   3.1624   3.2032   3.2084   3.2537   3.2692   3.3394
     3.3776   3.4026   3.4509   3.4729   3.5354   3.5602   3.5917   3.5997
     3.6640   3.7299   3.7472   3.9138   4.0018   4.0966   4.1739   4.2763
     4.3742   4.3948   4.5530   4.6770   4.8636   4.9112   4.9261   5.0695
     5.1212   5.1458   5.1886   5.3507   5.5686   5.6226   5.6936   5.8662
     5.8828   5.9247   5.9589   6.0293   6.0799   6.1149   6.1604   6.2095
     6.2188   6.2518   6.2586   6.3078   6.4484   6.5222   6.6414   6.6656
     6.8209   6.8691   7.0339   7.1475   7.3020   7.7523   7.8523   8.0896
     8.3357   8.3684   8.4319   8.6830   8.8453   8.9699   9.1500   9.3471
     9.3627   9.4788   9.4934

          k = 0.0253 0.0280 0.0000 ( 34687 PWs)   bands (ev):

   -57.6968 -57.6665 -57.3156 -57.2841 -57.2328 -57.1077 -57.0757 -57.0707
   -57.0518 -57.0403 -56.9878 -56.9570 -56.7278 -56.6952 -56.1473 -56.1167
   -34.1102 -33.9794 -33.9547 -33.8933 -33.8445 -33.8122 -33.7724 -33.6319
   -33.6119 -33.5821 -33.5429 -33.5348 -33.5221 -33.5163 -33.4935 -33.4728
   -33.4661 -33.4612 -33.4297 -33.3854 -33.3182 -33.2906 -33.2835 -33.2643
   -33.2597 -33.2542 -33.2531 -33.2478 -33.2378 -33.2364 -33.2352 -33.2161
   -33.2030 -33.1853 -33.1772 -33.1448 -33.1416 -32.9925 -32.9790 -32.9578
   -32.9129 -32.8329 -32.5417 -32.5011 -32.4772 -32.3655 -32.2862 -32.1991
   -20.3008 -17.9228 -17.7450 -17.4638 -17.3835 -17.3092 -17.2322 -17.1285
   -17.0980 -17.0063 -16.9633 -16.8587 -16.8304 -16.8058 -16.7842 -16.7702
   -16.7131 -16.6996 -16.6002 -16.5801 -16.5065 -16.4751 -16.3812 -16.3653
   -16.3564 -16.3296 -16.2003 -16.1736 -16.1538 -16.0102 -15.9664 -14.7433
   -14.6740 -11.4752  -7.2421  -5.4458  -5.2478  -5.2085  -5.1812  -5.0212
    -4.9663  -4.9361  -4.7589  -4.7005  -4.5621  -4.4033  -4.3713  -4.3458
    -4.2597  -4.2530  -4.1868  -4.1184  -4.0864  -4.0645  -4.0336  -4.0204
    -3.9763  -3.9426  -3.9129  -3.8680  -3.8222  -3.8100  -3.7844  -3.7196
    -3.6970  -3.6639  -3.6153  -3.6052  -3.5411  -3.5252  -3.3507  -3.2893
    -3.2517  -3.2137  -3.1484  -3.0731  -2.9820  -2.9496  -2.7840  -2.7062
    -2.6807  -2.6363  -2.6106  -2.5347  -2.5037  -2.4544  -2.4480  -2.4209
    -2.4052  -2.3865  -2.3403  -2.3025  -2.2160  -2.1781  -2.1159  -2.1003
    -2.0670  -1.9956  -1.9494  -1.8920  -1.8654  -1.8269  -1.7621  -1.6748
    -1.6454  -1.6167  -1.5888  -1.5623  -1.5093  -1.4614  -1.4403  -1.4007
    -1.3448  -1.3278  -1.2695  -1.2553  -1.2091  -1.1123  -1.0984  -1.0607
    -1.0128  -0.8883  -0.8408  -0.8355  -0.7646  -0.7396  -0.6961  -0.6587
    -0.4323  -0.2816  -0.1342  -0.0861   0.1489   0.1783   0.1884   1.7207
     1.8449   2.0162   2.0987   2.1955   2.2444   2.2819   2.3163   2.3969
     2.4175   2.4670   2.4889   2.5244   2.5326   2.5525   2.5904   2.6741
     2.7051   2.7274   2.7872   2.8066   2.9305   2.9870   3.0097   3.0346
     3.1063   3.1342   3.1458   3.1725   3.2085   3.2422   3.3444   3.3734
     3.4060   3.4363   3.4627   3.5104   3.5523   3.5691   3.6362   3.6609
     3.6733   3.7082   3.7500   3.8947   3.9940   4.1383   4.1855   4.2527
     4.3065   4.4519   4.5093   4.7717   4.9293   4.9520   4.9934   5.0778
     5.1599   5.1753   5.2235   5.3867   5.6430   5.6827   5.7320   5.7777
     5.8545   5.8651   5.8715   6.0071   6.0710   6.0852   6.1193   6.1448
     6.1968   6.2086   6.2189   6.2350   6.4285   6.5279   6.6122   6.6605
     6.7846   6.8664   6.9630   7.1508   7.2260   7.5177   7.9329   8.0304
     8.0936   8.2515   8.4526   8.5787   8.6515   8.7763   8.9441   9.2628
     9.3564   9.4651   9.5114

          k = 0.0253 0.0560 0.0000 ( 34699 PWs)   bands (ev):

   -57.6904 -57.6730 -57.3091 -57.2907 -57.2320 -57.1016 -57.0818 -57.0643
   -57.0527 -57.0468 -56.9813 -56.9635 -56.7212 -56.7019 -56.1408 -56.1232
   -34.0404 -33.9740 -33.9598 -33.8764 -33.8455 -33.8296 -33.7734 -33.5963
   -33.5740 -33.5723 -33.5353 -33.5256 -33.5089 -33.5078 -33.4775 -33.4729
   -33.4558 -33.4268 -33.4136 -33.3673 -33.3171 -33.3139 -33.3087 -33.3016
   -33.2863 -33.2768 -33.2679 -33.2632 -33.2537 -33.2486 -33.2385 -33.2347
   -33.2104 -33.1990 -33.1706 -33.1649 -33.1259 -32.9874 -32.9747 -32.9618
   -32.9259 -32.9026 -32.4961 -32.4822 -32.4709 -32.3490 -32.3032 -32.2732
   -20.3006 -17.7565 -17.5897 -17.3436 -17.2644 -17.2449 -17.1937 -17.1681
   -17.1396 -16.9960 -16.9705 -16.8807 -16.8763 -16.8295 -16.7967 -16.7727
   -16.7480 -16.6705 -16.6234 -16.6046 -16.5795 -16.5303 -16.4269 -16.4124
   -16.3558 -16.2851 -16.2339 -16.1944 -16.1572 -16.1111 -16.0389 -14.7619
   -14.7248 -11.4744  -7.2411  -5.4183  -5.2249  -5.0311  -4.9490  -4.8129
    -4.7570  -4.7146  -4.5583  -4.4980  -4.4905  -4.4138  -4.3943  -4.3394
    -4.2709  -4.2314  -4.2158  -4.1921  -4.1479  -4.1413  -4.1063  -4.0618
    -4.0327  -4.0126  -3.9934  -3.9355  -3.9245  -3.8752  -3.8595  -3.8215
    -3.7742  -3.7157  -3.6546  -3.5717  -3.4733  -3.3936  -3.3195  -3.2810
    -3.2367  -3.2233  -3.1826  -3.0121  -2.9350  -2.8631  -2.8296  -2.7797
    -2.7578  -2.6461  -2.5929  -2.5099  -2.4891  -2.4379  -2.3926  -2.3655
    -2.3430  -2.3245  -2.2883  -2.2636  -2.1902  -2.1413  -2.1280  -2.0401
    -2.0116  -2.0097  -1.9469  -1.9383  -1.9032  -1.8617  -1.8345  -1.8121
    -1.7455  -1.7040  -1.6788  -1.6376  -1.5734  -1.5381  -1.4945  -1.4753
    -1.4312  -1.3728  -1.3385  -1.3036  -1.2237  -1.2063  -1.1346  -1.1060
    -1.0640  -1.0142  -0.9119  -0.8770  -0.8210  -0.8001  -0.7441  -0.6810
    -0.6069  -0.4655  -0.2562   0.0916   0.1282   0.1553   0.1879   1.8616
     2.0479   2.1319   2.1787   2.2312   2.2716   2.3057   2.3474   2.3846
     2.4259   2.4619   2.4807   2.5077   2.5201   2.5835   2.6936   2.7213
     2.7388   2.7762   2.8237   2.8398   2.9038   2.9525   2.9745   2.9859
     3.0272   3.0336   3.1560   3.2073   3.2864   3.3294   3.3402   3.3830
     3.4073   3.4389   3.4606   3.5406   3.5596   3.6308   3.6559   3.7345
     3.7931   3.8197   3.8613   3.9006   3.9046   4.0719   4.1166   4.1652
     4.3429   4.3845   4.6146   4.9650   5.0122   5.1276   5.1423   5.1580
     5.2620   5.2891   5.3135   5.4364   5.5098   5.5611   5.6370   5.7583
     5.8234   5.8502   5.8912   5.9339   5.9605   6.0029   6.0484   6.0614
     6.1361   6.1567   6.2224   6.3294   6.3794   6.4043   6.4817   6.6418
     6.6919   6.7962   6.8498   7.0353   7.1543   7.3637   7.4871   7.5979
     7.9805   8.1765   8.3522   8.5203   8.6466   8.8551   9.0429   9.1135
     9.1835   9.4895   9.6254

          k = 0.0253-0.0840 0.0000 ( 34722 PWs)   bands (ev):

   -57.6818 -57.6816 -57.3016 -57.2982 -57.2315 -57.0961 -57.0873 -57.0556
   -57.0555 -57.0531 -56.9730 -56.9719 -56.7142 -56.7089 -56.1320 -56.1320
   -33.9670 -33.9668 -33.9438 -33.9437 -33.8531 -33.8530 -33.6866 -33.6626
   -33.5663 -33.5631 -33.5298 -33.5181 -33.5138 -33.4778 -33.4530 -33.4247
   -33.4164 -33.4102 -33.3763 -33.3762 -33.3639 -33.3405 -33.3346 -33.3228
   -33.3214 -33.2849 -33.2781 -33.2764 -33.2696 -33.2663 -33.2364 -33.2350
   -33.2174 -33.2155 -33.1637 -33.1629 -33.0487 -33.0279 -32.9708 -32.9656
   -32.9397 -32.9367 -32.4892 -32.4892 -32.3731 -32.3731 -32.3260 -32.3260
   -20.3004 -17.5559 -17.4876 -17.3825 -17.3640 -17.2136 -17.1546 -17.0595
   -17.0500 -17.0043 -16.9799 -16.9756 -16.8892 -16.8796 -16.8694 -16.7860
   -16.7806 -16.6348 -16.6291 -16.5688 -16.5651 -16.5225 -16.5211 -16.3885
   -16.3870 -16.2545 -16.2522 -16.1996 -16.1960 -16.1321 -16.1012 -14.7612
   -14.7611 -11.4740  -7.2407  -5.4103  -5.2299  -4.8002  -4.6453  -4.6358
    -4.6240  -4.5485  -4.5476  -4.5316  -4.5247  -4.4188  -4.4089  -4.3700
    -4.3469  -4.3165  -4.2983  -4.2849  -4.2634  -4.2317  -4.2281  -4.0426
    -4.0387  -4.0147  -3.9836  -3.9648  -3.9205  -3.8477  -3.8419  -3.8160
    -3.7387  -3.6619  -3.6402  -3.4145  -3.4004  -3.3479  -3.3195  -3.2293
    -3.1196  -3.0952  -3.0604  -3.0511  -3.0089  -2.9631  -2.9186  -2.8944
    -2.8091  -2.8051  -2.6225  -2.6022  -2.5769  -2.5580  -2.5303  -2.4656
    -2.4354  -2.3425  -2.3153  -2.2755  -2.1228  -2.0738  -2.0556  -2.0095
    -1.9233  -1.9208  -1.8792  -1.8672  -1.8570  -1.8161  -1.8059  -1.7953
    -1.7674  -1.7293  -1.6863  -1.6581  -1.6209  -1.6076  -1.5950  -1.4760
    -1.4021  -1.3888  -1.2798  -1.2618  -1.2420  -1.2266  -1.1884  -1.1297
    -1.0869  -1.0521  -1.0438  -1.0127  -0.9636  -0.8910  -0.8792  -0.5374
    -0.5299  -0.4577  -0.4452   0.1168   0.1169   0.1962   0.1979   2.0504
     2.0527   2.2174   2.2331   2.2362   2.2396   2.2779   2.3161   2.4234
     2.4254   2.4402   2.4423   2.5577   2.5591   2.5777   2.6552   2.7216
     2.7558   2.8201   2.8289   2.8800   2.8997   2.9381   2.9481   3.0257
     3.0396   3.0852   3.1146   3.2212   3.2691   3.2898   3.3067   3.4224
     3.4278   3.4520   3.4692   3.4940   3.5224   3.7147   3.7402   3.8084
     3.8262   3.8377   3.8859   3.9134   3.9204   4.0807   4.0833   4.1170
     4.1174   4.4732   4.7125   4.9846   5.0237   5.2699   5.3017   5.3098
     5.3280   5.3604   5.3850   5.4266   5.4789   5.5094   5.5533   5.6433
     5.6474   5.7629   5.8333   5.8762   5.8914   6.0160   6.0770   6.0885
     6.1319   6.1856   6.2179   6.2808   6.3014   6.4681   6.5204   6.5950
     6.6379   6.7884   6.7965   6.9899   7.0341   7.1208   7.3852   7.5933
     7.7432   8.0032   8.2830   8.7239   8.7431   8.9682   9.0051   9.2910
     9.3508   9.4504   9.5460

          k = 0.0506 0.0000 0.0000 ( 34729 PWs)   bands (ev):

   -57.6991 -57.6642 -57.3180 -57.2817 -57.2332 -57.1098 -57.0735 -57.0731
   -57.0514 -57.0379 -56.9902 -56.9546 -56.7303 -56.6928 -56.1496 -56.1143
   -34.1362 -33.9813 -33.9529 -33.8981 -33.8706 -33.8059 -33.7455 -33.6561
   -33.6187 -33.6104 -33.5688 -33.5494 -33.5296 -33.5091 -33.4863 -33.4615
   -33.4587 -33.4538 -33.4318 -33.3755 -33.3240 -33.2926 -33.2712 -33.2670
   -33.2628 -33.2618 -33.2608 -33.2377 -33.2342 -33.2300 -33.2299 -33.2120
   -33.1801 -33.1798 -33.1760 -33.1409 -33.1186 -32.9963 -32.9857 -32.9545
   -32.9079 -32.8052 -32.5672 -32.5052 -32.4742 -32.3716 -32.2801 -32.1718
   -20.3006 -17.9170 -17.7069 -17.4163 -17.3905 -17.2832 -17.2661 -17.2377
   -17.1400 -16.9786 -16.9678 -16.9378 -16.8954 -16.8863 -16.8681 -16.8461
   -16.7514 -16.7013 -16.5367 -16.4558 -16.4495 -16.4108 -16.4049 -16.3592
   -16.3544 -16.3279 -16.1754 -16.1605 -16.1539 -15.9789 -15.9290 -14.7309
   -14.6501 -11.4732  -7.2370  -5.4795  -5.2943  -5.2063  -4.9802  -4.9139
    -4.8035  -4.7981  -4.7715  -4.7485  -4.7142  -4.6334  -4.5253  -4.4650
    -4.4189  -4.2484  -4.1321  -4.0396  -4.0250  -4.0194  -3.9743  -3.9303
    -3.9123  -3.8291  -3.7888  -3.7621  -3.7528  -3.6590  -3.6375  -3.6136
    -3.5558  -3.5538  -3.5414  -3.5264  -3.5001  -3.2829  -3.2795  -3.2642
    -3.2400  -3.2023  -3.1563  -3.1109  -2.9952  -2.9427  -2.8846  -2.8515
    -2.8279  -2.7800  -2.7569  -2.6789  -2.6229  -2.6111  -2.5774  -2.5472
    -2.4630  -2.4598  -2.4274  -2.3659  -2.3140  -2.2066  -2.1986  -2.1231
    -2.0863  -1.9917  -1.9395  -1.9323  -1.8445  -1.8177  -1.8010  -1.7147
    -1.6367  -1.5751  -1.5583  -1.5554  -1.4868  -1.4782  -1.4426  -1.4007
    -1.3528  -1.3334  -1.3033  -1.2114  -1.1212  -1.1060  -1.0895  -1.0751
    -0.9943  -0.9534  -0.8886  -0.8160  -0.8109  -0.7939  -0.7573  -0.5327
    -0.5242  -0.2681  -0.2242  -0.0476   0.0925   0.1185   0.1369   1.6417
     1.8181   1.9999   2.0965   2.1004   2.1790   2.1965   2.2807   2.2932
     2.4540   2.4573   2.4702   2.5585   2.5636   2.5850   2.6258   2.6783
     2.7067   2.8222   2.8699   2.8732   2.8990   2.9233   3.0834   3.1077
     3.1472   3.1634   3.2006   3.2015   3.2863   3.2888   3.3311   3.4091
     3.4391   3.4481   3.5003   3.5524   3.5765   3.5854   3.6997   3.7107
     3.7591   3.7627   3.7983   3.8936   3.9250   4.0822   4.1570   4.2107
     4.3470   4.4652   4.5751   4.6511   4.7675   4.7973   4.8607   4.8968
     4.9109   5.0997   5.2083   5.4395   5.6433   5.7585   5.7607   5.8792
     5.8872   5.9180   5.9313   5.9644   6.0270   6.0950   6.1360   6.1577
     6.2402   6.4203   6.5133   6.5971   6.6062   6.6312   6.6846   6.7229
     6.8522   6.8530   7.0304   7.0440   7.2938   7.3020   7.4986   8.0104
     8.1405   8.4075   8.4761   8.7443   8.8120   8.9555   9.0418   9.2716
     9.3388   9.3738   9.6228

          k = 0.0506 0.0280 0.0000 ( 34685 PWs)   bands (ev):

   -57.6968 -57.6665 -57.3156 -57.2841 -57.2328 -57.1075 -57.0757 -57.0708
   -57.0518 -57.0403 -56.9878 -56.9570 -56.7278 -56.6952 -56.1473 -56.1167
   -34.1109 -33.9794 -33.9547 -33.8919 -33.8447 -33.8122 -33.7725 -33.6333
   -33.6119 -33.5855 -33.5435 -33.5356 -33.5277 -33.5199 -33.4934 -33.4724
   -33.4589 -33.4488 -33.4297 -33.3692 -33.3179 -33.2909 -33.2792 -33.2655
   -33.2642 -33.2614 -33.2594 -33.2538 -33.2379 -33.2364 -33.2341 -33.2138
   -33.2035 -33.1855 -33.1771 -33.1447 -33.1415 -32.9925 -32.9833 -32.9565
   -32.9129 -32.8329 -32.5416 -32.5030 -32.4763 -32.3655 -32.2862 -32.1991
   -20.3004 -17.8606 -17.6514 -17.3689 -17.3415 -17.2498 -17.2245 -17.2148
   -17.1221 -17.0440 -16.9636 -16.9201 -16.8707 -16.8578 -16.8550 -16.8329
   -16.7633 -16.7451 -16.5591 -16.5283 -16.5044 -16.4381 -16.4155 -16.3762
   -16.3683 -16.3119 -16.1911 -16.1720 -16.1526 -16.0114 -15.9662 -14.7414
   -14.6741 -11.4727  -7.2364  -5.4588  -5.2344  -5.2044  -4.8925  -4.8342
    -4.7190  -4.7038  -4.6753  -4.6560  -4.6304  -4.5095  -4.4276  -4.3460
    -4.3184  -4.3018  -4.1564  -4.1335  -4.0554  -4.0263  -4.0098  -3.9918
    -3.9831  -3.9097  -3.8604  -3.8153  -3.7740  -3.7611  -3.7179  -3.6900
    -3.6541  -3.6318  -3.5825  -3.5512  -3.4442  -3.3090  -3.2674  -3.2617
    -3.2264  -3.1733  -3.1047  -3.0633  -2.9540  -2.9384  -2.8761  -2.8424
    -2.7434  -2.6929  -2.6588  -2.6490  -2.6007  -2.5915  -2.5370  -2.4987
    -2.4365  -2.3863  -2.3812  -2.3411  -2.3098  -2.2524  -2.1776  -2.1377
    -2.1093  -2.0651  -2.0263  -1.9773  -1.9438  -1.9008  -1.8633  -1.8220
    -1.7528  -1.7375  -1.7112  -1.6307  -1.5374  -1.5058  -1.4793  -1.4326
    -1.3791  -1.3385  -1.2792  -1.2587  -1.2378  -1.1464  -1.1186  -1.0138
    -0.9763  -0.8859  -0.8580  -0.8057  -0.7853  -0.7655  -0.7031  -0.6885
    -0.5121  -0.3116  -0.2594  -0.0734   0.1095   0.1388   0.1623   1.7043
     1.9050   2.0603   2.1222   2.1271   2.1739   2.2511   2.3582   2.3723
     2.4080   2.4366   2.5138   2.5571   2.5745   2.6034   2.6722   2.6937
     2.7449   2.8035   2.8533   2.8974   2.9560   2.9738   3.0416   3.0589
     3.0983   3.1618   3.1713   3.1995   3.3001   3.3607   3.3757   3.4075
     3.4462   3.4782   3.5450   3.5807   3.6034   3.6469   3.6770   3.6863
     3.7186   3.7702   3.8187   3.8706   3.9349   4.0584   4.1689   4.2820
     4.2927   4.4230   4.6204   4.6894   4.7644   4.8119   4.8578   4.9861
     5.0133   5.1277   5.2242   5.4714   5.5953   5.6390   5.7329   5.8061
     5.8623   5.8712   5.9177   5.9477   5.9812   6.0893   6.1182   6.1393
     6.2288   6.4354   6.4734   6.5370   6.5774   6.6143   6.6870   6.7397
     6.7999   6.8175   6.9739   7.1157   7.1674   7.3953   7.5759   7.7177
     8.1335   8.1633   8.2453   8.3934   8.7571   8.9664   9.0136   9.0464
     9.3702   9.4421   9.6070

          k = 0.0506 0.0560 0.0000 ( 34596 PWs)   bands (ev):

   -57.6904 -57.6730 -57.3091 -57.2907 -57.2319 -57.1015 -57.0817 -57.0644
   -57.0527 -57.0468 -56.9813 -56.9635 -56.7212 -56.7019 -56.1408 -56.1232
   -34.0409 -33.9740 -33.9597 -33.8752 -33.8456 -33.8292 -33.7735 -33.5962
   -33.5752 -33.5723 -33.5357 -33.5216 -33.5155 -33.5111 -33.4775 -33.4737
   -33.4538 -33.4269 -33.4040 -33.3537 -33.3182 -33.3179 -33.3013 -33.2990
   -33.2866 -33.2768 -33.2678 -33.2609 -33.2538 -33.2532 -33.2478 -33.2398
   -33.2105 -33.2005 -33.1706 -33.1645 -33.1255 -32.9874 -32.9775 -32.9616
   -32.9258 -32.9024 -32.4972 -32.4818 -32.4708 -32.3490 -32.3031 -32.2731
   -20.3002 -17.7061 -17.5007 -17.2913 -17.2394 -17.1978 -17.1739 -17.1619
   -17.0900 -17.0371 -17.0063 -16.9134 -16.8563 -16.8487 -16.8444 -16.8064
   -16.7765 -16.7216 -16.6627 -16.6229 -16.6128 -16.5508 -16.5126 -16.3988
   -16.3432 -16.2637 -16.2261 -16.1929 -16.1566 -16.1128 -16.0381 -14.7607
   -14.7251 -11.4718  -7.2352  -5.4328  -5.2242  -5.0214  -4.6593  -4.6173
    -4.5142  -4.4991  -4.4854  -4.4557  -4.4317  -4.3680  -4.3238  -4.2997
    -4.2237  -4.2055  -4.1464  -4.1335  -4.0803  -4.0657  -4.0470  -4.0394
    -4.0144  -3.9983  -3.9657  -3.9179  -3.8955  -3.8882  -3.8213  -3.7832
    -3.7306  -3.6600  -3.6282  -3.5255  -3.4879  -3.3628  -3.3284  -3.2669
    -3.2559  -3.2419  -3.1370  -3.0172  -2.9309  -2.9059  -2.8488  -2.8331
    -2.7581  -2.7271  -2.6869  -2.6098  -2.5898  -2.5734  -2.5261  -2.4883
[...]
    -1.2984  -1.2669  -1.2580  -1.1901  -1.1562  -1.0312  -1.0200  -1.0119
    -0.9890  -0.9486  -0.9046  -0.8382  -0.7566  -0.7010  -0.6483  -0.5941
    -0.5900  -0.5347  -0.5187   0.0659   0.0659   0.2106   0.2123   2.1533
     2.1542   2.2007   2.2026   2.2382   2.2389   2.2661   2.2977   2.4878
     2.4933   2.5254   2.5553   2.6089   2.6165   2.6793   2.6812   2.6908
     2.6919   2.8440   2.9096   2.9828   2.9978   3.0341   3.0417   3.0979
     3.2197   3.2492   3.2722   3.3327   3.3735   3.3904   3.4446   3.4926
     3.5001   3.5225   3.5490   3.5808   3.6035   3.6799   3.7003   3.7454
     3.8346   3.8912   3.9074   3.9526   3.9530   4.0960   4.1028   4.1116
     4.1121   4.6141   4.7828   4.7869   4.8013   4.8705   4.9202   4.9254
     4.9417   4.9844   5.0268   5.2488   5.3393   5.3589   5.3696   5.7317
     5.7998   5.9115   5.9271   5.9799   6.0462   6.1494   6.3056   6.3493
     6.3655   6.3744   6.4109   6.5753   6.6167   6.6649   6.6650   6.7032
     6.7639   6.8443   6.8452   6.8522   6.8531   7.3603   7.4087   7.5254
     7.6625   7.8265   8.0144   8.1721   8.2250   8.3191   8.3942   8.8241
     8.9148   9.0453   9.0821

          k =-0.0253 0.0280 0.0000 ( 34687 PWs)   bands (ev):

   -57.6969 -57.6666 -57.3156 -57.2841 -57.2327 -57.1077 -57.0757 -57.0706
   -57.0518 -57.0403 -56.9877 -56.9570 -56.7278 -56.6952 -56.1475 -56.1170
   -34.1103 -33.9795 -33.9548 -33.8934 -33.8444 -33.8123 -33.7725 -33.6318
   -33.6119 -33.5821 -33.5428 -33.5347 -33.5221 -33.5163 -33.4934 -33.4727
   -33.4660 -33.4612 -33.4296 -33.3854 -33.3181 -33.2906 -33.2835 -33.2643
   -33.2594 -33.2542 -33.2533 -33.2478 -33.2378 -33.2364 -33.2352 -33.2160
   -33.2030 -33.1852 -33.1771 -33.1448 -33.1415 -32.9925 -32.9789 -32.9578
   -32.9129 -32.8329 -32.5419 -32.5014 -32.4774 -32.3658 -32.2865 -32.1994
   -20.3009 -17.9228 -17.7450 -17.4638 -17.3835 -17.3093 -17.2323 -17.1285
   -17.0982 -17.0060 -16.9633 -16.8591 -16.8304 -16.8068 -16.7838 -16.7702
   -16.7130 -16.6999 -16.6000 -16.5797 -16.5065 -16.4752 -16.3813 -16.3654
   -16.3565 -16.3296 -16.2004 -16.1736 -16.1537 -16.0102 -15.9665 -14.7428
   -14.6735 -11.4752  -7.2421  -5.4458  -5.2476  -5.2084  -5.1812  -5.0216
    -4.9663  -4.9364  -4.7589  -4.7012  -4.5621  -4.4030  -4.3712  -4.3461
    -4.2610  -4.2498  -4.1881  -4.1169  -4.0906  -4.0642  -4.0361  -4.0204
    -3.9751  -3.9409  -3.9143  -3.8687  -3.8223  -3.8117  -3.7843  -3.7196
    -3.7002  -3.6627  -3.6150  -3.6043  -3.5395  -3.5243  -3.3541  -3.2841
    -3.2519  -3.2151  -3.1472  -3.0708  -2.9832  -2.9458  -2.7829  -2.7054
    -2.6800  -2.6368  -2.6104  -2.5321  -2.5045  -2.4516  -2.4474  -2.4228
    -2.4061  -2.3847  -2.3399  -2.3015  -2.2179  -2.1753  -2.1216  -2.1037
    -2.0627  -1.9920  -1.9509  -1.8952  -1.8641  -1.8275  -1.7428  -1.7081
    -1.6529  -1.5993  -1.5931  -1.5603  -1.5158  -1.4700  -1.4361  -1.3935
    -1.3449  -1.3323  -1.2808  -1.2426  -1.1975  -1.1129  -1.0990  -1.0589
    -1.0133  -0.8935  -0.8408  -0.8324  -0.7554  -0.7394  -0.7084  -0.6596
    -0.4332  -0.2815  -0.1347  -0.0858   0.1492   0.1786   0.1889   1.7206
     1.8448   2.0161   2.1002   2.1953   2.2458   2.2851   2.3190   2.4040
     2.4154   2.4500   2.4859   2.5299   2.5325   2.5474   2.6077   2.6686
     2.7053   2.7390   2.7757   2.8121   2.9391   2.9863   3.0041   3.0270
     3.1074   3.1357   3.1462   3.1741   3.2086   3.2394   3.3479   3.3725
     3.4037   3.4199   3.4643   3.5069   3.5614   3.5709   3.6370   3.6608
     3.6730   3.7092   3.7494   3.8935   3.9927   4.1401   4.1855   4.2532
     4.3065   4.4523   4.5096   4.7730   4.9374   4.9513   4.9841   5.0778
     5.1588   5.1750   5.2232   5.3855   5.6446   5.6761   5.7290   5.7875
     5.8525   5.8649   5.8725   6.0060   6.0734   6.0783   6.1239   6.1456
     6.1968   6.2073   6.2155   6.2435   6.4284   6.5266   6.6121   6.6661
     6.7897   6.8601   6.9629   7.1510   7.2262   7.5031   7.9305   8.0305
     8.0936   8.2533   8.4418   8.5836   8.6528   8.7785   8.9504   9.2776
     9.3642   9.4689   9.5091

          k =-0.0253 0.0560 0.0000 ( 34699 PWs)   bands (ev):

   -57.6905 -57.6731 -57.3090 -57.2907 -57.2319 -57.1016 -57.0818 -57.0643
   -57.0526 -57.0467 -56.9812 -56.9635 -56.7211 -56.7019 -56.1411 -56.1235
   -34.0404 -33.9742 -33.9599 -33.8765 -33.8455 -33.8296 -33.7733 -33.5962
   -33.5740 -33.5723 -33.5353 -33.5255 -33.5089 -33.5078 -33.4774 -33.4729
   -33.4557 -33.4268 -33.4134 -33.3673 -33.3170 -33.3139 -33.3087 -33.3016
   -33.2863 -33.2768 -33.2679 -33.2631 -33.2537 -33.2487 -33.2384 -33.2346
   -33.2102 -33.1990 -33.1706 -33.1648 -33.1259 -32.9874 -32.9746 -32.9619
   -32.9258 -32.9025 -32.4963 -32.4825 -32.4712 -32.3492 -32.3034 -32.2735
   -20.3006 -17.7565 -17.5896 -17.3436 -17.2644 -17.2451 -17.1940 -17.1680
   -17.1394 -16.9960 -16.9704 -16.8808 -16.8766 -16.8301 -16.7971 -16.7727
   -16.7478 -16.6703 -16.6232 -16.6043 -16.5795 -16.5306 -16.4270 -16.4125
   -16.3559 -16.2851 -16.2340 -16.1945 -16.1572 -16.1112 -16.0389 -14.7614
   -14.7243 -11.4744  -7.2411  -5.4182  -5.2248  -5.0307  -4.9490  -4.8135
    -4.7571  -4.7147  -4.5583  -4.4964  -4.4909  -4.4136  -4.3945  -4.3442
    -4.2712  -4.2326  -4.2154  -4.1922  -4.1477  -4.1407  -4.1076  -4.0618
    -4.0316  -4.0099  -3.9946  -3.9367  -3.9243  -3.8734  -3.8631  -3.8221
    -3.7738  -3.7138  -3.6554  -3.5719  -3.4725  -3.3932  -3.3253  -3.2806
    -3.2379  -3.2169  -3.1767  -3.0131  -2.9324  -2.8643  -2.8265  -2.7831
    -2.7553  -2.6454  -2.5920  -2.5104  -2.4875  -2.4394  -2.3940  -2.3622
    -2.3432  -2.3240  -2.2906  -2.2658  -2.1896  -2.1412  -2.1270  -2.0374
    -2.0202  -2.0029  -1.9456  -1.9428  -1.9046  -1.8618  -1.8303  -1.8068
    -1.7435  -1.7108  -1.6727  -1.6425  -1.5799  -1.5396  -1.5051  -1.4604
    -1.4310  -1.3719  -1.3473  -1.3021  -1.2243  -1.2057  -1.1326  -1.1040
    -1.0645  -1.0148  -0.9240  -0.8786  -0.8137  -0.8003  -0.7382  -0.6806
    -0.6070  -0.4671  -0.2576   0.0919   0.1286   0.1557   0.1882   1.8614
     2.0478   2.1348   2.1787   2.2281   2.2698   2.3063   2.3332   2.3836
     2.4443   2.4590   2.4856   2.5130   2.5206   2.5835   2.6928   2.7243
     2.7447   2.7757   2.8277   2.8408   2.8932   2.9499   2.9708   2.9867
     3.0240   3.0347   3.1703   3.2079   3.2905   3.3167   3.3339   3.3707
     3.4115   3.4366   3.4600   3.5431   3.5592   3.6348   3.6573   3.7352
     3.7933   3.8172   3.8622   3.8988   3.9067   4.0727   4.1165   4.1653
     4.3426   4.3845   4.6155   4.9662   5.0193   5.1252   5.1391   5.1561
     5.2595   5.2870   5.3151   5.4279   5.5116   5.5609   5.6401   5.7627
     5.8245   5.8483   5.8949   5.9365   5.9557   5.9969   6.0529   6.0641
     6.1362   6.1555   6.2294   6.3230   6.3794   6.4106   6.4784   6.6460
     6.6954   6.7961   6.8413   7.0351   7.1464   7.3636   7.4865   7.5881
     7.9748   8.1827   8.3524   8.5232   8.6584   8.8649   9.0526   9.1160
     9.1815   9.4990   9.6233

          k =-0.0506 0.0280 0.0000 ( 34685 PWs)   bands (ev):

   -57.6969 -57.6666 -57.3155 -57.2841 -57.2327 -57.1075 -57.0757 -57.0708
   -57.0517 -57.0403 -56.9877 -56.9570 -56.7278 -56.6952 -56.1475 -56.1170
   -34.1109 -33.9795 -33.9548 -33.8920 -33.8447 -33.8123 -33.7725 -33.6332
   -33.6119 -33.5854 -33.5434 -33.5356 -33.5276 -33.5199 -33.4933 -33.4724
   -33.4588 -33.4487 -33.4296 -33.3692 -33.3179 -33.2909 -33.2792 -33.2655
   -33.2643 -33.2613 -33.2591 -33.2539 -33.2378 -33.2364 -33.2341 -33.2137
   -33.2034 -33.1854 -33.1771 -33.1446 -33.1415 -32.9925 -32.9833 -32.9565
   -32.9129 -32.8329 -32.5418 -32.5032 -32.4765 -32.3658 -32.2865 -32.1994
   -20.3005 -17.8606 -17.6514 -17.3690 -17.3415 -17.2499 -17.2245 -17.2147
   -17.1225 -17.0434 -16.9636 -16.9207 -16.8710 -16.8577 -16.8550 -16.8327
   -16.7635 -16.7451 -16.5593 -16.5280 -16.5042 -16.4381 -16.4155 -16.3762
   -16.3686 -16.3118 -16.1912 -16.1721 -16.1525 -16.0115 -15.9662 -14.7409
   -14.6736 -11.4727  -7.2364  -5.4588  -5.2343  -5.2044  -4.8925  -4.8341
    -4.7204  -4.7048  -4.6752  -4.6554  -4.6304  -4.5096  -4.4279  -4.3455
    -4.3188  -4.3018  -4.1592  -4.1266  -4.0606  -4.0266  -4.0086  -3.9932
    -3.9825  -3.9096  -3.8598  -3.8158  -3.7734  -3.7609  -3.7187  -3.6906
    -3.6554  -3.6333  -3.5827  -3.5513  -3.4435  -3.3138  -3.2772  -3.2606
    -3.2199  -3.1698  -3.1009  -3.0582  -2.9529  -2.9371  -2.8732  -2.8402
    -2.7432  -2.6928  -2.6597  -2.6498  -2.6043  -2.5908  -2.5357  -2.4951
    -2.4369  -2.3875  -2.3810  -2.3355  -2.3089  -2.2543  -2.1792  -2.1357
    -2.1136  -2.0623  -2.0272  -1.9744  -1.9402  -1.9056  -1.8598  -1.8312
    -1.7545  -1.7399  -1.7118  -1.6408  -1.5404  -1.5066  -1.4846  -1.4177
    -1.3668  -1.3477  -1.2790  -1.2618  -1.2374  -1.1468  -1.1176  -1.0131
    -0.9794  -0.8804  -0.8561  -0.8140  -0.7793  -0.7639  -0.7049  -0.6899
    -0.5129  -0.3119  -0.2595  -0.0731   0.1099   0.1392   0.1626   1.7041
     1.9050   2.0603   2.1228   2.1275   2.1726   2.2411   2.3615   2.3723
     2.4062   2.4381   2.5180   2.5677   2.5745   2.6028   2.6840   2.6967
     2.7433   2.8028   2.8334   2.9029   2.9561   2.9818   3.0416   3.0606
     3.0911   3.1607   3.1713   3.2006   3.3024   3.3567   3.3763   3.4106
     3.4463   3.4585   3.5471   3.5866   3.6043   3.6536   3.6761   3.6849
     3.7172   3.7711   3.8185   3.8697   3.9329   4.0592   4.1687   4.2820
     4.2931   4.4228   4.6224   4.6899   4.7643   4.8112   4.8556   4.9887
     5.0129   5.1267   5.2241   5.4701   5.5945   5.6407   5.7217   5.8054
     5.8616   5.8730   5.9255   5.9470   5.9805   6.0933   6.1171   6.1390
     6.2299   6.4324   6.4826   6.5405   6.5779   6.6082   6.6857   6.7421
     6.7976   6.8173   6.9738   7.1154   7.1672   7.3963   7.5716   7.7080
     8.1322   8.1633   8.2453   8.3875   8.7720   8.9702   9.0163   9.0472
     9.3774   9.4428   9.6089

          k =-0.0506 0.0560 0.0000 ( 34596 PWs)   bands (ev):

   -57.6905 -57.6731 -57.3090 -57.2907 -57.2319 -57.1015 -57.0817 -57.0644
   -57.0526 -57.0468 -56.9813 -56.9635 -56.7211 -56.7019 -56.1411 -56.1235
   -34.0410 -33.9741 -33.9598 -33.8753 -33.8457 -33.8293 -33.7735 -33.5962
   -33.5751 -33.5723 -33.5357 -33.5215 -33.5154 -33.5111 -33.4775 -33.4736
   -33.4537 -33.4268 -33.4039 -33.3537 -33.3182 -33.3178 -33.3012 -33.2990
   -33.2866 -33.2767 -33.2678 -33.2608 -33.2538 -33.2533 -33.2478 -33.2397
   -33.2103 -33.2005 -33.1706 -33.1645 -33.1254 -32.9874 -32.9774 -32.9616
   -32.9258 -32.9024 -32.4975 -32.4820 -32.4710 -32.3492 -32.3034 -32.2734
   -20.3002 -17.7061 -17.5007 -17.2913 -17.2397 -17.1978 -17.1738 -17.1620
   -17.0899 -17.0371 -17.0061 -16.9136 -16.8566 -16.8491 -16.8446 -16.8064
   -16.7764 -16.7219 -16.6625 -16.6225 -16.6128 -16.5509 -16.5126 -16.3989
   -16.3432 -16.2637 -16.2261 -16.1930 -16.1565 -16.1128 -16.0381 -14.7602
   -14.7246 -11.4718  -7.2352  -5.4328  -5.2241  -5.0212  -4.6593  -4.6172
    -4.5154  -4.4992  -4.4837  -4.4561  -4.4324  -4.3676  -4.3248  -4.3017
    -4.2261  -4.2060  -4.1465  -4.1321  -4.0827  -4.0671  -4.0463  -4.0365
    -4.0144  -3.9964  -3.9689  -3.9147  -3.8942  -3.8884  -3.8221  -3.7873
    -3.7307  -3.6599  -3.6297  -3.5227  -3.4860  -3.3680  -3.3283  -3.2617
    -3.2559  -3.2449  -3.1340  -3.0108  -2.9329  -2.9041  -2.8509  -2.8301
    -2.7565  -2.7267  -2.6848  -2.6097  -2.5920  -2.5677  -2.5281  -2.4900
    -2.4283  -2.4056  -2.3661  -2.3294  -2.3166  -2.3003  -2.2556  -2.1784
    -2.1528  -2.1215  -2.1146  -2.0776  -2.0475  -2.0026  -1.9847  -1.9018
    -1.8915  -1.8518  -1.8326  -1.7250  -1.6380  -1.6061  -1.5729  -1.4786
    -1.4094  -1.3747  -1.3072  -1.2543  -1.2067  -1.1114  -1.0753  -1.0183
    -1.0032  -0.9370  -0.8539  -0.8194  -0.7705  -0.7561  -0.6932  -0.6572
    -0.6518  -0.5179  -0.3246   0.0779   0.1121   0.1300   0.1936   1.8667
     2.0766   2.1653   2.1995   2.2210   2.2436   2.2984   2.3480   2.3932
     2.4036   2.5374   2.5703   2.5793   2.6075   2.6285   2.6836   2.7548
     2.7821   2.8045   2.8390   2.8811   2.9636   3.0044   3.0285   3.0623
     3.0974   3.1364   3.1678   3.2568   3.3357   3.3675   3.3972   3.4411
     3.4789   3.5000   3.5221   3.5427   3.6151   3.6477   3.7116   3.7444
     3.7803   3.8519   3.8805   3.9194   3.9253   3.9545   4.1117   4.1748
     4.2894   4.4734   4.7247   4.8068   4.8168   4.8964   4.9424   5.0923
     5.1657   5.2318   5.2719   5.3313   5.3724   5.4351   5.4957   5.6263
     5.7808   5.8309   5.8816   5.9521   6.0409   6.1243   6.2176   6.2592
     6.2869   6.3480   6.4164   6.4506   6.5039   6.5780   6.6492   6.7163
     6.7307   6.8244   6.8502   6.9843   7.0539   7.4106   7.4338   7.5760
     7.7455   7.9432   8.0693   8.3950   8.5756   8.6108   8.7475   9.0117
     9.2225   9.3236   9.4526

     the Fermi energy is     0.9969 ev

!    total energy              =   -3021.41997254 Ry
     Harris-Foulkes estimate   =   -3021.41997281 Ry
     estimated scf accuracy    <       0.00000063 Ry

     The total energy is the sum of the following terms:

     one-electron contribution =  -41241.38568938 Ry
     hartree contribution      =   20694.93028980 Ry
     xc contribution           =    -553.69342928 Ry
     ewald contribution        =   18078.72906742 Ry
     smearing contrib. (-TS)   =      -0.00021110 Ry

     total magnetization       =     0.00 Bohr mag/cell
     absolute magnetization    =     0.00 Bohr mag/cell

     convergence has been achieved in   7 iterations

     Forces acting on atoms (Ry/au):


     negative rho (up, down):  1.209E-02 1.209E-02
     atom    1 type  1   force =     0.00001266   -0.00035512   -0.13378162
     atom    2 type  2   force =     0.00000061    0.00003006    0.07212733
     atom    3 type  1   force =    -0.00135850    0.00030991   -0.06095920
     atom    4 type  2   force =     0.00290095    0.00048739    0.00638834
     atom    5 type  1   force =     0.00027317    0.00184421    0.00351762
     atom    6 type  2   force =     0.00004887    0.00001697   -0.00283203
     atom    7 type  1   force =    -0.00039257   -0.00072916    0.00430206
     atom    8 type  2   force =     0.00098229   -0.00017874   -0.00071042
     atom    9 type  1   force =    -0.00003012    0.00002165   -0.13353765
     atom   10 type  2   force =    -0.00007026    0.00006657    0.07130886
     atom   11 type  1   force =    -0.00132195   -0.00024028   -0.05587418
     atom   12 type  2   force =     0.00299368   -0.00006686    0.00610576
     atom   13 type  1   force =     0.00029696   -0.00147396    0.00345725
     atom   14 type  2   force =    -0.00120336   -0.00038352   -0.00289013
     atom   15 type  1   force =    -0.00057391    0.00020036    0.00447536
     atom   16 type  2   force =     0.00059491   -0.00020314   -0.00007260
     atom   17 type  2   force =    -0.00007358   -0.00006993    0.07938094
     atom   18 type  1   force =     0.00013283   -0.00017011    0.11913270
     atom   19 type  2   force =    -0.00010990   -0.00017415   -0.06668570
     atom   20 type  2   force =    -0.06322659    0.00014952   -0.03223870
     atom   21 type  2   force =     0.06319678    0.00001674   -0.03244315
     atom   22 type  1   force =     0.00072021    0.00108371    0.05976097
     atom   23 type  2   force =    -0.00017474    0.00005798   -0.00174655
     atom   24 type  2   force =    -0.00143839   -0.00000300   -0.02327352
     atom   25 type  2   force =    -0.00313543    0.00059164    0.00787374
     atom   26 type  1   force =     0.00063468    0.00029176    0.00463000
     atom   27 type  2   force =     0.00052629    0.00059572   -0.00383177
     atom   28 type  2   force =     0.00013595   -0.00008861   -0.00119710
     atom   29 type  2   force =     0.00020415   -0.00034230   -0.00058398
     atom   30 type  1   force =     0.00033537   -0.00063983    0.00392584
     atom   31 type  2   force =    -0.00000677    0.00013074   -0.00273933
     atom   32 type  2   force =    -0.00001529    0.00000080   -0.00114633
     atom   33 type  2   force =    -0.00012220    0.00003986    0.07898235
     atom   34 type  1   force =     0.00006625   -0.00021821    0.11904585
     atom   35 type  2   force =    -0.00030757   -0.00005291   -0.06638680
     atom   36 type  2   force =    -0.06318632   -0.00005147   -0.03232773
     atom   37 type  2   force =     0.06332830   -0.00020156   -0.03248308
     atom   38 type  1   force =     0.00065914   -0.00098209    0.05997741
     atom   39 type  2   force =    -0.00045658    0.00010814   -0.00249307
     atom   40 type  2   force =    -0.00119384    0.00030740   -0.02218145
     atom   41 type  2   force =    -0.00317493   -0.00014864    0.00790072
     atom   42 type  1   force =     0.00051499    0.00006572    0.00374366
     atom   43 type  2   force =     0.00069024    0.00024076   -0.00300830
     atom   44 type  2   force =     0.00022277    0.00010509   -0.00115555
     atom   45 type  2   force =     0.00017989    0.00030988   -0.00061981
     atom   46 type  1   force =     0.00054128    0.00025122    0.00397238
     atom   47 type  2   force =     0.00006686   -0.00032942   -0.00133633
     atom   48 type  2   force =     0.00008076    0.00010075   -0.00094392
     atom   49 type  3   force =    -0.00772183   -0.00529956   -0.00044973
     atom   50 type  2   force =     0.00126648    0.00161421   -0.00048652
     atom   51 type  4   force =    -0.00011353   -0.00288166   -0.00174976
     atom   52 type  4   force =     0.00053783    0.00047912    0.00081189
     atom   53 type  4   force =     0.00039093    0.00183996   -0.00035629
     atom   54 type  4   force =     0.00687209    0.00392636    0.00170130

     Total force =     0.362816     Total SCF correction =     0.001345
 !ASE

     Writing output data file calc.save
 
     init_run     :     54.87s CPU     68.90s WALL (       1 calls)
     electrons    :   1729.97s CPU   2076.05s WALL (       1 calls)
     forces       :     39.87s CPU     41.49s WALL (       1 calls)

     Called by init_run:
     wfcinit      :     46.77s CPU     59.98s WALL (       1 calls)
     potinit      :      1.33s CPU      1.63s WALL (       1 calls)

     Called by electrons:
     c_bands      :   1511.06s CPU   1802.08s WALL (       8 calls)
     sum_band     :    187.22s CPU    238.00s WALL (       8 calls)
     v_of_rho     :      8.10s CPU     10.22s WALL (       8 calls)
     newd         :     27.38s CPU     29.79s WALL (       8 calls)
     mix_rho      :      0.28s CPU      0.39s WALL (       8 calls)
     vdW_energy   :      1.47s CPU      1.78s WALL (       9 calls)
     vdW_ffts     :      2.42s CPU      3.22s WALL (      18 calls)
     vdW_v        :      0.82s CPU      0.96s WALL (       9 calls)

     Called by c_bands:
     init_us_2    :      4.84s CPU      5.32s WALL (     720 calls)
     cegterg      :   1482.46s CPU   1771.89s WALL (     320 calls)

     Called by *egterg:
     h_psi        :    618.96s CPU    851.53s WALL (    1662 calls)
     s_psi        :     75.40s CPU     78.44s WALL (    1662 calls)
     g_psi        :      4.13s CPU      4.22s WALL (    1302 calls)
     cdiaghg      :    504.86s CPU    513.52s WALL (    1582 calls)

     Called by h_psi:
     add_vuspsi   :     75.81s CPU     78.81s WALL (    1662 calls)

     General routines
     calbec       :    115.44s CPU    117.76s WALL (    2022 calls)
     fft          :      4.71s CPU      6.22s WALL (     713 calls)
     ffts         :      0.04s CPU      0.05s WALL (      32 calls)
     fftw         :    401.39s CPU    672.87s WALL (  601798 calls)
     interpolate  :      0.24s CPU      0.39s WALL (      32 calls)
     davcio       :      0.12s CPU      4.20s WALL (      40 calls)
 
     Parallel routines
     fft_scatter  :    210.54s CPU    371.94s WALL (  602543 calls)
 
     PWSCF        : 30m25.70s CPU    36m32.41s WALL

 
   This run was terminated on:   6:54:28  13Feb2018            

=------------------------------------------------------------------------------=
   JOB DONE.
=------------------------------------------------------------------------------=
