  python dir          : /home/vossj/suncat/lib/python2.7/site-packages/espresso
  espresso dir        : /home/vossj/suncat/esdld/espresso-dynpy-beef/bin
  pseudo dir          : /home/alatimer/bin/psp/esp_psp_w_gbrvRu/
  ase-espresso py git : ffa2778-git



     Program PWSCF v.5.1rc2 (svn rev. ) starts on 25Feb2018 at 23: 7:26 

     This program is part of the open-source Quantum ESPRESSO suite
     for quantum simulation of materials; please cite
         "P. Giannozzi et al., J. Phys.:Condens. Matter 21 395502 (2009);
          URL http://www.quantum-espresso.org", 
     in publications or presentations arising from this work. More details at
     http://www.quantum-espresso.org/quote

     Parallel version (MPI), running on    16 processors
     R & G space division:  proc/nbgrp/npool/nimage =      16
     Reading input from pw.inp
     Message from routine read_cards :
     DEPRECATED: no units specified in CELL_PARAMETERS card

     Current dimensions of program PWSCF are:
     Max number of different atomic species (ntypx) = 10
     Max number of k-points (npk) =  40000
     Max angular momentum in pseudopotentials (lmaxx) =  3

     **************************************************************************
     Initializing libbeef V0.1.1 with the BEEF-vdW functional.
     Citation: Wellendorff et al., PRB 85, 235149 (2012).
     **************************************************************************


     IMPORTANT: XC functional enforced from input :
     Exchange-correlation      = BEEF ( 1  4 27 13 2)
     Any further DFT definition will be discarded
     Please, verify this is what you really want


     Subspace diagonalization in iterative solution of the eigenvalue problem:
     a serial algorithm will be used

 
     Parallelization info
     --------------------
     sticks:   dense  smooth     PW     G-vecs:    dense   smooth      PW
     Min         281     112     31                68535    17318    2565
     Max         282     113     32                68545    17369    2582
     Sum        4501    1795    503              1096637   277353   41113
 
     Generating pointlists ...
     new r_m :   0.4125 (alat units)  0.7795 (a.u.) for type    1
     new r_m :   0.4125 (alat units)  0.7795 (a.u.) for type    2
     new r_m :   0.4125 (alat units)  0.7795 (a.u.) for type    3
     new r_m :   0.4125 (alat units)  0.7795 (a.u.) for type    4


     bravais-lattice index     =            0
     lattice parameter (alat)  =       1.8897  a.u.
     unit-cell volume          =    7990.9933 (a.u.)^3
     number of atoms/cell      =           54
     number of atomic types    =            4
     number of electrons       =       398.00
     number of Kohn-Sham states=          299
     kinetic-energy cutoff     =      40.4243  Ry
     charge density cutoff     =     404.2426  Ry
     convergence threshold     =      7.3E-07
     mixing beta               =       0.1000
     number of iterations used =           10  plain     mixing
     Exchange-correlation      = BEEF ( 1  4 27 13 2)
     nstep                     =           50


     celldm(1)=   1.889726  celldm(2)=   0.000000  celldm(3)=   0.000000
     celldm(4)=   0.000000  celldm(5)=   0.000000  celldm(6)=   0.000000

     crystal axes: (cart. coord. in units of alat)
               a(1) = (   6.590708   0.000000   0.000000 )  
               a(2) = (   0.000000   5.950229   0.000000 )  
               a(3) = (   0.000000   0.000000  30.195235 )  

     reciprocal axes: (cart. coord. in units 2 pi/alat)
               b(1) = (  0.151729  0.000000  0.000000 )  
               b(2) = (  0.000000  0.168061  0.000000 )  
               b(3) = (  0.000000  0.000000  0.033118 )  


     PseudoPot. # 1 for Ti read from file:
     /home/alatimer/bin/psp/esp_psp_w_gbrvRu/Ti.UPF
     MD5 check sum: 8e4df49b7f0d34bbd5052bf3f5ea0213
     Pseudo is Ultrasoft, Zval = 12.0
     Generated by new atomic code, or converted to UPF format
     Using radial grid of  851 points,  6 beta functions with: 
                l(1) =   0
                l(2) =   0
                l(3) =   1
                l(4) =   1
                l(5) =   2
                l(6) =   2
     Q(r) pseudized with  8 coefficients,  rinner =    1.000   1.000   1.000
                                                       1.000   1.000

     PseudoPot. # 2 for  O read from file:
     /home/alatimer/bin/psp/esp_psp_w_gbrvRu/O.UPF
     MD5 check sum: e057bbcf3229fb5d8c36c0c92f9568b4
     Pseudo is Ultrasoft + core correction, Zval =  6.0
     Generated using "atomic" code by A. Dal Corso  v.5.0.2 svn rev. 9415
     Using radial grid of 1095 points,  4 beta functions with: 
                l(1) =   0
                l(2) =   0
                l(3) =   1
                l(4) =   1
     Q(r) pseudized with 0 coefficients 


     PseudoPot. # 3 for  C read from file:
     /home/alatimer/bin/psp/esp_psp_w_gbrvRu/C.UPF
     MD5 check sum: ab446d787031eba755f1d5ee46644bb0
     Pseudo is Ultrasoft + core correction, Zval =  4.0
     Generated using "atomic" code by A. Dal Corso  v.5.0.2 svn rev. 9415
     Using radial grid of 1073 points,  4 beta functions with: 
                l(1) =   0
                l(2) =   0
                l(3) =   1
                l(4) =   1
     Q(r) pseudized with 0 coefficients 


     PseudoPot. # 4 for  H read from file:
     /home/alatimer/bin/psp/esp_psp_w_gbrvRu/H.UPF
     MD5 check sum: bd57da0722753ddfd9833a65b40bb853
     Pseudo is Ultrasoft, Zval =  1.0
     Generated using "atomic" code by A. Dal Corso  v.5.0.2 svn rev. 9415
     Using radial grid of  929 points,  2 beta functions with: 
                l(1) =   0
                l(2) =   0
     Q(r) pseudized with 0 coefficients 


     vdW kernel table read from file vdW_kernel_table
     MD5 check sum: 095c7af220d748ca6e76c0b4c6cfb241

     atomic species   valence    mass     pseudopotential
        Ti1           12.00    47.88000     Ti( 1.00)
        O1             6.00    15.99940      O( 1.00)
        C1             4.00    12.01100      C( 1.00)
        H1             1.00     1.00794      H( 1.00)

     Starting magnetic structure 
     atomic species   magnetization
        Ti1          0.250
        O1           0.500
        C1           0.750
        H1           0.000

     No symmetry found



   Cartesian axes

     site n.     atom                  positions (alat units)
         1           Ti1 tau(   1) = (   1.6476770   0.7437786   2.6545865  )
         2           O1  tau(   2) = (   1.6476770   2.2313359   3.9361215  )
         3           Ti1 tau(   3) = (   1.6476770   2.2313359   5.9499405  )
         4           O1  tau(   4) = (   0.3661420   0.7437786   5.9499405  )
         5           Ti1 tau(   5) = (   1.6407309   0.9134410   9.3139491  )
         6           O1  tau(   6) = (   1.6648823   2.2608486  10.4895904  )
         7           Ti1 tau(   7) = (   1.7578240   2.2899216  13.0472362  )
         8           O1  tau(   8) = (   0.4801583   0.7600008  12.7739736  )
         9           Ti1 tau(   9) = (   1.6476770   3.7188931   2.6545865  )
        10           O1  tau(  10) = (   1.6476770   5.2064503   3.9361215  )
        11           Ti1 tau(  11) = (   1.6476770   5.2064503   5.9499405  )
        12           O1  tau(  12) = (   0.3661420   3.7188931   5.9499405  )
        13           Ti1 tau(  13) = (   1.6336050   3.7786827   9.1566831  )
        14           O1  tau(  14) = (   1.6678212   5.2513959  10.5409436  )
        15           Ti1 tau(  15) = (   1.7144009   5.2558216  12.3462911  )
        16           O1  tau(  16) = (   0.4635505   3.7986228  12.7318280  )
        17           O1  tau(  17) = (   1.6476770   2.2313359   1.3730516  )
        18           Ti1 tau(  18) = (   4.9430310   2.2313359   2.6545865  )
        19           O1  tau(  19) = (   4.9430310   2.2313359   4.6684056  )
        20           O1  tau(  20) = (   6.2245660   0.7437786   2.6545865  )
        21           O1  tau(  21) = (   3.6614961   0.7437786   2.6545865  )
        22           Ti1 tau(  22) = (   4.9430310   0.7437786   5.9499405  )
        23           O1  tau(  23) = (   1.6683653   2.2752577   7.9427336  )
        24           O1  tau(  24) = (   4.9430310   2.2313359   7.2314755  )
        25           O1  tau(  25) = (   2.9292120   0.7437786   5.9499405  )
        26           Ti1 tau(  26) = (   4.9404121   2.2664794   9.4552217  )
        27           O1  tau(  27) = (   5.0099888   2.2616732  11.2946145  )
        28           O1  tau(  28) = (   6.2612001   0.7714827   9.2659748  )
        29           O1  tau(  29) = (   3.6791272   0.7744986   9.2965846  )
        30           Ti1 tau(  30) = (   5.0117873   0.7976728  12.8161605  )
        31           O1  tau(  31) = (   4.9963122   2.2836652  13.8750618  )
        32           O1  tau(  32) = (   2.9819382   0.7448324  12.7109220  )
        33           O1  tau(  33) = (   1.6476770   5.2064503   1.3730516  )
        34           Ti1 tau(  34) = (   4.9430310   5.2064503   2.6545865  )
        35           O1  tau(  35) = (   4.9430310   5.2064503   4.6684056  )
        36           O1  tau(  36) = (   6.2245660   3.7188931   2.6545865  )
        37           O1  tau(  37) = (   3.6614961   3.7188931   2.6545865  )
        38           Ti1 tau(  38) = (   4.9430310   3.7188931   5.9499405  )
        39           O1  tau(  39) = (   1.6664207   5.2035600   7.9365221  )
        40           O1  tau(  40) = (   4.9430310   5.2064503   7.2314755  )
        41           O1  tau(  41) = (   2.9292120   3.7188931   5.9499405  )
        42           Ti1 tau(  42) = (   4.9524353   5.2460635   9.4426343  )
        43           O1  tau(  43) = (   5.0107556   5.2394944  11.2927493  )
        44           O1  tau(  44) = (   6.2663940   3.7551737   9.2646230  )
        45           O1  tau(  45) = (   3.6780957   3.7542261   9.2971476  )
        46           Ti1 tau(  46) = (   5.0587989   3.7766986  12.8010349  )
        47           O1  tau(  47) = (   5.0196089   5.2502198  13.8813978  )
        48           O1  tau(  48) = (   2.9624133   3.7943242  12.7299881  )
        49           O1  tau(  49) = (   1.7427453   2.2533568  14.8670015  )
        50           C1  tau(  50) = (   2.7196098   4.2826273  16.2318421  )
        51           H1  tau(  51) = (   3.3037454   4.9255546  15.5827400  )
        52           H1  tau(  52) = (   3.3286606   3.7870117  16.9822022  )
        53           H1  tau(  53) = (   2.3125587   3.4026405  15.5729816  )
        54           H1  tau(  54) = (   1.8391288   4.7650601  16.6448379  )

     number of k points=    40  Fermi-Dirac smearing, width (Ry)=  0.0073
                       cart. coord. in units 2pi/alat
        k(    1) = (   0.0000000   0.0000000   0.0000000), wk =   0.0277778
        k(    2) = (   0.0000000   0.0280101   0.0000000), wk =   0.0555556
        k(    3) = (   0.0000000   0.0560203   0.0000000), wk =   0.0555556
        k(    4) = (   0.0000000  -0.0840304   0.0000000), wk =   0.0277778
        k(    5) = (   0.0252881   0.0000000   0.0000000), wk =   0.0555556
        k(    6) = (   0.0252881   0.0280101   0.0000000), wk =   0.0555556
        k(    7) = (   0.0252881   0.0560203   0.0000000), wk =   0.0555556
        k(    8) = (   0.0252881  -0.0840304   0.0000000), wk =   0.0555556
        k(    9) = (   0.0505763   0.0000000   0.0000000), wk =   0.0555556
        k(   10) = (   0.0505763   0.0280101   0.0000000), wk =   0.0555556
        k(   11) = (   0.0505763   0.0560203   0.0000000), wk =   0.0555556
        k(   12) = (   0.0505763  -0.0840304   0.0000000), wk =   0.0555556
        k(   13) = (  -0.0758644   0.0000000   0.0000000), wk =   0.0277778
        k(   14) = (  -0.0758644   0.0280101   0.0000000), wk =   0.0555556
        k(   15) = (  -0.0758644   0.0560203   0.0000000), wk =   0.0555556
        k(   16) = (  -0.0758644  -0.0840304   0.0000000), wk =   0.0277778
        k(   17) = (  -0.0252881   0.0280101   0.0000000), wk =   0.0555556
        k(   18) = (  -0.0252881   0.0560203   0.0000000), wk =   0.0555556
        k(   19) = (  -0.0505763   0.0280101   0.0000000), wk =   0.0555556
        k(   20) = (  -0.0505763   0.0560203   0.0000000), wk =   0.0555556
        k(   21) = (   0.0000000   0.0000000   0.0000000), wk =   0.0277778
        k(   22) = (   0.0000000   0.0280101   0.0000000), wk =   0.0555556
        k(   23) = (   0.0000000   0.0560203   0.0000000), wk =   0.0555556
        k(   24) = (   0.0000000  -0.0840304   0.0000000), wk =   0.0277778
        k(   25) = (   0.0252881   0.0000000   0.0000000), wk =   0.0555556
        k(   26) = (   0.0252881   0.0280101   0.0000000), wk =   0.0555556
        k(   27) = (   0.0252881   0.0560203   0.0000000), wk =   0.0555556
        k(   28) = (   0.0252881  -0.0840304   0.0000000), wk =   0.0555556
        k(   29) = (   0.0505763   0.0000000   0.0000000), wk =   0.0555556
        k(   30) = (   0.0505763   0.0280101   0.0000000), wk =   0.0555556
        k(   31) = (   0.0505763   0.0560203   0.0000000), wk =   0.0555556
        k(   32) = (   0.0505763  -0.0840304   0.0000000), wk =   0.0555556
        k(   33) = (  -0.0758644   0.0000000   0.0000000), wk =   0.0277778
        k(   34) = (  -0.0758644   0.0280101   0.0000000), wk =   0.0555556
        k(   35) = (  -0.0758644   0.0560203   0.0000000), wk =   0.0555556
        k(   36) = (  -0.0758644  -0.0840304   0.0000000), wk =   0.0277778
        k(   37) = (  -0.0252881   0.0280101   0.0000000), wk =   0.0555556
        k(   38) = (  -0.0252881   0.0560203   0.0000000), wk =   0.0555556
        k(   39) = (  -0.0505763   0.0280101   0.0000000), wk =   0.0555556
        k(   40) = (  -0.0505763   0.0560203   0.0000000), wk =   0.0555556

     Dense  grid:  1096637 G-vectors     FFT dimensions: (  80,  72, 375)

     Smooth grid:   277353 G-vectors     FFT dimensions: (  54,  45, 240)

     Largest allocated arrays     est. size (Mb)     dimensions
        Kohn-Sham Wavefunctions         9.95 Mb     (    2180,  299)
        NL pseudopotentials            18.89 Mb     (    2180,  568)
        Each V/rho on FFT grid          4.22 Mb     (  138240,   2)
        Each G-vector array             0.52 Mb     (   68538)
        G-vector shells                 0.25 Mb     (   33046)
     Largest temporary arrays     est. size (Mb)     dimensions
        Auxiliary wavefunctions        39.78 Mb     (    2180, 1196)
        Each subspace H/S matrix       21.83 Mb     (    1196, 1196)
        Each <psi_i|beta_j> matrix      2.59 Mb     (     568,  299)
        Arrays for rho mixing          21.09 Mb     (  138240,   10)

     Check: negative/imaginary core charge=   -0.000049    0.000000

     The initial density is read from file :
     ./calc.save/charge-density.dat


     negative rho (up, down):  1.189E-02 1.196E-02


     ************************************************************************
     *
     * You are using vdW-DF for exchange-correlation in this calculation.
     * Please cite the following three references that made this development
     * possible:
     *
     *   M. Dion, H. Rydberg, E. Schroder, D. C. Langreth, and
     *   B. I. Lundqvist, Phys. Rev. Lett. 92, 246401 (2004).
     *
     *   T. Thonhauser, V. R. Cooper, S. Li, A. Puzder, P. Hyldgaard, and
     *   D. C. Langreth, Phys. Rev. B 76, 125112 (2007).
     *
     *   G. Roman-Perez and J. M. Soler, Phys. Rev. Lett. 103, 096102 (2009).
     *
     *
     * If you are using vdW-DF2, please also cite:
     *
     *   K. Lee, E. D. Murray, L. Kong, B. I. Lundqvist, and
     *   D. C. Langreth, Phys. Rev. B 82, 081101(R) (2010).
     *
     *
     * If you are calculating the stress with vdW-DF, please also cite:
     *
     *   R. Sabatini, E. Kucukbenli, B. Kolb, T. Thonhauser, and
     *   S. de Gironcoli, J. Phys.: Condens. Matter 24, 424209 (2012).
     *
     ************************************************************************

     Carrying out vdW-DF run using the following parameters:

     Nqs =      20    Nr_points =    1024   r_max =   100.000
     q_mesh =
               0.00001000     0.04494208     0.09755937     0.15916263
               0.23128650     0.31572767     0.41458969     0.53033537
               0.66584808     0.82450364     1.01025438     1.22772762
               1.48234092     1.78043706     2.12944203     2.53805004
               3.01644009     3.57652955     4.23227104     5.00000000

     Gradients computed in reciprocal space

     ************************************************************************


     Starting wfc are  300 randomized atomic wfcs

     total cpu time spent up to now is       76.1 secs

     Self-consistent Calculation

     iteration #  1     ecut=    40.42 Ry     beta=0.10
     Davidson diagonalization with overlap
     ethr =  1.00E-05,  avg # of iterations = 14.5

     negative rho (up, down):  1.188E-02 1.195E-02
 
     Magnetic moment per site:
     atom:    1    charge:    3.1245    magn:   -0.0003    constr:    0.0000
     atom:    2    charge:    2.0902    magn:    0.0003    constr:    0.0000
     atom:    3    charge:    3.1198    magn:   -0.0000    constr:    0.0000
     atom:    4    charge:    2.0869    magn:   -0.0001    constr:    0.0000
     atom:    5    charge:    3.1162    magn:   -0.0002    constr:    0.0000
     atom:    6    charge:    2.0785    magn:    0.0021    constr:    0.0000
     atom:    7    charge:    3.1105    magn:   -0.0053    constr:    0.0000
     atom:    8    charge:    2.0787    magn:    0.0251    constr:    0.0000
     atom:    9    charge:    3.1245    magn:   -0.0003    constr:    0.0000
     atom:   10    charge:    2.0903    magn:    0.0003    constr:    0.0000
     atom:   11    charge:    3.1198    magn:   -0.0000    constr:    0.0000
     atom:   12    charge:    2.0872    magn:   -0.0000    constr:    0.0000
     atom:   13    charge:    3.1149    magn:   -0.0002    constr:    0.0000
     atom:   14    charge:    2.0936    magn:    0.0023    constr:    0.0000
     atom:   15    charge:    3.1186    magn:   -0.0008    constr:    0.0000
     atom:   16    charge:    2.0824    magn:    0.0047    constr:    0.0000
     atom:   17    charge:    2.0648    magn:    0.0017    constr:    0.0000
     atom:   18    charge:    3.1242    magn:   -0.0001    constr:    0.0000
     atom:   19    charge:    2.0876    magn:    0.0001    constr:    0.0000
     atom:   20    charge:    2.0848    magn:    0.0002    constr:    0.0000
     atom:   21    charge:    2.0848    magn:    0.0002    constr:    0.0000
     atom:   22    charge:    3.1200    magn:    0.0000    constr:    0.0000
     atom:   23    charge:    2.0908    magn:    0.0002    constr:    0.0000
     atom:   24    charge:    2.0751    magn:   -0.0002    constr:    0.0000
     atom:   25    charge:    2.0869    magn:    0.0000    constr:    0.0000
     atom:   26    charge:    3.1127    magn:   -0.0002    constr:    0.0000
     atom:   27    charge:    2.0790    magn:    0.0025    constr:    0.0000
     atom:   28    charge:    2.0833    magn:    0.0006    constr:    0.0000
     atom:   29    charge:    2.0855    magn:    0.0008    constr:    0.0000
     atom:   30    charge:    3.1169    magn:   -0.0008    constr:    0.0000
     atom:   31    charge:    2.0831    magn:    0.0007    constr:    0.0000
     atom:   32    charge:    2.0824    magn:    0.0066    constr:    0.0000
     atom:   33    charge:    2.0648    magn:    0.0017    constr:    0.0000
     atom:   34    charge:    3.1242    magn:   -0.0001    constr:    0.0000
     atom:   35    charge:    2.0876    magn:    0.0001    constr:    0.0000
     atom:   36    charge:    2.0848    magn:    0.0002    constr:    0.0000
     atom:   37    charge:    2.0848    magn:    0.0002    constr:    0.0000
     atom:   38    charge:    3.1200    magn:    0.0000    constr:    0.0000
     atom:   39    charge:    2.0839    magn:    0.0002    constr:    0.0000
     atom:   40    charge:    2.0754    magn:   -0.0003    constr:    0.0000
     atom:   41    charge:    2.0872    magn:   -0.0000    constr:    0.0000
     atom:   42    charge:    3.1152    magn:   -0.0002    constr:    0.0000
     atom:   43    charge:    2.0793    magn:    0.0030    constr:    0.0000
     atom:   44    charge:    2.0845    magn:    0.0008    constr:    0.0000
     atom:   45    charge:    2.0853    magn:    0.0004    constr:    0.0000
     atom:   46    charge:    3.1145    magn:   -0.0007    constr:    0.0000
     atom:   47    charge:    2.0815    magn:    0.0046    constr:    0.0000
     atom:   48    charge:    2.0837    magn:    0.0136    constr:    0.0000
     atom:   49    charge:    2.0497    magn:    0.2407    constr:    0.0000
     atom:   50    charge:    0.6719    magn:    0.0543    constr:    0.0000
     atom:   51    charge:    0.4218    magn:    0.0008    constr:    0.0000
     atom:   52    charge:    0.4228    magn:    0.0007    constr:    0.0000
     atom:   53    charge:    0.3689    magn:    0.0225    constr:    0.0000
     atom:   54    charge:    0.4232    magn:    0.0006    constr:    0.0000

     total cpu time spent up to now is     1015.6 secs

     total energy              =   -3021.16394088 Ry
     Harris-Foulkes estimate   =   -3021.20192413 Ry
     estimated scf accuracy    <       0.22397784 Ry

     total magnetization       =     1.06 Bohr mag/cell
     absolute magnetization    =     1.23 Bohr mag/cell

     iteration #  2     ecut=    40.42 Ry     beta=0.10
     Davidson diagonalization with overlap
     ethr =  5.63E-05,  avg # of iterations =  4.9

     negative rho (up, down):  1.188E-02 1.195E-02
 
     Magnetic moment per site:
     atom:    1    charge:    3.1244    magn:   -0.0003    constr:    0.0000
     atom:    2    charge:    2.0897    magn:    0.0003    constr:    0.0000
     atom:    3    charge:    3.1198    magn:   -0.0000    constr:    0.0000
     atom:    4    charge:    2.0869    magn:   -0.0001    constr:    0.0000
     atom:    5    charge:    3.1161    magn:   -0.0002    constr:    0.0000
     atom:    6    charge:    2.0792    magn:    0.0020    constr:    0.0000
     atom:    7    charge:    3.1099    magn:   -0.0053    constr:    0.0000
     atom:    8    charge:    2.0791    magn:    0.0250    constr:    0.0000
     atom:    9    charge:    3.1244    magn:   -0.0003    constr:    0.0000
     atom:   10    charge:    2.0898    magn:    0.0003    constr:    0.0000
     atom:   11    charge:    3.1198    magn:   -0.0000    constr:    0.0000
     atom:   12    charge:    2.0873    magn:   -0.0000    constr:    0.0000
     atom:   13    charge:    3.1150    magn:   -0.0002    constr:    0.0000
     atom:   14    charge:    2.0939    magn:    0.0022    constr:    0.0000
     atom:   15    charge:    3.1186    magn:   -0.0008    constr:    0.0000
     atom:   16    charge:    2.0828    magn:    0.0046    constr:    0.0000
     atom:   17    charge:    2.0619    magn:    0.0017    constr:    0.0000
     atom:   18    charge:    3.1240    magn:   -0.0001    constr:    0.0000
     atom:   19    charge:    2.0875    magn:    0.0001    constr:    0.0000
     atom:   20    charge:    2.0847    magn:    0.0002    constr:    0.0000
     atom:   21    charge:    2.0847    magn:    0.0002    constr:    0.0000
     atom:   22    charge:    3.1199    magn:    0.0000    constr:    0.0000
     atom:   23    charge:    2.0909    magn:    0.0002    constr:    0.0000
     atom:   24    charge:    2.0757    magn:   -0.0002    constr:    0.0000
     atom:   25    charge:    2.0870    magn:    0.0000    constr:    0.0000
     atom:   26    charge:    3.1126    magn:   -0.0002    constr:    0.0000
     atom:   27    charge:    2.0799    magn:    0.0025    constr:    0.0000
     atom:   28    charge:    2.0839    magn:    0.0006    constr:    0.0000
     atom:   29    charge:    2.0860    magn:    0.0007    constr:    0.0000
     atom:   30    charge:    3.1170    magn:   -0.0008    constr:    0.0000
     atom:   31    charge:    2.0831    magn:    0.0006    constr:    0.0000
     atom:   32    charge:    2.0828    magn:    0.0064    constr:    0.0000
     atom:   33    charge:    2.0619    magn:    0.0018    constr:    0.0000
     atom:   34    charge:    3.1240    magn:   -0.0001    constr:    0.0000
     atom:   35    charge:    2.0875    magn:    0.0001    constr:    0.0000
     atom:   36    charge:    2.0847    magn:    0.0002    constr:    0.0000
     atom:   37    charge:    2.0847    magn:    0.0002    constr:    0.0000
     atom:   38    charge:    3.1200    magn:    0.0000    constr:    0.0000
     atom:   39    charge:    2.0841    magn:    0.0002    constr:    0.0000
     atom:   40    charge:    2.0760    magn:   -0.0003    constr:    0.0000
     atom:   41    charge:    2.0873    magn:   -0.0000    constr:    0.0000
     atom:   42    charge:    3.1151    magn:   -0.0002    constr:    0.0000
     atom:   43    charge:    2.0801    magn:    0.0030    constr:    0.0000
     atom:   44    charge:    2.0851    magn:    0.0008    constr:    0.0000
     atom:   45    charge:    2.0859    magn:    0.0004    constr:    0.0000
     atom:   46    charge:    3.1146    magn:   -0.0007    constr:    0.0000
     atom:   47    charge:    2.0817    magn:    0.0046    constr:    0.0000
     atom:   48    charge:    2.0840    magn:    0.0135    constr:    0.0000
     atom:   49    charge:    2.0505    magn:    0.2408    constr:    0.0000
     atom:   50    charge:    0.6721    magn:    0.0542    constr:    0.0000
     atom:   51    charge:    0.4218    magn:    0.0008    constr:    0.0000
     atom:   52    charge:    0.4229    magn:    0.0007    constr:    0.0000
     atom:   53    charge:    0.3692    magn:    0.0223    constr:    0.0000
     atom:   54    charge:    0.4232    magn:    0.0005    constr:    0.0000

     total cpu time spent up to now is     1274.7 secs

     total energy              =   -3021.15917256 Ry
     Harris-Foulkes estimate   =   -3021.18862151 Ry
     estimated scf accuracy    <       0.43441226 Ry

     total magnetization       =     1.00 Bohr mag/cell
     absolute magnetization    =     1.17 Bohr mag/cell

     iteration #  3     ecut=    40.42 Ry     beta=0.10
     Davidson diagonalization with overlap
     ethr =  5.63E-05,  avg # of iterations =  4.4

     negative rho (up, down):  1.188E-02 1.194E-02
 
     Magnetic moment per site:
     atom:    1    charge:    3.1243    magn:   -0.0003    constr:    0.0000
     atom:    2    charge:    2.0896    magn:    0.0003    constr:    0.0000
     atom:    3    charge:    3.1198    magn:   -0.0000    constr:    0.0000
     atom:    4    charge:    2.0868    magn:   -0.0001    constr:    0.0000
     atom:    5    charge:    3.1160    magn:   -0.0002    constr:    0.0000
     atom:    6    charge:    2.0800    magn:    0.0020    constr:    0.0000
     atom:    7    charge:    3.1076    magn:   -0.0054    constr:    0.0000
     atom:    8    charge:    2.0794    magn:    0.0248    constr:    0.0000
     atom:    9    charge:    3.1243    magn:   -0.0003    constr:    0.0000
     atom:   10    charge:    2.0898    magn:    0.0003    constr:    0.0000
     atom:   11    charge:    3.1198    magn:   -0.0000    constr:    0.0000
     atom:   12    charge:    2.0871    magn:   -0.0000    constr:    0.0000
     atom:   13    charge:    3.1151    magn:   -0.0002    constr:    0.0000
     atom:   14    charge:    2.0941    magn:    0.0022    constr:    0.0000
     atom:   15    charge:    3.1185    magn:   -0.0008    constr:    0.0000
     atom:   16    charge:    2.0827    magn:    0.0047    constr:    0.0000
     atom:   17    charge:    2.0623    magn:    0.0017    constr:    0.0000
     atom:   18    charge:    3.1240    magn:   -0.0001    constr:    0.0000
     atom:   19    charge:    2.0875    magn:    0.0001    constr:    0.0000
     atom:   20    charge:    2.0847    magn:    0.0002    constr:    0.0000
     atom:   21    charge:    2.0847    magn:    0.0002    constr:    0.0000
     atom:   22    charge:    3.1199    magn:    0.0000    constr:    0.0000
     atom:   23    charge:    2.0908    magn:    0.0002    constr:    0.0000
     atom:   24    charge:    2.0755    magn:   -0.0002    constr:    0.0000
     atom:   25    charge:    2.0868    magn:    0.0000    constr:    0.0000
     atom:   26    charge:    3.1126    magn:   -0.0002    constr:    0.0000
     atom:   27    charge:    2.0806    magn:    0.0025    constr:    0.0000
     atom:   28    charge:    2.0840    magn:    0.0006    constr:    0.0000
     atom:   29    charge:    2.0862    magn:    0.0007    constr:    0.0000
     atom:   30    charge:    3.1171    magn:   -0.0008    constr:    0.0000
     atom:   31    charge:    2.0829    magn:    0.0006    constr:    0.0000
     atom:   32    charge:    2.0827    magn:    0.0066    constr:    0.0000
     atom:   33    charge:    2.0623    magn:    0.0017    constr:    0.0000
     atom:   34    charge:    3.1240    magn:   -0.0001    constr:    0.0000
     atom:   35    charge:    2.0875    magn:    0.0001    constr:    0.0000
     atom:   36    charge:    2.0847    magn:    0.0002    constr:    0.0000
     atom:   37    charge:    2.0847    magn:    0.0002    constr:    0.0000
     atom:   38    charge:    3.1200    magn:    0.0000    constr:    0.0000
     atom:   39    charge:    2.0839    magn:    0.0002    constr:    0.0000
     atom:   40    charge:    2.0757    magn:   -0.0003    constr:    0.0000
     atom:   41    charge:    2.0871    magn:   -0.0000    constr:    0.0000
     atom:   42    charge:    3.1151    magn:   -0.0002    constr:    0.0000
     atom:   43    charge:    2.0805    magn:    0.0030    constr:    0.0000
     atom:   44    charge:    2.0852    magn:    0.0008    constr:    0.0000
     atom:   45    charge:    2.0860    magn:    0.0004    constr:    0.0000
     atom:   46    charge:    3.1147    magn:   -0.0007    constr:    0.0000
     atom:   47    charge:    2.0812    magn:    0.0045    constr:    0.0000
     atom:   48    charge:    2.0839    magn:    0.0133    constr:    0.0000
     atom:   49    charge:    2.0516    magn:    0.2431    constr:    0.0000
     atom:   50    charge:    0.6724    magn:    0.0539    constr:    0.0000
     atom:   51    charge:    0.4217    magn:    0.0007    constr:    0.0000
     atom:   52    charge:    0.4230    magn:    0.0007    constr:    0.0000
     atom:   53    charge:    0.3708    magn:    0.0215    constr:    0.0000
     atom:   54    charge:    0.4233    magn:    0.0005    constr:    0.0000

     total cpu time spent up to now is     1525.9 secs

     total energy              =   -3021.15729119 Ry
     Harris-Foulkes estimate   =   -3021.17478710 Ry
     estimated scf accuracy    <       0.08073840 Ry

     total magnetization       =     1.08 Bohr mag/cell
     absolute magnetization    =     1.25 Bohr mag/cell

     iteration #  4     ecut=    40.42 Ry     beta=0.10
     Davidson diagonalization with overlap
     ethr =  2.03E-05,  avg # of iterations =  6.2

     negative rho (up, down):  1.187E-02 1.194E-02
 
     Magnetic moment per site:
     atom:    1    charge:    3.1244    magn:   -0.0003    constr:    0.0000
     atom:    2    charge:    2.0896    magn:    0.0003    constr:    0.0000
     atom:    3    charge:    3.1198    magn:   -0.0000    constr:    0.0000
     atom:    4    charge:    2.0866    magn:   -0.0001    constr:    0.0000
     atom:    5    charge:    3.1161    magn:   -0.0003    constr:    0.0000
     atom:    6    charge:    2.0803    magn:    0.0020    constr:    0.0000
     atom:    7    charge:    3.1118    magn:   -0.0055    constr:    0.0000
     atom:    8    charge:    2.0794    magn:    0.0243    constr:    0.0000
     atom:    9    charge:    3.1244    magn:   -0.0003    constr:    0.0000
     atom:   10    charge:    2.0897    magn:    0.0003    constr:    0.0000
     atom:   11    charge:    3.1198    magn:   -0.0000    constr:    0.0000
     atom:   12    charge:    2.0869    magn:   -0.0000    constr:    0.0000
     atom:   13    charge:    3.1150    magn:   -0.0002    constr:    0.0000
     atom:   14    charge:    2.0941    magn:    0.0022    constr:    0.0000
     atom:   15    charge:    3.1182    magn:   -0.0008    constr:    0.0000
     atom:   16    charge:    2.0825    magn:    0.0048    constr:    0.0000
     atom:   17    charge:    2.0624    magn:    0.0015    constr:    0.0000
     atom:   18    charge:    3.1238    magn:   -0.0001    constr:    0.0000
     atom:   19    charge:    2.0875    magn:    0.0001    constr:    0.0000
     atom:   20    charge:    2.0847    magn:    0.0001    constr:    0.0000
     atom:   21    charge:    2.0847    magn:    0.0001    constr:    0.0000
     atom:   22    charge:    3.1199    magn:    0.0000    constr:    0.0000
     atom:   23    charge:    2.0907    magn:    0.0002    constr:    0.0000
     atom:   24    charge:    2.0753    magn:   -0.0001    constr:    0.0000
     atom:   25    charge:    2.0866    magn:    0.0000    constr:    0.0000
     atom:   26    charge:    3.1127    magn:   -0.0002    constr:    0.0000
     atom:   27    charge:    2.0809    magn:    0.0025    constr:    0.0000
     atom:   28    charge:    2.0841    magn:    0.0006    constr:    0.0000
     atom:   29    charge:    2.0862    magn:    0.0008    constr:    0.0000
     atom:   30    charge:    3.1172    magn:   -0.0008    constr:    0.0000
     atom:   31    charge:    2.0825    magn:    0.0006    constr:    0.0000
     atom:   32    charge:    2.0825    magn:    0.0067    constr:    0.0000
     atom:   33    charge:    2.0624    magn:    0.0016    constr:    0.0000
     atom:   34    charge:    3.1238    magn:   -0.0001    constr:    0.0000
     atom:   35    charge:    2.0875    magn:    0.0001    constr:    0.0000
     atom:   36    charge:    2.0847    magn:    0.0001    constr:    0.0000
     atom:   37    charge:    2.0847    magn:    0.0001    constr:    0.0000
     atom:   38    charge:    3.1200    magn:    0.0000    constr:    0.0000
     atom:   39    charge:    2.0838    magn:    0.0002    constr:    0.0000
     atom:   40    charge:    2.0755    magn:   -0.0002    constr:    0.0000
     atom:   41    charge:    2.0869    magn:   -0.0000    constr:    0.0000
     atom:   42    charge:    3.1151    magn:   -0.0002    constr:    0.0000
     atom:   43    charge:    2.0806    magn:    0.0030    constr:    0.0000
     atom:   44    charge:    2.0852    magn:    0.0008    constr:    0.0000
     atom:   45    charge:    2.0860    magn:    0.0004    constr:    0.0000
     atom:   46    charge:    3.1148    magn:   -0.0007    constr:    0.0000
     atom:   47    charge:    2.0803    magn:    0.0045    constr:    0.0000
     atom:   48    charge:    2.0833    magn:    0.0130    constr:    0.0000
     atom:   49    charge:    2.0482    magn:    0.2454    constr:    0.0000
     atom:   50    charge:    0.6720    magn:    0.0539    constr:    0.0000
     atom:   51    charge:    0.4216    magn:    0.0007    constr:    0.0000
     atom:   52    charge:    0.4231    magn:    0.0007    constr:    0.0000
     atom:   53    charge:    0.3717    magn:    0.0211    constr:    0.0000
     atom:   54    charge:    0.4234    magn:    0.0005    constr:    0.0000

     total cpu time spent up to now is     1809.5 secs

     total energy              =   -3021.15136621 Ry
     Harris-Foulkes estimate   =   -3021.16043215 Ry
     estimated scf accuracy    <       0.02430413 Ry

     total magnetization       =     1.08 Bohr mag/cell
     absolute magnetization    =     1.25 Bohr mag/cell

     iteration #  5     ecut=    40.42 Ry     beta=0.10
     Davidson diagonalization with overlap
     ethr =  6.11E-06,  avg # of iterations =  5.9

     negative rho (up, down):  1.187E-02 1.195E-02
 
     Magnetic moment per site:
     atom:    1    charge:    3.1245    magn:   -0.0002    constr:    0.0000
     atom:    2    charge:    2.0896    magn:    0.0002    constr:    0.0000
     atom:    3    charge:    3.1198    magn:   -0.0000    constr:    0.0000
     atom:    4    charge:    2.0866    magn:   -0.0001    constr:    0.0000
     atom:    5    charge:    3.1161    magn:   -0.0003    constr:    0.0000
     atom:    6    charge:    2.0799    magn:    0.0019    constr:    0.0000
     atom:    7    charge:    3.1152    magn:   -0.0056    constr:    0.0000
     atom:    8    charge:    2.0794    magn:    0.0238    constr:    0.0000
     atom:    9    charge:    3.1245    magn:   -0.0003    constr:    0.0000
     atom:   10    charge:    2.0898    magn:    0.0003    constr:    0.0000
     atom:   11    charge:    3.1198    magn:   -0.0000    constr:    0.0000
     atom:   12    charge:    2.0869    magn:   -0.0000    constr:    0.0000
     atom:   13    charge:    3.1150    magn:   -0.0002    constr:    0.0000
     atom:   14    charge:    2.0938    magn:    0.0022    constr:    0.0000
     atom:   15    charge:    3.1182    magn:   -0.0008    constr:    0.0000
     atom:   16    charge:    2.0826    magn:    0.0047    constr:    0.0000
     atom:   17    charge:    2.0622    magn:    0.0014    constr:    0.0000
     atom:   18    charge:    3.1238    magn:   -0.0001    constr:    0.0000
     atom:   19    charge:    2.0876    magn:    0.0001    constr:    0.0000
     atom:   20    charge:    2.0847    magn:    0.0001    constr:    0.0000
     atom:   21    charge:    2.0847    magn:    0.0001    constr:    0.0000
     atom:   22    charge:    3.1199    magn:    0.0000    constr:    0.0000
     atom:   23    charge:    2.0907    magn:    0.0002    constr:    0.0000
     atom:   24    charge:    2.0752    magn:   -0.0001    constr:    0.0000
     atom:   25    charge:    2.0866    magn:    0.0000    constr:    0.0000
     atom:   26    charge:    3.1127    magn:   -0.0002    constr:    0.0000
     atom:   27    charge:    2.0806    magn:    0.0025    constr:    0.0000
     atom:   28    charge:    2.0839    magn:    0.0006    constr:    0.0000
     atom:   29    charge:    2.0861    magn:    0.0008    constr:    0.0000
     atom:   30    charge:    3.1172    magn:   -0.0008    constr:    0.0000
     atom:   31    charge:    2.0823    magn:    0.0006    constr:    0.0000
     atom:   32    charge:    2.0827    magn:    0.0066    constr:    0.0000
     atom:   33    charge:    2.0622    magn:    0.0014    constr:    0.0000
     atom:   34    charge:    3.1238    magn:   -0.0001    constr:    0.0000
     atom:   35    charge:    2.0876    magn:    0.0001    constr:    0.0000
     atom:   36    charge:    2.0847    magn:    0.0001    constr:    0.0000
     atom:   37    charge:    2.0847    magn:    0.0001    constr:    0.0000
     atom:   38    charge:    3.1200    magn:    0.0000    constr:    0.0000
     atom:   39    charge:    2.0838    magn:    0.0002    constr:    0.0000
     atom:   40    charge:    2.0754    magn:   -0.0002    constr:    0.0000
     atom:   41    charge:    2.0869    magn:   -0.0000    constr:    0.0000
     atom:   42    charge:    3.1152    magn:   -0.0002    constr:    0.0000
     atom:   43    charge:    2.0805    magn:    0.0030    constr:    0.0000
     atom:   44    charge:    2.0851    magn:    0.0009    constr:    0.0000
     atom:   45    charge:    2.0859    magn:    0.0004    constr:    0.0000
     atom:   46    charge:    3.1148    magn:   -0.0007    constr:    0.0000
     atom:   47    charge:    2.0802    magn:    0.0044    constr:    0.0000
     atom:   48    charge:    2.0833    magn:    0.0127    constr:    0.0000
     atom:   49    charge:    2.0478    magn:    0.2465    constr:    0.0000
     atom:   50    charge:    0.6712    magn:    0.0542    constr:    0.0000
     atom:   51    charge:    0.4217    magn:    0.0007    constr:    0.0000
     atom:   52    charge:    0.4230    magn:    0.0007    constr:    0.0000
     atom:   53    charge:    0.3716    magn:    0.0211    constr:    0.0000
     atom:   54    charge:    0.4234    magn:    0.0005    constr:    0.0000

     total cpu time spent up to now is     2099.5 secs

     total energy              =   -3021.14924477 Ry
     Harris-Foulkes estimate   =   -3021.15261613 Ry
     estimated scf accuracy    <       0.00773157 Ry

     total magnetization       =     1.06 Bohr mag/cell
     absolute magnetization    =     1.23 Bohr mag/cell

     iteration #  6     ecut=    40.42 Ry     beta=0.10
     Davidson diagonalization with overlap
     ethr =  1.94E-06,  avg # of iterations =  7.3

     negative rho (up, down):  1.188E-02 1.196E-02
 
     Magnetic moment per site:
     atom:    1    charge:    3.1245    magn:   -0.0002    constr:    0.0000
     atom:    2    charge:    2.0897    magn:    0.0002    constr:    0.0000
     atom:    3    charge:    3.1198    magn:   -0.0000    constr:    0.0000
     atom:    4    charge:    2.0867    magn:   -0.0001    constr:    0.0000
     atom:    5    charge:    3.1162    magn:   -0.0003    constr:    0.0000
     atom:    6    charge:    2.0794    magn:    0.0019    constr:    0.0000
     atom:    7    charge:    3.1168    magn:   -0.0057    constr:    0.0000
     atom:    8    charge:    2.0793    magn:    0.0235    constr:    0.0000
     atom:    9    charge:    3.1245    magn:   -0.0002    constr:    0.0000
     atom:   10    charge:    2.0899    magn:    0.0002    constr:    0.0000
     atom:   11    charge:    3.1198    magn:   -0.0000    constr:    0.0000
     atom:   12    charge:    2.0870    magn:   -0.0000    constr:    0.0000
     atom:   13    charge:    3.1150    magn:   -0.0002    constr:    0.0000
     atom:   14    charge:    2.0937    magn:    0.0021    constr:    0.0000
     atom:   15    charge:    3.1182    magn:   -0.0009    constr:    0.0000
     atom:   16    charge:    2.0827    magn:    0.0048    constr:    0.0000
     atom:   17    charge:    2.0622    magn:    0.0014    constr:    0.0000
     atom:   18    charge:    3.1239    magn:   -0.0001    constr:    0.0000
     atom:   19    charge:    2.0876    magn:    0.0001    constr:    0.0000
     atom:   20    charge:    2.0847    magn:    0.0001    constr:    0.0000
     atom:   21    charge:    2.0847    magn:    0.0001    constr:    0.0000
     atom:   22    charge:    3.1199    magn:    0.0000    constr:    0.0000
     atom:   23    charge:    2.0908    magn:    0.0002    constr:    0.0000
     atom:   24    charge:    2.0754    magn:   -0.0001    constr:    0.0000
     atom:   25    charge:    2.0867    magn:    0.0000    constr:    0.0000
     atom:   26    charge:    3.1127    magn:   -0.0002    constr:    0.0000
     atom:   27    charge:    2.0802    magn:    0.0025    constr:    0.0000
     atom:   28    charge:    2.0838    magn:    0.0006    constr:    0.0000
     atom:   29    charge:    2.0860    magn:    0.0008    constr:    0.0000
     atom:   30    charge:    3.1171    magn:   -0.0008    constr:    0.0000
     atom:   31    charge:    2.0822    magn:    0.0006    constr:    0.0000
     atom:   32    charge:    2.0828    magn:    0.0067    constr:    0.0000
     atom:   33    charge:    2.0622    magn:    0.0014    constr:    0.0000
     atom:   34    charge:    3.1238    magn:   -0.0001    constr:    0.0000
     atom:   35    charge:    2.0876    magn:    0.0001    constr:    0.0000
     atom:   36    charge:    2.0847    magn:    0.0001    constr:    0.0000
     atom:   37    charge:    2.0847    magn:    0.0001    constr:    0.0000
     atom:   38    charge:    3.1200    magn:    0.0000    constr:    0.0000
     atom:   39    charge:    2.0840    magn:    0.0002    constr:    0.0000
     atom:   40    charge:    2.0756    magn:   -0.0002    constr:    0.0000
     atom:   41    charge:    2.0870    magn:   -0.0000    constr:    0.0000
     atom:   42    charge:    3.1152    magn:   -0.0002    constr:    0.0000
     atom:   43    charge:    2.0803    magn:    0.0030    constr:    0.0000
     atom:   44    charge:    2.0850    magn:    0.0009    constr:    0.0000
     atom:   45    charge:    2.0858    magn:    0.0004    constr:    0.0000
     atom:   46    charge:    3.1148    magn:   -0.0007    constr:    0.0000
     atom:   47    charge:    2.0802    magn:    0.0043    constr:    0.0000
     atom:   48    charge:    2.0835    magn:    0.0125    constr:    0.0000
     atom:   49    charge:    2.0478    magn:    0.2466    constr:    0.0000
     atom:   50    charge:    0.6707    magn:    0.0545    constr:    0.0000
     atom:   51    charge:    0.4218    magn:    0.0008    constr:    0.0000
     atom:   52    charge:    0.4229    magn:    0.0007    constr:    0.0000
     atom:   53    charge:    0.3710    magn:    0.0215    constr:    0.0000
     atom:   54    charge:    0.4233    magn:    0.0005    constr:    0.0000

     total cpu time spent up to now is     2424.6 secs

     total energy              =   -3021.14938876 Ry
     Harris-Foulkes estimate   =   -3021.14990194 Ry
     estimated scf accuracy    <       0.00200452 Ry

     total magnetization       =     1.07 Bohr mag/cell
     absolute magnetization    =     1.24 Bohr mag/cell

     iteration #  7     ecut=    40.42 Ry     beta=0.10
     Davidson diagonalization with overlap
     ethr =  5.04E-07,  avg # of iterations =  2.0

     negative rho (up, down):  1.188E-02 1.197E-02
 
     Magnetic moment per site:
     atom:    1    charge:    3.1244    magn:   -0.0002    constr:    0.0000
     atom:    2    charge:    2.0897    magn:    0.0002    constr:    0.0000
     atom:    3    charge:    3.1198    magn:   -0.0000    constr:    0.0000
     atom:    4    charge:    2.0867    magn:   -0.0001    constr:    0.0000
     atom:    5    charge:    3.1161    magn:   -0.0003    constr:    0.0000
     atom:    6    charge:    2.0792    magn:    0.0019    constr:    0.0000
     atom:    7    charge:    3.1176    magn:   -0.0056    constr:    0.0000
     atom:    8    charge:    2.0794    magn:    0.0231    constr:    0.0000
     atom:    9    charge:    3.1244    magn:   -0.0002    constr:    0.0000
     atom:   10    charge:    2.0898    magn:    0.0002    constr:    0.0000
     atom:   11    charge:    3.1198    magn:   -0.0000    constr:    0.0000
     atom:   12    charge:    2.0871    magn:   -0.0000    constr:    0.0000
     atom:   13    charge:    3.1150    magn:   -0.0002    constr:    0.0000
     atom:   14    charge:    2.0938    magn:    0.0021    constr:    0.0000
     atom:   15    charge:    3.1184    magn:   -0.0009    constr:    0.0000
     atom:   16    charge:    2.0828    magn:    0.0048    constr:    0.0000
     atom:   17    charge:    2.0625    magn:    0.0013    constr:    0.0000
     atom:   18    charge:    3.1240    magn:   -0.0001    constr:    0.0000
     atom:   19    charge:    2.0875    magn:    0.0000    constr:    0.0000
     atom:   20    charge:    2.0847    magn:    0.0001    constr:    0.0000
     atom:   21    charge:    2.0847    magn:    0.0001    constr:    0.0000
     atom:   22    charge:    3.1199    magn:    0.0000    constr:    0.0000
     atom:   23    charge:    2.0908    magn:    0.0002    constr:    0.0000
     atom:   24    charge:    2.0754    magn:   -0.0001    constr:    0.0000
     atom:   25    charge:    2.0867    magn:    0.0000    constr:    0.0000
     atom:   26    charge:    3.1126    magn:   -0.0002    constr:    0.0000
     atom:   27    charge:    2.0801    magn:    0.0025    constr:    0.0000
     atom:   28    charge:    2.0838    magn:    0.0007    constr:    0.0000
     atom:   29    charge:    2.0860    magn:    0.0008    constr:    0.0000
     atom:   30    charge:    3.1171    magn:   -0.0008    constr:    0.0000
     atom:   31    charge:    2.0822    magn:    0.0006    constr:    0.0000
     atom:   32    charge:    2.0829    magn:    0.0067    constr:    0.0000
     atom:   33    charge:    2.0625    magn:    0.0013    constr:    0.0000
     atom:   34    charge:    3.1239    magn:   -0.0001    constr:    0.0000
     atom:   35    charge:    2.0875    magn:    0.0000    constr:    0.0000
     atom:   36    charge:    2.0847    magn:    0.0001    constr:    0.0000
     atom:   37    charge:    2.0847    magn:    0.0001    constr:    0.0000
     atom:   38    charge:    3.1200    magn:    0.0000    constr:    0.0000
     atom:   39    charge:    2.0839    magn:    0.0002    constr:    0.0000
     atom:   40    charge:    2.0757    magn:   -0.0002    constr:    0.0000
     atom:   41    charge:    2.0870    magn:   -0.0000    constr:    0.0000
     atom:   42    charge:    3.1151    magn:   -0.0002    constr:    0.0000
     atom:   43    charge:    2.0803    magn:    0.0030    constr:    0.0000
     atom:   44    charge:    2.0851    magn:    0.0009    constr:    0.0000
     atom:   45    charge:    2.0858    magn:    0.0005    constr:    0.0000
     atom:   46    charge:    3.1148    magn:   -0.0007    constr:    0.0000
     atom:   47    charge:    2.0803    magn:    0.0043    constr:    0.0000
     atom:   48    charge:    2.0838    magn:    0.0122    constr:    0.0000
     atom:   49    charge:    2.0480    magn:    0.2463    constr:    0.0000
     atom:   50    charge:    0.6704    magn:    0.0550    constr:    0.0000
     atom:   51    charge:    0.4220    magn:    0.0009    constr:    0.0000
     atom:   52    charge:    0.4228    magn:    0.0008    constr:    0.0000
     atom:   53    charge:    0.3698    magn:    0.0220    constr:    0.0000
     atom:   54    charge:    0.4232    magn:    0.0006    constr:    0.0000

     total cpu time spent up to now is     2638.1 secs

     total energy              =   -3021.14934619 Ry
     Harris-Foulkes estimate   =   -3021.14951255 Ry
     estimated scf accuracy    <       0.00056486 Ry

     total magnetization       =     1.07 Bohr mag/cell
     absolute magnetization    =     1.24 Bohr mag/cell

     iteration #  8     ecut=    40.42 Ry     beta=0.10
     Davidson diagonalization with overlap
     ethr =  1.42E-07,  avg # of iterations =  2.7

     negative rho (up, down):  1.188E-02 1.197E-02
 
     Magnetic moment per site:
     atom:    1    charge:    3.1244    magn:   -0.0002    constr:    0.0000
     atom:    2    charge:    2.0896    magn:    0.0002    constr:    0.0000
     atom:    3    charge:    3.1198    magn:   -0.0000    constr:    0.0000
     atom:    4    charge:    2.0867    magn:   -0.0001    constr:    0.0000
     atom:    5    charge:    3.1161    magn:   -0.0003    constr:    0.0000
     atom:    6    charge:    2.0794    magn:    0.0019    constr:    0.0000
     atom:    7    charge:    3.1166    magn:   -0.0056    constr:    0.0000
     atom:    8    charge:    2.0794    magn:    0.0229    constr:    0.0000
     atom:    9    charge:    3.1244    magn:   -0.0002    constr:    0.0000
     atom:   10    charge:    2.0898    magn:    0.0002    constr:    0.0000
     atom:   11    charge:    3.1198    magn:   -0.0000    constr:    0.0000
     atom:   12    charge:    2.0870    magn:   -0.0000    constr:    0.0000
     atom:   13    charge:    3.1150    magn:   -0.0002    constr:    0.0000
     atom:   14    charge:    2.0939    magn:    0.0021    constr:    0.0000
     atom:   15    charge:    3.1184    magn:   -0.0009    constr:    0.0000
     atom:   16    charge:    2.0828    magn:    0.0048    constr:    0.0000
     atom:   17    charge:    2.0625    magn:    0.0012    constr:    0.0000
     atom:   18    charge:    3.1240    magn:   -0.0000    constr:    0.0000
     atom:   19    charge:    2.0875    magn:    0.0000    constr:    0.0000
     atom:   20    charge:    2.0847    magn:    0.0001    constr:    0.0000
     atom:   21    charge:    2.0847    magn:    0.0001    constr:    0.0000
     atom:   22    charge:    3.1199    magn:    0.0000    constr:    0.0000
     atom:   23    charge:    2.0908    magn:    0.0002    constr:    0.0000
     atom:   24    charge:    2.0754    magn:   -0.0001    constr:    0.0000
     atom:   25    charge:    2.0867    magn:    0.0000    constr:    0.0000
     atom:   26    charge:    3.1126    magn:   -0.0002    constr:    0.0000
     atom:   27    charge:    2.0803    magn:    0.0025    constr:    0.0000
     atom:   28    charge:    2.0839    magn:    0.0007    constr:    0.0000
     atom:   29    charge:    2.0860    magn:    0.0008    constr:    0.0000
     atom:   30    charge:    3.1171    magn:   -0.0008    constr:    0.0000
     atom:   31    charge:    2.0824    magn:    0.0006    constr:    0.0000
     atom:   32    charge:    2.0829    magn:    0.0067    constr:    0.0000
     atom:   33    charge:    2.0625    magn:    0.0012    constr:    0.0000
     atom:   34    charge:    3.1240    magn:   -0.0000    constr:    0.0000
     atom:   35    charge:    2.0875    magn:    0.0000    constr:    0.0000
     atom:   36    charge:    2.0847    magn:    0.0001    constr:    0.0000
     atom:   37    charge:    2.0847    magn:    0.0001    constr:    0.0000
     atom:   38    charge:    3.1200    magn:    0.0000    constr:    0.0000
     atom:   39    charge:    2.0839    magn:    0.0002    constr:    0.0000
     atom:   40    charge:    2.0756    magn:   -0.0002    constr:    0.0000
     atom:   41    charge:    2.0870    magn:   -0.0000    constr:    0.0000
     atom:   42    charge:    3.1151    magn:   -0.0002    constr:    0.0000
     atom:   43    charge:    2.0803    magn:    0.0030    constr:    0.0000
     atom:   44    charge:    2.0851    magn:    0.0009    constr:    0.0000
     atom:   45    charge:    2.0859    magn:    0.0005    constr:    0.0000
     atom:   46    charge:    3.1148    magn:   -0.0007    constr:    0.0000
     atom:   47    charge:    2.0806    magn:    0.0043    constr:    0.0000
     atom:   48    charge:    2.0839    magn:    0.0121    constr:    0.0000
     atom:   49    charge:    2.0484    magn:    0.2464    constr:    0.0000
     atom:   50    charge:    0.6707    magn:    0.0553    constr:    0.0000
     atom:   51    charge:    0.4221    magn:    0.0009    constr:    0.0000
     atom:   52    charge:    0.4227    magn:    0.0008    constr:    0.0000
     atom:   53    charge:    0.3693    magn:    0.0221    constr:    0.0000
     atom:   54    charge:    0.4231    magn:    0.0006    constr:    0.0000

     total cpu time spent up to now is     2865.9 secs

     total energy              =   -3021.14936772 Ry
     Harris-Foulkes estimate   =   -3021.14941196 Ry
     estimated scf accuracy    <       0.00019007 Ry

     total magnetization       =     1.07 Bohr mag/cell
     absolute magnetization    =     1.24 Bohr mag/cell

     iteration #  9     ecut=    40.42 Ry     beta=0.10
     Davidson diagonalization with overlap
     ethr =  4.78E-08,  avg # of iterations =  2.1

     negative rho (up, down):  1.188E-02 1.197E-02
 
     Magnetic moment per site:
     atom:    1    charge:    3.1245    magn:   -0.0002    constr:    0.0000
     atom:    2    charge:    2.0897    magn:    0.0002    constr:    0.0000
     atom:    3    charge:    3.1198    magn:   -0.0000    constr:    0.0000
     atom:    4    charge:    2.0867    magn:   -0.0001    constr:    0.0000
     atom:    5    charge:    3.1161    magn:   -0.0003    constr:    0.0000
     atom:    6    charge:    2.0795    magn:    0.0019    constr:    0.0000
     atom:    7    charge:    3.1162    magn:   -0.0056    constr:    0.0000
     atom:    8    charge:    2.0793    magn:    0.0226    constr:    0.0000
     atom:    9    charge:    3.1245    magn:   -0.0002    constr:    0.0000
     atom:   10    charge:    2.0898    magn:    0.0002    constr:    0.0000
     atom:   11    charge:    3.1198    magn:   -0.0000    constr:    0.0000
     atom:   12    charge:    2.0871    magn:   -0.0000    constr:    0.0000
     atom:   13    charge:    3.1150    magn:   -0.0002    constr:    0.0000
     atom:   14    charge:    2.0939    magn:    0.0021    constr:    0.0000
     atom:   15    charge:    3.1184    magn:   -0.0008    constr:    0.0000
     atom:   16    charge:    2.0828    magn:    0.0048    constr:    0.0000
     atom:   17    charge:    2.0624    magn:    0.0011    constr:    0.0000
     atom:   18    charge:    3.1240    magn:   -0.0000    constr:    0.0000
     atom:   19    charge:    2.0875    magn:    0.0000    constr:    0.0000
     atom:   20    charge:    2.0847    magn:    0.0001    constr:    0.0000
     atom:   21    charge:    2.0847    magn:    0.0001    constr:    0.0000
     atom:   22    charge:    3.1199    magn:    0.0000    constr:    0.0000
     atom:   23    charge:    2.0908    magn:    0.0002    constr:    0.0000
     atom:   24    charge:    2.0754    magn:   -0.0001    constr:    0.0000
     atom:   25    charge:    2.0867    magn:   -0.0000    constr:    0.0000
     atom:   26    charge:    3.1127    magn:   -0.0003    constr:    0.0000
     atom:   27    charge:    2.0803    magn:    0.0026    constr:    0.0000
     atom:   28    charge:    2.0839    magn:    0.0007    constr:    0.0000
     atom:   29    charge:    2.0861    magn:    0.0009    constr:    0.0000
     atom:   30    charge:    3.1171    magn:   -0.0008    constr:    0.0000
     atom:   31    charge:    2.0826    magn:    0.0006    constr:    0.0000
     atom:   32    charge:    2.0829    magn:    0.0067    constr:    0.0000
     atom:   33    charge:    2.0624    magn:    0.0011    constr:    0.0000
     atom:   34    charge:    3.1240    magn:   -0.0000    constr:    0.0000
     atom:   35    charge:    2.0875    magn:    0.0000    constr:    0.0000
     atom:   36    charge:    2.0847    magn:    0.0001    constr:    0.0000
     atom:   37    charge:    2.0847    magn:    0.0001    constr:    0.0000
     atom:   38    charge:    3.1200    magn:    0.0000    constr:    0.0000
     atom:   39    charge:    2.0839    magn:    0.0002    constr:    0.0000
     atom:   40    charge:    2.0756    magn:   -0.0001    constr:    0.0000
     atom:   41    charge:    2.0870    magn:   -0.0000    constr:    0.0000
     atom:   42    charge:    3.1151    magn:   -0.0002    constr:    0.0000
     atom:   43    charge:    2.0803    magn:    0.0030    constr:    0.0000
     atom:   44    charge:    2.0851    magn:    0.0009    constr:    0.0000
     atom:   45    charge:    2.0859    magn:    0.0005    constr:    0.0000
     atom:   46    charge:    3.1148    magn:   -0.0007    constr:    0.0000
     atom:   47    charge:    2.0807    magn:    0.0042    constr:    0.0000
     atom:   48    charge:    2.0838    magn:    0.0120    constr:    0.0000
     atom:   49    charge:    2.0483    magn:    0.2464    constr:    0.0000
     atom:   50    charge:    0.6711    magn:    0.0557    constr:    0.0000
     atom:   51    charge:    0.4221    magn:    0.0009    constr:    0.0000
     atom:   52    charge:    0.4226    magn:    0.0008    constr:    0.0000
     atom:   53    charge:    0.3686    magn:    0.0224    constr:    0.0000
     atom:   54    charge:    0.4230    magn:    0.0006    constr:    0.0000

     total cpu time spent up to now is     3079.6 secs

     total energy              =   -3021.14937260 Ry
     Harris-Foulkes estimate   =   -3021.14938795 Ry
     estimated scf accuracy    <       0.00007790 Ry

     total magnetization       =     1.07 Bohr mag/cell
     absolute magnetization    =     1.24 Bohr mag/cell

     iteration # 10     ecut=    40.42 Ry     beta=0.10
     Davidson diagonalization with overlap
     ethr =  1.96E-08,  avg # of iterations =  3.5

     negative rho (up, down):  1.188E-02 1.197E-02
 
     Magnetic moment per site:
     atom:    1    charge:    3.1244    magn:   -0.0002    constr:    0.0000
     atom:    2    charge:    2.0897    magn:    0.0002    constr:    0.0000
     atom:    3    charge:    3.1198    magn:   -0.0000    constr:    0.0000
     atom:    4    charge:    2.0867    magn:   -0.0001    constr:    0.0000
     atom:    5    charge:    3.1161    magn:   -0.0003    constr:    0.0000
     atom:    6    charge:    2.0796    magn:    0.0019    constr:    0.0000
     atom:    7    charge:    3.1160    magn:   -0.0056    constr:    0.0000
     atom:    8    charge:    2.0793    magn:    0.0224    constr:    0.0000
     atom:    9    charge:    3.1244    magn:   -0.0002    constr:    0.0000
     atom:   10    charge:    2.0898    magn:    0.0002    constr:    0.0000
     atom:   11    charge:    3.1198    magn:   -0.0000    constr:    0.0000
     atom:   12    charge:    2.0870    magn:   -0.0000    constr:    0.0000
     atom:   13    charge:    3.1150    magn:   -0.0002    constr:    0.0000
     atom:   14    charge:    2.0939    magn:    0.0021    constr:    0.0000
     atom:   15    charge:    3.1184    magn:   -0.0008    constr:    0.0000
     atom:   16    charge:    2.0828    magn:    0.0049    constr:    0.0000
     atom:   17    charge:    2.0625    magn:    0.0010    constr:    0.0000
     atom:   18    charge:    3.1240    magn:   -0.0000    constr:    0.0000
     atom:   19    charge:    2.0875    magn:    0.0000    constr:    0.0000
     atom:   20    charge:    2.0847    magn:    0.0001    constr:    0.0000
     atom:   21    charge:    2.0847    magn:    0.0001    constr:    0.0000
     atom:   22    charge:    3.1199    magn:    0.0000    constr:    0.0000
     atom:   23    charge:    2.0908    magn:    0.0002    constr:    0.0000
     atom:   24    charge:    2.0754    magn:   -0.0001    constr:    0.0000
     atom:   25    charge:    2.0867    magn:   -0.0000    constr:    0.0000
     atom:   26    charge:    3.1127    magn:   -0.0003    constr:    0.0000
     atom:   27    charge:    2.0803    magn:    0.0026    constr:    0.0000
     atom:   28    charge:    2.0839    magn:    0.0007    constr:    0.0000
     atom:   29    charge:    2.0860    magn:    0.0009    constr:    0.0000
     atom:   30    charge:    3.1171    magn:   -0.0008    constr:    0.0000
     atom:   31    charge:    2.0826    magn:    0.0006    constr:    0.0000
     atom:   32    charge:    2.0829    magn:    0.0067    constr:    0.0000
     atom:   33    charge:    2.0625    magn:    0.0010    constr:    0.0000
     atom:   34    charge:    3.1239    magn:   -0.0000    constr:    0.0000
     atom:   35    charge:    2.0875    magn:    0.0000    constr:    0.0000
     atom:   36    charge:    2.0847    magn:    0.0001    constr:    0.0000
     atom:   37    charge:    2.0847    magn:    0.0001    constr:    0.0000
     atom:   38    charge:    3.1200    magn:    0.0000    constr:    0.0000
     atom:   39    charge:    2.0839    magn:    0.0002    constr:    0.0000
     atom:   40    charge:    2.0756    magn:   -0.0001    constr:    0.0000
     atom:   41    charge:    2.0870    magn:   -0.0000    constr:    0.0000
     atom:   42    charge:    3.1151    magn:   -0.0002    constr:    0.0000
     atom:   43    charge:    2.0803    magn:    0.0030    constr:    0.0000
     atom:   44    charge:    2.0851    magn:    0.0010    constr:    0.0000
     atom:   45    charge:    2.0858    magn:    0.0005    constr:    0.0000
     atom:   46    charge:    3.1148    magn:   -0.0007    constr:    0.0000
     atom:   47    charge:    2.0807    magn:    0.0042    constr:    0.0000
     atom:   48    charge:    2.0837    magn:    0.0119    constr:    0.0000
     atom:   49    charge:    2.0483    magn:    0.2465    constr:    0.0000
     atom:   50    charge:    0.6713    magn:    0.0558    constr:    0.0000
     atom:   51    charge:    0.4221    magn:    0.0009    constr:    0.0000
     atom:   52    charge:    0.4226    magn:    0.0007    constr:    0.0000
     atom:   53    charge:    0.3684    magn:    0.0224    constr:    0.0000
     atom:   54    charge:    0.4230    magn:    0.0006    constr:    0.0000

     total cpu time spent up to now is     3318.1 secs

     total energy              =   -3021.14937796 Ry
     Harris-Foulkes estimate   =   -3021.14938075 Ry
     estimated scf accuracy    <       0.00003287 Ry

     total magnetization       =     1.07 Bohr mag/cell
     absolute magnetization    =     1.24 Bohr mag/cell

     iteration # 11     ecut=    40.42 Ry     beta=0.10
     Davidson diagonalization with overlap
     ethr =  8.26E-09,  avg # of iterations =  2.5

     negative rho (up, down):  1.189E-02 1.197E-02
 
     Magnetic moment per site:
     atom:    1    charge:    3.1244    magn:   -0.0002    constr:    0.0000
     atom:    2    charge:    2.0897    magn:    0.0001    constr:    0.0000
     atom:    3    charge:    3.1198    magn:   -0.0000    constr:    0.0000
     atom:    4    charge:    2.0867    magn:   -0.0001    constr:    0.0000
     atom:    5    charge:    3.1161    magn:   -0.0003    constr:    0.0000
     atom:    6    charge:    2.0795    magn:    0.0019    constr:    0.0000
     atom:    7    charge:    3.1159    magn:   -0.0056    constr:    0.0000
     atom:    8    charge:    2.0792    magn:    0.0223    constr:    0.0000
     atom:    9    charge:    3.1244    magn:   -0.0002    constr:    0.0000
     atom:   10    charge:    2.0898    magn:    0.0002    constr:    0.0000
     atom:   11    charge:    3.1198    magn:   -0.0000    constr:    0.0000
     atom:   12    charge:    2.0870    magn:   -0.0000    constr:    0.0000
     atom:   13    charge:    3.1150    magn:   -0.0002    constr:    0.0000
     atom:   14    charge:    2.0939    magn:    0.0021    constr:    0.0000
     atom:   15    charge:    3.1184    magn:   -0.0008    constr:    0.0000
     atom:   16    charge:    2.0828    magn:    0.0049    constr:    0.0000
     atom:   17    charge:    2.0624    magn:    0.0010    constr:    0.0000
     atom:   18    charge:    3.1240    magn:   -0.0000    constr:    0.0000
     atom:   19    charge:    2.0875    magn:    0.0000    constr:    0.0000
     atom:   20    charge:    2.0847    magn:    0.0001    constr:    0.0000
     atom:   21    charge:    2.0847    magn:    0.0001    constr:    0.0000
     atom:   22    charge:    3.1199    magn:    0.0000    constr:    0.0000
     atom:   23    charge:    2.0908    magn:    0.0002    constr:    0.0000
     atom:   24    charge:    2.0754    magn:   -0.0000    constr:    0.0000
     atom:   25    charge:    2.0867    magn:   -0.0000    constr:    0.0000
     atom:   26    charge:    3.1127    magn:   -0.0003    constr:    0.0000
     atom:   27    charge:    2.0803    magn:    0.0026    constr:    0.0000
     atom:   28    charge:    2.0839    magn:    0.0007    constr:    0.0000
     atom:   29    charge:    2.0860    magn:    0.0009    constr:    0.0000
     atom:   30    charge:    3.1171    magn:   -0.0007    constr:    0.0000
     atom:   31    charge:    2.0825    magn:    0.0006    constr:    0.0000
     atom:   32    charge:    2.0828    magn:    0.0067    constr:    0.0000
     atom:   33    charge:    2.0624    magn:    0.0010    constr:    0.0000
     atom:   34    charge:    3.1239    magn:   -0.0000    constr:    0.0000
     atom:   35    charge:    2.0876    magn:    0.0000    constr:    0.0000
     atom:   36    charge:    2.0847    magn:    0.0001    constr:    0.0000
     atom:   37    charge:    2.0847    magn:    0.0001    constr:    0.0000
     atom:   38    charge:    3.1200    magn:    0.0000    constr:    0.0000
     atom:   39    charge:    2.0839    magn:    0.0002    constr:    0.0000
     atom:   40    charge:    2.0756    magn:   -0.0001    constr:    0.0000
     atom:   41    charge:    2.0870    magn:   -0.0000    constr:    0.0000
     atom:   42    charge:    3.1151    magn:   -0.0002    constr:    0.0000
     atom:   43    charge:    2.0803    magn:    0.0030    constr:    0.0000
     atom:   44    charge:    2.0851    magn:    0.0010    constr:    0.0000
     atom:   45    charge:    2.0858    magn:    0.0005    constr:    0.0000
     atom:   46    charge:    3.1148    magn:   -0.0007    constr:    0.0000
     atom:   47    charge:    2.0807    magn:    0.0042    constr:    0.0000
     atom:   48    charge:    2.0836    magn:    0.0118    constr:    0.0000
     atom:   49    charge:    2.0482    magn:    0.2465    constr:    0.0000
     atom:   50    charge:    0.6715    magn:    0.0560    constr:    0.0000
     atom:   51    charge:    0.4221    magn:    0.0009    constr:    0.0000
     atom:   52    charge:    0.4226    magn:    0.0007    constr:    0.0000
     atom:   53    charge:    0.3682    magn:    0.0224    constr:    0.0000
     atom:   54    charge:    0.4230    magn:    0.0006    constr:    0.0000

     total cpu time spent up to now is     3536.9 secs

     total energy              =   -3021.14938097 Ry
     Harris-Foulkes estimate   =   -3021.14938140 Ry
     estimated scf accuracy    <       0.00001900 Ry

     total magnetization       =     1.07 Bohr mag/cell
     absolute magnetization    =     1.24 Bohr mag/cell

     iteration # 12     ecut=    40.42 Ry     beta=0.10
     Davidson diagonalization with overlap
     ethr =  4.77E-09,  avg # of iterations =  2.8

     negative rho (up, down):  1.188E-02 1.197E-02
 
     Magnetic moment per site:
     atom:    1    charge:    3.1244    magn:   -0.0002    constr:    0.0000
     atom:    2    charge:    2.0897    magn:    0.0001    constr:    0.0000
     atom:    3    charge:    3.1198    magn:   -0.0000    constr:    0.0000
     atom:    4    charge:    2.0867    magn:   -0.0001    constr:    0.0000
     atom:    5    charge:    3.1161    magn:   -0.0003    constr:    0.0000
     atom:    6    charge:    2.0795    magn:    0.0019    constr:    0.0000
     atom:    7    charge:    3.1158    magn:   -0.0056    constr:    0.0000
     atom:    8    charge:    2.0793    magn:    0.0223    constr:    0.0000
     atom:    9    charge:    3.1244    magn:   -0.0002    constr:    0.0000
     atom:   10    charge:    2.0898    magn:    0.0001    constr:    0.0000
     atom:   11    charge:    3.1198    magn:   -0.0000    constr:    0.0000
     atom:   12    charge:    2.0871    magn:   -0.0000    constr:    0.0000
     atom:   13    charge:    3.1150    magn:   -0.0002    constr:    0.0000
     atom:   14    charge:    2.0939    magn:    0.0021    constr:    0.0000
     atom:   15    charge:    3.1184    magn:   -0.0008    constr:    0.0000
     atom:   16    charge:    2.0827    magn:    0.0049    constr:    0.0000
     atom:   17    charge:    2.0624    magn:    0.0009    constr:    0.0000
     atom:   18    charge:    3.1239    magn:   -0.0000    constr:    0.0000
     atom:   19    charge:    2.0875    magn:    0.0000    constr:    0.0000
     atom:   20    charge:    2.0847    magn:    0.0001    constr:    0.0000
     atom:   21    charge:    2.0847    magn:    0.0001    constr:    0.0000
     atom:   22    charge:    3.1199    magn:    0.0000    constr:    0.0000
     atom:   23    charge:    2.0908    magn:    0.0002    constr:    0.0000
     atom:   24    charge:    2.0754    magn:   -0.0000    constr:    0.0000
     atom:   25    charge:    2.0867    magn:   -0.0000    constr:    0.0000
     atom:   26    charge:    3.1127    magn:   -0.0003    constr:    0.0000
     atom:   27    charge:    2.0803    magn:    0.0026    constr:    0.0000
     atom:   28    charge:    2.0839    magn:    0.0007    constr:    0.0000
     atom:   29    charge:    2.0860    magn:    0.0009    constr:    0.0000
     atom:   30    charge:    3.1171    magn:   -0.0007    constr:    0.0000
     atom:   31    charge:    2.0825    magn:    0.0006    constr:    0.0000
     atom:   32    charge:    2.0828    magn:    0.0067    constr:    0.0000
     atom:   33    charge:    2.0624    magn:    0.0009    constr:    0.0000
     atom:   34    charge:    3.1239    magn:   -0.0000    constr:    0.0000
     atom:   35    charge:    2.0876    magn:    0.0000    constr:    0.0000
     atom:   36    charge:    2.0847    magn:    0.0001    constr:    0.0000
     atom:   37    charge:    2.0847    magn:    0.0001    constr:    0.0000
     atom:   38    charge:    3.1200    magn:    0.0000    constr:    0.0000
     atom:   39    charge:    2.0839    magn:    0.0002    constr:    0.0000
     atom:   40    charge:    2.0756    magn:   -0.0001    constr:    0.0000
     atom:   41    charge:    2.0870    magn:   -0.0000    constr:    0.0000
     atom:   42    charge:    3.1151    magn:   -0.0003    constr:    0.0000
     atom:   43    charge:    2.0803    magn:    0.0030    constr:    0.0000
     atom:   44    charge:    2.0851    magn:    0.0010    constr:    0.0000
     atom:   45    charge:    2.0858    magn:    0.0005    constr:    0.0000
     atom:   46    charge:    3.1148    magn:   -0.0007    constr:    0.0000
     atom:   47    charge:    2.0806    magn:    0.0042    constr:    0.0000
     atom:   48    charge:    2.0837    magn:    0.0118    constr:    0.0000
     atom:   49    charge:    2.0483    magn:    0.2465    constr:    0.0000
     atom:   50    charge:    0.6714    magn:    0.0560    constr:    0.0000
     atom:   51    charge:    0.4221    magn:    0.0009    constr:    0.0000
     atom:   52    charge:    0.4226    magn:    0.0007    constr:    0.0000
     atom:   53    charge:    0.3682    magn:    0.0224    constr:    0.0000
     atom:   54    charge:    0.4230    magn:    0.0006    constr:    0.0000

     total cpu time spent up to now is     3763.4 secs

     total energy              =   -3021.14938264 Ry
     Harris-Foulkes estimate   =   -3021.14938260 Ry
     estimated scf accuracy    <       0.00000474 Ry

     total magnetization       =     1.07 Bohr mag/cell
     absolute magnetization    =     1.24 Bohr mag/cell

     iteration # 13     ecut=    40.42 Ry     beta=0.10
     Davidson diagonalization with overlap
     ethr =  1.19E-09,  avg # of iterations =  1.4

     negative rho (up, down):  1.189E-02 1.196E-02
 
     Magnetic moment per site:
     atom:    1    charge:    3.1244    magn:   -0.0001    constr:    0.0000
     atom:    2    charge:    2.0897    magn:    0.0001    constr:    0.0000
     atom:    3    charge:    3.1198    magn:   -0.0000    constr:    0.0000
     atom:    4    charge:    2.0867    magn:   -0.0001    constr:    0.0000
     atom:    5    charge:    3.1161    magn:   -0.0003    constr:    0.0000
     atom:    6    charge:    2.0795    magn:    0.0019    constr:    0.0000
     atom:    7    charge:    3.1157    magn:   -0.0056    constr:    0.0000
     atom:    8    charge:    2.0793    magn:    0.0221    constr:    0.0000
     atom:    9    charge:    3.1244    magn:   -0.0001    constr:    0.0000
     atom:   10    charge:    2.0898    magn:    0.0001    constr:    0.0000
     atom:   11    charge:    3.1198    magn:   -0.0000    constr:    0.0000
     atom:   12    charge:    2.0870    magn:   -0.0000    constr:    0.0000
     atom:   13    charge:    3.1150    magn:   -0.0002    constr:    0.0000
     atom:   14    charge:    2.0939    magn:    0.0021    constr:    0.0000
     atom:   15    charge:    3.1184    magn:   -0.0008    constr:    0.0000
     atom:   16    charge:    2.0827    magn:    0.0049    constr:    0.0000
     atom:   17    charge:    2.0624    magn:    0.0008    constr:    0.0000
     atom:   18    charge:    3.1239    magn:   -0.0000    constr:    0.0000
     atom:   19    charge:    2.0875    magn:    0.0000    constr:    0.0000
     atom:   20    charge:    2.0847    magn:    0.0001    constr:    0.0000
     atom:   21    charge:    2.0847    magn:    0.0001    constr:    0.0000
     atom:   22    charge:    3.1199    magn:    0.0000    constr:    0.0000
     atom:   23    charge:    2.0908    magn:    0.0002    constr:    0.0000
     atom:   24    charge:    2.0754    magn:   -0.0000    constr:    0.0000
     atom:   25    charge:    2.0867    magn:   -0.0000    constr:    0.0000
     atom:   26    charge:    3.1126    magn:   -0.0003    constr:    0.0000
     atom:   27    charge:    2.0803    magn:    0.0026    constr:    0.0000
     atom:   28    charge:    2.0839    magn:    0.0007    constr:    0.0000
     atom:   29    charge:    2.0860    magn:    0.0009    constr:    0.0000
     atom:   30    charge:    3.1171    magn:   -0.0007    constr:    0.0000
     atom:   31    charge:    2.0825    magn:    0.0005    constr:    0.0000
     atom:   32    charge:    2.0828    magn:    0.0067    constr:    0.0000
     atom:   33    charge:    2.0624    magn:    0.0008    constr:    0.0000
     atom:   34    charge:    3.1239    magn:   -0.0000    constr:    0.0000
     atom:   35    charge:    2.0876    magn:    0.0000    constr:    0.0000
     atom:   36    charge:    2.0847    magn:    0.0001    constr:    0.0000
     atom:   37    charge:    2.0847    magn:    0.0001    constr:    0.0000
     atom:   38    charge:    3.1200    magn:    0.0000    constr:    0.0000
     atom:   39    charge:    2.0839    magn:    0.0002    constr:    0.0000
     atom:   40    charge:    2.0756    magn:   -0.0001    constr:    0.0000
     atom:   41    charge:    2.0870    magn:   -0.0000    constr:    0.0000
     atom:   42    charge:    3.1151    magn:   -0.0003    constr:    0.0000
     atom:   43    charge:    2.0803    magn:    0.0030    constr:    0.0000
     atom:   44    charge:    2.0851    magn:    0.0010    constr:    0.0000
     atom:   45    charge:    2.0858    magn:    0.0005    constr:    0.0000
     atom:   46    charge:    3.1148    magn:   -0.0007    constr:    0.0000
     atom:   47    charge:    2.0806    magn:    0.0042    constr:    0.0000
     atom:   48    charge:    2.0837    magn:    0.0117    constr:    0.0000
     atom:   49    charge:    2.0483    magn:    0.2466    constr:    0.0000
     atom:   50    charge:    0.6714    magn:    0.0561    constr:    0.0000
     atom:   51    charge:    0.4220    magn:    0.0009    constr:    0.0000
     atom:   52    charge:    0.4227    magn:    0.0007    constr:    0.0000
     atom:   53    charge:    0.3682    magn:    0.0224    constr:    0.0000
     atom:   54    charge:    0.4230    magn:    0.0006    constr:    0.0000

     total cpu time spent up to now is     3963.3 secs

     total energy              =   -3021.14938362 Ry
     Harris-Foulkes estimate   =   -3021.14938297 Ry
     estimated scf accuracy    <       0.00000252 Ry

     total magnetization       =     1.07 Bohr mag/cell
     absolute magnetization    =     1.24 Bohr mag/cell

     iteration # 14     ecut=    40.42 Ry     beta=0.10
     Davidson diagonalization with overlap
     ethr =  6.34E-10,  avg # of iterations =  2.5

     negative rho (up, down):  1.189E-02 1.196E-02
 
     Magnetic moment per site:
     atom:    1    charge:    3.1244    magn:   -0.0001    constr:    0.0000
     atom:    2    charge:    2.0897    magn:    0.0001    constr:    0.0000
     atom:    3    charge:    3.1198    magn:   -0.0000    constr:    0.0000
     atom:    4    charge:    2.0867    magn:   -0.0001    constr:    0.0000
     atom:    5    charge:    3.1161    magn:   -0.0003    constr:    0.0000
     atom:    6    charge:    2.0795    magn:    0.0020    constr:    0.0000
     atom:    7    charge:    3.1156    magn:   -0.0056    constr:    0.0000
     atom:    8    charge:    2.0793    magn:    0.0220    constr:    0.0000
     atom:    9    charge:    3.1244    magn:   -0.0001    constr:    0.0000
     atom:   10    charge:    2.0898    magn:    0.0001    constr:    0.0000
     atom:   11    charge:    3.1198    magn:   -0.0000    constr:    0.0000
     atom:   12    charge:    2.0870    magn:   -0.0000    constr:    0.0000
     atom:   13    charge:    3.1150    magn:   -0.0002    constr:    0.0000
     atom:   14    charge:    2.0939    magn:    0.0021    constr:    0.0000
     atom:   15    charge:    3.1184    magn:   -0.0008    constr:    0.0000
     atom:   16    charge:    2.0827    magn:    0.0049    constr:    0.0000
     atom:   17    charge:    2.0624    magn:    0.0007    constr:    0.0000
     atom:   18    charge:    3.1239    magn:   -0.0000    constr:    0.0000
     atom:   19    charge:    2.0875    magn:    0.0000    constr:    0.0000
     atom:   20    charge:    2.0847    magn:    0.0001    constr:    0.0000
[...]
    -1.7398  -1.4983  -1.4697  -1.4601  -1.4392  -1.4021  -1.3099  -1.1633
    -1.1526  -1.0942  -1.0815  -1.0657  -0.9754  -0.9230  -0.8731  -0.7943
    -0.7398  -0.7330  -0.7008  -0.6774  -0.5902  -0.5793  -0.5574   0.4046
     1.5959   1.5994   1.6119   1.6173   1.9597   1.9606   2.0896   2.0905
     2.2699   2.2912   2.3053   2.3873   2.4066   2.4797   2.5614   2.6257
     2.6487   2.6923   2.7740   2.8099   2.8308   2.9053   2.9385   2.9671
     2.9749   2.9923   3.0332   3.0880   3.0980   3.2024   3.2279   3.2374
     3.2531   3.2737   3.3285   3.3774   3.3841   3.3957   3.4218   3.4596
     3.4747   3.4887   3.5123   3.5158   3.6068   3.6353   3.7534   3.8547
     3.8837   3.9137   4.1346   4.1351   4.5680   4.6139   4.6363   4.7194
     4.8602   4.8705   4.9028   5.0574   5.1536   5.1590   5.1769   5.3168
     5.6664   5.6755   5.6853   5.9204   5.9258   5.9481   6.0084   6.0107
     6.0764   6.0987   6.1655   6.2563   6.2626   6.2737   6.3759   6.4494
     6.4885   6.5936   7.0762   7.2469   7.3544   7.4093   7.5580   7.5942
     7.7241   7.7765   7.9286   8.1182   8.3005   8.3498   8.4570   8.8758
     9.0155   9.0730   9.2195

          k =-0.0253 0.0280 0.0000 ( 34687 PWs)   bands (ev):

   -58.3096 -58.2792 -57.3920 -57.3868 -57.3573 -57.3189 -57.2685 -57.1155
   -57.0749 -57.0656 -57.0305 -57.0032 -56.9261 -56.8955 -56.8143 -56.7808
   -34.7320 -34.5785 -34.5536 -34.5114 -34.4299 -34.3937 -33.8635 -33.8533
   -33.7413 -33.6716 -33.6371 -33.5989 -33.5724 -33.5582 -33.5548 -33.5464
   -33.5412 -33.5254 -33.5235 -33.5051 -33.5036 -33.4925 -33.4755 -33.4689
   -33.3465 -33.3444 -33.3344 -33.3234 -33.3228 -33.3153 -33.2888 -33.2684
   -33.2600 -33.2600 -33.2463 -33.2447 -33.2371 -33.2365 -33.2099 -33.1965
   -33.1410 -33.0905 -33.0632 -33.0547 -33.0337 -33.0096 -32.9828 -32.9250
   -18.3747 -17.9469 -17.7801 -17.7410 -17.5273 -17.5222 -17.3898 -17.3728
   -17.3522 -17.3214 -17.1173 -17.0747 -16.9895 -16.9451 -16.8777 -16.8382
   -16.7987 -16.7720 -16.7380 -16.6740 -16.6686 -16.6058 -16.5489 -16.4898
   -16.4662 -16.4103 -16.3823 -16.3604 -16.1625 -16.1285 -15.8305 -15.6169
   -15.5683 -10.7750  -5.8455  -5.3147  -5.1484  -5.1326  -4.9980  -4.9588
    -4.9185  -4.8461  -4.7029  -4.6830  -4.6414  -4.5419  -4.5031  -4.4476
    -4.4140  -4.3184  -4.2963  -4.2556  -4.2084  -4.1901  -4.1505  -4.1322
    -4.0995  -4.0486  -4.0085  -3.9945  -3.9622  -3.9237  -3.8865  -3.8085
    -3.7933  -3.7291  -3.7037  -3.6310  -3.6051  -3.5732  -3.5061  -3.3991
    -3.3519  -3.3252  -3.2999  -3.2696  -3.2313  -3.1893  -3.1182  -3.1008
    -2.9253  -2.8871  -2.8282  -2.7828  -2.7259  -2.6910  -2.6781  -2.6224
    -2.5934  -2.5143  -2.5043  -2.4486  -2.4122  -2.3700  -2.2983  -2.2735
    -2.2173  -2.1974  -2.1086  -2.0493  -1.9615  -1.9454  -1.9158  -1.8579
    -1.8442  -1.7963  -1.7572  -1.6834  -1.6424  -1.6006  -1.5677  -1.5151
    -1.4790  -1.4417  -1.4132  -1.3838  -1.3679  -1.3533  -1.3229  -1.2940
    -1.2120  -1.1341  -1.0293  -1.0140  -0.9900  -0.9558  -0.9356  -0.8875
    -0.8485  -0.8293  -0.6356  -0.6150  -0.5903  -0.5260  -0.2703   0.4309
     1.1478   1.2414   1.4254   1.8147   1.8542   1.9213   1.9575   2.0247
     2.0350   2.1831   2.2907   2.3388   2.3824   2.4016   2.4448   2.4960
     2.5175   2.5415   2.5826   2.6413   2.6846   2.7170   2.7595   2.8266
     2.8692   2.8956   2.9193   2.9549   2.9862   3.0028   3.0310   3.0842
     3.1639   3.1824   3.2238   3.2348   3.2721   3.3092   3.4231   3.4493
     3.4829   3.5446   3.5958   3.6237   3.6397   3.7288   3.7630   3.8571
     4.0020   4.1854   4.2672   4.4316   4.6173   4.7156   4.8198   4.8516
     4.9796   5.0129   5.0947   5.1603   5.2202   5.3159   5.4557   5.5420
     5.6560   5.6892   5.7142   5.7843   5.8409   5.8730   5.8922   5.9231
     5.9582   5.9789   6.0503   6.1238   6.1612   6.2692   6.3925   6.4412
     6.4529   6.5754   6.7493   6.8052   7.3794   7.4816   7.8024   7.8970
     8.0994   8.2407   8.4887   8.5382   8.7919   8.8969   9.0880   9.3098
     9.3789   9.5349   9.6181

          k =-0.0253 0.0560 0.0000 ( 34699 PWs)   bands (ev):

   -58.3032 -58.2856 -57.3888 -57.3814 -57.3637 -57.3211 -57.2677 -57.1148
   -57.0756 -57.0609 -57.0355 -57.0040 -56.9197 -56.9020 -56.8076 -56.7875
   -34.6621 -34.5732 -34.5588 -34.4945 -34.4669 -34.4473 -33.7938 -33.7841
   -33.6904 -33.6563 -33.6203 -33.5968 -33.5930 -33.5923 -33.5807 -33.5736
   -33.5475 -33.5413 -33.5241 -33.5082 -33.4903 -33.4789 -33.4622 -33.4421
   -33.3817 -33.3359 -33.3341 -33.3281 -33.2904 -33.2810 -33.2701 -33.2652
   -33.2641 -33.2634 -33.2531 -33.2497 -33.2479 -33.2382 -33.2331 -33.2274
   -33.1248 -33.0876 -33.0799 -33.0567 -33.0512 -33.0367 -33.0218 -32.9956
   -18.2170 -17.8071 -17.7867 -17.6196 -17.6053 -17.4617 -17.3990 -17.3761
   -17.2579 -17.2523 -17.2158 -17.0640 -16.9551 -16.9261 -16.8876 -16.8562
   -16.8069 -16.7496 -16.7395 -16.7247 -16.6930 -16.6210 -16.5536 -16.5368
   -16.5067 -16.4519 -16.4273 -16.4157 -16.2259 -16.2092 -15.8292 -15.6456
   -15.6221 -10.7771  -5.6103  -5.0873  -5.0292  -4.9619  -4.9310  -4.8224
    -4.8004  -4.7646  -4.6986  -4.6890  -4.5316  -4.5170  -4.4524  -4.4016
    -4.3834  -4.3757  -4.3268  -4.2835  -4.2559  -4.2461  -4.2130  -4.1813
    -4.1442  -4.1292  -4.0611  -4.0240  -4.0054  -3.9579  -3.9344  -3.8986
    -3.8384  -3.8068  -3.6965  -3.5991  -3.5776  -3.5392  -3.4642  -3.3927
    -3.3713  -3.3034  -3.1954  -3.1671  -3.1271  -3.1172  -3.0656  -3.0300
    -2.9891  -2.9325  -2.8481  -2.7987  -2.7672  -2.7125  -2.6143  -2.5913
    -2.5323  -2.5180  -2.4621  -2.3986  -2.3833  -2.3240  -2.3059  -2.2664
    -2.1922  -2.1404  -2.1263  -2.0962  -2.0515  -2.0142  -1.9921  -1.9520
    -1.9369  -1.9118  -1.8985  -1.8532  -1.7732  -1.7097  -1.6971  -1.6024
    -1.5786  -1.5488  -1.5242  -1.4918  -1.4480  -1.4191  -1.3905  -1.3253
    -1.2935  -1.2278  -1.1615  -1.0338  -1.0004  -0.9621  -0.9396  -0.8623
    -0.7559  -0.7463  -0.7101  -0.6455  -0.6128  -0.5608  -0.3676   0.4114
     1.2821   1.4641   1.5593   1.7533   1.7687   1.9070   1.9738   2.0524
     2.2604   2.2704   2.3339   2.3707   2.4050   2.4796   2.5124   2.5261
     2.5636   2.5828   2.6395   2.6907   2.7145   2.7549   2.7962   2.8317
     2.8755   2.9071   2.9509   2.9966   3.0252   3.0390   3.0501   3.0997
     3.1501   3.1916   3.2117   3.2689   3.3083   3.3350   3.3629   3.4512
     3.4915   3.5162   3.5499   3.6119   3.6207   3.7135   3.7301   3.7868
     3.8852   4.0760   4.3746   4.4961   4.7094   4.8505   4.9041   4.9320
     4.9848   5.0593   5.1696   5.1798   5.2760   5.3687   5.4276   5.5222
     5.5580   5.5718   5.6384   5.6994   5.7296   5.7951   5.8141   5.8466
     5.9164   5.9316   6.0023   6.0790   6.1236   6.2006   6.3178   6.4259
     6.4555   6.4708   6.7124   6.7659   7.0787   7.3081   7.6757   7.8368
     8.1085   8.2393   8.3252   8.4950   8.7836   8.9032   9.0035   9.1918
     9.3784   9.5554   9.6515

          k =-0.0506 0.0280 0.0000 ( 34685 PWs)   bands (ev):

   -58.3096 -58.2792 -57.3911 -57.3877 -57.3573 -57.3189 -57.2685 -57.1155
   -57.0747 -57.0659 -57.0305 -57.0032 -56.9261 -56.8955 -56.8143 -56.7808
   -34.7327 -34.5785 -34.5536 -34.5099 -34.4299 -34.3938 -33.8640 -33.8574
   -33.7416 -33.6521 -33.6369 -33.5990 -33.5775 -33.5603 -33.5587 -33.5514
   -33.5416 -33.5329 -33.5223 -33.5058 -33.5035 -33.4935 -33.4692 -33.4633
   -33.3466 -33.3408 -33.3265 -33.3231 -33.3227 -33.3149 -33.2891 -33.2704
   -33.2704 -33.2601 -33.2466 -33.2438 -33.2397 -33.2333 -33.2094 -33.1968
   -33.1410 -33.0906 -33.0632 -33.0603 -33.0322 -33.0096 -32.9828 -32.9250
   -18.2664 -17.8683 -17.8578 -17.7070 -17.5931 -17.4599 -17.4434 -17.3487
   -17.3244 -17.2667 -17.1849 -17.0930 -17.0039 -16.9564 -16.9289 -16.9049
   -16.8327 -16.7724 -16.7613 -16.7009 -16.6384 -16.5547 -16.5460 -16.4941
   -16.4675 -16.4117 -16.4060 -16.3616 -16.1593 -16.1290 -15.8311 -15.6151
   -15.5684 -10.7748  -5.5442  -5.1919  -5.1583  -5.1283  -4.9542  -4.8740
    -4.7726  -4.7149  -4.6890  -4.6567  -4.6109  -4.5974  -4.5451  -4.4125
    -4.3727  -4.3370  -4.2470  -4.2210  -4.1860  -4.1703  -4.1540  -4.0613
    -4.0271  -4.0122  -3.9779  -3.9298  -3.8919  -3.8479  -3.8199  -3.7899
    -3.7351  -3.6755  -3.6466  -3.5990  -3.5739  -3.5495  -3.4915  -3.4613
    -3.3860  -3.3739  -3.3083  -3.2699  -3.2090  -3.1593  -3.1277  -3.0652
    -3.0176  -2.9875  -2.9078  -2.8413  -2.7644  -2.7055  -2.6943  -2.6726
    -2.6213  -2.5996  -2.5887  -2.5369  -2.5266  -2.3909  -2.3496  -2.3384
    -2.2756  -2.2038  -2.1911  -2.1630  -2.0861  -2.0127  -2.0083  -1.9455
    -1.9292  -1.9027  -1.8105  -1.7255  -1.7138  -1.6892  -1.6189  -1.5907
    -1.5292  -1.4754  -1.4536  -1.3995  -1.3838  -1.3323  -1.3173  -1.2674
    -1.2479  -1.1279  -1.0632  -1.0371  -1.0157  -0.9627  -0.9181  -0.8766
    -0.8362  -0.8030  -0.7108  -0.6866  -0.6649  -0.5399  -0.3962   0.4167
     1.1347   1.3347   1.4598   1.5606   1.9282   1.9382   1.9610   2.0527
     2.1176   2.1909   2.2452   2.3199   2.3923   2.4325   2.5222   2.5366
     2.5857   2.6213   2.6672   2.6948   2.7463   2.8208   2.8437   2.8748
     2.9182   2.9317   2.9615   2.9652   2.9806   3.0962   3.1008   3.1277
     3.1750   3.2047   3.2747   3.2918   3.3312   3.3501   3.3990   3.4419
     3.4523   3.5343   3.5917   3.6501   3.7072   3.7694   3.7900   3.8683
     3.9195   4.0368   4.1039   4.3867   4.5042   4.6311   4.7373   4.7964
     4.8326   4.8899   4.9602   5.2418   5.3104   5.3643   5.5112   5.5514
     5.6299   5.7481   5.7765   5.8411   5.8799   5.9013   5.9730   6.0408
     6.0884   6.1497   6.2430   6.3240   6.3787   6.4024   6.4363   6.4806
     6.5322   6.5413   6.7025   6.9223   7.0853   7.2232   7.5471   7.6150
     7.7293   8.2277   8.4164   8.4964   8.8659   8.9440   9.0701   9.2256
     9.4329   9.6107   9.6772

          k =-0.0506 0.0560 0.0000 ( 34596 PWs)   bands (ev):

   -58.3032 -58.2856 -57.3885 -57.3818 -57.3637 -57.3212 -57.2677 -57.1148
   -57.0754 -57.0610 -57.0355 -57.0040 -56.9197 -56.9020 -56.8076 -56.7875
   -34.6627 -34.5732 -34.5588 -34.4931 -34.4671 -34.4469 -33.7940 -33.7886
   -33.6906 -33.6406 -33.6202 -33.5961 -33.5945 -33.5922 -33.5749 -33.5736
   -33.5508 -33.5413 -33.5365 -33.5084 -33.4995 -33.4792 -33.4507 -33.4435
   -33.3820 -33.3344 -33.3316 -33.3152 -33.2931 -33.2834 -33.2711 -33.2653
   -33.2647 -33.2638 -33.2529 -33.2492 -33.2481 -33.2469 -33.2340 -33.2238
   -33.1248 -33.0876 -33.0799 -33.0566 -33.0546 -33.0368 -33.0217 -32.9954
   -18.1138 -17.8248 -17.7094 -17.6199 -17.6032 -17.5653 -17.3881 -17.3752
   -17.2261 -17.2151 -17.1335 -17.1043 -16.9854 -16.9191 -16.8742 -16.8573
   -16.8314 -16.8209 -16.7722 -16.7453 -16.7283 -16.6506 -16.6034 -16.5132
   -16.5046 -16.4505 -16.4352 -16.4180 -16.2254 -16.2060 -15.8292 -15.6444
   -15.6225 -10.7769  -5.3077  -4.9979  -4.9485  -4.9406  -4.7896  -4.7816
    -4.7228  -4.6457  -4.5353  -4.5153  -4.5079  -4.4251  -4.4193  -4.3885
    -4.3683  -4.3353  -4.3166  -4.2559  -4.2074  -4.1826  -4.1726  -4.1210
    -4.1108  -4.0623  -4.0546  -4.0026  -3.9847  -3.9101  -3.8911  -3.8400
    -3.7976  -3.7181  -3.6799  -3.6198  -3.5923  -3.5631  -3.5073  -3.4402
    -3.4039  -3.3369  -3.2690  -3.2377  -3.1412  -3.1370  -3.0864  -3.0595
    -3.0024  -2.9839  -2.9653  -2.9102  -2.8064  -2.7710  -2.7561  -2.7158
    -2.6403  -2.5963  -2.5538  -2.5112  -2.4853  -2.4220  -2.3957  -2.3754
    -2.3598  -2.2973  -2.2046  -2.1810  -2.1565  -2.1384  -2.1027  -2.0532
    -2.0191  -1.9789  -1.9471  -1.8679  -1.8492  -1.7870  -1.7399  -1.6610
    -1.5704  -1.5547  -1.5450  -1.4973  -1.4469  -1.3880  -1.3569  -1.3102
    -1.2512  -1.1841  -1.0843  -1.0281  -0.9902  -0.9078  -0.8595  -0.8464
    -0.7988  -0.7115  -0.6915  -0.6679  -0.6610  -0.5587  -0.4806   0.4128
     1.3027   1.4923   1.6410   1.6628   1.8474   1.9985   2.0271   2.0616
     2.2378   2.2479   2.3461   2.3691   2.4250   2.4535   2.5413   2.5739
     2.6400   2.6834   2.7203   2.7321   2.7944   2.8220   2.8606   2.8911
     2.9128   2.9419   2.9945   3.0352   3.0614   3.1038   3.1314   3.1847
     3.1881   3.2415   3.2773   3.3168   3.3240   3.3558   3.3909   3.4516
     3.4635   3.5285   3.5398   3.6052   3.6535   3.7231   3.7764   3.8282
     3.8600   3.9351   4.1473   4.4829   4.5908   4.6107   4.7333   4.8040
     4.8805   4.9476   4.9920   5.1706   5.2712   5.3388   5.3593   5.4056
     5.5872   5.6117   5.6593   5.7072   5.8670   5.8879   5.9816   5.9969
     6.0555   6.0997   6.1594   6.1985   6.3092   6.3276   6.4092   6.4160
     6.5323   6.6051   6.7666   6.8044   7.1911   7.3665   7.5161   7.6292
     7.9416   8.0210   8.1089   8.3895   8.6140   8.7230   8.8107   9.0456
     9.1966   9.3297   9.4349

     the Fermi energy is    -0.2965 ev

!    total energy              =   -3021.14938517 Ry
     Harris-Foulkes estimate   =   -3021.14938428 Ry
     estimated scf accuracy    <       0.00000019 Ry

     The total energy is the sum of the following terms:

     one-electron contribution =  -40426.21400192 Ry
     hartree contribution      =   20284.34092882 Ry
     xc contribution           =    -553.19144044 Ry
     ewald contribution        =   17673.93489576 Ry
     smearing contrib. (-TS)   =      -0.01976739 Ry

     total magnetization       =     1.07 Bohr mag/cell
     absolute magnetization    =     1.24 Bohr mag/cell

     convergence has been achieved in  15 iterations

     Forces acting on atoms (Ry/au):


     negative rho (up, down):  1.188E-02 1.196E-02
     atom    1 type  1   force =     0.00019745   -0.00090115   -0.10476103
     atom    2 type  2   force =     0.00017512    0.00070429    0.04008111
     atom    3 type  1   force =     0.00074612   -0.00175490   -0.02063715
     atom    4 type  2   force =    -0.00325451    0.00312518   -0.00325478
     atom    5 type  1   force =     0.00030327    0.00001013   -0.00011461
     atom    6 type  2   force =    -0.00010950   -0.00003104    0.00124651
     atom    7 type  1   force =    -0.00034728   -0.00058091    0.01695224
     atom    8 type  2   force =     0.00130309    0.00102776    0.00003976
     atom    9 type  1   force =    -0.00003024    0.00057277   -0.10489276
     atom   10 type  2   force =     0.00036175   -0.00017610    0.03599221
     atom   11 type  1   force =     0.00065262    0.00184707    0.00256826
     atom   12 type  2   force =    -0.00519427   -0.00265169   -0.00525422
     atom   13 type  1   force =     0.00037530    0.00013845   -0.00059265
     atom   14 type  2   force =     0.00010847   -0.00006411    0.00054432
     atom   15 type  1   force =    -0.00057727    0.00030648   -0.00049248
     atom   16 type  2   force =     0.00138457   -0.00175355    0.00023138
     atom   17 type  2   force =     0.00001298    0.00000400    0.06655152
     atom   18 type  1   force =     0.00005872    0.00002927    0.13141637
     atom   19 type  2   force =     0.00015538   -0.00056142   -0.08519219
     atom   20 type  2   force =    -0.05787747    0.00013762   -0.03611478
     atom   21 type  2   force =     0.05781225   -0.00009378   -0.03615945
     atom   22 type  1   force =    -0.00045159    0.00078485    0.08011303
     atom   23 type  2   force =     0.00020779   -0.00003602    0.00021560
     atom   24 type  2   force =     0.00066418    0.00183289   -0.03467281
     atom   25 type  2   force =     0.00414492    0.00333274   -0.00509952
     atom   26 type  1   force =     0.00042927   -0.00004165    0.00002548
     atom   27 type  2   force =    -0.00007239   -0.00012846    0.00019382
     atom   28 type  2   force =     0.00014485   -0.00019319    0.00000869
     atom   29 type  2   force =    -0.00006164   -0.00011861    0.00011310
     atom   30 type  1   force =     0.00054965   -0.00016902    0.00033989
     atom   31 type  2   force =     0.00011868   -0.00007583   -0.00030455
     atom   32 type  2   force =    -0.00169674    0.00191673    0.00088360
     atom   33 type  2   force =    -0.00010457    0.00002982    0.06636404
     atom   34 type  1   force =     0.00011913   -0.00004573    0.13122032
     atom   35 type  2   force =     0.00020822   -0.00014262   -0.08483387
     atom   36 type  2   force =    -0.05778978    0.00011058   -0.03575184
     atom   37 type  2   force =     0.05798372   -0.00012616   -0.03623125
     atom   38 type  1   force =    -0.00037581   -0.00016500    0.07980369
     atom   39 type  2   force =     0.00010961   -0.00025058    0.00001526
     atom   40 type  2   force =     0.00052199    0.00122248   -0.03523625
     atom   41 type  2   force =     0.00589527   -0.00243630   -0.00721937
     atom   42 type  1   force =     0.00025168   -0.00008067   -0.00005949
     atom   43 type  2   force =    -0.00018013   -0.00012388    0.00026376
     atom   44 type  2   force =     0.00008323   -0.00019777    0.00003453
     atom   45 type  2   force =    -0.00002976   -0.00014176    0.00009099
     atom   46 type  1   force =    -0.00063267    0.00003811    0.00022535
     atom   47 type  2   force =    -0.00004618   -0.00033618   -0.00035747
     atom   48 type  2   force =    -0.00159979   -0.00177650    0.00074089
     atom   49 type  2   force =    -0.00064709   -0.00018394   -0.01979129
     atom   50 type  3   force =     0.00023401    0.00196118    0.00156313
     atom   51 type  4   force =    -0.00088519   -0.00055282   -0.00028117
     atom   52 type  4   force =    -0.00072095   -0.00014187    0.00007848
     atom   53 type  4   force =    -0.00180844   -0.00272680   -0.00051722
     atom   54 type  4   force =    -0.00082005   -0.00037239   -0.00009515

     Total force =     0.343363     Total SCF correction =     0.001137
 !ASE

     Writing output data file calc.save
 
     init_run     :     65.21s CPU     75.54s WALL (       1 calls)
     electrons    :   3867.76s CPU   4327.21s WALL (       1 calls)
     forces       :     48.45s CPU     50.88s WALL (       1 calls)

     Called by init_run:
     wfcinit      :     57.16s CPU     66.79s WALL (       1 calls)
     potinit      :      1.34s CPU      1.64s WALL (       1 calls)

     Called by electrons:
     c_bands      :   3396.26s CPU   3776.71s WALL (      15 calls)
     sum_band     :    403.93s CPU    475.41s WALL (      15 calls)
     v_of_rho     :     16.66s CPU     19.87s WALL (      16 calls)
     newd         :     54.11s CPU     58.58s WALL (      16 calls)
     mix_rho      :      0.70s CPU      0.92s WALL (      15 calls)
     vdW_energy   :      3.52s CPU      4.02s WALL (      17 calls)
     vdW_ffts     :      4.41s CPU      5.54s WALL (      34 calls)
     vdW_v        :      1.62s CPU      1.78s WALL (      17 calls)

     Called by c_bands:
     init_us_2    :      9.14s CPU      9.86s WALL (    1280 calls)
     cegterg      :   3341.43s CPU   3719.25s WALL (     600 calls)

     Called by *egterg:
     h_psi        :   1239.87s CPU   1510.34s WALL (    3239 calls)
     s_psi        :    216.83s CPU    223.93s WALL (    3239 calls)
     g_psi        :      6.20s CPU      6.35s WALL (    2599 calls)
     cdiaghg      :   1160.63s CPU   1183.70s WALL (    3199 calls)

     Called by h_psi:
     add_vuspsi   :    218.93s CPU    225.56s WALL (    3239 calls)

     General routines
     calbec       :    324.96s CPU    333.25s WALL (    3879 calls)
     fft          :      8.89s CPU     11.02s WALL (    1353 calls)
     ffts         :      0.07s CPU      0.09s WALL (      62 calls)
     fftw         :    692.61s CPU   1010.74s WALL ( 1028280 calls)
     interpolate  :      0.48s CPU      0.72s WALL (      62 calls)
     davcio       :      0.13s CPU      3.34s WALL (      40 calls)
 
     Parallel routines
     fft_scatter  :    342.99s CPU    534.92s WALL ( 1029695 calls)
 
     PWSCF        :     1h 6m CPU        1h14m WALL

 
   This run was terminated on:   0:21:45  26Feb2018            

=------------------------------------------------------------------------------=
   JOB DONE.
=------------------------------------------------------------------------------=
