  python dir          : /home/vossj/suncat/lib/python2.7/site-packages/espresso
  espresso dir        : /home/vossj/suncat/esdld/espresso-dynpy-beef/bin
  pseudo dir          : /home/alatimer/bin/psp/esp_psp_w_gbrvRu/
  ase-espresso py git : ffa2778-git



     Program PWSCF v.5.1rc2 (svn rev. ) starts on 10Feb2018 at 19: 3: 5 

     This program is part of the open-source Quantum ESPRESSO suite
     for quantum simulation of materials; please cite
         "P. Giannozzi et al., J. Phys.:Condens. Matter 21 395502 (2009);
          URL http://www.quantum-espresso.org", 
     in publications or presentations arising from this work. More details at
     http://www.quantum-espresso.org/quote

     Parallel version (MPI), running on    16 processors
     R & G space division:  proc/nbgrp/npool/nimage =      16
     Reading input from pw.inp
     Message from routine read_cards :
     DEPRECATED: no units specified in CELL_PARAMETERS card

     Current dimensions of program PWSCF are:
     Max number of different atomic species (ntypx) = 10
     Max number of k-points (npk) =  40000
     Max angular momentum in pseudopotentials (lmaxx) =  3

     **************************************************************************
     Initializing libbeef V0.1.1 with the BEEF-vdW functional.
     Citation: Wellendorff et al., PRB 85, 235149 (2012).
     **************************************************************************


     IMPORTANT: XC functional enforced from input :
     Exchange-correlation      = BEEF ( 1  4 27 13 2)
     Any further DFT definition will be discarded
     Please, verify this is what you really want


     Subspace diagonalization in iterative solution of the eigenvalue problem:
     a serial algorithm will be used

 
     Parallelization info
     --------------------
     sticks:   dense  smooth     PW     G-vecs:    dense   smooth      PW
     Min         281     112     31                68535    17318    2565
     Max         282     113     32                68545    17369    2582
     Sum        4501    1795    503              1096637   277353   41113
 
     Generating pointlists ...
     new r_m :   0.4125 (alat units)  0.7795 (a.u.) for type    1
     new r_m :   0.4125 (alat units)  0.7795 (a.u.) for type    2


     bravais-lattice index     =            0
     lattice parameter (alat)  =       1.8897  a.u.
     unit-cell volume          =    7990.9933 (a.u.)^3
     number of atoms/cell      =           49
     number of atomic types    =            2
     number of electrons       =       390.00
     number of Kohn-Sham states=          295
     kinetic-energy cutoff     =      40.4243  Ry
     charge density cutoff     =     404.2426  Ry
     convergence threshold     =      7.3E-07
     mixing beta               =       0.1000
     number of iterations used =           10  plain     mixing
     Exchange-correlation      = BEEF ( 1  4 27 13 2)
     nstep                     =           50


     celldm(1)=   1.889726  celldm(2)=   0.000000  celldm(3)=   0.000000
     celldm(4)=   0.000000  celldm(5)=   0.000000  celldm(6)=   0.000000

     crystal axes: (cart. coord. in units of alat)
               a(1) = (   6.590708   0.000000   0.000000 )  
               a(2) = (   0.000000   5.950229   0.000000 )  
               a(3) = (   0.000000   0.000000  30.195235 )  

     reciprocal axes: (cart. coord. in units 2 pi/alat)
               b(1) = (  0.151729  0.000000  0.000000 )  
               b(2) = (  0.000000  0.168061  0.000000 )  
               b(3) = (  0.000000  0.000000  0.033118 )  


     PseudoPot. # 1 for Ti read from file:
     /home/alatimer/bin/psp/esp_psp_w_gbrvRu/Ti.UPF
     MD5 check sum: 8e4df49b7f0d34bbd5052bf3f5ea0213
     Pseudo is Ultrasoft, Zval = 12.0
     Generated by new atomic code, or converted to UPF format
     Using radial grid of  851 points,  6 beta functions with: 
                l(1) =   0
                l(2) =   0
                l(3) =   1
                l(4) =   1
                l(5) =   2
                l(6) =   2
     Q(r) pseudized with  8 coefficients,  rinner =    1.000   1.000   1.000
                                                       1.000   1.000

     PseudoPot. # 2 for  O read from file:
     /home/alatimer/bin/psp/esp_psp_w_gbrvRu/O.UPF
     MD5 check sum: e057bbcf3229fb5d8c36c0c92f9568b4
     Pseudo is Ultrasoft + core correction, Zval =  6.0
     Generated using "atomic" code by A. Dal Corso  v.5.0.2 svn rev. 9415
     Using radial grid of 1095 points,  4 beta functions with: 
                l(1) =   0
                l(2) =   0
                l(3) =   1
                l(4) =   1
     Q(r) pseudized with 0 coefficients 


     vdW kernel table read from file vdW_kernel_table
     MD5 check sum: 095c7af220d748ca6e76c0b4c6cfb241

     atomic species   valence    mass     pseudopotential
        Ti1           12.00    47.88000     Ti( 1.00)
        O1             6.00    15.99940      O( 1.00)

     Starting magnetic structure 
     atomic species   magnetization
        Ti1          0.250
        O1           0.500

     No symmetry found



   Cartesian axes

     site n.     atom                  positions (alat units)
         1           Ti1 tau(   1) = (   1.6476770   0.7437786   2.6545865  )
         2           O1  tau(   2) = (   1.6476770   2.2313359   3.9361215  )
         3           Ti1 tau(   3) = (   1.6476770   2.2313359   5.9499405  )
         4           O1  tau(   4) = (   0.3661420   0.7437786   5.9499405  )
         5           Ti1 tau(   5) = (   1.5277661   0.7316361   9.1979924  )
         6           O1  tau(   6) = (   1.6632133   2.1793878  10.6093433  )
         7           Ti1 tau(   7) = (   1.6165400   2.1742892  12.4450098  )
         8           O1  tau(   8) = (   0.4211133   0.7189415  12.7146628  )
         9           Ti1 tau(   9) = (   1.6476770   3.7188931   2.6545865  )
        10           O1  tau(  10) = (   1.6476770   5.2064503   3.9361215  )
        11           Ti1 tau(  11) = (   1.6476770   5.2064503   5.9499405  )
        12           O1  tau(  12) = (   0.3661420   3.7188931   5.9499405  )
        13           Ti1 tau(  13) = (   1.5318737   3.7073984   9.2114718  )
        14           O1  tau(  14) = (   1.6603548   5.2054729  10.6082275  )
        15           Ti1 tau(  15) = (   1.6160620   5.2125286  12.4458513  )
        16           O1  tau(  16) = (   0.3672395   3.6890226  12.4512313  )
        17           O1  tau(  17) = (   1.6476770   2.2313359   1.3730516  )
        18           Ti1 tau(  18) = (   4.9430310   2.2313359   2.6545865  )
        19           O1  tau(  19) = (   4.9430310   2.2313359   4.6684056  )
        20           O1  tau(  20) = (   6.2245660   0.7437786   2.6545865  )
        21           O1  tau(  21) = (   3.6614961   0.7437786   2.6545865  )
        22           Ti1 tau(  22) = (   4.9430310   0.7437786   5.9499405  )
        23           O1  tau(  23) = (   1.6494130   2.2266810   8.0229920  )
        24           O1  tau(  24) = (   4.9430310   2.2313359   7.2314755  )
        25           O1  tau(  25) = (   2.9292120   0.7437786   5.9499405  )
        26           Ti1 tau(  26) = (   4.8570045   2.2038353   9.3960648  )
        27           O1  tau(  27) = (   4.9365002   2.1563787  11.2526517  )
        28           O1  tau(  28) = (   6.2661622   0.7265345   9.2570196  )
        29           O1  tau(  29) = (   3.6607207   0.7252434   9.2585875  )
        30           Ti1 tau(  30) = (   4.8804456   0.7009689  12.7500804  )
        31           O1  tau(  31) = (   4.9885443   2.2055297  13.8060867  )
        32           O1  tau(  32) = (   2.8787315   0.7196740  12.7638696  )
        33           O1  tau(  33) = (   1.6476770   5.2064503   1.3730516  )
        34           Ti1 tau(  34) = (   4.9430310   5.2064503   2.6545865  )
        35           O1  tau(  35) = (   4.9430310   5.2064503   4.6684056  )
        36           O1  tau(  36) = (   6.2245660   3.7188931   2.6545865  )
        37           O1  tau(  37) = (   3.6614961   3.7188931   2.6545865  )
        38           Ti1 tau(  38) = (   4.9430310   3.7188931   5.9499405  )
        39           O1  tau(  39) = (   1.6492404   5.1840375   8.0235373  )
        40           O1  tau(  40) = (   4.9430310   5.2064503   7.2314755  )
        41           O1  tau(  41) = (   2.9292120   3.7188931   5.9499405  )
        42           Ti1 tau(  42) = (   4.8583452   5.1875290   9.3946917  )
        43           O1  tau(  43) = (   4.9366536   5.2195535  11.2514306  )
        44           O1  tau(  44) = (   6.2660656   3.7009687   9.2894568  )
        45           O1  tau(  45) = (   3.6605616   3.6984666   9.2954459  )
        46           Ti1 tau(  46) = (   5.1078939   3.6751672  12.7268755  )
        47           O1  tau(  47) = (   4.9880347   5.1576104  13.8055399  )
        48           O1  tau(  48) = (   3.0285069   3.6936269  12.4216869  )
        49           O1  tau(  49) = (   2.4158682   3.6994311  13.7464468  )

     number of k points=    40  Fermi-Dirac smearing, width (Ry)=  0.0073
                       cart. coord. in units 2pi/alat
        k(    1) = (   0.0000000   0.0000000   0.0000000), wk =   0.0277778
        k(    2) = (   0.0000000   0.0280101   0.0000000), wk =   0.0555556
        k(    3) = (   0.0000000   0.0560203   0.0000000), wk =   0.0555556
        k(    4) = (   0.0000000  -0.0840304   0.0000000), wk =   0.0277778
        k(    5) = (   0.0252881   0.0000000   0.0000000), wk =   0.0555556
        k(    6) = (   0.0252881   0.0280101   0.0000000), wk =   0.0555556
        k(    7) = (   0.0252881   0.0560203   0.0000000), wk =   0.0555556
        k(    8) = (   0.0252881  -0.0840304   0.0000000), wk =   0.0555556
        k(    9) = (   0.0505763   0.0000000   0.0000000), wk =   0.0555556
        k(   10) = (   0.0505763   0.0280101   0.0000000), wk =   0.0555556
        k(   11) = (   0.0505763   0.0560203   0.0000000), wk =   0.0555556
        k(   12) = (   0.0505763  -0.0840304   0.0000000), wk =   0.0555556
        k(   13) = (  -0.0758644   0.0000000   0.0000000), wk =   0.0277778
        k(   14) = (  -0.0758644   0.0280101   0.0000000), wk =   0.0555556
        k(   15) = (  -0.0758644   0.0560203   0.0000000), wk =   0.0555556
        k(   16) = (  -0.0758644  -0.0840304   0.0000000), wk =   0.0277778
        k(   17) = (  -0.0252881   0.0280101   0.0000000), wk =   0.0555556
        k(   18) = (  -0.0252881   0.0560203   0.0000000), wk =   0.0555556
        k(   19) = (  -0.0505763   0.0280101   0.0000000), wk =   0.0555556
        k(   20) = (  -0.0505763   0.0560203   0.0000000), wk =   0.0555556
        k(   21) = (   0.0000000   0.0000000   0.0000000), wk =   0.0277778
        k(   22) = (   0.0000000   0.0280101   0.0000000), wk =   0.0555556
        k(   23) = (   0.0000000   0.0560203   0.0000000), wk =   0.0555556
        k(   24) = (   0.0000000  -0.0840304   0.0000000), wk =   0.0277778
        k(   25) = (   0.0252881   0.0000000   0.0000000), wk =   0.0555556
        k(   26) = (   0.0252881   0.0280101   0.0000000), wk =   0.0555556
        k(   27) = (   0.0252881   0.0560203   0.0000000), wk =   0.0555556
        k(   28) = (   0.0252881  -0.0840304   0.0000000), wk =   0.0555556
        k(   29) = (   0.0505763   0.0000000   0.0000000), wk =   0.0555556
        k(   30) = (   0.0505763   0.0280101   0.0000000), wk =   0.0555556
        k(   31) = (   0.0505763   0.0560203   0.0000000), wk =   0.0555556
        k(   32) = (   0.0505763  -0.0840304   0.0000000), wk =   0.0555556
        k(   33) = (  -0.0758644   0.0000000   0.0000000), wk =   0.0277778
        k(   34) = (  -0.0758644   0.0280101   0.0000000), wk =   0.0555556
        k(   35) = (  -0.0758644   0.0560203   0.0000000), wk =   0.0555556
        k(   36) = (  -0.0758644  -0.0840304   0.0000000), wk =   0.0277778
        k(   37) = (  -0.0252881   0.0280101   0.0000000), wk =   0.0555556
        k(   38) = (  -0.0252881   0.0560203   0.0000000), wk =   0.0555556
        k(   39) = (  -0.0505763   0.0280101   0.0000000), wk =   0.0555556
        k(   40) = (  -0.0505763   0.0560203   0.0000000), wk =   0.0555556

     Dense  grid:  1096637 G-vectors     FFT dimensions: (  80,  72, 375)

     Smooth grid:   277353 G-vectors     FFT dimensions: (  54,  45, 240)

     Largest allocated arrays     est. size (Mb)     dimensions
        Kohn-Sham Wavefunctions         9.81 Mb     (    2180,  295)
        NL pseudopotentials            18.36 Mb     (    2180,  552)
        Each V/rho on FFT grid          4.22 Mb     (  138240,   2)
        Each G-vector array             0.52 Mb     (   68538)
        G-vector shells                 0.25 Mb     (   33046)
     Largest temporary arrays     est. size (Mb)     dimensions
        Auxiliary wavefunctions        39.25 Mb     (    2180, 1180)
        Each subspace H/S matrix       21.25 Mb     (    1180, 1180)
        Each <psi_i|beta_j> matrix      2.48 Mb     (     552,  295)
        Arrays for rho mixing          21.09 Mb     (  138240,   10)

     Check: negative/imaginary core charge=   -0.000049    0.000000

     The initial density is read from file :
     ./calc.save/charge-density.dat


     negative rho (up, down):  1.430E-02 1.430E-02


     ************************************************************************
     *
     * You are using vdW-DF for exchange-correlation in this calculation.
     * Please cite the following three references that made this development
     * possible:
     *
     *   M. Dion, H. Rydberg, E. Schroder, D. C. Langreth, and
     *   B. I. Lundqvist, Phys. Rev. Lett. 92, 246401 (2004).
     *
     *   T. Thonhauser, V. R. Cooper, S. Li, A. Puzder, P. Hyldgaard, and
     *   D. C. Langreth, Phys. Rev. B 76, 125112 (2007).
     *
     *   G. Roman-Perez and J. M. Soler, Phys. Rev. Lett. 103, 096102 (2009).
     *
     *
     * If you are using vdW-DF2, please also cite:
     *
     *   K. Lee, E. D. Murray, L. Kong, B. I. Lundqvist, and
     *   D. C. Langreth, Phys. Rev. B 82, 081101(R) (2010).
     *
     *
     * If you are calculating the stress with vdW-DF, please also cite:
     *
     *   R. Sabatini, E. Kucukbenli, B. Kolb, T. Thonhauser, and
     *   S. de Gironcoli, J. Phys.: Condens. Matter 24, 424209 (2012).
     *
     ************************************************************************

     Carrying out vdW-DF run using the following parameters:

     Nqs =      20    Nr_points =    1024   r_max =   100.000
     q_mesh =
               0.00001000     0.04494208     0.09755937     0.15916263
               0.23128650     0.31572767     0.41458969     0.53033537
               0.66584808     0.82450364     1.01025438     1.22772762
               1.48234092     1.78043706     2.12944203     2.53805004
               3.01644009     3.57652955     4.23227104     5.00000000

     Gradients computed in reciprocal space

     ************************************************************************


     Starting wfc are  292 randomized atomic wfcs +    3 random wfc

     total cpu time spent up to now is       69.5 secs

     Self-consistent Calculation

     iteration #  1     ecut=    40.42 Ry     beta=0.10
     Davidson diagonalization with overlap
     ethr =  1.00E-05,  avg # of iterations = 17.1

     negative rho (up, down):  1.431E-02 1.431E-02
 
     Magnetic moment per site:
     atom:    1    charge:    3.1251    magn:   -0.0002    constr:    0.0000
     atom:    2    charge:    2.0895    magn:    0.0000    constr:    0.0000
     atom:    3    charge:    3.1196    magn:   -0.0000    constr:    0.0000
     atom:    4    charge:    2.0871    magn:   -0.0001    constr:    0.0000
     atom:    5    charge:    3.1167    magn:    0.0000    constr:    0.0000
     atom:    6    charge:    2.0894    magn:   -0.0001    constr:    0.0000
     atom:    7    charge:    3.1204    magn:    0.0001    constr:    0.0000
     atom:    8    charge:    2.0874    magn:   -0.0001    constr:    0.0000
     atom:    9    charge:    3.1251    magn:   -0.0002    constr:    0.0000
     atom:   10    charge:    2.0895    magn:    0.0000    constr:    0.0000
     atom:   11    charge:    3.1196    magn:   -0.0000    constr:    0.0000
     atom:   12    charge:    2.0871    magn:   -0.0001    constr:    0.0000
     atom:   13    charge:    3.1147    magn:    0.0000    constr:    0.0000
     atom:   14    charge:    2.0880    magn:   -0.0001    constr:    0.0000
     atom:   15    charge:    3.1162    magn:    0.0001    constr:    0.0000
     atom:   16    charge:    2.0985    magn:   -0.0002    constr:    0.0000
     atom:   17    charge:    2.0622    magn:    0.0006    constr:    0.0000
     atom:   18    charge:    3.1239    magn:   -0.0001    constr:    0.0000
     atom:   19    charge:    2.0877    magn:   -0.0000    constr:    0.0000
     atom:   20    charge:    2.0846    magn:    0.0001    constr:    0.0000
     atom:   21    charge:    2.0846    magn:    0.0001    constr:    0.0000
     atom:   22    charge:    3.1196    magn:    0.0000    constr:    0.0000
     atom:   23    charge:    2.0903    magn:   -0.0001    constr:    0.0000
     atom:   24    charge:    2.0789    magn:   -0.0000    constr:    0.0000
     atom:   25    charge:    2.0869    magn:   -0.0001    constr:    0.0000
     atom:   26    charge:    3.1148    magn:    0.0000    constr:    0.0000
     atom:   27    charge:    2.0819    magn:   -0.0001    constr:    0.0000
     atom:   28    charge:    2.0885    magn:   -0.0001    constr:    0.0000
     atom:   29    charge:    2.0876    magn:   -0.0001    constr:    0.0000
     atom:   30    charge:    3.1180    magn:    0.0000    constr:    0.0000
     atom:   31    charge:    2.0836    magn:   -0.0001    constr:    0.0000
     atom:   32    charge:    2.0870    magn:   -0.0001    constr:    0.0000
     atom:   33    charge:    2.0622    magn:    0.0006    constr:    0.0000
     atom:   34    charge:    3.1239    magn:   -0.0001    constr:    0.0000
     atom:   35    charge:    2.0878    magn:   -0.0000    constr:    0.0000
     atom:   36    charge:    2.0846    magn:    0.0001    constr:    0.0000
     atom:   37    charge:    2.0846    magn:    0.0001    constr:    0.0000
     atom:   38    charge:    3.1196    magn:    0.0000    constr:    0.0000
     atom:   39    charge:    2.0910    magn:   -0.0001    constr:    0.0000
     atom:   40    charge:    2.0790    magn:   -0.0000    constr:    0.0000
     atom:   41    charge:    2.0869    magn:   -0.0001    constr:    0.0000
     atom:   42    charge:    3.1145    magn:    0.0000    constr:    0.0000
     atom:   43    charge:    2.0818    magn:   -0.0001    constr:    0.0000
     atom:   44    charge:    2.0857    magn:   -0.0001    constr:    0.0000
     atom:   45    charge:    2.0875    magn:   -0.0001    constr:    0.0000
     atom:   46    charge:    3.1249    magn:    0.0001    constr:    0.0000
     atom:   47    charge:    2.0847    magn:   -0.0001    constr:    0.0000
     atom:   48    charge:    2.0735    magn:   -0.0001    constr:    0.0000
     atom:   49    charge:    2.0392    magn:   -0.0001    constr:    0.0000

     total cpu time spent up to now is      835.9 secs

     total energy              =   -3004.20119174 Ry
     Harris-Foulkes estimate   =   -3004.21730528 Ry
     estimated scf accuracy    <       0.10530098 Ry

     total magnetization       =     0.00 Bohr mag/cell
     absolute magnetization    =     0.01 Bohr mag/cell

     iteration #  2     ecut=    40.42 Ry     beta=0.10
     Davidson diagonalization with overlap
     ethr =  2.70E-05,  avg # of iterations =  1.0

     negative rho (up, down):  1.432E-02 1.432E-02
 
     Magnetic moment per site:
     atom:    1    charge:    3.1251    magn:   -0.0002    constr:    0.0000
     atom:    2    charge:    2.0895    magn:    0.0000    constr:    0.0000
     atom:    3    charge:    3.1196    magn:   -0.0000    constr:    0.0000
     atom:    4    charge:    2.0870    magn:   -0.0000    constr:    0.0000
     atom:    5    charge:    3.1167    magn:    0.0000    constr:    0.0000
     atom:    6    charge:    2.0893    magn:   -0.0001    constr:    0.0000
     atom:    7    charge:    3.1195    magn:    0.0001    constr:    0.0000
     atom:    8    charge:    2.0872    magn:   -0.0001    constr:    0.0000
     atom:    9    charge:    3.1251    magn:   -0.0002    constr:    0.0000
     atom:   10    charge:    2.0894    magn:    0.0000    constr:    0.0000
     atom:   11    charge:    3.1196    magn:   -0.0000    constr:    0.0000
     atom:   12    charge:    2.0870    magn:   -0.0000    constr:    0.0000
     atom:   13    charge:    3.1147    magn:    0.0000    constr:    0.0000
     atom:   14    charge:    2.0880    magn:   -0.0001    constr:    0.0000
     atom:   15    charge:    3.1153    magn:    0.0001    constr:    0.0000
     atom:   16    charge:    2.0971    magn:   -0.0001    constr:    0.0000
     atom:   17    charge:    2.0622    magn:    0.0005    constr:    0.0000
     atom:   18    charge:    3.1239    magn:   -0.0001    constr:    0.0000
     atom:   19    charge:    2.0877    magn:   -0.0000    constr:    0.0000
     atom:   20    charge:    2.0846    magn:    0.0001    constr:    0.0000
     atom:   21    charge:    2.0846    magn:    0.0001    constr:    0.0000
     atom:   22    charge:    3.1196    magn:    0.0000    constr:    0.0000
     atom:   23    charge:    2.0903    magn:   -0.0001    constr:    0.0000
     atom:   24    charge:    2.0789    magn:   -0.0000    constr:    0.0000
     atom:   25    charge:    2.0869    magn:   -0.0000    constr:    0.0000
     atom:   26    charge:    3.1148    magn:    0.0000    constr:    0.0000
     atom:   27    charge:    2.0819    magn:   -0.0001    constr:    0.0000
     atom:   28    charge:    2.0885    magn:   -0.0001    constr:    0.0000
     atom:   29    charge:    2.0875    magn:   -0.0001    constr:    0.0000
     atom:   30    charge:    3.1180    magn:    0.0000    constr:    0.0000
     atom:   31    charge:    2.0842    magn:   -0.0000    constr:    0.0000
     atom:   32    charge:    2.0871    magn:   -0.0001    constr:    0.0000
     atom:   33    charge:    2.0622    magn:    0.0005    constr:    0.0000
     atom:   34    charge:    3.1239    magn:   -0.0001    constr:    0.0000
     atom:   35    charge:    2.0877    magn:   -0.0000    constr:    0.0000
     atom:   36    charge:    2.0846    magn:    0.0001    constr:    0.0000
     atom:   37    charge:    2.0846    magn:    0.0001    constr:    0.0000
     atom:   38    charge:    3.1196    magn:    0.0000    constr:    0.0000
     atom:   39    charge:    2.0910    magn:   -0.0001    constr:    0.0000
     atom:   40    charge:    2.0790    magn:   -0.0000    constr:    0.0000
     atom:   41    charge:    2.0869    magn:   -0.0000    constr:    0.0000
     atom:   42    charge:    3.1145    magn:    0.0000    constr:    0.0000
     atom:   43    charge:    2.0818    magn:   -0.0001    constr:    0.0000
     atom:   44    charge:    2.0857    magn:   -0.0001    constr:    0.0000
     atom:   45    charge:    2.0874    magn:   -0.0001    constr:    0.0000
     atom:   46    charge:    3.1252    magn:    0.0000    constr:    0.0000
     atom:   47    charge:    2.0852    magn:   -0.0000    constr:    0.0000
     atom:   48    charge:    2.0786    magn:   -0.0001    constr:    0.0000
     atom:   49    charge:    2.0427    magn:   -0.0001    constr:    0.0000

     total cpu time spent up to now is     1010.8 secs

     total energy              =   -3004.17836082 Ry
     Harris-Foulkes estimate   =   -3004.20257831 Ry
     estimated scf accuracy    <       0.06193325 Ry

     total magnetization       =     0.00 Bohr mag/cell
     absolute magnetization    =     0.01 Bohr mag/cell

     iteration #  3     ecut=    40.42 Ry     beta=0.10
     Davidson diagonalization with overlap
     ethr =  1.59E-05,  avg # of iterations =  2.1

     negative rho (up, down):  1.433E-02 1.433E-02
 
     Magnetic moment per site:
     atom:    1    charge:    3.1251    magn:   -0.0001    constr:    0.0000
     atom:    2    charge:    2.0894    magn:    0.0000    constr:    0.0000
     atom:    3    charge:    3.1196    magn:   -0.0000    constr:    0.0000
     atom:    4    charge:    2.0871    magn:   -0.0000    constr:    0.0000
     atom:    5    charge:    3.1167    magn:    0.0000    constr:    0.0000
     atom:    6    charge:    2.0882    magn:   -0.0001    constr:    0.0000
     atom:    7    charge:    3.1232    magn:    0.0001    constr:    0.0000
     atom:    8    charge:    2.0874    magn:   -0.0001    constr:    0.0000
     atom:    9    charge:    3.1251    magn:   -0.0001    constr:    0.0000
     atom:   10    charge:    2.0894    magn:    0.0000    constr:    0.0000
     atom:   11    charge:    3.1196    magn:   -0.0000    constr:    0.0000
     atom:   12    charge:    2.0871    magn:   -0.0000    constr:    0.0000
     atom:   13    charge:    3.1148    magn:    0.0000    constr:    0.0000
     atom:   14    charge:    2.0869    magn:   -0.0001    constr:    0.0000
     atom:   15    charge:    3.1191    magn:    0.0001    constr:    0.0000
     atom:   16    charge:    2.1014    magn:   -0.0001    constr:    0.0000
     atom:   17    charge:    2.0622    magn:    0.0004    constr:    0.0000
     atom:   18    charge:    3.1239    magn:   -0.0001    constr:    0.0000
     atom:   19    charge:    2.0878    magn:   -0.0000    constr:    0.0000
     atom:   20    charge:    2.0846    magn:    0.0001    constr:    0.0000
     atom:   21    charge:    2.0846    magn:    0.0001    constr:    0.0000
     atom:   22    charge:    3.1196    magn:    0.0000    constr:    0.0000
     atom:   23    charge:    2.0901    magn:   -0.0001    constr:    0.0000
     atom:   24    charge:    2.0790    magn:   -0.0000    constr:    0.0000
     atom:   25    charge:    2.0869    magn:   -0.0000    constr:    0.0000
     atom:   26    charge:    3.1150    magn:    0.0000    constr:    0.0000
     atom:   27    charge:    2.0817    magn:   -0.0000    constr:    0.0000
     atom:   28    charge:    2.0886    magn:   -0.0001    constr:    0.0000
     atom:   29    charge:    2.0875    magn:   -0.0001    constr:    0.0000
     atom:   30    charge:    3.1185    magn:    0.0000    constr:    0.0000
     atom:   31    charge:    2.0832    magn:   -0.0000    constr:    0.0000
     atom:   32    charge:    2.0844    magn:   -0.0001    constr:    0.0000
     atom:   33    charge:    2.0622    magn:    0.0004    constr:    0.0000
     atom:   34    charge:    3.1239    magn:   -0.0001    constr:    0.0000
     atom:   35    charge:    2.0878    magn:   -0.0000    constr:    0.0000
     atom:   36    charge:    2.0846    magn:    0.0001    constr:    0.0000
     atom:   37    charge:    2.0846    magn:    0.0001    constr:    0.0000
     atom:   38    charge:    3.1196    magn:    0.0000    constr:    0.0000
     atom:   39    charge:    2.0908    magn:   -0.0001    constr:    0.0000
     atom:   40    charge:    2.0790    magn:   -0.0000    constr:    0.0000
     atom:   41    charge:    2.0869    magn:   -0.0000    constr:    0.0000
     atom:   42    charge:    3.1147    magn:    0.0000    constr:    0.0000
     atom:   43    charge:    2.0816    magn:   -0.0000    constr:    0.0000
     atom:   44    charge:    2.0858    magn:   -0.0000    constr:    0.0000
     atom:   45    charge:    2.0872    magn:   -0.0001    constr:    0.0000
     atom:   46    charge:    3.1230    magn:    0.0000    constr:    0.0000
     atom:   47    charge:    2.0842    magn:   -0.0000    constr:    0.0000
     atom:   48    charge:    2.0718    magn:   -0.0001    constr:    0.0000
     atom:   49    charge:    2.0448    magn:   -0.0001    constr:    0.0000

     total cpu time spent up to now is     1205.3 secs

     total energy              =   -3004.17410127 Ry
     Harris-Foulkes estimate   =   -3004.18310649 Ry
     estimated scf accuracy    <       0.01691477 Ry

     total magnetization       =     0.00 Bohr mag/cell
     absolute magnetization    =     0.01 Bohr mag/cell

     iteration #  4     ecut=    40.42 Ry     beta=0.10
     Davidson diagonalization with overlap
     ethr =  4.34E-06,  avg # of iterations =  4.5

     negative rho (up, down):  1.433E-02 1.433E-02
 
     Magnetic moment per site:
     atom:    1    charge:    3.1251    magn:   -0.0001    constr:    0.0000
     atom:    2    charge:    2.0894    magn:    0.0000    constr:    0.0000
     atom:    3    charge:    3.1196    magn:   -0.0000    constr:    0.0000
     atom:    4    charge:    2.0870    magn:   -0.0000    constr:    0.0000
     atom:    5    charge:    3.1167    magn:    0.0000    constr:    0.0000
     atom:    6    charge:    2.0887    magn:   -0.0001    constr:    0.0000
     atom:    7    charge:    3.1227    magn:    0.0001    constr:    0.0000
     atom:    8    charge:    2.0875    magn:   -0.0001    constr:    0.0000
     atom:    9    charge:    3.1251    magn:   -0.0001    constr:    0.0000
     atom:   10    charge:    2.0894    magn:    0.0000    constr:    0.0000
     atom:   11    charge:    3.1196    magn:   -0.0000    constr:    0.0000
     atom:   12    charge:    2.0870    magn:   -0.0000    constr:    0.0000
     atom:   13    charge:    3.1148    magn:    0.0000    constr:    0.0000
     atom:   14    charge:    2.0873    magn:   -0.0001    constr:    0.0000
     atom:   15    charge:    3.1186    magn:    0.0001    constr:    0.0000
     atom:   16    charge:    2.1015    magn:   -0.0001    constr:    0.0000
     atom:   17    charge:    2.0622    magn:    0.0003    constr:    0.0000
     atom:   18    charge:    3.1239    magn:   -0.0001    constr:    0.0000
     atom:   19    charge:    2.0878    magn:   -0.0000    constr:    0.0000
     atom:   20    charge:    2.0846    magn:    0.0000    constr:    0.0000
     atom:   21    charge:    2.0846    magn:    0.0000    constr:    0.0000
     atom:   22    charge:    3.1196    magn:    0.0000    constr:    0.0000
     atom:   23    charge:    2.0902    magn:   -0.0000    constr:    0.0000
     atom:   24    charge:    2.0789    magn:   -0.0000    constr:    0.0000
     atom:   25    charge:    2.0869    magn:   -0.0000    constr:    0.0000
     atom:   26    charge:    3.1150    magn:    0.0000    constr:    0.0000
     atom:   27    charge:    2.0818    magn:   -0.0000    constr:    0.0000
     atom:   28    charge:    2.0885    magn:   -0.0000    constr:    0.0000
     atom:   29    charge:    2.0876    magn:   -0.0001    constr:    0.0000
     atom:   30    charge:    3.1183    magn:    0.0000    constr:    0.0000
     atom:   31    charge:    2.0829    magn:   -0.0000    constr:    0.0000
     atom:   32    charge:    2.0852    magn:   -0.0001    constr:    0.0000
     atom:   33    charge:    2.0622    magn:    0.0003    constr:    0.0000
     atom:   34    charge:    3.1239    magn:   -0.0001    constr:    0.0000
     atom:   35    charge:    2.0878    magn:   -0.0000    constr:    0.0000
     atom:   36    charge:    2.0846    magn:    0.0000    constr:    0.0000
     atom:   37    charge:    2.0846    magn:    0.0000    constr:    0.0000
     atom:   38    charge:    3.1197    magn:    0.0000    constr:    0.0000
     atom:   39    charge:    2.0909    magn:   -0.0000    constr:    0.0000
     atom:   40    charge:    2.0790    magn:   -0.0000    constr:    0.0000
     atom:   41    charge:    2.0869    magn:   -0.0000    constr:    0.0000
     atom:   42    charge:    3.1147    magn:    0.0000    constr:    0.0000
     atom:   43    charge:    2.0817    magn:   -0.0000    constr:    0.0000
     atom:   44    charge:    2.0857    magn:   -0.0000    constr:    0.0000
     atom:   45    charge:    2.0874    magn:   -0.0000    constr:    0.0000
     atom:   46    charge:    3.1234    magn:    0.0000    constr:    0.0000
     atom:   47    charge:    2.0839    magn:   -0.0000    constr:    0.0000
     atom:   48    charge:    2.0711    magn:   -0.0001    constr:    0.0000
     atom:   49    charge:    2.0455    magn:   -0.0001    constr:    0.0000

     total cpu time spent up to now is     1436.4 secs

     total energy              =   -3004.17578842 Ry
     Harris-Foulkes estimate   =   -3004.17622476 Ry
     estimated scf accuracy    <       0.00132569 Ry

     total magnetization       =     0.00 Bohr mag/cell
     absolute magnetization    =     0.00 Bohr mag/cell

     iteration #  5     ecut=    40.42 Ry     beta=0.10
     Davidson diagonalization with overlap
     ethr =  3.40E-07,  avg # of iterations =  3.6

     negative rho (up, down):  1.433E-02 1.433E-02
 
     Magnetic moment per site:
     atom:    1    charge:    3.1251    magn:   -0.0001    constr:    0.0000
     atom:    2    charge:    2.0895    magn:    0.0000    constr:    0.0000
     atom:    3    charge:    3.1196    magn:   -0.0000    constr:    0.0000
     atom:    4    charge:    2.0871    magn:   -0.0000    constr:    0.0000
     atom:    5    charge:    3.1167    magn:    0.0000    constr:    0.0000
     atom:    6    charge:    2.0889    magn:   -0.0001    constr:    0.0000
     atom:    7    charge:    3.1225    magn:    0.0000    constr:    0.0000
     atom:    8    charge:    2.0876    magn:   -0.0001    constr:    0.0000
     atom:    9    charge:    3.1251    magn:   -0.0001    constr:    0.0000
     atom:   10    charge:    2.0894    magn:    0.0000    constr:    0.0000
     atom:   11    charge:    3.1196    magn:   -0.0000    constr:    0.0000
     atom:   12    charge:    2.0870    magn:   -0.0000    constr:    0.0000
     atom:   13    charge:    3.1148    magn:    0.0000    constr:    0.0000
     atom:   14    charge:    2.0876    magn:   -0.0000    constr:    0.0000
     atom:   15    charge:    3.1184    magn:    0.0000    constr:    0.0000
     atom:   16    charge:    2.1015    magn:   -0.0001    constr:    0.0000
     atom:   17    charge:    2.0622    magn:    0.0003    constr:    0.0000
     atom:   18    charge:    3.1239    magn:   -0.0001    constr:    0.0000
     atom:   19    charge:    2.0877    magn:   -0.0000    constr:    0.0000
     atom:   20    charge:    2.0846    magn:    0.0000    constr:    0.0000
     atom:   21    charge:    2.0846    magn:    0.0000    constr:    0.0000
     atom:   22    charge:    3.1196    magn:    0.0000    constr:    0.0000
     atom:   23    charge:    2.0903    magn:   -0.0000    constr:    0.0000
     atom:   24    charge:    2.0789    magn:   -0.0000    constr:    0.0000
     atom:   25    charge:    2.0869    magn:   -0.0000    constr:    0.0000
     atom:   26    charge:    3.1149    magn:    0.0000    constr:    0.0000
     atom:   27    charge:    2.0818    magn:   -0.0000    constr:    0.0000
     atom:   28    charge:    2.0884    magn:   -0.0000    constr:    0.0000
     atom:   29    charge:    2.0876    magn:   -0.0000    constr:    0.0000
     atom:   30    charge:    3.1182    magn:    0.0000    constr:    0.0000
     atom:   31    charge:    2.0828    magn:   -0.0000    constr:    0.0000
     atom:   32    charge:    2.0858    magn:   -0.0001    constr:    0.0000
     atom:   33    charge:    2.0622    magn:    0.0003    constr:    0.0000
     atom:   34    charge:    3.1239    magn:   -0.0001    constr:    0.0000
     atom:   35    charge:    2.0878    magn:   -0.0000    constr:    0.0000
     atom:   36    charge:    2.0846    magn:    0.0000    constr:    0.0000
     atom:   37    charge:    2.0846    magn:    0.0000    constr:    0.0000
     atom:   38    charge:    3.1196    magn:    0.0000    constr:    0.0000
     atom:   39    charge:    2.0910    magn:   -0.0000    constr:    0.0000
     atom:   40    charge:    2.0790    magn:   -0.0000    constr:    0.0000
     atom:   41    charge:    2.0869    magn:   -0.0000    constr:    0.0000
     atom:   42    charge:    3.1146    magn:    0.0000    constr:    0.0000
     atom:   43    charge:    2.0817    magn:   -0.0000    constr:    0.0000
     atom:   44    charge:    2.0857    magn:   -0.0000    constr:    0.0000
     atom:   45    charge:    2.0875    magn:   -0.0000    constr:    0.0000
     atom:   46    charge:    3.1236    magn:    0.0000    constr:    0.0000
     atom:   47    charge:    2.0838    magn:   -0.0000    constr:    0.0000
     atom:   48    charge:    2.0700    magn:   -0.0001    constr:    0.0000
     atom:   49    charge:    2.0455    magn:   -0.0001    constr:    0.0000

     total cpu time spent up to now is     1650.8 secs

     total energy              =   -3004.17579604 Ry
     Harris-Foulkes estimate   =   -3004.17590628 Ry
     estimated scf accuracy    <       0.00042455 Ry

     total magnetization       =     0.00 Bohr mag/cell
     absolute magnetization    =     0.00 Bohr mag/cell

     iteration #  6     ecut=    40.42 Ry     beta=0.10
     Davidson diagonalization with overlap
     ethr =  1.09E-07,  avg # of iterations =  2.0

     negative rho (up, down):  1.433E-02 1.433E-02
 
     Magnetic moment per site:
     atom:    1    charge:    3.1251    magn:   -0.0001    constr:    0.0000
     atom:    2    charge:    2.0895    magn:    0.0000    constr:    0.0000
     atom:    3    charge:    3.1196    magn:   -0.0000    constr:    0.0000
     atom:    4    charge:    2.0871    magn:   -0.0000    constr:    0.0000
     atom:    5    charge:    3.1167    magn:    0.0000    constr:    0.0000
     atom:    6    charge:    2.0890    magn:   -0.0000    constr:    0.0000
     atom:    7    charge:    3.1221    magn:    0.0000    constr:    0.0000
     atom:    8    charge:    2.0874    magn:   -0.0000    constr:    0.0000
     atom:    9    charge:    3.1251    magn:   -0.0001    constr:    0.0000
     atom:   10    charge:    2.0895    magn:    0.0000    constr:    0.0000
     atom:   11    charge:    3.1196    magn:   -0.0000    constr:    0.0000
     atom:   12    charge:    2.0871    magn:   -0.0000    constr:    0.0000
     atom:   13    charge:    3.1147    magn:    0.0000    constr:    0.0000
     atom:   14    charge:    2.0876    magn:   -0.0000    constr:    0.0000
     atom:   15    charge:    3.1180    magn:    0.0000    constr:    0.0000
     atom:   16    charge:    2.1007    magn:   -0.0001    constr:    0.0000
     atom:   17    charge:    2.0622    magn:    0.0002    constr:    0.0000
     atom:   18    charge:    3.1239    magn:   -0.0000    constr:    0.0000
     atom:   19    charge:    2.0877    magn:   -0.0000    constr:    0.0000
     atom:   20    charge:    2.0846    magn:    0.0000    constr:    0.0000
     atom:   21    charge:    2.0846    magn:    0.0000    constr:    0.0000
     atom:   22    charge:    3.1196    magn:    0.0000    constr:    0.0000
     atom:   23    charge:    2.0903    magn:   -0.0000    constr:    0.0000
     atom:   24    charge:    2.0789    magn:   -0.0000    constr:    0.0000
     atom:   25    charge:    2.0869    magn:   -0.0000    constr:    0.0000
     atom:   26    charge:    3.1149    magn:    0.0000    constr:    0.0000
     atom:   27    charge:    2.0818    magn:   -0.0000    constr:    0.0000
     atom:   28    charge:    2.0885    magn:   -0.0000    constr:    0.0000
     atom:   29    charge:    2.0876    magn:   -0.0000    constr:    0.0000
     atom:   30    charge:    3.1182    magn:    0.0000    constr:    0.0000
     atom:   31    charge:    2.0830    magn:   -0.0000    constr:    0.0000
     atom:   32    charge:    2.0863    magn:   -0.0000    constr:    0.0000
     atom:   33    charge:    2.0622    magn:    0.0002    constr:    0.0000
     atom:   34    charge:    3.1239    magn:   -0.0000    constr:    0.0000
     atom:   35    charge:    2.0877    magn:   -0.0000    constr:    0.0000
     atom:   36    charge:    2.0846    magn:    0.0000    constr:    0.0000
     atom:   37    charge:    2.0846    magn:    0.0000    constr:    0.0000
     atom:   38    charge:    3.1196    magn:    0.0000    constr:    0.0000
     atom:   39    charge:    2.0910    magn:   -0.0000    constr:    0.0000
     atom:   40    charge:    2.0790    magn:   -0.0000    constr:    0.0000
     atom:   41    charge:    2.0869    magn:   -0.0000    constr:    0.0000
     atom:   42    charge:    3.1146    magn:    0.0000    constr:    0.0000
     atom:   43    charge:    2.0818    magn:   -0.0000    constr:    0.0000
     atom:   44    charge:    2.0857    magn:   -0.0000    constr:    0.0000
     atom:   45    charge:    2.0874    magn:   -0.0000    constr:    0.0000
     atom:   46    charge:    3.1239    magn:    0.0000    constr:    0.0000
     atom:   47    charge:    2.0840    magn:   -0.0000    constr:    0.0000
     atom:   48    charge:    2.0702    magn:   -0.0000    constr:    0.0000
     atom:   49    charge:    2.0455    magn:   -0.0000    constr:    0.0000

     total cpu time spent up to now is     1842.3 secs

     total energy              =   -3004.17577754 Ry
     Harris-Foulkes estimate   =   -3004.17582453 Ry
     estimated scf accuracy    <       0.00015439 Ry

     total magnetization       =     0.00 Bohr mag/cell
     absolute magnetization    =     0.00 Bohr mag/cell

     iteration #  7     ecut=    40.42 Ry     beta=0.10
     Davidson diagonalization with overlap
     ethr =  3.96E-08,  avg # of iterations =  2.0

     negative rho (up, down):  1.433E-02 1.433E-02
 
     Magnetic moment per site:
     atom:    1    charge:    3.1251    magn:   -0.0001    constr:    0.0000
     atom:    2    charge:    2.0895    magn:    0.0000    constr:    0.0000
     atom:    3    charge:    3.1196    magn:   -0.0000    constr:    0.0000
     atom:    4    charge:    2.0871    magn:   -0.0000    constr:    0.0000
     atom:    5    charge:    3.1167    magn:    0.0000    constr:    0.0000
     atom:    6    charge:    2.0890    magn:   -0.0000    constr:    0.0000
     atom:    7    charge:    3.1219    magn:    0.0000    constr:    0.0000
     atom:    8    charge:    2.0873    magn:   -0.0000    constr:    0.0000
     atom:    9    charge:    3.1251    magn:   -0.0001    constr:    0.0000
     atom:   10    charge:    2.0894    magn:    0.0000    constr:    0.0000
     atom:   11    charge:    3.1196    magn:   -0.0000    constr:    0.0000
     atom:   12    charge:    2.0871    magn:   -0.0000    constr:    0.0000
     atom:   13    charge:    3.1147    magn:    0.0000    constr:    0.0000
     atom:   14    charge:    2.0876    magn:   -0.0000    constr:    0.0000
     atom:   15    charge:    3.1178    magn:    0.0000    constr:    0.0000
     atom:   16    charge:    2.1002    magn:   -0.0000    constr:    0.0000
     atom:   17    charge:    2.0622    magn:    0.0002    constr:    0.0000
     atom:   18    charge:    3.1239    magn:   -0.0000    constr:    0.0000
     atom:   19    charge:    2.0877    magn:   -0.0000    constr:    0.0000
     atom:   20    charge:    2.0846    magn:    0.0000    constr:    0.0000
     atom:   21    charge:    2.0846    magn:    0.0000    constr:    0.0000
     atom:   22    charge:    3.1196    magn:    0.0000    constr:    0.0000
     atom:   23    charge:    2.0903    magn:   -0.0000    constr:    0.0000
     atom:   24    charge:    2.0789    magn:   -0.0000    constr:    0.0000
     atom:   25    charge:    2.0869    magn:   -0.0000    constr:    0.0000
     atom:   26    charge:    3.1149    magn:    0.0000    constr:    0.0000
     atom:   27    charge:    2.0818    magn:   -0.0000    constr:    0.0000
     atom:   28    charge:    2.0885    magn:   -0.0000    constr:    0.0000
     atom:   29    charge:    2.0876    magn:   -0.0000    constr:    0.0000
     atom:   30    charge:    3.1182    magn:    0.0000    constr:    0.0000
     atom:   31    charge:    2.0831    magn:   -0.0000    constr:    0.0000
     atom:   32    charge:    2.0863    magn:   -0.0000    constr:    0.0000
     atom:   33    charge:    2.0622    magn:    0.0002    constr:    0.0000
     atom:   34    charge:    3.1239    magn:   -0.0000    constr:    0.0000
     atom:   35    charge:    2.0878    magn:   -0.0000    constr:    0.0000
     atom:   36    charge:    2.0846    magn:    0.0000    constr:    0.0000
     atom:   37    charge:    2.0846    magn:    0.0000    constr:    0.0000
     atom:   38    charge:    3.1196    magn:    0.0000    constr:    0.0000
     atom:   39    charge:    2.0910    magn:   -0.0000    constr:    0.0000
     atom:   40    charge:    2.0790    magn:   -0.0000    constr:    0.0000
     atom:   41    charge:    2.0869    magn:   -0.0000    constr:    0.0000
     atom:   42    charge:    3.1146    magn:    0.0000    constr:    0.0000
     atom:   43    charge:    2.0818    magn:   -0.0000    constr:    0.0000
     atom:   44    charge:    2.0857    magn:   -0.0000    constr:    0.0000
     atom:   45    charge:    2.0874    magn:   -0.0000    constr:    0.0000
     atom:   46    charge:    3.1241    magn:    0.0000    constr:    0.0000
     atom:   47    charge:    2.0841    magn:   -0.0000    constr:    0.0000
     atom:   48    charge:    2.0706    magn:   -0.0000    constr:    0.0000
     atom:   49    charge:    2.0455    magn:   -0.0000    constr:    0.0000

     total cpu time spent up to now is     2035.8 secs

     total energy              =   -3004.17578119 Ry
     Harris-Foulkes estimate   =   -3004.17578752 Ry
     estimated scf accuracy    <       0.00003244 Ry

     total magnetization       =     0.00 Bohr mag/cell
     absolute magnetization    =     0.00 Bohr mag/cell

     iteration #  8     ecut=    40.42 Ry     beta=0.10
     Davidson diagonalization with overlap
     ethr =  8.32E-09,  avg # of iterations =  2.0

     negative rho (up, down):  1.432E-02 1.432E-02
 
     Magnetic moment per site:
     atom:    1    charge:    3.1251    magn:   -0.0001    constr:    0.0000
     atom:    2    charge:    2.0895    magn:    0.0000    constr:    0.0000
     atom:    3    charge:    3.1196    magn:   -0.0000    constr:    0.0000
     atom:    4    charge:    2.0871    magn:   -0.0000    constr:    0.0000
     atom:    5    charge:    3.1167    magn:    0.0000    constr:    0.0000
     atom:    6    charge:    2.0890    magn:   -0.0000    constr:    0.0000
     atom:    7    charge:    3.1219    magn:    0.0000    constr:    0.0000
     atom:    8    charge:    2.0873    magn:   -0.0000    constr:    0.0000
     atom:    9    charge:    3.1251    magn:   -0.0001    constr:    0.0000
     atom:   10    charge:    2.0894    magn:    0.0000    constr:    0.0000
     atom:   11    charge:    3.1196    magn:   -0.0000    constr:    0.0000
     atom:   12    charge:    2.0871    magn:   -0.0000    constr:    0.0000
     atom:   13    charge:    3.1147    magn:    0.0000    constr:    0.0000
     atom:   14    charge:    2.0876    magn:   -0.0000    constr:    0.0000
     atom:   15    charge:    3.1177    magn:    0.0000    constr:    0.0000
     atom:   16    charge:    2.1002    magn:   -0.0000    constr:    0.0000
     atom:   17    charge:    2.0622    magn:    0.0002    constr:    0.0000
     atom:   18    charge:    3.1239    magn:   -0.0000    constr:    0.0000
     atom:   19    charge:    2.0877    magn:   -0.0000    constr:    0.0000
     atom:   20    charge:    2.0846    magn:    0.0000    constr:    0.0000
     atom:   21    charge:    2.0846    magn:    0.0000    constr:    0.0000
     atom:   22    charge:    3.1196    magn:    0.0000    constr:    0.0000
     atom:   23    charge:    2.0903    magn:   -0.0000    constr:    0.0000
     atom:   24    charge:    2.0789    magn:   -0.0000    constr:    0.0000
     atom:   25    charge:    2.0869    magn:   -0.0000    constr:    0.0000
     atom:   26    charge:    3.1149    magn:    0.0000    constr:    0.0000
     atom:   27    charge:    2.0818    magn:   -0.0000    constr:    0.0000
     atom:   28    charge:    2.0885    magn:   -0.0000    constr:    0.0000
     atom:   29    charge:    2.0876    magn:   -0.0000    constr:    0.0000
     atom:   30    charge:    3.1182    magn:    0.0000    constr:    0.0000
     atom:   31    charge:    2.0832    magn:   -0.0000    constr:    0.0000
     atom:   32    charge:    2.0862    magn:   -0.0000    constr:    0.0000
     atom:   33    charge:    2.0622    magn:    0.0002    constr:    0.0000
     atom:   34    charge:    3.1239    magn:   -0.0000    constr:    0.0000
     atom:   35    charge:    2.0878    magn:   -0.0000    constr:    0.0000
     atom:   36    charge:    2.0846    magn:    0.0000    constr:    0.0000
     atom:   37    charge:    2.0846    magn:    0.0000    constr:    0.0000
     atom:   38    charge:    3.1196    magn:    0.0000    constr:    0.0000
     atom:   39    charge:    2.0910    magn:   -0.0000    constr:    0.0000
     atom:   40    charge:    2.0790    magn:   -0.0000    constr:    0.0000
     atom:   41    charge:    2.0869    magn:   -0.0000    constr:    0.0000
     atom:   42    charge:    3.1146    magn:    0.0000    constr:    0.0000
     atom:   43    charge:    2.0818    magn:   -0.0000    constr:    0.0000
     atom:   44    charge:    2.0857    magn:   -0.0000    constr:    0.0000
     atom:   45    charge:    2.0874    magn:   -0.0000    constr:    0.0000
     atom:   46    charge:    3.1241    magn:    0.0000    constr:    0.0000
     atom:   47    charge:    2.0842    magn:   -0.0000    constr:    0.0000
     atom:   48    charge:    2.0706    magn:   -0.0000    constr:    0.0000
     atom:   49    charge:    2.0456    magn:   -0.0000    constr:    0.0000

     total cpu time spent up to now is     2228.6 secs

     total energy              =   -3004.17578428 Ry
     Harris-Foulkes estimate   =   -3004.17578382 Ry
     estimated scf accuracy    <       0.00000774 Ry

     total magnetization       =     0.00 Bohr mag/cell
     absolute magnetization    =     0.00 Bohr mag/cell

     iteration #  9     ecut=    40.42 Ry     beta=0.10
     Davidson diagonalization with overlap
     ethr =  1.99E-09,  avg # of iterations =  2.0

     negative rho (up, down):  1.432E-02 1.432E-02
 
     Magnetic moment per site:
     atom:    1    charge:    3.1251    magn:   -0.0001    constr:    0.0000
     atom:    2    charge:    2.0895    magn:    0.0000    constr:    0.0000
     atom:    3    charge:    3.1196    magn:   -0.0000    constr:    0.0000
     atom:    4    charge:    2.0871    magn:   -0.0000    constr:    0.0000
     atom:    5    charge:    3.1167    magn:    0.0000    constr:    0.0000
     atom:    6    charge:    2.0890    magn:   -0.0000    constr:    0.0000
     atom:    7    charge:    3.1218    magn:    0.0000    constr:    0.0000
     atom:    8    charge:    2.0874    magn:   -0.0000    constr:    0.0000
     atom:    9    charge:    3.1251    magn:   -0.0001    constr:    0.0000
     atom:   10    charge:    2.0894    magn:    0.0000    constr:    0.0000
     atom:   11    charge:    3.1196    magn:   -0.0000    constr:    0.0000
     atom:   12    charge:    2.0870    magn:   -0.0000    constr:    0.0000
     atom:   13    charge:    3.1147    magn:    0.0000    constr:    0.0000
     atom:   14    charge:    2.0876    magn:   -0.0000    constr:    0.0000
     atom:   15    charge:    3.1177    magn:    0.0000    constr:    0.0000
     atom:   16    charge:    2.1002    magn:   -0.0000    constr:    0.0000
     atom:   17    charge:    2.0622    magn:    0.0001    constr:    0.0000
     atom:   18    charge:    3.1239    magn:   -0.0000    constr:    0.0000
     atom:   19    charge:    2.0877    magn:   -0.0000    constr:    0.0000
     atom:   20    charge:    2.0846    magn:    0.0000    constr:    0.0000
     atom:   21    charge:    2.0846    magn:    0.0000    constr:    0.0000
     atom:   22    charge:    3.1196    magn:    0.0000    constr:    0.0000
     atom:   23    charge:    2.0903    magn:   -0.0000    constr:    0.0000
     atom:   24    charge:    2.0789    magn:   -0.0000    constr:    0.0000
     atom:   25    charge:    2.0869    magn:   -0.0000    constr:    0.0000
     atom:   26    charge:    3.1149    magn:    0.0000    constr:    0.0000
     atom:   27    charge:    2.0818    magn:   -0.0000    constr:    0.0000
     atom:   28    charge:    2.0885    magn:   -0.0000    constr:    0.0000
     atom:   29    charge:    2.0876    magn:   -0.0000    constr:    0.0000
     atom:   30    charge:    3.1182    magn:    0.0000    constr:    0.0000
     atom:   31    charge:    2.0832    magn:   -0.0000    constr:    0.0000
     atom:   32    charge:    2.0862    magn:   -0.0000    constr:    0.0000
     atom:   33    charge:    2.0622    magn:    0.0001    constr:    0.0000
     atom:   34    charge:    3.1239    magn:   -0.0000    constr:    0.0000
     atom:   35    charge:    2.0878    magn:   -0.0000    constr:    0.0000
     atom:   36    charge:    2.0846    magn:    0.0000    constr:    0.0000
     atom:   37    charge:    2.0846    magn:    0.0000    constr:    0.0000
     atom:   38    charge:    3.1196    magn:    0.0000    constr:    0.0000
     atom:   39    charge:    2.0910    magn:   -0.0000    constr:    0.0000
     atom:   40    charge:    2.0790    magn:   -0.0000    constr:    0.0000
     atom:   41    charge:    2.0869    magn:   -0.0000    constr:    0.0000
     atom:   42    charge:    3.1146    magn:    0.0000    constr:    0.0000
     atom:   43    charge:    2.0817    magn:   -0.0000    constr:    0.0000
     atom:   44    charge:    2.0857    magn:   -0.0000    constr:    0.0000
     atom:   45    charge:    2.0874    magn:   -0.0000    constr:    0.0000
     atom:   46    charge:    3.1241    magn:    0.0000    constr:    0.0000
     atom:   47    charge:    2.0842    magn:   -0.0000    constr:    0.0000
     atom:   48    charge:    2.0707    magn:   -0.0000    constr:    0.0000
     atom:   49    charge:    2.0457    magn:   -0.0000    constr:    0.0000

     total cpu time spent up to now is     2418.8 secs

     total energy              =   -3004.17578506 Ry
     Harris-Foulkes estimate   =   -3004.17578472 Ry
     estimated scf accuracy    <       0.00000357 Ry

     total magnetization       =     0.00 Bohr mag/cell
     absolute magnetization    =     0.00 Bohr mag/cell

     iteration # 10     ecut=    40.42 Ry     beta=0.10
     Davidson diagonalization with overlap
     ethr =  9.15E-10,  avg # of iterations =  2.0

     negative rho (up, down):  1.432E-02 1.432E-02
 
     Magnetic moment per site:
     atom:    1    charge:    3.1251    magn:   -0.0000    constr:    0.0000
     atom:    2    charge:    2.0895    magn:    0.0000    constr:    0.0000
     atom:    3    charge:    3.1196    magn:   -0.0000    constr:    0.0000
     atom:    4    charge:    2.0871    magn:   -0.0000    constr:    0.0000
     atom:    5    charge:    3.1167    magn:    0.0000    constr:    0.0000
     atom:    6    charge:    2.0889    magn:   -0.0000    constr:    0.0000
     atom:    7    charge:    3.1218    magn:    0.0000    constr:    0.0000
     atom:    8    charge:    2.0874    magn:   -0.0000    constr:    0.0000
     atom:    9    charge:    3.1251    magn:   -0.0000    constr:    0.0000
     atom:   10    charge:    2.0894    magn:    0.0000    constr:    0.0000
     atom:   11    charge:    3.1196    magn:   -0.0000    constr:    0.0000
     atom:   12    charge:    2.0870    magn:   -0.0000    constr:    0.0000
     atom:   13    charge:    3.1147    magn:    0.0000    constr:    0.0000
     atom:   14    charge:    2.0876    magn:   -0.0000    constr:    0.0000
     atom:   15    charge:    3.1177    magn:    0.0000    constr:    0.0000
     atom:   16    charge:    2.1002    magn:   -0.0000    constr:    0.0000
     atom:   17    charge:    2.0622    magn:    0.0001    constr:    0.0000
     atom:   18    charge:    3.1239    magn:   -0.0000    constr:    0.0000
     atom:   19    charge:    2.0877    magn:   -0.0000    constr:    0.0000
     atom:   20    charge:    2.0846    magn:    0.0000    constr:    0.0000
     atom:   21    charge:    2.0846    magn:    0.0000    constr:    0.0000
     atom:   22    charge:    3.1196    magn:    0.0000    constr:    0.0000
     atom:   23    charge:    2.0903    magn:   -0.0000    constr:    0.0000
     atom:   24    charge:    2.0789    magn:   -0.0000    constr:    0.0000
     atom:   25    charge:    2.0869    magn:   -0.0000    constr:    0.0000
     atom:   26    charge:    3.1149    magn:    0.0000    constr:    0.0000
     atom:   27    charge:    2.0818    magn:   -0.0000    constr:    0.0000
     atom:   28    charge:    2.0885    magn:   -0.0000    constr:    0.0000
     atom:   29    charge:    2.0876    magn:   -0.0000    constr:    0.0000
     atom:   30    charge:    3.1182    magn:    0.0000    constr:    0.0000
     atom:   31    charge:    2.0832    magn:   -0.0000    constr:    0.0000
     atom:   32    charge:    2.0861    magn:   -0.0000    constr:    0.0000
     atom:   33    charge:    2.0622    magn:    0.0001    constr:    0.0000
     atom:   34    charge:    3.1239    magn:   -0.0000    constr:    0.0000
     atom:   35    charge:    2.0878    magn:   -0.0000    constr:    0.0000
     atom:   36    charge:    2.0846    magn:    0.0000    constr:    0.0000
     atom:   37    charge:    2.0846    magn:    0.0000    constr:    0.0000
     atom:   38    charge:    3.1196    magn:    0.0000    constr:    0.0000
     atom:   39    charge:    2.0910    magn:   -0.0000    constr:    0.0000
     atom:   40    charge:    2.0790    magn:   -0.0000    constr:    0.0000
     atom:   41    charge:    2.0869    magn:   -0.0000    constr:    0.0000
     atom:   42    charge:    3.1146    magn:    0.0000    constr:    0.0000
     atom:   43    charge:    2.0817    magn:   -0.0000    constr:    0.0000
     atom:   44    charge:    2.0857    magn:   -0.0000    constr:    0.0000
     atom:   45    charge:    2.0874    magn:   -0.0000    constr:    0.0000
     atom:   46    charge:    3.1241    magn:    0.0000    constr:    0.0000
     atom:   47    charge:    2.0842    magn:   -0.0000    constr:    0.0000
     atom:   48    charge:    2.0707    magn:   -0.0000    constr:    0.0000
     atom:   49    charge:    2.0457    magn:   -0.0000    constr:    0.0000

     total cpu time spent up to now is     2609.5 secs

     total energy              =   -3004.17578587 Ry
     Harris-Foulkes estimate   =   -3004.17578530 Ry
     estimated scf accuracy    <       0.00000117 Ry

     total magnetization       =     0.00 Bohr mag/cell
     absolute magnetization    =     0.00 Bohr mag/cell

     iteration # 11     ecut=    40.42 Ry     beta=0.10
     Davidson diagonalization with overlap
     ethr =  3.00E-10,  avg # of iterations =  2.0

     negative rho (up, down):  1.431E-02 1.431E-02
 
     Magnetic moment per site:
     atom:    1    charge:    3.1251    magn:   -0.0000    constr:    0.0000
     atom:    2    charge:    2.0895    magn:    0.0000    constr:    0.0000
     atom:    3    charge:    3.1196    magn:   -0.0000    constr:    0.0000
     atom:    4    charge:    2.0871    magn:   -0.0000    constr:    0.0000
     atom:    5    charge:    3.1167    magn:    0.0000    constr:    0.0000
     atom:    6    charge:    2.0890    magn:   -0.0000    constr:    0.0000
     atom:    7    charge:    3.1218    magn:    0.0000    constr:    0.0000
     atom:    8    charge:    2.0873    magn:   -0.0000    constr:    0.0000
     atom:    9    charge:    3.1251    magn:   -0.0000    constr:    0.0000
     atom:   10    charge:    2.0894    magn:    0.0000    constr:    0.0000
     atom:   11    charge:    3.1196    magn:   -0.0000    constr:    0.0000
     atom:   12    charge:    2.0871    magn:   -0.0000    constr:    0.0000
     atom:   13    charge:    3.1147    magn:    0.0000    constr:    0.0000
     atom:   14    charge:    2.0876    magn:   -0.0000    constr:    0.0000
     atom:   15    charge:    3.1177    magn:    0.0000    constr:    0.0000
     atom:   16    charge:    2.1002    magn:   -0.0000    constr:    0.0000
     atom:   17    charge:    2.0622    magn:    0.0001    constr:    0.0000
     atom:   18    charge:    3.1239    magn:   -0.0000    constr:    0.0000
     atom:   19    charge:    2.0877    magn:    0.0000    constr:    0.0000
     atom:   20    charge:    2.0846    magn:    0.0000    constr:    0.0000
     atom:   21    charge:    2.0846    magn:    0.0000    constr:    0.0000
     atom:   22    charge:    3.1196    magn:    0.0000    constr:    0.0000
     atom:   23    charge:    2.0903    magn:   -0.0000    constr:    0.0000
     atom:   24    charge:    2.0789    magn:   -0.0000    constr:    0.0000
     atom:   25    charge:    2.0869    magn:   -0.0000    constr:    0.0000
     atom:   26    charge:    3.1149    magn:    0.0000    constr:    0.0000
     atom:   27    charge:    2.0818    magn:   -0.0000    constr:    0.0000
     atom:   28    charge:    2.0885    magn:   -0.0000    constr:    0.0000
     atom:   29    charge:    2.0876    magn:   -0.0000    constr:    0.0000
     atom:   30    charge:    3.1182    magn:    0.0000    constr:    0.0000
     atom:   31    charge:    2.0832    magn:   -0.0000    constr:    0.0000
     atom:   32    charge:    2.0862    magn:   -0.0000    constr:    0.0000
     atom:   33    charge:    2.0622    magn:    0.0001    constr:    0.0000
     atom:   34    charge:    3.1239    magn:   -0.0000    constr:    0.0000
     atom:   35    charge:    2.0877    magn:    0.0000    constr:    0.0000
     atom:   36    charge:    2.0846    magn:    0.0000    constr:    0.0000
     atom:   37    charge:    2.0846    magn:    0.0000    constr:    0.0000
     atom:   38    charge:    3.1196    magn:    0.0000    constr:    0.0000
     atom:   39    charge:    2.0910    magn:   -0.0000    constr:    0.0000
     atom:   40    charge:    2.0790    magn:   -0.0000    constr:    0.0000
     atom:   41    charge:    2.0869    magn:   -0.0000    constr:    0.0000
     atom:   42    charge:    3.1146    magn:    0.0000    constr:    0.0000
     atom:   43    charge:    2.0817    magn:   -0.0000    constr:    0.0000
     atom:   44    charge:    2.0857    magn:   -0.0000    constr:    0.0000
     atom:   45    charge:    2.0874    magn:   -0.0000    constr:    0.0000
     atom:   46    charge:    3.1241    magn:    0.0000    constr:    0.0000
     atom:   47    charge:    2.0842    magn:   -0.0000    constr:    0.0000
     atom:   48    charge:    2.0707    magn:   -0.0000    constr:    0.0000
     atom:   49    charge:    2.0456    magn:   -0.0000    constr:    0.0000

     total cpu time spent up to now is     2804.2 secs

     End of self-consistent calculation

 ------ SPIN UP ------------


          k = 0.0000 0.0000 0.0000 ( 34665 PWs)   bands (ev):

   -58.2563 -58.2214 -58.0983 -58.0593 -57.9292 -57.8806 -57.7084 -57.6730
   -57.6522 -57.6169 -57.5765 -57.5402 -57.3929 -57.2363 -56.7030 -56.6677
   -34.6917 -34.6663 -34.5386 -34.5101 -34.4753 -34.4571 -34.4077 -34.3629
   -34.3607 -34.3151 -34.3019 -34.2929 -34.2221 -34.2038 -34.1979 -34.1455
   -34.1452 -34.1096 -34.1012 -34.0884 -34.0656 -33.9938 -33.9036 -33.8865
   -33.8703 -33.8604 -33.8594 -33.8394 -33.8250 -33.8212 -33.8106 -33.8084
   -33.7742 -33.7648 -33.7531 -33.7345 -33.7069 -33.6972 -33.6342 -33.6168
   -33.4663 -33.3955 -33.1214 -33.0552 -33.0291 -32.9257 -32.8339 -32.7253
   -22.6696 -18.6065 -18.4176 -18.3172 -18.0867 -17.9411 -17.8954 -17.8331
   -17.6574 -17.6195 -17.5497 -17.5306 -17.5096 -17.4645 -17.4375 -17.4032
   -17.3691 -17.3010 -17.2618 -17.1645 -17.1297 -17.0104 -17.0099 -16.9740
   -16.8612 -16.7729 -16.7499 -16.7291 -16.5960 -16.5688 -15.6279 -15.2825
   -15.1973  -6.9668  -6.5417  -6.3237  -5.9758  -5.9321  -5.7916  -5.7287
    -5.4646  -5.4187  -5.3885  -5.0950  -5.0420  -5.0017  -4.9755  -4.8949
    -4.8616  -4.7922  -4.7298  -4.6626  -4.6565  -4.6385  -4.5817  -4.5735
    -4.5309  -4.5148  -4.5022  -4.4335  -4.3462  -4.2992  -4.2468  -4.1951
    -4.1687  -4.1040  -4.0936  -4.0652  -4.0613  -3.9693  -3.9614  -3.9400
    -3.8466  -3.6490  -3.6050  -3.5495  -3.4730  -3.4328  -3.4225  -3.2901
    -3.1967  -3.1831  -3.1647  -3.1472  -3.0074  -2.9760  -2.9415  -2.9258
    -2.8643  -2.8266  -2.7929  -2.7709  -2.7618  -2.6919  -2.6756  -2.6062
    -2.5379  -2.4867  -2.4080  -2.3332  -2.2080  -2.1400  -2.1325  -2.0730
    -2.0531  -1.9978  -1.9285  -1.9017  -1.8867  -1.8809  -1.8268  -1.7781
    -1.7457  -1.7044  -1.6401  -1.6231  -1.6139  -1.5486  -1.5263  -1.3709
    -1.2430  -1.1961  -1.1574  -1.1398  -1.0452  -0.7824  -0.6517  -0.6382
    -0.4264  -0.3003  -0.2864   1.0861   1.1125   1.1780   1.3913   1.4456
     1.4521   1.5371   1.6222   1.6633   1.7803   1.8737   1.8874   1.9416
     1.9609   1.9754   2.0010   2.0639   2.0930   2.1004   2.1469   2.1532
     2.2446   2.2676   2.2931   2.3127   2.5062   2.5106   2.5519   2.5630
     2.5693   2.6178   2.6298   2.6414   2.6721   2.7076   2.7629   2.8387
     2.8448   2.8776   2.9090   2.9723   3.0530   3.0553   3.1702   3.4029
     3.5216   3.5270   3.6249   3.6401   3.6873   3.8328   4.0175   4.0382
     4.0902   4.2148   4.4946   4.5129   4.6189   4.6646   4.7748   4.9163
     4.9362   5.0170   5.1316   5.1841   5.2030   5.2416   5.2676   5.2713
     5.3159   5.4055   5.4926   5.5505   5.5904   5.6423   5.6800   5.7828
     5.9023   5.9847   6.0295   6.3614   6.4109   6.4646   6.5612   6.7460
     7.1832   7.8117   7.9744   8.3161   8.5696   8.5942   8.8174   8.8638
     8.9300   9.1869   9.2241   9.3148   9.3459   9.5769   9.6686

          k = 0.0000 0.0280 0.0000 ( 34717 PWs)   bands (ev):

   -58.2540 -58.2237 -58.0960 -58.0616 -57.9275 -57.8824 -57.7061 -57.6754
   -57.6498 -57.6193 -57.5742 -57.5425 -57.3923 -57.2369 -56.7006 -56.6700
   -34.6663 -34.6392 -34.5366 -34.5120 -34.4509 -34.4503 -34.4009 -34.3694
   -34.3572 -34.3289 -34.3191 -34.3018 -34.2488 -34.1948 -34.1780 -34.1425
   -34.1202 -34.1121 -34.0965 -34.0918 -34.0729 -33.9868 -33.8977 -33.8843
   -33.8820 -33.8622 -33.8378 -33.8355 -33.8344 -33.8223 -33.8195 -33.8148
   -33.7818 -33.7704 -33.7697 -33.7369 -33.7324 -33.6968 -33.6328 -33.6166
   -33.4696 -33.4219 -33.0957 -33.0535 -33.0310 -32.9196 -32.8402 -32.7528
   -22.6644 -18.5480 -18.3630 -18.2744 -18.0340 -17.8936 -17.8898 -17.8342
   -17.6323 -17.6298 -17.5892 -17.5607 -17.5511 -17.4757 -17.4478 -17.3566
   -17.3482 -17.2994 -17.2713 -17.1952 -17.1887 -17.0334 -16.9923 -16.9442
   -16.8908 -16.7909 -16.7593 -16.7318 -16.6224 -16.6140 -15.6286 -15.2922
   -15.2205  -6.9304  -6.5287  -6.3028  -5.8880  -5.8484  -5.7171  -5.6527
    -5.4422  -5.3523  -5.3393  -5.0744  -5.0532  -4.9764  -4.9481  -4.8880
    -4.8432  -4.8090  -4.7219  -4.7167  -4.6996  -4.6582  -4.6439  -4.6155
    -4.5919  -4.5406  -4.5058  -4.4856  -4.4267  -4.3795  -4.2947  -4.2532
    -4.1989  -4.1827  -4.1577  -4.0605  -4.0141  -3.9344  -3.9255  -3.8347
    -3.7721  -3.6004  -3.5506  -3.5098  -3.4459  -3.3595  -3.3294  -3.1869
    -3.1829  -3.1112  -3.0845  -3.0622  -3.0233  -3.0007  -2.9857  -2.8946
    -2.8610  -2.8520  -2.8313  -2.8146  -2.7287  -2.6946  -2.6096  -2.5759
    -2.4921  -2.4409  -2.3841  -2.3663  -2.3198  -2.2468  -2.1442  -2.1112
    -2.1098  -2.0607  -2.0422  -2.0040  -1.9484  -1.8692  -1.8530  -1.8495
    -1.7683  -1.7505  -1.7127  -1.6480  -1.6185  -1.5812  -1.4840  -1.3883
    -1.3490  -1.3096  -1.2507  -1.1837  -1.0753  -0.8282  -0.6994  -0.6373
    -0.4122  -0.3465  -0.3202   1.1678   1.2177   1.2256   1.4238   1.4467
     1.5389   1.5615   1.6484   1.7017   1.7707   1.8384   1.8672   1.9022
     1.9433   1.9947   2.0010   2.0480   2.0635   2.1033   2.1220   2.1778
     2.2540   2.2970   2.3680   2.4240   2.4319   2.4729   2.4938   2.5289
     2.5559   2.5724   2.6313   2.6669   2.7307   2.7606   2.8030   2.8446
     2.8715   2.9816   2.9946   3.0283   3.0840   3.0994   3.1371   3.3502
     3.4492   3.5634   3.6088   3.6340   3.7033   3.7642   3.9807   4.0516
     4.1426   4.3091   4.4899   4.5642   4.6937   4.6972   4.7793   4.9223
     4.9542   5.0714   5.0975   5.1308   5.1882   5.2040   5.2336   5.2540
     5.2954   5.3924   5.4949   5.5181   5.5765   5.5950   5.6196   5.6798
     5.9465   6.0178   6.0555   6.1917   6.3941   6.4058   6.6273   6.6839
     7.3004   7.6104   7.9741   8.0881   8.2302   8.7028   8.7357   8.8425
     8.9443   9.0297   9.2959   9.3388   9.4469   9.4989   9.7546

          k = 0.0000 0.0560 0.0000 ( 34721 PWs)   bands (ev):

   -58.2476 -58.2302 -58.0899 -58.0677 -57.9236 -57.8863 -57.6996 -57.6819
   -57.6435 -57.6257 -57.5681 -57.5486 -57.3912 -57.2380 -56.6942 -56.6765
   -34.5965 -34.5659 -34.5313 -34.5170 -34.4339 -34.4019 -34.3868 -34.3861
   -34.3828 -34.3547 -34.3390 -34.3272 -34.2968 -34.1959 -34.1528 -34.1356
   -34.1279 -34.1040 -34.1012 -34.0502 -34.0053 -33.9672 -33.9110 -33.9083
   -33.8835 -33.8767 -33.8669 -33.8545 -33.8325 -33.8317 -33.8193 -33.8162
   -33.7978 -33.7827 -33.7741 -33.7638 -33.7355 -33.6961 -33.6315 -33.6159
   -33.4982 -33.4670 -33.0487 -33.0357 -33.0249 -32.9030 -32.8571 -32.8269
   -22.6539 -18.3885 -18.2221 -18.1530 -17.9453 -17.8902 -17.8394 -17.7714
   -17.7615 -17.7236 -17.6183 -17.5994 -17.5064 -17.4885 -17.4603 -17.4238
   -17.3054 -17.2789 -17.2746 -17.2231 -17.1911 -17.0976 -16.9765 -16.9716
   -16.8794 -16.8229 -16.7832 -16.7493 -16.7347 -16.6689 -15.6301 -15.3096
   -15.2707  -6.8548  -6.5007  -6.2714  -5.6454  -5.6162  -5.5358  -5.5058
    -5.4382  -5.1478  -5.1399  -5.0846  -5.0364  -4.9804  -4.9579  -4.9460
    -4.9354  -4.8931  -4.8686  -4.8258  -4.7784  -4.7713  -4.7671  -4.6725
    -4.6397  -4.6180  -4.5093  -4.4940  -4.4568  -4.4043  -4.3684  -4.3060
    -4.1658  -4.1558  -4.0748  -3.9923  -3.9518  -3.8590  -3.8242  -3.7451
    -3.6723  -3.6075  -3.5123  -3.4515  -3.4283  -3.3923  -3.3456  -3.2505
    -3.1838  -3.1014  -3.0761  -3.0537  -2.9379  -2.9002  -2.8825  -2.8604
    -2.7818  -2.7697  -2.7478  -2.7128  -2.7037  -2.6667  -2.6189  -2.5911
    -2.4986  -2.4918  -2.4756  -2.4112  -2.3927  -2.3491  -2.2746  -2.2005
    -2.1807  -2.1239  -2.1108  -2.0705  -2.0071  -1.9882  -1.9415  -1.9226
    -1.8581  -1.8243  -1.7776  -1.7114  -1.7038  -1.6415  -1.6106  -1.5376
    -1.4487  -1.3568  -1.2872  -1.2177  -1.1869  -1.1387  -0.8765  -0.4568
    -0.4079  -0.3704  -0.3692   1.3048   1.3215   1.4682   1.5030   1.5332
     1.5520   1.6351   1.6846   1.7375   1.7652   1.7994   1.8188   1.8403
     1.8999   1.9410   1.9470   2.0372   2.1326   2.1929   2.2200   2.2309
     2.2469   2.2659   2.3412   2.3718   2.3831   2.4128   2.4831   2.5099
     2.5717   2.6185   2.6460   2.6784   2.7731   2.7777   2.8698   2.9225
     2.9746   3.0008   3.0523   3.1568   3.2072   3.2261   3.2661   3.3110
     3.3211   3.4848   3.5736   3.5829   3.6262   3.8040   3.8159   4.1011
     4.2745   4.4149   4.5709   4.6133   4.7732   4.8224   4.8497   4.9049
     4.9116   4.9738   5.0186   5.1683   5.1685   5.1833   5.1939   5.2718
     5.2909   5.3183   5.3667   5.3959   5.4589   5.5782   5.6037   5.7240
     5.8835   6.0021   6.0176   6.2326   6.2592   6.4139   6.5656   6.8977
     6.9543   7.2978   7.6632   7.8120   8.3022   8.3981   8.5817   8.9608
     9.0270   9.1145   9.2975   9.3833   9.6938   9.7569   9.8252

          k = 0.0000-0.0840 0.0000 ( 34678 PWs)   bands (ev):

   -58.2389 -58.2389 -58.0849 -58.0727 -57.9213 -57.8886 -57.6912 -57.6904
   -57.6360 -57.6332 -57.5626 -57.5543 -57.3907 -57.2386 -56.6854 -56.6853
   -34.5241 -34.5241 -34.5000 -34.5000 -34.4911 -34.4217 -34.4104 -34.4104
   -34.3626 -34.3559 -34.3350 -34.3256 -34.2806 -34.2605 -34.1633 -34.1345
   -34.1308 -34.1061 -34.0096 -34.0090 -33.9543 -33.9520 -33.9395 -33.9386
   -33.9159 -33.9047 -33.8744 -33.8734 -33.8567 -33.8545 -33.8179 -33.8152
   -33.8032 -33.7963 -33.7611 -33.7535 -33.7021 -33.6986 -33.6349 -33.6153
   -33.5461 -33.4725 -33.0422 -33.0422 -32.9269 -32.9268 -32.8800 -32.8800
   -22.6487 -18.2243 -18.1214 -18.0568 -17.9814 -17.9536 -17.9188 -17.7531
   -17.7378 -17.6395 -17.6214 -17.6189 -17.5869 -17.5816 -17.3929 -17.3928
   -17.3842 -17.3803 -17.1889 -17.1844 -17.0845 -17.0787 -17.0713 -17.0406
   -16.8593 -16.8564 -16.7828 -16.7811 -16.7398 -16.7277 -15.6310 -15.3075
   -15.3075  -6.8160  -6.4843  -6.2613  -5.5669  -5.3214  -5.3101  -5.2863
    -5.2860  -5.2396  -5.2314  -5.1901  -5.1858  -5.0838  -4.9717  -4.9551
    -4.9465  -4.9203  -4.8898  -4.8799  -4.8593  -4.8484  -4.7821  -4.6588
    -4.6313  -4.5987  -4.5454  -4.4918  -4.4717  -4.4011  -4.3814  -4.2887
    -4.1269  -4.0915  -4.0831  -3.9206  -3.9185  -3.8610  -3.7746  -3.6330
    -3.5757  -3.5584  -3.4331  -3.4130  -3.3943  -3.3297  -3.2992  -3.2972
    -3.2402  -3.1894  -3.1661  -3.1537  -3.0881  -3.0665  -3.0107  -2.9735
    -2.8979  -2.8074  -2.7357  -2.6922  -2.6155  -2.5488  -2.5317  -2.4500
    -2.4149  -2.3930  -2.3687  -2.3520  -2.3313  -2.3027  -2.2943  -2.2592
    -2.2439  -2.1951  -2.1292  -2.0685  -2.0670  -2.0005  -1.9981  -1.9914
    -1.9840  -1.8728  -1.8399  -1.7880  -1.6947  -1.6494  -1.6280  -1.5981
    -1.5486  -1.5297  -1.4307  -1.2123  -1.1976  -1.0567  -1.0516  -0.4071
    -0.4068  -0.3634  -0.3631   1.4209   1.4459   1.4677   1.5071   1.5618
     1.6339   1.6640   1.6641   1.7409   1.7440   1.7908   1.7909   1.8266
     1.9035   1.9818   1.9873   2.0362   2.0600   2.1502   2.1572   2.1933
     2.2792   2.2991   2.3557   2.3763   2.4229   2.4456   2.4541   2.5087
     2.5546   2.5772   2.6412   2.7666   2.8137   2.8721   2.8749   2.8777
     2.8918   3.1108   3.1204   3.2010   3.2154   3.2684   3.3060   3.3501
     3.3583   3.4936   3.5066   3.5654   3.5660   3.6465   3.8545   4.1198
     4.3558   4.4015   4.6219   4.6721   4.7851   4.8182   4.8605   4.9093
     4.9527   4.9527   5.0367   5.0636   5.0744   5.1814   5.2165   5.2677
     5.2683   5.2906   5.3852   5.4505   5.4756   5.4942   5.5959   5.6100
     5.9021   6.0049   6.0625   6.1019   6.4619   6.5160   6.5165   6.6807
     6.9744   7.0597   7.4842   7.5912   8.1779   8.2854   8.9378   9.0340
     9.2293   9.3188   9.4881   9.5507   9.5512   9.7491   9.7679

          k = 0.0253 0.0000 0.0000 ( 34707 PWs)   bands (ev):

   -58.2563 -58.2214 -58.0983 -58.0593 -57.9292 -57.8806 -57.7084 -57.6730
   -57.6522 -57.6169 -57.5765 -57.5402 -57.3929 -57.2364 -56.7030 -56.6677
   -34.6920 -34.6670 -34.5386 -34.5102 -34.4754 -34.4564 -34.4063 -34.3629
   -34.3606 -34.3151 -34.3020 -34.2931 -34.2222 -34.2053 -34.1980 -34.1458
   -34.1435 -34.1217 -34.1053 -34.0702 -34.0657 -33.9873 -33.9034 -33.8868
   -33.8700 -33.8605 -33.8592 -33.8433 -33.8289 -33.8222 -33.8105 -33.8084
   -33.7742 -33.7647 -33.7533 -33.7346 -33.7070 -33.6982 -33.6342 -33.6168
   -33.4664 -33.3956 -33.1213 -33.0563 -33.0286 -32.9257 -32.8340 -32.7254
   -22.6674 -18.5787 -18.3800 -18.2948 -18.0478 -17.9442 -17.8951 -17.8440
   -17.6975 -17.6770 -17.5832 -17.5485 -17.5093 -17.4667 -17.4644 -17.3989
   -17.3603 -17.3467 -17.2487 -17.1543 -17.0535 -17.0470 -17.0112 -16.9443
   -16.9045 -16.7618 -16.7492 -16.7307 -16.5949 -16.5688 -15.6216 -15.2813
   -15.1971  -6.8877  -6.5271  -6.3580  -5.9244  -5.8220  -5.6816  -5.6317
    -5.4533  -5.4110  -5.3359  -5.2251  -5.0790  -5.0389  -4.9956  -4.9663
    -4.8860  -4.8076  -4.7583  -4.6534  -4.6308  -4.6093  -4.5662  -4.5088
    -4.4990  -4.4722  -4.4170  -4.3924  -4.3055  -4.2916  -4.2741  -4.1743
    -4.1557  -4.1516  -4.0924  -4.0753  -4.0060  -3.9248  -3.9113  -3.8389
    -3.7299  -3.6427  -3.6338  -3.6088  -3.5342  -3.4519  -3.4299  -3.3544
    -3.2751  -3.2112  -3.1464  -3.1290  -3.0944  -3.0603  -2.9632  -2.9234
    -2.9208  -2.8338  -2.8156  -2.7640  -2.7431  -2.7294  -2.6496  -2.6327
    -2.5576  -2.4683  -2.3588  -2.2693  -2.2322  -2.1928  -2.1793  -2.1137
    -2.0980  -2.0517  -1.9959  -1.9376  -1.9313  -1.8801  -1.8668  -1.8041
    -1.7459  -1.7196  -1.6940  -1.6436  -1.5905  -1.5700  -1.4810  -1.4131
    -1.3913  -1.2931  -1.2192  -1.1176  -1.0585  -0.7769  -0.7168  -0.6287
    -0.4404  -0.3426  -0.3419   1.1002   1.1680   1.2800   1.4448   1.4565
     1.5304   1.5592   1.6775   1.7555   1.7940   1.8115   1.8560   1.9058
     1.9239   1.9687   1.9858   2.0246   2.0687   2.0781   2.1055   2.1805
     2.1962   2.2693   2.2922   2.3343   2.5177   2.5589   2.5644   2.5716
     2.6132   2.6201   2.6401   2.7161   2.7281   2.7853   2.8290   2.8582
     2.8935   2.9365   2.9804   3.0140   3.0381   3.0992   3.1625   3.3476
     3.4296   3.5676   3.6191   3.6441   3.7244   3.8180   3.9739   3.9900
     4.1768   4.2396   4.3128   4.3885   4.5098   4.5187   4.5628   4.7345
     5.0641   5.0855   5.1575   5.2485   5.2630   5.2786   5.3018   5.4035
     5.4848   5.5522   5.5896   5.5928   5.6296   5.6656   5.7125   5.8933
     5.9339   6.0267   6.0444   6.3594   6.3671   6.4685   6.6164   6.7458
     7.2453   7.7857   7.8421   8.0553   8.1175   8.3665   8.4207   8.9077
     8.9322   9.0858   9.1846   9.2834   9.5141   9.7875  10.0347

          k = 0.0253 0.0280 0.0000 ( 34687 PWs)   bands (ev):

   -58.2540 -58.2237 -58.0959 -58.0616 -57.9275 -57.8824 -57.7060 -57.6754
   -57.6499 -57.6193 -57.5742 -57.5425 -57.3923 -57.2369 -56.7006 -56.6700
   -34.6666 -34.6398 -34.5366 -34.5120 -34.4504 -34.4502 -34.3997 -34.3693
   -34.3571 -34.3290 -34.3191 -34.3017 -34.2489 -34.1948 -34.1796 -34.1405
   -34.1204 -34.1145 -34.1071 -34.0919 -34.0581 -33.9805 -33.8974 -33.8846
   -33.8802 -33.8622 -33.8407 -33.8388 -33.8342 -33.8249 -33.8201 -33.8148
   -33.7819 -33.7704 -33.7697 -33.7369 -33.7323 -33.6975 -33.6329 -33.6166
   -33.4696 -33.4219 -33.0956 -33.0544 -33.0304 -32.9196 -32.8402 -32.7527
   -22.6622 -18.5215 -18.3270 -18.2508 -17.9965 -17.8985 -17.8887 -17.8403
   -17.6816 -17.6532 -17.6373 -17.5881 -17.5320 -17.4762 -17.4329 -17.3887
   -17.3638 -17.3272 -17.2677 -17.2014 -17.0996 -17.0756 -16.9882 -16.9449
   -16.9115 -16.7806 -16.7597 -16.7316 -16.6226 -16.6130 -15.6225 -15.2912
   -15.2205  -6.8550  -6.5126  -6.3250  -5.8415  -5.7374  -5.6069  -5.5536
    -5.3845  -5.3388  -5.3344  -5.1706  -5.0831  -5.0036  -4.9666  -4.9113
    -4.8326  -4.7893  -4.7612  -4.7160  -4.6883  -4.6547  -4.6387  -4.5848
    -4.5434  -4.5333  -4.4656  -4.4149  -4.4010  -4.3737  -4.2931  -4.2381
    -4.1911  -4.1308  -4.1207  -4.0952  -3.9766  -3.9265  -3.8602  -3.8049
    -3.7504  -3.6377  -3.5572  -3.5298  -3.4868  -3.4093  -3.3378  -3.2368
    -3.2187  -3.1649  -3.1220  -3.0729  -3.0315  -3.0144  -3.0095  -2.9452
    -2.9219  -2.8687  -2.8287  -2.7809  -2.7496  -2.7223  -2.6481  -2.5711
    -2.5255  -2.4397  -2.4351  -2.3563  -2.3116  -2.2567  -2.1942  -2.1617
    -2.1548  -2.1237  -2.0803  -2.0301  -1.9692  -1.9431  -1.9235  -1.8597
    -1.8325  -1.7221  -1.6824  -1.6635  -1.6339  -1.5799  -1.4620  -1.4417
    -1.3560  -1.3168  -1.3132  -1.2416  -1.0684  -0.8410  -0.7455  -0.6315
    -0.4088  -0.3700  -0.3599   1.1610   1.2878   1.3096   1.4586   1.4822
     1.5359   1.6874   1.6965   1.7719   1.8005   1.8202   1.8602   1.8844
     1.9120   1.9506   1.9758   2.0132   2.0647   2.1039   2.1428   2.1658
     2.1927   2.2905   2.3871   2.4346   2.4502   2.4560   2.5136   2.5488
     2.5652   2.6418   2.6717   2.7391   2.7991   2.8081   2.8471   2.8880
     2.8973   2.9717   3.0131   3.0884   3.1042   3.1129   3.1692   3.3016
     3.3912   3.5813   3.6089   3.6203   3.7426   3.7485   3.9379   4.0087
     4.2160   4.3079   4.3634   4.4397   4.5143   4.5642   4.5880   4.7675
     4.9624   5.0937   5.1334   5.1932   5.2324   5.2530   5.3248   5.3306
     5.4771   5.5132   5.5401   5.5500   5.6067   5.6165   5.6761   5.8735
     5.9588   6.0375   6.1067   6.2016   6.3856   6.3992   6.6397   6.7227
     7.3582   7.6417   7.8779   7.9842   8.1882   8.2394   8.3688   8.5696
     8.9145   9.0427   9.2243   9.3349   9.4070   9.7812   9.8167

          k = 0.0253 0.0560 0.0000 ( 34699 PWs)   bands (ev):

   -58.2476 -58.2302 -58.0899 -58.0677 -57.9236 -57.8863 -57.6996 -57.6819
   -57.6435 -57.6257 -57.5682 -57.5486 -57.3912 -57.2380 -56.6942 -56.6765
   -34.5968 -34.5664 -34.5313 -34.5170 -34.4333 -34.4020 -34.3866 -34.3861
[...]
    -4.7303  -4.7165  -4.7114  -4.6632  -4.6543  -4.5862  -4.5850  -4.5839
    -4.5417  -4.5261  -4.4987  -4.4791  -4.4499  -4.4394  -4.4277  -4.3487
    -4.2632  -4.1863  -4.0661  -4.0516  -4.0376  -3.9791  -3.9545  -3.9405
    -3.9024  -3.9016  -3.6835  -3.6661  -3.5982  -3.5332  -3.4303  -3.4192
    -3.3764  -3.3520  -3.3103  -3.2250  -3.1834  -3.1168  -3.0999  -3.0687
    -3.0357  -2.9613  -2.9502  -2.9320  -2.9285  -2.9113  -2.8725  -2.8362
    -2.8047  -2.6989  -2.6972  -2.6003  -2.5922  -2.5742  -2.4883  -2.4739
    -2.3934  -2.2895  -2.2176  -2.0735  -2.0365  -1.9023  -1.8906  -1.8139
    -1.7648  -1.7430  -1.7375  -1.6830  -1.6127  -1.5812  -1.5630  -1.4997
    -1.4906  -1.3577  -1.1796  -1.1760  -1.1705  -1.1262  -0.9895  -0.4809
    -0.4809  -0.3388  -0.3384   1.5011   1.5329   1.5638   1.6005   1.6066
     1.6447   1.6475   1.7212   1.8356   1.8744   1.9309   1.9440   1.9976
     2.0103   2.0509   2.0701   2.1164   2.1260   2.1314   2.2231   2.2773
     2.3742   2.3837   2.4071   2.4451   2.4476   2.6030   2.6311   2.7005
     2.7037   2.8061   2.8112   2.8497   2.8549   2.9093   2.9207   2.9414
     2.9477   3.0703   3.0796   3.2362   3.2434   3.3336   3.3988   3.3995
     3.3997   3.5186   3.5294   3.5516   3.5517   3.7815   3.8394   4.0167
     4.1412   4.1455   4.2312   4.2313   4.2850   4.3162   4.3373   4.3395
     4.6654   4.6672   4.7904   4.8226   5.2007   5.2152   5.3588   5.3612
     5.4533   5.5860   5.7407   5.7423   5.7669   5.7864   6.0148   6.0760
     6.1167   6.1168   6.2903   6.2910   6.3911   6.3930   6.7667   7.2642
     7.5000   7.5781   7.6904   7.7242   7.8817   7.9047   7.9935   8.0884
     8.4236   8.4512   8.5681   8.6948   9.1804   9.2194   9.3225

          k =-0.0253 0.0280 0.0000 ( 34687 PWs)   bands (ev):

   -58.2541 -58.2238 -58.0959 -58.0616 -57.9275 -57.8823 -57.7060 -57.6754
   -57.6499 -57.6193 -57.5742 -57.5425 -57.3923 -57.2369 -56.7008 -56.6702
   -34.6667 -34.6398 -34.5367 -34.5121 -34.4504 -34.4503 -34.3996 -34.3693
   -34.3570 -34.3290 -34.3191 -34.3017 -34.2488 -34.1947 -34.1796 -34.1405
   -34.1204 -34.1145 -34.1070 -34.0918 -34.0580 -33.9805 -33.8974 -33.8846
   -33.8802 -33.8622 -33.8407 -33.8388 -33.8342 -33.8249 -33.8200 -33.8148
   -33.7819 -33.7704 -33.7697 -33.7369 -33.7323 -33.6975 -33.6329 -33.6166
   -33.4696 -33.4219 -33.0958 -33.0546 -33.0306 -32.9198 -32.8403 -32.7529
   -22.6623 -18.5215 -18.3270 -18.2509 -17.9964 -17.8992 -17.8879 -17.8402
   -17.6816 -17.6534 -17.6377 -17.5880 -17.5320 -17.4762 -17.4332 -17.3886
   -17.3639 -17.3270 -17.2676 -17.2008 -17.0996 -17.0758 -16.9883 -16.9449
   -16.9115 -16.7806 -16.7598 -16.7316 -16.6225 -16.6132 -15.6226 -15.2908
   -15.2201  -6.8551  -6.5128  -6.3262  -5.8412  -5.7374  -5.6068  -5.5536
    -5.3819  -5.3382  -5.3348  -5.1702  -5.0823  -5.0015  -4.9661  -4.9113
    -4.8325  -4.7877  -4.7630  -4.7194  -4.6897  -4.6548  -4.6416  -4.5856
    -4.5442  -4.5332  -4.4646  -4.4149  -4.4014  -4.3748  -4.2932  -4.2373
    -4.1914  -4.1300  -4.1207  -4.0920  -3.9783  -3.9253  -3.8626  -3.8033
    -3.7498  -3.6376  -3.5585  -3.5306  -3.4864  -3.4116  -3.3358  -3.2361
    -3.2189  -3.1636  -3.1227  -3.0718  -3.0305  -3.0135  -3.0060  -2.9456
    -2.9198  -2.8686  -2.8304  -2.7790  -2.7520  -2.7215  -2.6476  -2.5728
    -2.5274  -2.4399  -2.4368  -2.3571  -2.3142  -2.2567  -2.1957  -2.1606
    -2.1562  -2.1233  -2.0807  -2.0300  -1.9668  -1.9405  -1.9235  -1.8607
    -1.8292  -1.7248  -1.6797  -1.6629  -1.6384  -1.5816  -1.4641  -1.4403
    -1.3539  -1.3166  -1.3143  -1.2385  -1.0687  -0.8410  -0.7454  -0.6313
    -0.4087  -0.3697  -0.3596   1.1609   1.2878   1.3092   1.4585   1.4824
     1.5356   1.6883   1.6999   1.7731   1.7952   1.8164   1.8612   1.8854
     1.9169   1.9502   1.9758   2.0127   2.0624   2.1059   2.1414   2.1645
     2.1939   2.2938   2.3873   2.4339   2.4472   2.4566   2.5143   2.5481
     2.5640   2.6412   2.6734   2.7353   2.7997   2.8091   2.8480   2.8883
     2.8981   2.9722   3.0131   3.0881   3.1038   3.1123   3.1695   3.3012
     3.3920   3.5814   3.6075   3.6204   3.7438   3.7484   3.9377   4.0083
     4.2170   4.3079   4.3603   4.4432   4.5135   4.5627   4.5883   4.7669
     4.9652   5.0826   5.1406   5.1931   5.2323   5.2502   5.3260   5.3318
     5.4780   5.5165   5.5356   5.5520   5.6072   5.6166   5.6764   5.8735
     5.9582   6.0384   6.1063   6.2019   6.3856   6.3991   6.6397   6.7228
     7.3583   7.6417   7.8780   7.9844   8.1884   8.2394   8.3690   8.5695
     8.9145   9.0427   9.2242   9.3352   9.4072   9.7818   9.8163

          k =-0.0253 0.0560 0.0000 ( 34699 PWs)   bands (ev):

   -58.2477 -58.2302 -58.0898 -58.0677 -57.9236 -57.8863 -57.6996 -57.6819
   -57.6435 -57.6257 -57.5681 -57.5486 -57.3912 -57.2380 -56.6944 -56.6767
   -34.5969 -34.5663 -34.5314 -34.5171 -34.4334 -34.4021 -34.3866 -34.3862
   -34.3818 -34.3546 -34.3389 -34.3269 -34.2967 -34.1959 -34.1528 -34.1345
   -34.1281 -34.1059 -34.1035 -34.0506 -34.0006 -33.9622 -33.9119 -33.9044
   -33.8830 -33.8771 -33.8670 -33.8547 -33.8338 -33.8326 -33.8230 -33.8181
   -33.7979 -33.7834 -33.7741 -33.7638 -33.7356 -33.6965 -33.6316 -33.6160
   -33.4981 -33.4670 -33.0495 -33.0357 -33.0250 -32.9032 -32.8573 -32.8271
   -22.6520 -18.3658 -18.1920 -18.1244 -17.9473 -17.8596 -17.8353 -17.7785
   -17.7585 -17.7253 -17.6466 -17.6079 -17.5585 -17.4664 -17.4411 -17.4318
   -17.3366 -17.3280 -17.2635 -17.2148 -17.1729 -17.1339 -17.0163 -16.9685
   -16.8630 -16.8173 -16.7827 -16.7491 -16.7347 -16.6682 -15.6246 -15.3086
   -15.2705  -6.7901  -6.4804  -6.2736  -5.6141  -5.5035  -5.4435  -5.3978
    -5.3404  -5.1441  -5.1381  -5.0968  -5.0444  -4.9872  -4.9572  -4.9289
    -4.8914  -4.8512  -4.8349  -4.7815  -4.7767  -4.7266  -4.7105  -4.6469
    -4.6393  -4.5999  -4.5131  -4.4997  -4.4519  -4.3845  -4.3733  -4.3040
    -4.1921  -4.1722  -4.0570  -4.0201  -3.9171  -3.8829  -3.8459  -3.7694
    -3.6776  -3.6346  -3.5577  -3.4654  -3.4264  -3.4073  -3.3514  -3.2543
    -3.2167  -3.1441  -3.1031  -3.0722  -2.9965  -2.9828  -2.9278  -2.9142
    -2.8982  -2.8613  -2.7918  -2.7324  -2.7116  -2.7047  -2.6602  -2.6099
    -2.5441  -2.5196  -2.4826  -2.4524  -2.3893  -2.3824  -2.2971  -2.2702
    -2.2048  -2.1934  -2.1678  -2.1264  -2.0379  -2.0087  -1.9650  -1.9266
    -1.8460  -1.8124  -1.7681  -1.6961  -1.6862  -1.6191  -1.5955  -1.5263
    -1.4183  -1.3749  -1.3050  -1.2383  -1.1994  -1.0981  -0.8727  -0.4559
    -0.4205  -0.3927  -0.3658   1.3010   1.3744   1.4914   1.5266   1.5709
     1.6185   1.6559   1.7190   1.7406   1.8091   1.8277   1.8560   1.9017
     1.9458   1.9627   1.9791   2.0756   2.1100   2.1566   2.2054   2.2209
     2.2446   2.2607   2.3436   2.3623   2.3888   2.4383   2.4612   2.5063
     2.6344   2.6596   2.7122   2.7569   2.7850   2.8157   2.8720   2.9172
     2.9759   3.0147   3.0499   3.1712   3.2084   3.2297   3.2891   3.3122
     3.3342   3.4539   3.5553   3.5899   3.6603   3.7853   3.8301   4.0723
     4.3191   4.3820   4.4391   4.5781   4.6000   4.6452   4.6837   4.7657
     4.8210   4.9198   5.0041   5.0910   5.1562   5.2422   5.2658   5.2997
     5.3528   5.4342   5.4783   5.4990   5.5728   5.6173   5.7531   5.8289
     5.9240   6.0328   6.0484   6.2445   6.2759   6.4523   6.5766   6.9186
     7.0197   7.3651   7.7165   7.8921   8.2248   8.3655   8.4286   8.5950
     8.7357   8.9171   9.0434   9.3728   9.5238   9.5848   9.7560

          k =-0.0506 0.0280 0.0000 ( 34685 PWs)   bands (ev):

   -58.2541 -58.2238 -58.0959 -58.0616 -57.9275 -57.8823 -57.7059 -57.6754
   -57.6500 -57.6193 -57.5742 -57.5425 -57.3923 -57.2369 -56.7008 -56.6702
   -34.6674 -34.6411 -34.5367 -34.5121 -34.4506 -34.4489 -34.3971 -34.3693
   -34.3566 -34.3291 -34.3191 -34.3017 -34.2490 -34.1947 -34.1827 -34.1404
   -34.1214 -34.1210 -34.1099 -34.0918 -34.0411 -33.9658 -33.8968 -33.8852
   -33.8769 -33.8622 -33.8520 -33.8460 -33.8339 -33.8283 -33.8194 -33.8148
   -33.7822 -33.7704 -33.7699 -33.7368 -33.7321 -33.6991 -33.6330 -33.6166
   -33.4696 -33.4219 -33.0957 -33.0564 -33.0297 -32.9198 -32.8404 -32.7529
   -22.6579 -18.4625 -18.2454 -18.1924 -17.9388 -17.8993 -17.8715 -17.8452
   -17.7679 -17.7132 -17.6696 -17.6283 -17.5378 -17.4983 -17.4787 -17.4454
   -17.4089 -17.2992 -17.2891 -17.1659 -17.1266 -17.0276 -17.0084 -16.9757
   -16.8859 -16.7696 -16.7609 -16.7306 -16.6229 -16.6118 -15.6104 -15.2889
   -15.2201  -6.7086  -6.4554  -6.3685  -5.8126  -5.4488  -5.4094  -5.3432
    -5.2910  -5.2705  -5.2402  -5.2179  -5.1358  -5.0731  -5.0047  -4.9493
    -4.9042  -4.7727  -4.7221  -4.6730  -4.6274  -4.5992  -4.5770  -4.5653
    -4.5468  -4.4953  -4.4378  -4.3954  -4.3499  -4.3199  -4.2732  -4.2604
    -4.1902  -4.1707  -4.0418  -3.9953  -3.9266  -3.8564  -3.8332  -3.7942
    -3.7421  -3.6885  -3.5864  -3.5539  -3.5039  -3.4525  -3.3721  -3.3212
    -3.3082  -3.2539  -3.2338  -3.1621  -3.0983  -3.0862  -3.0363  -2.9876
    -2.9593  -2.9272  -2.9028  -2.8567  -2.8136  -2.7745  -2.6843  -2.6054
    -2.5650  -2.5407  -2.4920  -2.4319  -2.3879  -2.3641  -2.3222  -2.2889
    -2.1986  -2.1432  -2.1019  -2.0759  -2.0528  -1.9914  -1.9681  -1.8938
    -1.8400  -1.8046  -1.7023  -1.6516  -1.6365  -1.5379  -1.4665  -1.4369
    -1.3799  -1.3270  -1.2746  -1.2466  -1.0765  -0.8834  -0.8348  -0.6185
    -0.4393  -0.4088  -0.3953   1.1450   1.3474   1.3895   1.5006   1.5074
     1.5306   1.6018   1.6615   1.7440   1.7721   1.8276   1.9020   1.9334
     1.9718   1.9968   2.0218   2.0386   2.0712   2.1279   2.1839   2.2209
     2.2983   2.3458   2.3864   2.4682   2.4774   2.5383   2.5514   2.5759
     2.6115   2.6810   2.7348   2.7765   2.8217   2.8795   2.9002   2.9242
     2.9778   3.0591   3.0729   3.1086   3.1202   3.1914   3.2541   3.2810
     3.3232   3.4973   3.6101   3.6935   3.7259   3.7835   3.8664   3.9042
     4.1040   4.1512   4.2046   4.2297   4.3977   4.4662   4.5646   4.8008
     4.9128   5.0217   5.0558   5.1968   5.2541   5.2656   5.3009   5.4464
     5.4900   5.5453   5.5778   5.6769   5.8608   5.9018   5.9463   5.9813
     6.0827   6.1212   6.2621   6.2722   6.4090   6.4504   6.6117   6.8832
     7.1655   7.3397   7.6808   7.7040   7.7579   8.3144   8.4051   8.5649
     8.6590   9.0945   9.1758   9.4095   9.5083   9.6282   9.7661

          k =-0.0506 0.0560 0.0000 ( 34596 PWs)   bands (ev):

   -58.2477 -58.2302 -58.0898 -58.0677 -57.9236 -57.8863 -57.6995 -57.6818
   -57.6436 -57.6257 -57.5681 -57.5486 -57.3912 -57.2380 -56.6944 -56.6767
   -34.5974 -34.5674 -34.5314 -34.5171 -34.4322 -34.4022 -34.3863 -34.3862
   -34.3801 -34.3545 -34.3388 -34.3264 -34.2966 -34.1958 -34.1529 -34.1333
   -34.1282 -34.1092 -34.1065 -34.0514 -33.9920 -33.9497 -33.9155 -33.8962
   -33.8818 -33.8783 -33.8669 -33.8546 -33.8381 -33.8326 -33.8317 -33.8219
   -33.7981 -33.7849 -33.7740 -33.7638 -33.7356 -33.6973 -33.6318 -33.6161
   -33.4980 -33.4669 -33.0507 -33.0352 -33.0248 -32.9032 -32.8573 -32.8270
   -22.6480 -18.3150 -18.1255 -18.0514 -17.9477 -17.8290 -17.8189 -17.7813
   -17.7442 -17.7290 -17.6977 -17.6190 -17.6046 -17.5030 -17.4465 -17.4189
   -17.4173 -17.3569 -17.2632 -17.2354 -17.1783 -17.1441 -17.1025 -16.9535
   -16.8406 -16.8110 -16.7817 -16.7485 -16.7346 -16.6674 -15.6134 -15.3074
   -15.2709  -6.6713  -6.4065  -6.2747  -5.5959  -5.2688  -5.2180  -5.1853
    -5.1331  -5.1134  -5.0874  -5.0516  -5.0328  -4.9634  -4.8987  -4.8711
    -4.8630  -4.7873  -4.7714  -4.7137  -4.7062  -4.6693  -4.6516  -4.6229
    -4.5989  -4.5893  -4.5314  -4.4809  -4.4637  -4.4119  -4.3408  -4.2702
    -4.2177  -4.1872  -4.0989  -4.0192  -3.9520  -3.9131  -3.8462  -3.8134
    -3.6896  -3.6227  -3.5644  -3.5059  -3.4864  -3.4472  -3.3824  -3.3593
    -3.2975  -3.2663  -3.2322  -3.1912  -3.1161  -3.0897  -3.0508  -3.0007
    -2.9467  -2.9180  -2.8984  -2.8651  -2.8430  -2.7852  -2.7478  -2.7378
    -2.6962  -2.6758  -2.5702  -2.5333  -2.5128  -2.4694  -2.4388  -2.3715
    -2.3148  -2.2472  -2.1835  -2.0868  -2.0361  -1.9942  -1.9556  -1.8811
    -1.8770  -1.8142  -1.7330  -1.6639  -1.6257  -1.5578  -1.5294  -1.4685
    -1.3766  -1.3502  -1.2826  -1.2357  -1.2228  -1.0556  -0.9104  -0.4705
    -0.4345  -0.4181  -0.3604   1.3028   1.4245   1.5199   1.5220   1.6293
     1.6545   1.6886   1.7020   1.7573   1.8305   1.8504   1.9400   1.9794
     1.9960   2.0268   2.0421   2.0729   2.1398   2.1632   2.2126   2.2459
     2.2649   2.3450   2.4087   2.4371   2.4447   2.4783   2.5442   2.5629
     2.6934   2.7221   2.7676   2.7810   2.8483   2.8627   2.9022   2.9282
     2.9887   3.0591   3.0886   3.1812   3.2189   3.2679   3.3197   3.3525
     3.3679   3.3931   3.5526   3.5999   3.7232   3.7378   3.8328   3.9857
     4.1747   4.2421   4.2535   4.3064   4.4492   4.4764   4.5720   4.6731
     4.7149   4.7717   4.8755   5.0102   5.1483   5.2165   5.2789   5.3543
     5.4814   5.5256   5.6251   5.7596   5.7880   5.7949   5.8485   5.9967
     6.0737   6.0965   6.1720   6.2699   6.3505   6.4336   6.7616   6.9566
     7.1735   7.4491   7.6244   7.7322   8.0432   8.1038   8.1874   8.5293
     8.7116   8.7928   8.9082   9.0770   9.0945   9.4040   9.4764

     the Fermi energy is     0.4337 ev

!    total energy              =   -3004.17578965 Ry
     Harris-Foulkes estimate   =   -3004.17578599 Ry
     estimated scf accuracy    <       0.00000017 Ry

     The total energy is the sum of the following terms:

     one-electron contribution =  -42059.08518110 Ry
     hartree contribution      =   21091.91432994 Ry
     xc contribution           =    -546.24671095 Ry
     ewald contribution        =   18509.24201289 Ry
     smearing contrib. (-TS)   =      -0.00024043 Ry

     total magnetization       =     0.00 Bohr mag/cell
     absolute magnetization    =     0.00 Bohr mag/cell

     convergence has been achieved in  11 iterations

     Forces acting on atoms (Ry/au):


     negative rho (up, down):  1.431E-02 1.431E-02
     atom    1 type  1   force =    -0.00015570    0.00028836   -0.13694270
     atom    2 type  2   force =     0.00009889   -0.00013018    0.07530293
     atom    3 type  1   force =     0.00071100    0.00084643   -0.05924591
     atom    4 type  2   force =     0.00471300   -0.00032806    0.00929958
     atom    5 type  1   force =     0.00006178    0.00015498    0.00006375
     atom    6 type  2   force =    -0.00004001    0.00022631   -0.00156744
     atom    7 type  1   force =     0.00203745    0.00035634    0.00171868
     atom    8 type  2   force =    -0.00049698   -0.00013176   -0.00047168
     atom    9 type  1   force =    -0.00001584    0.00038516   -0.13698290
     atom   10 type  2   force =     0.00016719   -0.00023633    0.07532663
     atom   11 type  1   force =     0.00078039   -0.00091358   -0.05941784
     atom   12 type  2   force =     0.00435053   -0.00010296    0.00815163
     atom   13 type  1   force =    -0.00047505   -0.00060570    0.00000759
     atom   14 type  2   force =    -0.00011943   -0.00004145   -0.00008952
     atom   15 type  1   force =     0.00134206    0.00006820    0.00144017
     atom   16 type  2   force =     0.00472904    0.00078161    0.00228753
     atom   17 type  2   force =     0.00022924   -0.00005281    0.08101114
     atom   18 type  1   force =    -0.00015229    0.00028399    0.11716789
     atom   19 type  2   force =     0.00027181    0.00010713   -0.06541123
     atom   20 type  2   force =    -0.06317616   -0.00004645   -0.03167515
     atom   21 type  2   force =     0.06300317    0.00018105   -0.03165710
     atom   22 type  1   force =    -0.00059708    0.00003198    0.05922059
     atom   23 type  2   force =    -0.00015240    0.00028999   -0.00024336
     atom   24 type  2   force =     0.00059330   -0.00015136   -0.02271834
     atom   25 type  2   force =    -0.00453033   -0.00027959    0.00817904
     atom   26 type  1   force =    -0.00002395    0.00042846    0.00021009
     atom   27 type  2   force =     0.00039042   -0.00023874   -0.00052230
     atom   28 type  2   force =    -0.00112920   -0.00007393   -0.00015645
     atom   29 type  2   force =     0.00039503   -0.00017751   -0.00006342
     atom   30 type  1   force =    -0.00004042    0.00075140    0.00087387
     atom   31 type  2   force =     0.00055129   -0.00056569   -0.00050954
     atom   32 type  2   force =    -0.00000741   -0.00027780   -0.00041954
     atom   33 type  2   force =     0.00023609    0.00002057    0.08096726
     atom   34 type  1   force =    -0.00021472    0.00027265    0.11710408
     atom   35 type  2   force =     0.00031467    0.00018142   -0.06547517
     atom   36 type  2   force =    -0.06303965    0.00015700   -0.03186675
     atom   37 type  2   force =     0.06317381    0.00018740   -0.03157509
     atom   38 type  1   force =    -0.00045816   -0.00022690    0.05893914
     atom   39 type  2   force =     0.00009305   -0.00052093   -0.00071797
     atom   40 type  2   force =     0.00045088   -0.00228824   -0.02231838
     atom   41 type  2   force =    -0.00413165   -0.00028598    0.00762197
     atom   42 type  1   force =    -0.00028629   -0.00044904    0.00019979
     atom   43 type  2   force =     0.00039550    0.00022985   -0.00035078
     atom   44 type  2   force =     0.00037586    0.00016715   -0.00005637
     atom   45 type  2   force =    -0.00012999   -0.00013409   -0.00021147
     atom   46 type  1   force =    -0.00285556    0.00022934    0.00058128
     atom   47 type  2   force =     0.00038288    0.00076526   -0.00070146
     atom   48 type  2   force =     0.00609109    0.00077790   -0.00971340
     atom   49 type  2   force =    -0.01371113    0.00008918    0.00540659

     Total force =     0.365709     Total SCF correction =     0.001103
 !ASE

     Writing output data file calc.save
 
     init_run     :     54.80s CPU     69.17s WALL (       1 calls)
     electrons    :   2233.14s CPU   2735.05s WALL (       1 calls)
     forces       :     40.02s CPU     41.30s WALL (       1 calls)

     Called by init_run:
     wfcinit      :     47.65s CPU     61.29s WALL (       1 calls)
     potinit      :      1.28s CPU      1.56s WALL (       1 calls)

     Called by electrons:
     c_bands      :   1923.30s CPU   2341.41s WALL (      11 calls)
     sum_band     :    260.98s CPU    337.48s WALL (      11 calls)
     v_of_rho     :     12.12s CPU     15.43s WALL (      12 calls)
     newd         :     40.17s CPU     44.19s WALL (      12 calls)
     mix_rho      :      0.46s CPU      0.69s WALL (      11 calls)
     vdW_energy   :      2.22s CPU      2.79s WALL (      13 calls)
     vdW_ffts     :      3.15s CPU      4.26s WALL (      26 calls)
     vdW_v        :      1.30s CPU      1.55s WALL (      13 calls)

     Called by c_bands:
     init_us_2    :      6.19s CPU      6.87s WALL (     960 calls)
     cegterg      :   1882.12s CPU   2297.53s WALL (     440 calls)

     Called by *egterg:
     h_psi        :    807.65s CPU   1132.50s WALL (    2094 calls)
     s_psi        :     97.70s CPU    103.00s WALL (    2094 calls)
     g_psi        :      5.47s CPU      5.66s WALL (    1614 calls)
     cdiaghg      :    607.51s CPU    622.76s WALL (    2054 calls)

     Called by h_psi:
     add_vuspsi   :     98.33s CPU    102.90s WALL (    2094 calls)

     General routines
     calbec       :    151.26s CPU    155.84s WALL (    2574 calls)
     fft          :      7.54s CPU      9.74s WALL (    1029 calls)
     ffts         :      0.06s CPU      0.10s WALL (      46 calls)
     fftw         :    541.00s CPU    918.36s WALL (  770832 calls)
     interpolate  :      0.35s CPU      0.62s WALL (      46 calls)
     davcio       :      0.19s CPU      3.47s WALL (      40 calls)
 
     Parallel routines
     fft_scatter  :    298.18s CPU    507.01s WALL (  771907 calls)
 
     PWSCF        : 38m48.90s CPU    47m30.71s WALL

 
   This run was terminated on:  19:50:36  10Feb2018            

=------------------------------------------------------------------------------=
   JOB DONE.
=------------------------------------------------------------------------------=
